 Entering Gaussian System, Link 0=g09
 Input=/home/eluciano.iquir/wb9/73a_024.gjc
 Output=/home/eluciano.iquir/wb9/73a_024.log
 Initial command:
 /share/apps/Gaussian09/EM64T.SSE4.2-enabled/g09/l1.exe /tmp/Gau-57368.inp -scrdir=/tmp/
 Entering Link 1 = /share/apps/Gaussian09/EM64T.SSE4.2-enabled/g09/l1.exe PID=     57369.
  
 Copyright (c) 1988,1990,1992,1993,1995,1998,2003,2009,2011,
            Gaussian, Inc.  All Rights Reserved.
  
 This is part of the Gaussian(R) 09 program.  It is based on
 the Gaussian(R) 03 system (copyright 2003, Gaussian, Inc.),
 the Gaussian(R) 98 system (copyright 1998, Gaussian, Inc.),
 the Gaussian(R) 94 system (copyright 1995, Gaussian, Inc.),
 the Gaussian 92(TM) system (copyright 1992, Gaussian, Inc.),
 the Gaussian 90(TM) system (copyright 1990, Gaussian, Inc.),
 the Gaussian 88(TM) system (copyright 1988, Gaussian, Inc.),
 the Gaussian 86(TM) system (copyright 1986, Carnegie Mellon
 University), and the Gaussian 82(TM) system (copyright 1983,
 Carnegie Mellon University). Gaussian is a federally registered
 trademark of Gaussian, Inc.
  
 This software contains proprietary and confidential information,
 including trade secrets, belonging to Gaussian, Inc.
  
 This software is provided under written license and may be
 used, copied, transmitted, or stored only in accord with that
 written license.
  
 The following legend is applicable only to US Government
 contracts under FAR:
  
                    RESTRICTED RIGHTS LEGEND
  
 Use, reproduction and disclosure by the US Government is
 subject to restrictions as set forth in subparagraphs (a)
 and (c) of the Commercial Computer Software - Restricted
 Rights clause in FAR 52.227-19.
  
 Gaussian, Inc.
 340 Quinnipiac St., Bldg. 40, Wallingford CT 06492
  
  
 ---------------------------------------------------------------
 Warning -- This program may not be used in any manner that
 competes with the business of Gaussian, Inc. or will provide
 assistance to any competitor of Gaussian, Inc.  The licensee
 of this program is prohibited from giving any competitor of
 Gaussian, Inc. access to this program.  By using this program,
 the user acknowledges that Gaussian, Inc. is engaged in the
 business of creating and licensing software in the field of
 computational chemistry and represents and warrants to the
 licensee that it is not a competitor of Gaussian, Inc. and that
 it will not use this program in any manner prohibited above.
 ---------------------------------------------------------------
  

 Cite this work as:
 Gaussian 09, Revision C.01,
 M. J. Frisch, G. W. Trucks, H. B. Schlegel, G. E. Scuseria, 
 M. A. Robb, J. R. Cheeseman, G. Scalmani, V. Barone, B. Mennucci, 
 G. A. Petersson, H. Nakatsuji, M. Caricato, X. Li, H. P. Hratchian, 
 A. F. Izmaylov, J. Bloino, G. Zheng, J. L. Sonnenberg, M. Hada, 
 M. Ehara, K. Toyota, R. Fukuda, J. Hasegawa, M. Ishida, T. Nakajima, 
 Y. Honda, O. Kitao, H. Nakai, T. Vreven, J. A. Montgomery, Jr., 
 J. E. Peralta, F. Ogliaro, M. Bearpark, J. J. Heyd, E. Brothers, 
 K. N. Kudin, V. N. Staroverov, T. Keith, R. Kobayashi, J. Normand, 
 K. Raghavachari, A. Rendell, J. C. Burant, S. S. Iyengar, J. Tomasi, 
 M. Cossi, N. Rega, J. M. Millam, M. Klene, J. E. Knox, J. B. Cross, 
 V. Bakken, C. Adamo, J. Jaramillo, R. Gomperts, R. E. Stratmann, 
 O. Yazyev, A. J. Austin, R. Cammi, C. Pomelli, J. W. Ochterski, 
 R. L. Martin, K. Morokuma, V. G. Zakrzewski, G. A. Voth, 
 P. Salvador, J. J. Dannenberg, S. Dapprich, A. D. Daniels, 
 O. Farkas, J. B. Foresman, J. V. Ortiz, J. Cioslowski, 
 and D. J. Fox, Gaussian, Inc., Wallingford CT, 2010.
 
 ******************************************
 Gaussian 09:  EM64L-G09RevC.01 23-Sep-2011
                17-May-2022 
 ******************************************
 %nprocshared=4
 Will use up to    4 processors via shared memory.
 ----------------------------------------------------------------
 # wb97xd/6-31+g** scrf=(pcm,solvent=chloroform,smd,dovacuum) nmr
 ----------------------------------------------------------------
 1/38=1/1;
 2/12=2,17=6,18=5,40=1/2;
 3/5=1,6=6,7=111,11=2,16=1,25=1,30=1,70=32101,72=7,74=-58/1,2,8,3;
 4//1;
 5/5=2,38=5,53=7/2;
 8/6=1,10=90,11=11/1;
 10/13=100,45=16/2;
 6/7=2,8=2,9=2,10=2,28=1/1;
 99/9=1/99;
 -------
 comment
 -------
 Charge =  0 Multiplicity = 1
 Symbolic Z-Matrix:
 6                     1.88245   1.47206   1.12288 
 6                     2.79969   0.35017  -1.25435 
 6                     3.15997   0.91143   1.0609 
 6                     1.04036   1.47605  -0.00198 
 6                     1.52172   0.91077  -1.19317 
 6                     3.61733   0.34857  -0.12738 
 6                    -0.3538    2.06874   0.10346 
 6                    -1.4755    1.08063   0.48789 
 6                    -1.59085  -0.01008  -0.56081 
 8                    -1.60317  -1.25915  -0.03086 
 6                    -1.68569  -2.31564  -0.9951 
 8                    -0.68535   2.7854   -1.09102 
 6                    -1.31956   0.55282   1.9155 
 8                    -1.68023   0.23863  -1.76039 
 6                    -1.64862  -3.63667  -0.25218 
 1                     1.54908   1.91072   2.06122 
 1                     3.1575   -0.07983  -2.18636 
 1                     3.79932   0.91807   1.93985 
 1                     0.91071   0.9073   -2.09316 
 1                     4.61269  -0.08448  -0.17777 
 1                    -0.31836   2.84878   0.87498 
 1                    -2.43516   1.61442   0.44593 
 1                    -0.83623  -2.25509  -1.68474 
 1                    -2.62374  -2.23106  -1.55489 
 1                    -1.01287   2.13693  -1.74553 
 1                    -1.22463   1.37815   2.62883 
 1                    -2.1975   -0.0346    2.20728 
 1                    -0.44447  -0.09646   2.02185 
 1                    -0.72542  -3.7254    0.33005 
 1                    -1.70966  -4.47781  -0.9483 
 1                    -2.48001  -3.70338   0.45736 
 
                          Input orientation:                          
 ---------------------------------------------------------------------
 Center     Atomic      Atomic             Coordinates (Angstroms)
 Number     Number       Type             X           Y           Z
 ---------------------------------------------------------------------
      1          6           0        1.882454    1.472061    1.122876
      2          6           0        2.799692    0.350167   -1.254345
      3          6           0        3.159975    0.911433    1.060901
      4          6           0        1.040357    1.476053   -0.001976
      5          6           0        1.521721    0.910771   -1.193168
      6          6           0        3.617328    0.348571   -0.127382
      7          6           0       -0.353798    2.068744    0.103455
      8          6           0       -1.475498    1.080635    0.487894
      9          6           0       -1.590852   -0.010085   -0.560810
     10          8           0       -1.603171   -1.259151   -0.030855
     11          6           0       -1.685694   -2.315641   -0.995098
     12          8           0       -0.685347    2.785403   -1.091020
     13          6           0       -1.319565    0.552823    1.915496
     14          8           0       -1.680229    0.238626   -1.760387
     15          6           0       -1.648618   -3.636668   -0.252176
     16          1           0        1.549077    1.910717    2.061219
     17          1           0        3.157497   -0.079830   -2.186355
     18          1           0        3.799322    0.918071    1.939849
     19          1           0        0.910709    0.907297   -2.093163
     20          1           0        4.612695   -0.084480   -0.177774
     21          1           0       -0.318364    2.848776    0.874977
     22          1           0       -2.435164    1.614422    0.445934
     23          1           0       -0.836228   -2.255094   -1.684736
     24          1           0       -2.623741   -2.231062   -1.554891
     25          1           0       -1.012872    2.136931   -1.745531
     26          1           0       -1.224626    1.378147    2.628827
     27          1           0       -2.197501   -0.034603    2.207276
     28          1           0       -0.444474   -0.096458    2.021852
     29          1           0       -0.725418   -3.725396    0.330049
     30          1           0       -1.709663   -4.477805   -0.948300
     31          1           0       -2.480005   -3.703376    0.457362
 ---------------------------------------------------------------------
                    Distance matrix (angstroms):
                    1          2          3          4          5
     1  C    0.000000
     2  C    2.784089   0.000000
     3  C    1.396497   2.409395   0.000000
     4  C    1.405146   2.435427   2.437474   0.000000
     5  C    2.410236   1.396864   2.786521   1.403636   0.000000
     6  C    2.415609   1.392328   1.392122   2.815621   2.417341
     7  C    2.529045   3.839483   3.821344   1.518574   2.557285
     8  C    3.439805   4.673995   4.673818   2.593426   3.440661
     9  C    4.134659   4.459557   5.103871   3.073136   3.306957
    10  O    4.576045   4.844794   5.347048   3.804000   3.977999
    11  C    5.618201   5.224216   6.174273   4.774369   4.553732
    12  O    3.635905   4.254708   4.788426   2.424555   2.897556
    13  C    3.424349   5.201657   4.574408   3.177780   4.226680
    14  O    4.746290   4.509790   5.642685   3.467683   3.320542
    15  C    6.360687   6.056951   6.747737   5.782137   5.622785
    16  H    1.088139   3.871992   2.143408   2.168987   3.404656
    17  H    3.871061   1.086998   3.395185   3.416807   2.154872
    18  H    2.156092   3.394798   1.086903   3.419637   3.873411
    19  H    3.406780   2.140622   3.873929   2.171026   1.087813
    20  H    3.401283   2.152883   2.153266   3.902277   3.402304
    21  H    2.607757   4.527618   3.985813   2.121211   3.379201
    22  H    4.372680   5.647389   5.672561   3.506995   4.340359
    23  H    5.400518   4.493610   5.790946   4.502745   3.977972
    24  H    6.417893   6.013875   7.083009   5.438738   5.214098
    25  H    4.129494   4.239037   5.175959   2.773535   2.869274
    26  H    3.454077   5.686027   4.679844   3.472875   4.729536
    27  H    4.482409   6.091208   5.559830   4.200787   5.127316
    28  H    2.946693   4.632230   3.864107   2.961992   3.900870
    29  H    5.868826   5.616664   6.093489   5.503024   5.372510
    30  H    7.252171   6.613415   7.536190   6.626204   6.287969
    31  H    6.801404   6.872871   7.312325   6.279366   6.326801
                    6          7          8          9         10
     6  C    0.000000
     7  C    4.333835   0.000000
     8  C    5.181830   1.543491   0.000000
     9  C    5.238477   2.508602   1.517483   0.000000
    10  O    5.463304   3.557226   2.399999   1.356897   0.000000
    11  C    5.997750   4.712070   3.711892   2.348019   1.432741
    12  O    5.037833   1.431886   2.454291   2.985936   4.280744
    13  C    5.346774   2.552296   1.530015   2.553929   2.674316
    14  O    5.544628   2.929618   2.409494   1.228344   2.289225
    15  C    6.605141   5.861294   4.778140   3.640151   2.388229
    16  H    3.392336   2.734730   3.508909   4.519256   4.935738
    17  H    2.152752   4.710499   5.473841   5.019371   5.357325
    18  H    2.151952   4.684527   5.473420   6.014046   6.149056
    19  H    3.391498   2.788022   3.519359   3.073679   3.907198
    20  H    1.086658   5.420472   6.234316   6.215806   6.327592
    21  H    4.769216   1.097702   2.148282   3.442933   4.398445
    22  H    6.209970   2.157726   1.098930   2.089358   3.029349
    23  H    5.388746   4.703822   4.031882   2.621590   2.077360
    24  H    6.902408   5.137226   4.056941   2.643444   2.075780
    25  H    5.220670   1.964123   2.513558   2.519385   3.849926
    26  H    5.665795   2.759125   2.176016   3.497870   3.764645
    27  H    6.277715   3.499911   2.172859   2.833889   2.619538
    28  H    4.616871   2.894231   2.191252   2.826975   2.628315
    29  H    5.972093   5.810465   4.866771   3.917415   2.642549
    30  H    7.234960   6.767708   5.745759   4.486067   3.348550
    31  H    7.344227   6.161443   4.888428   3.932896   2.642240
                   11         12         13         14         15
    11  C    0.000000
    12  O    5.199092   0.000000
    13  C    4.102889   3.798129   0.000000
    14  O    2.666454   2.814945   3.706874   0.000000
    15  C    1.516054   6.547866   4.728522   4.158558   0.000000
    16  H    6.137339   3.961608   3.177140   5.275318   6.808123
    17  H    5.465752   4.916988   6.104877   4.866873   6.284177
    18  H    7.011149   5.725849   5.131959   6.646718   7.431734
    19  H    4.281867   2.660633   4.600991   2.696446   5.530552
    20  H    6.731701   6.094218   6.322945   6.496918   7.199139
    21  H    5.660210   2.000959   2.712283   3.951290   6.715730
    22  H    4.252490   2.606776   2.128653   2.707506   5.355367
    23  H    1.095837   5.077586   4.591262   2.633761   2.149640
    24  H    1.095652   5.397914   4.636214   2.651755   2.150269
    25  H    4.565221   0.977842   4.000822   2.012249   5.997393
    26  H    5.195141   4.013534   1.094995   4.557552   5.798993
    27  H    3.964882   4.595411   1.095891   4.010558   4.396027
    28  H    3.945553   4.248896   1.094834   3.993081   4.376557
    29  H    2.159989   6.664199   4.601066   4.582036   1.095060
    30  H    2.162803   7.336470   5.801787   4.785925   1.093539
    31  H    2.160180   6.908151   4.646290   4.593194   1.095034
                   16         17         18         19         20
    16  H    0.000000
    17  H    4.958950   0.000000
    18  H    2.462454   4.293403   0.000000
    19  H    4.321256   2.455843   4.960785   0.000000
    20  H    4.287150   2.480326   2.480123   4.284511   0.000000
    21  H    2.403011   5.479972   4.670858   3.753640   5.833319
    22  H    4.309422   6.409157   6.448682   4.259331   7.276509
    23  H    6.088994   4.575285   6.685426   3.635838   6.055845
    24  H    6.902391   6.200747   7.961532   4.757244   7.672696
    25  H    4.594138   4.743452   6.182625   2.309331   6.248162
    26  H    2.880840   6.671932   5.091798   5.203705   6.640075
    27  H    4.224033   6.926908   6.077910   5.389056   7.215935
    28  H    2.829232   5.539267   4.364149   4.447178   5.514839
    29  H    6.319498   5.890626   6.680308   5.478203   6.481481
    30  H    7.777520   6.675643   8.234428   6.097244   7.737391
    31  H    7.093935   7.204218   7.936340   6.265814   7.987878
                   21         22         23         24         25
    21  H    0.000000
    22  H    2.487679   0.000000
    23  H    5.733218   4.697818   0.000000
    24  H    6.084716   4.338964   1.792384   0.000000
    25  H    2.802878   2.664291   4.395996   4.659464   0.000000
    26  H    2.461717   2.507240   5.653151   5.699773   4.444728
    27  H    3.690535   2.424478   4.683098   4.377216   4.663002
    28  H    3.163168   3.061613   4.307200   4.700939   4.416365
    29  H    6.609264   5.608057   2.496683   3.064255   6.225555
    30  H    7.677164   6.291699   2.499134   2.500269   6.698943
    31  H    6.912148   5.317999   3.064002   2.497504   6.412051
                   26         27         28         29         30
    26  H    0.000000
    27  H    1.766368   0.000000
    28  H    1.775251   1.763891   0.000000
    29  H    5.619585   4.394652   4.013765   0.000000
    30  H    6.879192   5.471536   5.442307   1.780178   0.000000
    31  H    5.666844   4.074544   4.427287   1.759337   1.780183
                   31
    31  H    0.000000
 Stoichiometry    C12H16O3
 Framework group  C1[X(C12H16O3)]
 Deg. of freedom    87
 Full point group                 C1      NOp   1
 Largest Abelian subgroup         C1      NOp   1
 Largest concise Abelian subgroup C1      NOp   1
                         Standard orientation:                         
 ---------------------------------------------------------------------
 Center     Atomic      Atomic             Coordinates (Angstroms)
 Number     Number       Type             X           Y           Z
 ---------------------------------------------------------------------
      1          6           0       -2.340886   -0.021506    1.070137
      2          6           0       -2.215768    1.632220   -1.166085
      3          6           0       -3.054515    1.178654    1.046598
      4          6           0       -1.548449   -0.411900   -0.022598
      5          6           0       -1.501682    0.431890   -1.143323
      6          6           0       -2.989862    2.006305   -0.070906
      7          6           0       -0.762388   -1.709540    0.043027
      8          6           0        0.679265   -1.594026    0.582157
      9          6           0        1.498839   -0.683390   -0.313273
     10          8           0        2.172238    0.273490    0.373810
     11          6           0        2.937313    1.167854   -0.443210
     12          8           0       -0.786766   -2.374907   -1.224643
     13          6           0        0.716035   -1.204334    2.061256
     14          8           0        1.545480   -0.828933   -1.532072
     15          6           0        3.591037    2.192528    0.462940
     16          1           0       -2.411237   -0.654259    1.952589
     17          1           0       -2.170881    2.271553   -2.044039
     18          1           0       -3.664106    1.464986    1.899695
     19          1           0       -0.914941    0.161310   -2.018456
     20          1           0       -3.547822    2.938544   -0.091816
     21          1           0       -1.312267   -2.389999    0.706019
     22          1           0        1.159455   -2.578863    0.497539
     23          1           0        2.277648    1.673148   -1.157617
     24          1           0        3.707066    0.605844   -0.983653
     25          1           0       -0.085613   -1.980820   -1.780749
     26          1           0        0.097413   -1.881756    2.659103
     27          1           0        1.738879   -1.263704    2.450157
     28          1           0        0.364569   -0.180767    2.226921
     29          1           0        2.833577    2.747277    1.026557
     30          1           0        4.189437    2.900860   -0.116724
     31          1           0        4.237577    1.700916    1.197380
 ---------------------------------------------------------------------
 Rotational constants (GHZ):      0.7743497      0.4355767      0.3713773
 Standard basis: 6-31+G(d,p) (6D, 7F)
 There are   365 symmetry adapted basis functions of A   symmetry.
 Integral buffers will be    131072 words long.
 Raffenetti 2 integral format.
 Two-electron integral symmetry is turned on.
   365 basis functions,   592 primitive gaussians,   365 cartesian basis functions
    56 alpha electrons       56 beta electrons
       nuclear repulsion energy      1024.3323548735 Hartrees.
 NAtoms=   31 NActive=   31 NUniq=   31 SFac= 1.00D+00 NAtFMM=   60 NAOKFM=F Big=F
 Nuclear repulsion after empirical dispersion term =     1024.3106188767 Hartrees.
 ------------------------------------------------------------------------------
 Polarizable Continuum Model (PCM)
 =================================
 Model                : C-PCM.
 Atomic radii         : SMD-Coulomb.
 Polarization charges : Total charges.
 Charge compensation  : None.
 Solution method      : Matrix inversion.
 Cavity type          : VdW (van der Waals Surface) (Alpha=1.000).
 Cavity algorithm     : GePol (No added spheres)
                        Default sphere list used, NSphG=   31.
                        Lebedev-Laikov grids with approx.  5.0 points / Ang**2.
                        Smoothing algorithm: Karplus/York (Gamma=1.0000).
                        Polarization charges: spherical gaussians, with
                                              point-specific exponents (IZeta= 3).
                        Self-potential: point-specific (ISelfS= 7).
                        Self-field    : sphere-specific E.n sum rule (ISelfD= 2).
 Solvent              : Chloroform, Eps=   4.711300 Eps(inf)=   2.090627
 ------------------------------------------------------------------------------
 ------------------------------------------------------------------------------
 Atomic radii for non-electrostatic terms: SMD-CDS.
 ------------------------------------------------------------------------------
 Nuclear repulsion after PCM non-electrostatic terms =     1024.3039377093 Hartrees.
 One-electron integrals computed using PRISM.
 NBasis=   365 RedAO= T  NBF=   365
 NBsUse=   365 1.00D-06 NBFU=   365
 Harris functional with IExCor= 4639 diagonalized for initial guess.
 ExpMin= 4.38D-02 ExpMax= 5.48D+03 ExpMxC= 8.25D+02 IAcc=2 IRadAn=         4 AccDes= 0.00D+00
 HarFok:  IExCor= 4639 AccDes= 0.00D+00 IRadAn=         4 IDoV= 1
 ScaDFX=  1.000000  1.000000  1.000000  1.000000
 FoFCou: FMM=F IPFlag=           0 FMFlag=      100000 FMFlg1=           0
         NFxFlg=           0 DoJE=T BraDBF=F KetDBF=T FulRan=T
         Omega=  0.000000  0.000000  1.000000  0.000000  0.000000 ICntrl=     500 IOpCl=  0
         NMat0=    1 NMatS0=    1 NMatT0=    0 NMatD0=    1 NMtDS0=    0 NMtDT0=    0
         I1Cent=           4 NGrid=           0.
 Petite list used in FoFCou.
 Initial guess orbital symmetries:
       Occupied  (A) (A) (A) (A) (A) (A) (A) (A) (A) (A) (A) (A)
                 (A) (A) (A) (A) (A) (A) (A) (A) (A) (A) (A) (A)
                 (A) (A) (A) (A) (A) (A) (A) (A) (A) (A) (A) (A)
                 (A) (A) (A) (A) (A) (A) (A) (A) (A) (A) (A) (A)
                 (A) (A) (A) (A) (A) (A) (A) (A)
       Virtual   (A) (A) (A) (A) (A) (A) (A) (A) (A) (A) (A) (A)
                 (A) (A) (A) (A) (A) (A) (A) (A) (A) (A) (A) (A)
                 (A) (A) (A) (A) (A) (A) (A) (A) (A) (A) (A) (A)
                 (A) (A) (A) (A) (A) (A) (A) (A) (A) (A) (A) (A)
                 (A) (A) (A) (A) (A) (A) (A) (A) (A) (A) (A) (A)
                 (A) (A) (A) (A) (A) (A) (A) (A) (A) (A) (A) (A)
                 (A) (A) (A) (A) (A) (A) (A) (A) (A) (A) (A) (A)
                 (A) (A) (A) (A) (A) (A) (A) (A) (A) (A) (A) (A)
                 (A) (A) (A) (A) (A) (A) (A) (A) (A) (A) (A) (A)
                 (A) (A) (A) (A) (A) (A) (A) (A) (A) (A) (A) (A)
                 (A) (A) (A) (A) (A) (A) (A) (A) (A) (A) (A) (A)
                 (A) (A) (A) (A) (A) (A) (A) (A) (A) (A) (A) (A)
                 (A) (A) (A) (A) (A) (A) (A) (A) (A) (A) (A) (A)
                 (A) (A) (A) (A) (A) (A) (A) (A) (A) (A) (A) (A)
                 (A) (A) (A) (A) (A) (A) (A) (A) (A) (A) (A) (A)
                 (A) (A) (A) (A) (A) (A) (A) (A) (A) (A) (A) (A)
                 (A) (A) (A) (A) (A) (A) (A) (A) (A) (A) (A) (A)
                 (A) (A) (A) (A) (A) (A) (A) (A) (A) (A) (A) (A)
                 (A) (A) (A) (A) (A) (A) (A) (A) (A) (A) (A) (A)
                 (A) (A) (A) (A) (A) (A) (A) (A) (A) (A) (A) (A)
                 (A) (A) (A) (A) (A) (A) (A) (A) (A) (A) (A) (A)
                 (A) (A) (A) (A) (A) (A) (A) (A) (A) (A) (A) (A)
                 (A) (A) (A) (A) (A) (A) (A) (A) (A) (A) (A) (A)
                 (A) (A) (A) (A) (A) (A) (A) (A) (A) (A) (A) (A)
                 (A) (A) (A) (A) (A) (A) (A) (A) (A) (A) (A) (A)
                 (A) (A) (A) (A) (A) (A) (A) (A) (A)
 The electronic state of the initial guess is 1-A.
 Requested convergence on RMS density matrix=1.00D-08 within 128 cycles.
 Requested convergence on MAX density matrix=1.00D-06.
 Requested convergence on             energy=1.00D-06.
 No special actions if energy rises.
 FoFJK:  IHMeth= 1 ICntrl=     0 DoSepK=T KAlg= 1 I1Cent= 0 FoldK=F
 FoFJK:  IHMeth= 1 ICntrl=     0 DoSepK=T KAlg= 1 I1Cent= 0 FoldK=F
 FoFJK:  IHMeth= 1 ICntrl=     0 DoSepK=T KAlg= 1 I1Cent= 0 FoldK=F
 FoFJK:  IHMeth= 1 ICntrl=     0 DoSepK=T KAlg= 1 I1Cent= 0 FoldK=F
 FoFJK:  IHMeth= 1 ICntrl=     0 DoSepK=T KAlg= 1 I1Cent= 0 FoldK=F
 FoFJK:  IHMeth= 1 ICntrl=     0 DoSepK=T KAlg= 1 I1Cent= 0 FoldK=F
 FoFJK:  IHMeth= 1 ICntrl=     0 DoSepK=T KAlg= 1 I1Cent= 0 FoldK=F
 FoFJK:  IHMeth= 1 ICntrl=     0 DoSepK=T KAlg= 1 I1Cent= 0 FoldK=F
 FoFJK:  IHMeth= 1 ICntrl=     0 DoSepK=T KAlg= 1 I1Cent= 0 FoldK=F
 FoFJK:  IHMeth= 1 ICntrl=     0 DoSepK=T KAlg= 1 I1Cent= 0 FoldK=F
 FoFJK:  IHMeth= 1 ICntrl=     0 DoSepK=T KAlg= 1 I1Cent= 0 FoldK=F
 FoFJK:  IHMeth= 1 ICntrl=     0 DoSepK=T KAlg= 1 I1Cent= 0 FoldK=F
 FoFJK:  IHMeth= 1 ICntrl=     0 DoSepK=T KAlg= 1 I1Cent= 0 FoldK=F
 FoFJK:  IHMeth= 1 ICntrl=     0 DoSepK=T KAlg= 1 I1Cent= 0 FoldK=F
 FoFJK:  IHMeth= 1 ICntrl=     0 DoSepK=T KAlg= 1 I1Cent= 0 FoldK=F
 Error on total polarization charges =  0.03929
 SCF Done:  E(RwB97XD) =  -692.447700437     A.U. after   15 cycles
             Convg  =    0.8342D-08             -V/T =  2.0095
 SMD-CDS (non-electrostatic) energy       (kcal/mol) =      -4.19
 (included in total energy above)
 Range of M.O.s used for correlation:     1   365
 NBasis=   365 NAE=    56 NBE=    56 NFC=     0 NFV=     0
 NROrb=    365 NOA=    56 NOB=    56 NVA=   309 NVB=   309

 **** Warning!!: The largest alpha MO coefficient is  0.14382781D+03

 NEqPCM:  Using equilibrium solvation (IEInf=0, Eps=   4.7113, EpsInf=   2.0906)
          Differentiating once with respect to magnetic field using GIAOs.
          Electric field/nuclear overlap derivatives assumed to be zero.
 FoFCou: FMM=F IPFlag=           0 FMFlag=    10101102 FMFlg1=           0
         NFxFlg=    40000000 DoJE=F BraDBF=F KetDBF=T FulRan=T
         Omega=  0.000000  0.000000  1.000000  0.000000  0.000000 ICntrl=    6100 IOpCl=  0
         NMat0=    1 NMatS0=    1 NMatT0=    0 NMatD0=    1 NMtDS0=    0 NMtDT0=    0
         I1Cent=           7 NGrid=        2248.
 Symmetry not used in FoFCou.
 FoFJK:  IHMeth= 1 ICntrl=  6127 DoSepK=T KAlg= 1 I1Cent= 0 FoldK=F
 FoFJK:  IHMeth= 1 ICntrl=     0 DoSepK=T KAlg= 1 I1Cent= 0 FoldK=F
          There are     3 degrees of freedom in the 1st order CPHF.  IDoFFX=0.
      3 vectors produced by pass  0 Test12= 5.77D-13 3.33D-08 XBig12= 1.47D+02 2.20D+00.
 AX will form     3 AO Fock derivatives at one time.
 FoFJK:  IHMeth= 1 ICntrl=     0 DoSepK=T KAlg= 1 I1Cent= 0 FoldK=F
      3 vectors produced by pass  1 Test12= 5.77D-13 3.33D-08 XBig12= 9.13D-01 2.93D-01.
 FoFJK:  IHMeth= 1 ICntrl=     0 DoSepK=T KAlg= 1 I1Cent= 0 FoldK=F
      3 vectors produced by pass  2 Test12= 5.77D-13 3.33D-08 XBig12= 1.58D-02 5.38D-02.
 FoFJK:  IHMeth= 1 ICntrl=     0 DoSepK=T KAlg= 1 I1Cent= 0 FoldK=F
      3 vectors produced by pass  3 Test12= 5.77D-13 3.33D-08 XBig12= 2.50D-04 4.36D-03.
 FoFJK:  IHMeth= 1 ICntrl=     0 DoSepK=T KAlg= 1 I1Cent= 0 FoldK=F
      3 vectors produced by pass  4 Test12= 5.77D-13 3.33D-08 XBig12= 4.45D-06 4.83D-04.
 FoFJK:  IHMeth= 1 ICntrl=     0 DoSepK=T KAlg= 1 I1Cent= 0 FoldK=F
      3 vectors produced by pass  5 Test12= 5.77D-13 3.33D-08 XBig12= 7.98D-08 6.90D-05.
 FoFJK:  IHMeth= 1 ICntrl=     0 DoSepK=T KAlg= 1 I1Cent= 0 FoldK=F
      3 vectors produced by pass  6 Test12= 5.77D-13 3.33D-08 XBig12= 9.68D-10 5.94D-06.
 FoFJK:  IHMeth= 1 ICntrl=     0 DoSepK=T KAlg= 1 I1Cent= 0 FoldK=F
      3 vectors produced by pass  7 Test12= 5.77D-13 3.33D-08 XBig12= 1.06D-11 9.48D-07.
 FoFJK:  IHMeth= 1 ICntrl=     0 DoSepK=T KAlg= 1 I1Cent= 0 FoldK=F
      3 vectors produced by pass  8 Test12= 5.77D-13 3.33D-08 XBig12= 1.28D-13 8.35D-08.
 FoFJK:  IHMeth= 1 ICntrl=     0 DoSepK=T KAlg= 1 I1Cent= 0 FoldK=F
 Inverted reduced A of dimension    27 with in-core refinement.
 Calculating GIAO nuclear magnetic shielding tensors.
 SCF GIAO Magnetic shielding tensor (ppm):
      1  C    Isotropic =    69.5712   Anisotropy =   164.7829
   XX=   126.4077   YX=    48.8732   ZX=    46.6655
   XY=    34.9160   YY=    62.2282   ZY=    66.3928
   XZ=    39.6426   YZ=    69.8239   ZZ=    20.0776
   Eigenvalues:   -30.8757    60.1628   179.4265
      2  C    Isotropic =    70.0940   Anisotropy =   177.1647
   XX=   137.3780   YX=    46.4673   ZX=    47.4429
   XY=    45.5781   YY=    55.1763   ZY=    69.0513
   XZ=    42.9195   YZ=    67.3417   ZZ=    17.7276
   Eigenvalues:   -34.7180    56.7961   188.2038
      3  C    Isotropic =    71.2300   Anisotropy =   173.5282
   XX=   109.3579   YX=    62.4050   ZX=    77.9262
   XY=    61.8009   YY=    81.2254   ZY=     4.0953
   XZ=    80.0994   YZ=     5.9319   ZZ=    23.1065
   Eigenvalues:   -31.5832    58.3576   186.9155
      4  C    Isotropic =    55.2946   Anisotropy =   181.2296
   XX=    97.9340   YX=    75.0649   ZX=    55.1670
   XY=    83.9537   YY=    17.8830   ZY=    32.5087
   XZ=    48.9967   YZ=    29.6988   ZZ=    50.0667
   Eigenvalues:   -31.1187    20.8881   176.1143
      5  C    Isotropic =    71.5607   Anisotropy =   179.1989
   XX=   113.8845   YX=    71.2264   ZX=    76.7234
   XY=    57.5723   YY=    83.6021   ZY=     6.7879
   XZ=    73.2862   YZ=    15.1528   ZZ=    17.1954
   Eigenvalues:   -28.6101    52.2655   191.0266
      6  C    Isotropic =    71.8999   Anisotropy =   175.3398
   XX=   118.2501   YX=    83.9078   ZX=    40.0830
   XY=    88.6523   YY=    20.4268   ZY=    25.5282
   XZ=    41.2928   YZ=    23.9225   ZZ=    77.0228
   Eigenvalues:   -29.8493    56.7559   188.7931
      7  C    Isotropic =   119.3058   Anisotropy =    41.9983
   XX=   106.9441   YX=    -2.3068   ZX=     0.1390
   XY=    -3.0187   YY=   111.1765   ZY=    15.2566
   XZ=    -0.9038   YZ=    17.5439   ZZ=   139.7968
   Eigenvalues:   102.5421   108.0706   147.3047
      8  C    Isotropic =   150.2744   Anisotropy =    14.3133
   XX=   158.0836   YX=    -0.0542   ZX=    -3.7507
   XY=     7.7228   YY=   145.7096   ZY=     6.1223
   XZ=    -1.8270   YZ=    -7.4455   ZZ=   147.0301
   Eigenvalues:   144.6091   146.3975   159.8166
      9  C    Isotropic =    17.6066   Anisotropy =   106.6987
   XX=    31.3244   YX=   -72.9655   ZX=     6.3639
   XY=   -73.2314   YY=    -5.7104   ZY=     3.5696
   XZ=   -12.4903   YZ=   -29.7949   ZZ=    27.2057
   Eigenvalues:   -64.2396    28.3203    88.7390
     10  O    Isotropic =   122.1062   Anisotropy =   142.1398
   XX=   182.6144   YX=   -37.7095   ZX=    52.5082
   XY=    -8.3068   YY=   198.4936   ZY=    16.2246
   XZ=   117.5004   YZ=   113.5161   ZZ=   -14.7894
   Eigenvalues:   -64.3673   213.8199   216.8660
     11  C    Isotropic =   136.7322   Anisotropy =    59.2596
   XX=   134.3321   YX=    22.2562   ZX=   -19.5474
   XY=    22.7378   YY=   140.5898   ZY=   -23.2997
   XZ=   -13.8054   YZ=   -15.6867   ZZ=   135.2747
   Eigenvalues:   114.7393   119.2186   176.2386
     12  O    Isotropic =   279.0857   Anisotropy =    40.1054
   XX=   278.6600   YX=    -6.2420   ZX=    22.5763
   XY=    -6.1139   YY=   278.1712   ZY=    29.2569
   XZ=    15.0556   YZ=    15.3285   ZZ=   280.4259
   Eigenvalues:   246.8909   284.5436   305.8226
     13  C    Isotropic =   181.6155   Anisotropy =    16.0136
   XX=   178.3903   YX=     4.4879   ZX=    -1.6644
   XY=     5.8855   YY=   174.2046   ZY=     1.3197
   XZ=     0.2101   YZ=    -0.4479   ZZ=   192.2515
   Eigenvalues:   170.6771   181.8781   192.2912
     14  O    Isotropic =   -38.2963   Anisotropy =   527.8423
   XX=   117.5386   YX=  -245.5682   ZX=    47.6098
   XY=  -233.0659   YY=    -7.5138   ZY=  -109.9920
   XZ=    -9.6235   YZ=   -93.1244   ZZ=  -224.9137
   Eigenvalues:  -285.6860  -142.8015   313.5986
     15  C    Isotropic =   182.9319   Anisotropy =    23.1800
   XX=   178.5135   YX=    12.0652   ZX=     0.4141
   XY=    13.0842   YY=   185.7699   ZY=     3.2675
   XZ=     5.0158   YZ=     9.1576   ZZ=   184.5122
   Eigenvalues:   168.8788   181.5316   198.3852
     16  H    Isotropic =    23.8703   Anisotropy =     8.2141
   XX=    25.9840   YX=    -3.4273   ZX=    -3.1307
   XY=    -3.3795   YY=    23.3553   ZY=     0.5250
   XZ=    -2.5147   YZ=     0.6832   ZZ=    22.2716
   Eigenvalues:    20.0981    22.1664    29.3464
     17  H    Isotropic =    23.7398   Anisotropy =     5.2457
   XX=    23.2612   YX=    -3.2066   ZX=    -1.1311
   XY=    -3.1146   YY=    24.4693   ZY=    -0.0313
   XZ=    -1.1870   YZ=     0.0535   ZZ=    23.4889
   Eigenvalues:    20.3873    23.5951    27.2369
     18  H    Isotropic =    23.8180   Anisotropy =     4.6776
   XX=    22.8111   YX=    -2.3569   ZX=    -0.9614
   XY=    -2.4191   YY=    25.1110   ZY=    -1.7683
   XZ=    -0.9374   YZ=    -1.7068   ZZ=    23.5317
   Eigenvalues:    20.3317    24.1858    26.9363
     19  H    Isotropic =    23.7307   Anisotropy =     9.2804
   XX=    22.6709   YX=    -3.4213   ZX=     2.3858
   XY=    -3.6762   YY=    25.7060   ZY=    -3.1906
   XZ=     1.1572   YZ=    -3.1982   ZZ=    22.8152
   Eigenvalues:    20.2389    21.0356    29.9176
     20  H    Isotropic =    23.8719   Anisotropy =     3.9968
   XX=    22.7885   YX=    -1.7498   ZX=    -1.8546
   XY=    -1.4712   YY=    23.2570   ZY=    -1.1665
   XZ=    -1.8132   YZ=    -1.2545   ZZ=    25.5701
   Eigenvalues:    20.4623    24.6169    26.5364
     21  H    Isotropic =    26.8637   Anisotropy =     5.4823
   XX=    25.4487   YX=     2.4317   ZX=    -2.7762
   XY=     1.1850   YY=    26.9620   ZY=    -0.0593
   XZ=    -3.1443   YZ=    -0.4936   ZZ=    28.1805
   Eigenvalues:    23.0453    27.0273    30.5186
     22  H    Isotropic =    28.3744   Anisotropy =     6.3829
   XX=    26.1711   YX=    -4.2375   ZX=     0.1989
   XY=    -2.4911   YY=    30.8730   ZY=     1.0821
   XZ=     0.8641   YZ=    -0.8008   ZZ=    28.0790
   Eigenvalues:    24.3407    28.1528    32.6296
     23  H    Isotropic =    27.7832   Anisotropy =     5.3160
   XX=    27.1459   YX=     2.1175   ZX=     1.1796
   XY=     2.4376   YY=    28.4702   ZY=    -3.7859
   XZ=     3.2941   YZ=    -2.5877   ZZ=    27.7336
   Eigenvalues:    22.6397    29.3828    31.3272
     24  H    Isotropic =    27.5930   Anisotropy =     7.2253
   XX=    29.9650   YX=     1.0897   ZX=    -4.2222
   XY=     2.2213   YY=    26.2293   ZY=     1.4561
   XZ=    -3.2906   YZ=     2.5875   ZZ=    26.5847
   Eigenvalues:    22.3938    27.9753    32.4099
     25  H    Isotropic =    26.1733   Anisotropy =    17.4242
   XX=    27.6142   YX=     6.7031   ZX=    -7.8646
   XY=     5.3330   YY=    21.5488   ZY=    -0.9104
   XZ=    -7.6958   YZ=    -1.1108   ZZ=    29.3569
   Eigenvalues:    16.7091    24.0214    37.7895
     26  H    Isotropic =    30.6973   Anisotropy =     9.7891
   XX=    29.1565   YX=     1.6957   ZX=    -2.0505
   XY=     2.5362   YY=    28.9523   ZY=    -3.1772
   XZ=    -2.5651   YZ=    -4.5358   ZZ=    33.9831
   Eigenvalues:    26.5171    28.3514    37.2234
     27  H    Isotropic =    30.2859   Anisotropy =    10.0699
   XX=    33.5953   YX=    -0.6358   ZX=     4.0910
   XY=     1.0640   YY=    25.9752   ZY=    -1.2794
   XZ=     4.6709   YZ=    -1.0721   ZZ=    31.2871
   Eigenvalues:    25.4843    28.3742    36.9992
     28  H    Isotropic =    30.7271   Anisotropy =     4.9107
   XX=    30.0938   YX=    -3.2000   ZX=     0.6680
   XY=    -0.6344   YY=    31.7663   ZY=     2.9363
   XZ=     0.1462   YZ=     1.8019   ZZ=    30.3211
   Eigenvalues:    27.5940    30.5864    34.0009
     29  H    Isotropic =    30.6459   Anisotropy =     7.2486
   XX=    30.9778   YX=    -1.2147   ZX=    -1.5754
   XY=    -1.0809   YY=    31.7289   ZY=     3.9681
   XZ=    -2.1665   YZ=     3.7739   ZZ=    29.2310
   Eigenvalues:    26.2471    30.2123    35.4783
     30  H    Isotropic =    30.5494   Anisotropy =    11.1617
   XX=    30.9000   YX=     5.2918   ZX=    -2.1687
   XY=     5.5430   YY=    32.4496   ZY=    -2.4036
   XZ=    -1.5428   YZ=    -1.9458   ZZ=    28.2988
   Eigenvalues:    26.2018    27.4560    37.9906
     31  H    Isotropic =    30.4578   Anisotropy =     8.9089
   XX=    32.0294   YX=    -0.2147   ZX=     4.6922
   XY=     0.1393   YY=    28.4042   ZY=    -0.5077
   XZ=     4.9533   YZ=    -1.4629   ZZ=    30.9399
   Eigenvalues:    26.3769    28.5995    36.3971
 End of Minotr Frequency-dependent properties file   721 does not exist.
 End of Minotr Frequency-dependent properties file   722 does not exist.

 **********************************************************************

            Population analysis using the SCF density.

 **********************************************************************

 Orbital symmetries:
       Occupied  (A) (A) (A) (A) (A) (A) (A) (A) (A) (A) (A) (A)
                 (A) (A) (A) (A) (A) (A) (A) (A) (A) (A) (A) (A)
                 (A) (A) (A) (A) (A) (A) (A) (A) (A) (A) (A) (A)
                 (A) (A) (A) (A) (A) (A) (A) (A) (A) (A) (A) (A)
                 (A) (A) (A) (A) (A) (A) (A) (A)
       Virtual   (A) (A) (A) (A) (A) (A) (A) (A) (A) (A) (A) (A)
                 (A) (A) (A) (A) (A) (A) (A) (A) (A) (A) (A) (A)
                 (A) (A) (A) (A) (A) (A) (A) (A) (A) (A) (A) (A)
                 (A) (A) (A) (A) (A) (A) (A) (A) (A) (A) (A) (A)
                 (A) (A) (A) (A) (A) (A) (A) (A) (A) (A) (A) (A)
                 (A) (A) (A) (A) (A) (A) (A) (A) (A) (A) (A) (A)
                 (A) (A) (A) (A) (A) (A) (A) (A) (A) (A) (A) (A)
                 (A) (A) (A) (A) (A) (A) (A) (A) (A) (A) (A) (A)
                 (A) (A) (A) (A) (A) (A) (A) (A) (A) (A) (A) (A)
                 (A) (A) (A) (A) (A) (A) (A) (A) (A) (A) (A) (A)
                 (A) (A) (A) (A) (A) (A) (A) (A) (A) (A) (A) (A)
                 (A) (A) (A) (A) (A) (A) (A) (A) (A) (A) (A) (A)
                 (A) (A) (A) (A) (A) (A) (A) (A) (A) (A) (A) (A)
                 (A) (A) (A) (A) (A) (A) (A) (A) (A) (A) (A) (A)
                 (A) (A) (A) (A) (A) (A) (A) (A) (A) (A) (A) (A)
                 (A) (A) (A) (A) (A) (A) (A) (A) (A) (A) (A) (A)
                 (A) (A) (A) (A) (A) (A) (A) (A) (A) (A) (A) (A)
                 (A) (A) (A) (A) (A) (A) (A) (A) (A) (A) (A) (A)
                 (A) (A) (A) (A) (A) (A) (A) (A) (A) (A) (A) (A)
                 (A) (A) (A) (A) (A) (A) (A) (A) (A) (A) (A) (A)
                 (A) (A) (A) (A) (A) (A) (A) (A) (A) (A) (A) (A)
                 (A) (A) (A) (A) (A) (A) (A) (A) (A) (A) (A) (A)
                 (A) (A) (A) (A) (A) (A) (A) (A) (A) (A) (A) (A)
                 (A) (A) (A) (A) (A) (A) (A) (A) (A) (A) (A) (A)
                 (A) (A) (A) (A) (A) (A) (A) (A) (A) (A) (A) (A)
                 (A) (A) (A) (A) (A) (A) (A) (A) (A)
 The electronic state is 1-A.
 Alpha  occ. eigenvalues --  -19.33575 -19.28448 -19.27307 -10.44815 -10.36114
 Alpha  occ. eigenvalues --  -10.35335 -10.32363 -10.31467 -10.30682 -10.30604
 Alpha  occ. eigenvalues --  -10.30582 -10.30547 -10.30428 -10.29041 -10.28983
 Alpha  occ. eigenvalues --   -1.21915  -1.13718  -1.11816  -0.96138  -0.91540
 Alpha  occ. eigenvalues --   -0.87126  -0.85177  -0.84643  -0.77422  -0.76014
 Alpha  occ. eigenvalues --   -0.71870  -0.69965  -0.67927  -0.66383  -0.62152
 Alpha  occ. eigenvalues --   -0.59597  -0.59211  -0.57820  -0.57121  -0.54936
 Alpha  occ. eigenvalues --   -0.54280  -0.51490  -0.51104  -0.50753  -0.50009
 Alpha  occ. eigenvalues --   -0.49385  -0.47697  -0.47152  -0.46994  -0.45903
 Alpha  occ. eigenvalues --   -0.45000  -0.44117  -0.43473  -0.42428  -0.41898
 Alpha  occ. eigenvalues --   -0.41633  -0.39451  -0.36883  -0.36179  -0.33158
 Alpha  occ. eigenvalues --   -0.32465
 Alpha virt. eigenvalues --    0.04978   0.05102   0.06269   0.07006   0.08031
 Alpha virt. eigenvalues --    0.08190   0.08515   0.09521   0.09886   0.10216
 Alpha virt. eigenvalues --    0.10737   0.10957   0.11572   0.11994   0.12565
 Alpha virt. eigenvalues --    0.13578   0.13885   0.14066   0.14814   0.15484
 Alpha virt. eigenvalues --    0.16099   0.16579   0.17045   0.17708   0.18397
 Alpha virt. eigenvalues --    0.18496   0.18973   0.19467   0.19991   0.20471
 Alpha virt. eigenvalues --    0.21100   0.21396   0.21964   0.22366   0.22600
 Alpha virt. eigenvalues --    0.22846   0.23596   0.23791   0.24310   0.24714
 Alpha virt. eigenvalues --    0.25304   0.25596   0.26253   0.26879   0.27097
 Alpha virt. eigenvalues --    0.27406   0.27962   0.28129   0.28655   0.28806
 Alpha virt. eigenvalues --    0.29587   0.29814   0.30005   0.30601   0.31037
 Alpha virt. eigenvalues --    0.31461   0.32077   0.32376   0.32637   0.33096
 Alpha virt. eigenvalues --    0.33430   0.33678   0.34713   0.35121   0.35519
 Alpha virt. eigenvalues --    0.36180   0.36613   0.37818   0.38409   0.38811
 Alpha virt. eigenvalues --    0.39235   0.39585   0.40246   0.40986   0.41087
 Alpha virt. eigenvalues --    0.43024   0.43191   0.43530   0.43972   0.44427
 Alpha virt. eigenvalues --    0.45071   0.45934   0.46980   0.47261   0.47809
 Alpha virt. eigenvalues --    0.48991   0.49839   0.51789   0.53109   0.53831
 Alpha virt. eigenvalues --    0.55271   0.57497   0.61311   0.65667   0.70352
 Alpha virt. eigenvalues --    0.72773   0.73857   0.74765   0.75454   0.76140
 Alpha virt. eigenvalues --    0.78080   0.78346   0.78909   0.79811   0.80254
 Alpha virt. eigenvalues --    0.81952   0.82560   0.83010   0.83758   0.84056
 Alpha virt. eigenvalues --    0.85586   0.86507   0.87957   0.88409   0.89774
 Alpha virt. eigenvalues --    0.90220   0.91609   0.94486   0.95373   0.96380
 Alpha virt. eigenvalues --    0.97684   0.99016   1.00863   1.01932   1.02233
 Alpha virt. eigenvalues --    1.04081   1.04271   1.05364   1.06516   1.07653
 Alpha virt. eigenvalues --    1.08234   1.09012   1.09819   1.12069   1.12163
 Alpha virt. eigenvalues --    1.12408   1.13908   1.16779   1.18521   1.20010
 Alpha virt. eigenvalues --    1.20581   1.21960   1.22421   1.23427   1.24549
 Alpha virt. eigenvalues --    1.25203   1.26301   1.28433   1.29652   1.30385
 Alpha virt. eigenvalues --    1.32872   1.33588   1.34814   1.36342   1.37571
 Alpha virt. eigenvalues --    1.37873   1.40755   1.41675   1.43029   1.44467
 Alpha virt. eigenvalues --    1.45260   1.48236   1.48862   1.49658   1.50144
 Alpha virt. eigenvalues --    1.51344   1.51614   1.52410   1.53070   1.55755
 Alpha virt. eigenvalues --    1.56519   1.58283   1.59581   1.65078   1.66043
 Alpha virt. eigenvalues --    1.69726   1.70719   1.74839   1.76391   1.79209
 Alpha virt. eigenvalues --    1.81767   1.82491   1.84010   1.85986   1.90353
 Alpha virt. eigenvalues --    1.90666   1.91133   1.92276   1.92699   1.94671
 Alpha virt. eigenvalues --    1.95982   1.98543   1.99307   2.00806   2.01080
 Alpha virt. eigenvalues --    2.02240   2.03091   2.03645   2.04102   2.05385
 Alpha virt. eigenvalues --    2.08542   2.08765   2.09945   2.10557   2.11533
 Alpha virt. eigenvalues --    2.13186   2.13640   2.15122   2.16633   2.17296
 Alpha virt. eigenvalues --    2.17677   2.19486   2.20382   2.20446   2.21421
 Alpha virt. eigenvalues --    2.22991   2.25773   2.26347   2.28128   2.29803
 Alpha virt. eigenvalues --    2.33007   2.36178   2.36965   2.38872   2.39709
 Alpha virt. eigenvalues --    2.41922   2.42557   2.44742   2.46299   2.48254
 Alpha virt. eigenvalues --    2.49482   2.49926   2.51325   2.53023   2.55459
 Alpha virt. eigenvalues --    2.56013   2.56917   2.59364   2.60149   2.60781
 Alpha virt. eigenvalues --    2.62884   2.64352   2.65741   2.66623   2.68778
 Alpha virt. eigenvalues --    2.69163   2.69614   2.71791   2.73008   2.73947
 Alpha virt. eigenvalues --    2.76488   2.78298   2.80393   2.82455   2.83556
 Alpha virt. eigenvalues --    2.84145   2.85014   2.86588   2.87932   2.88858
 Alpha virt. eigenvalues --    2.90057   2.91894   2.93010   2.97082   2.98832
 Alpha virt. eigenvalues --    2.99400   3.01526   3.03160   3.06537   3.11364
 Alpha virt. eigenvalues --    3.14720   3.15782   3.16282   3.18989   3.27410
 Alpha virt. eigenvalues --    3.29198   3.30260   3.36440   3.37398   3.39078
 Alpha virt. eigenvalues --    3.39368   3.44280   3.45567   3.48844   3.51560
 Alpha virt. eigenvalues --    3.53780   3.57940   3.58564   3.60388   3.62633
 Alpha virt. eigenvalues --    3.63732   3.64841   3.73095   3.99597   4.39368
 Alpha virt. eigenvalues --    4.41562   4.43229   4.49769   4.54060   4.56489
 Alpha virt. eigenvalues --    4.58851   4.63248   4.64878   4.71526   4.72051
 Alpha virt. eigenvalues --    4.78027   4.80658   4.94992   5.00040
          Condensed to atoms (all electrons):
              1          2          3          4          5          6
     1  C   20.395612  -0.570864  -1.513726  -6.364894  -9.897993   0.839518
     2  C   -0.570864   8.378337   0.244651  -1.014811  -1.326745   0.677430
     3  C   -1.513726   0.244651   6.814684   0.261090   0.119804   0.264608
     4  C   -6.364894  -1.014811   0.261090  16.090443   0.359372  -1.043217
     5  C   -9.897993  -1.326745   0.119804   0.359372  18.840167  -0.576526
     6  C    0.839518   0.677430   0.264608  -1.043217  -0.576526   5.651106
     7  C    4.305386  -0.803622  -0.469924  -2.711463  -2.919517   0.129144
     8  C   -1.860211   0.325908   0.100453   0.633024   1.677439  -0.039099
     9  C    0.524691  -0.036070   0.071239  -0.172567  -0.585486   0.012934
    10  O   -0.053299   0.012157  -0.000822  -0.002502   0.047580  -0.000523
    11  C   -0.029459   0.018670   0.020169  -0.040291   0.062405  -0.009028
    12  O   -0.202788   0.168055  -0.012010  -0.080050   0.099317   0.006265
    13  C    0.181956  -0.079538  -0.076435  -0.047398  -0.132586   0.014037
    14  O    0.000709  -0.037844   0.012333   0.106881  -0.090367  -0.009043
    15  C   -0.028419   0.006493   0.002945  -0.026663   0.048486  -0.002436
    16  H    0.165005   0.006513   0.051528   0.103059   0.022369  -0.007865
    17  H    0.014632   0.255606  -0.010769   0.022924   0.015649   0.027787
    18  H    0.018588  -0.000447   0.270732   0.027800  -0.000433   0.014325
    19  H    0.067022  -0.016712  -0.002144   0.158616   0.088284  -0.010265
    20  H   -0.018634   0.030582   0.037182   0.008716   0.001467   0.266429
    21  H    0.171733   0.017686   0.052247  -0.178902  -0.089662   0.000577
    22  H    0.001734   0.000514  -0.002890   0.030731  -0.001798   0.000252
    23  H   -0.002390  -0.000184   0.000573  -0.006624   0.008435  -0.001135
    24  H   -0.000041   0.000197  -0.000030  -0.000289  -0.000281   0.000040
    25  H    0.003442   0.017508   0.009501  -0.063178   0.002051  -0.002949
    26  H    0.048533   0.000039   0.002480  -0.047174  -0.009293   0.001021
    27  H    0.004916  -0.000609  -0.001097  -0.017106  -0.002710   0.000252
    28  H    0.037616   0.002572  -0.005620   0.002121  -0.015506  -0.000137
    29  H    0.000425  -0.000363  -0.000073  -0.000393  -0.000285  -0.000077
    30  H   -0.000021  -0.000017   0.000007  -0.000182   0.000166  -0.000005
    31  H   -0.000284   0.000082  -0.000005  -0.000381   0.000503  -0.000004
              7          8          9         10         11         12
     1  C    4.305386  -1.860211   0.524691  -0.053299  -0.029459  -0.202788
     2  C   -0.803622   0.325908  -0.036070   0.012157   0.018670   0.168055
     3  C   -0.469924   0.100453   0.071239  -0.000822   0.020169  -0.012010
     4  C   -2.711463   0.633024  -0.172567  -0.002502  -0.040291  -0.080050
     5  C   -2.919517   1.677439  -0.585486   0.047580   0.062405   0.099317
     6  C    0.129144  -0.039099   0.012934  -0.000523  -0.009028   0.006265
     7  C    9.488091  -1.696721   0.228635  -0.000983  -0.100302   0.243468
     8  C   -1.696721   8.209164  -1.222883  -0.332026   0.064040   0.060964
     9  C    0.228635  -1.222883   6.695605   0.356723  -0.206833  -0.160690
    10  O   -0.000983  -0.332026   0.356723   8.441184   0.020347  -0.000535
    11  C   -0.100302   0.064040  -0.206833   0.020347   5.398499   0.004622
    12  O    0.243468   0.060964  -0.160690  -0.000535   0.004622   8.141354
    13  C    0.251859   0.039485  -0.246239   0.033509  -0.034645   0.027231
    14  O    0.010602  -0.130813   0.620475  -0.166147  -0.065618  -0.017743
    15  C   -0.004396  -0.049406   0.022332  -0.037174   0.125215   0.000487
    16  H   -0.030285   0.007930  -0.007854  -0.000042  -0.000110   0.000294
    17  H    0.000964  -0.000888   0.001156  -0.000050   0.000065   0.000003
    18  H   -0.004408   0.000454  -0.000742  -0.000003  -0.000018   0.000024
    19  H    0.033063   0.006778   0.000415  -0.001128  -0.007536   0.004782
    20  H    0.000128   0.000167  -0.000023   0.000005   0.000045  -0.000002
    21  H    0.315204   0.033238   0.037183  -0.000988   0.001398  -0.053736
    22  H   -0.005552   0.302925  -0.010125   0.004284  -0.001711  -0.005281
    23  H    0.002175  -0.009666  -0.029767  -0.035892   0.407975   0.000033
    24  H    0.001029  -0.009966   0.003516  -0.042693   0.402294   0.000005
    25  H    0.005679  -0.067940   0.072632   0.000761   0.007409   0.258028
    26  H   -0.008189  -0.049765   0.007816   0.000740  -0.000532   0.000236
    27  H    0.028920  -0.087057   0.025756   0.000909  -0.003142  -0.000376
    28  H   -0.005414  -0.063035  -0.014719  -0.001824  -0.001229  -0.000771
    29  H    0.001237  -0.005737   0.003328  -0.003796  -0.056333   0.000000
    30  H    0.000095  -0.000347   0.001489   0.007176  -0.059985   0.000000
    31  H   -0.000300  -0.004277  -0.003168  -0.002676  -0.059763   0.000000
             13         14         15         16         17         18
     1  C    0.181956   0.000709  -0.028419   0.165005   0.014632   0.018588
     2  C   -0.079538  -0.037844   0.006493   0.006513   0.255606  -0.000447
     3  C   -0.076435   0.012333   0.002945   0.051528  -0.010769   0.270732
     4  C   -0.047398   0.106881  -0.026663   0.103059   0.022924   0.027800
     5  C   -0.132586  -0.090367   0.048486   0.022369   0.015649  -0.000433
     6  C    0.014037  -0.009043  -0.002436  -0.007865   0.027787   0.014325
     7  C    0.251859   0.010602  -0.004396  -0.030285   0.000964  -0.004408
     8  C    0.039485  -0.130813  -0.049406   0.007930  -0.000888   0.000454
     9  C   -0.246239   0.620475   0.022332  -0.007854   0.001156  -0.000742
    10  O    0.033509  -0.166147  -0.037174  -0.000042  -0.000050  -0.000003
    11  C   -0.034645  -0.065618   0.125215  -0.000110   0.000065  -0.000018
    12  O    0.027231  -0.017743   0.000487   0.000294   0.000003   0.000024
    13  C    5.504894   0.004851   0.004257   0.005697   0.000017   0.000601
    14  O    0.004851   8.197185   0.005708   0.000036  -0.000044   0.000002
    15  C    0.004257   0.005708   5.305697  -0.000005  -0.000231  -0.000002
    16  H    0.005697   0.000036  -0.000005   0.511870   0.000011  -0.004004
    17  H    0.000017  -0.000044  -0.000231   0.000011   0.498140  -0.000123
    18  H    0.000601   0.000002  -0.000002  -0.004004  -0.000123   0.497505
    19  H   -0.000614  -0.001459  -0.001329  -0.000116  -0.004272   0.000012
    20  H   -0.000085   0.000000   0.000040  -0.000123  -0.003872  -0.003880
    21  H   -0.045485   0.000147  -0.000001   0.001761   0.000002   0.000000
    22  H   -0.009058  -0.006881   0.000764  -0.000018   0.000000   0.000000
    23  H    0.001621   0.005793  -0.011936   0.000000  -0.000005   0.000000
    24  H    0.001187   0.002009  -0.024879   0.000000   0.000000   0.000000
    25  H   -0.009812   0.030055   0.000290  -0.000012   0.000000   0.000000
    26  H    0.409294  -0.000250   0.000118  -0.000285   0.000000   0.000000
    27  H    0.413070  -0.001018   0.000543   0.000032   0.000000   0.000000
    28  H    0.422112  -0.000119   0.001358  -0.000510   0.000000  -0.000012
    29  H    0.001464  -0.000141   0.423369   0.000000   0.000000   0.000000
    30  H   -0.000055   0.000117   0.419049   0.000000   0.000000   0.000000
    31  H    0.001464  -0.000060   0.431685   0.000000   0.000000   0.000000
             19         20         21         22         23         24
     1  C    0.067022  -0.018634   0.171733   0.001734  -0.002390  -0.000041
     2  C   -0.016712   0.030582   0.017686   0.000514  -0.000184   0.000197
     3  C   -0.002144   0.037182   0.052247  -0.002890   0.000573  -0.000030
     4  C    0.158616   0.008716  -0.178902   0.030731  -0.006624  -0.000289
     5  C    0.088284   0.001467  -0.089662  -0.001798   0.008435  -0.000281
     6  C   -0.010265   0.266429   0.000577   0.000252  -0.001135   0.000040
     7  C    0.033063   0.000128   0.315204  -0.005552   0.002175   0.001029
     8  C    0.006778   0.000167   0.033238   0.302925  -0.009666  -0.009966
     9  C    0.000415  -0.000023   0.037183  -0.010125  -0.029767   0.003516
    10  O   -0.001128   0.000005  -0.000988   0.004284  -0.035892  -0.042693
    11  C   -0.007536   0.000045   0.001398  -0.001711   0.407975   0.402294
    12  O    0.004782  -0.000002  -0.053736  -0.005281   0.000033   0.000005
    13  C   -0.000614  -0.000085  -0.045485  -0.009058   0.001621   0.001187
    14  O   -0.001459   0.000000   0.000147  -0.006881   0.005793   0.002009
    15  C   -0.001329   0.000040  -0.000001   0.000764  -0.011936  -0.024879
    16  H   -0.000116  -0.000123   0.001761  -0.000018   0.000000   0.000000
    17  H   -0.004272  -0.003872   0.000002   0.000000  -0.000005   0.000000
    18  H    0.000012  -0.003880   0.000000   0.000000   0.000000   0.000000
    19  H    0.520187  -0.000128  -0.000038  -0.000020  -0.000033   0.000002
    20  H   -0.000128   0.499827   0.000000   0.000000   0.000000   0.000000
    21  H   -0.000038   0.000000   0.570216  -0.006064   0.000000   0.000000
    22  H   -0.000020   0.000000  -0.006064   0.490228  -0.000015   0.000040
    23  H   -0.000033   0.000000   0.000000  -0.000015   0.527451  -0.033236
    24  H    0.000002   0.000000   0.000000   0.000040  -0.033236   0.525569
    25  H   -0.001091   0.000000   0.006219  -0.001073  -0.000007   0.000000
    26  H    0.000000   0.000000   0.003708  -0.002785   0.000000   0.000000
    27  H    0.000000   0.000000   0.000111  -0.003724  -0.000003  -0.000006
    28  H   -0.000002   0.000000  -0.000354   0.003801  -0.000007  -0.000003
    29  H    0.000000   0.000000   0.000000   0.000000  -0.005056   0.003951
    30  H    0.000000   0.000000   0.000000   0.000000  -0.001713  -0.001682
    31  H    0.000000   0.000000   0.000000  -0.000001   0.003995  -0.005083
             25         26         27         28         29         30
     1  C    0.003442   0.048533   0.004916   0.037616   0.000425  -0.000021
     2  C    0.017508   0.000039  -0.000609   0.002572  -0.000363  -0.000017
     3  C    0.009501   0.002480  -0.001097  -0.005620  -0.000073   0.000007
     4  C   -0.063178  -0.047174  -0.017106   0.002121  -0.000393  -0.000182
     5  C    0.002051  -0.009293  -0.002710  -0.015506  -0.000285   0.000166
     6  C   -0.002949   0.001021   0.000252  -0.000137  -0.000077  -0.000005
     7  C    0.005679  -0.008189   0.028920  -0.005414   0.001237   0.000095
     8  C   -0.067940  -0.049765  -0.087057  -0.063035  -0.005737  -0.000347
     9  C    0.072632   0.007816   0.025756  -0.014719   0.003328   0.001489
    10  O    0.000761   0.000740   0.000909  -0.001824  -0.003796   0.007176
    11  C    0.007409  -0.000532  -0.003142  -0.001229  -0.056333  -0.059985
    12  O    0.258028   0.000236  -0.000376  -0.000771   0.000000   0.000000
    13  C   -0.009812   0.409294   0.413070   0.422112   0.001464  -0.000055
    14  O    0.030055  -0.000250  -0.001018  -0.000119  -0.000141   0.000117
    15  C    0.000290   0.000118   0.000543   0.001358   0.423369   0.419049
    16  H   -0.000012  -0.000285   0.000032  -0.000510   0.000000   0.000000
    17  H    0.000000   0.000000   0.000000   0.000000   0.000000   0.000000
    18  H    0.000000   0.000000   0.000000  -0.000012   0.000000   0.000000
    19  H   -0.001091   0.000000   0.000000  -0.000002   0.000000   0.000000
    20  H    0.000000   0.000000   0.000000   0.000000   0.000000   0.000000
    21  H    0.006219   0.003708   0.000111  -0.000354   0.000000   0.000000
    22  H   -0.001073  -0.002785  -0.003724   0.003801   0.000000   0.000000
    23  H   -0.000007   0.000000  -0.000003  -0.000007  -0.005056  -0.001713
    24  H    0.000000   0.000000  -0.000006  -0.000003   0.003951  -0.001682
    25  H    0.347847  -0.000002  -0.000002  -0.000005   0.000000   0.000000
    26  H   -0.000002   0.523289  -0.024031  -0.026545   0.000000   0.000000
    27  H   -0.000002  -0.024031   0.513274  -0.024117  -0.000002   0.000000
    28  H   -0.000005  -0.026545  -0.024117   0.503501   0.000000   0.000000
    29  H    0.000000   0.000000  -0.000002   0.000000   0.511406  -0.022340
    30  H    0.000000   0.000000   0.000000   0.000000  -0.022340   0.498517
    31  H    0.000000   0.000000  -0.000003  -0.000005  -0.028317  -0.022516
             31
     1  C   -0.000284
     2  C    0.000082
     3  C   -0.000005
     4  C   -0.000381
     5  C    0.000503
     6  C   -0.000004
     7  C   -0.000300
     8  C   -0.004277
     9  C   -0.003168
    10  O   -0.002676
    11  C   -0.059763
    12  O    0.000000
    13  C    0.001464
    14  O   -0.000060
    15  C    0.431685
    16  H    0.000000
    17  H    0.000000
    18  H    0.000000
    19  H    0.000000
    20  H    0.000000
    21  H    0.000000
    22  H   -0.000001
    23  H    0.003995
    24  H   -0.005083
    25  H    0.000000
    26  H    0.000000
    27  H   -0.000003
    28  H   -0.000005
    29  H   -0.028317
    30  H   -0.022516
    31  H    0.512910
 Mulliken atomic charges:
              1
     1  C   -0.238495
     2  C   -0.275174
     3  C   -0.240681
     4  C    0.013308
     5  C    0.255696
     6  C   -0.203417
     7  C   -0.284603
     8  C    0.167869
     9  C    0.011240
    10  O   -0.242272
    11  C    0.143380
    12  O   -0.481185
    13  C   -0.636657
    14  O   -0.469357
    15  C   -0.611961
    16  H    0.175123
    17  H    0.183298
    18  H    0.184030
    19  H    0.167727
    20  H    0.182160
    21  H    0.163801
    22  H    0.221721
    23  H    0.179618
    24  H    0.178350
    25  H    0.384649
    26  H    0.171575
    27  H    0.177219
    28  H    0.186853
    29  H    0.177732
    30  H    0.182247
    31  H    0.176205
 Sum of Mulliken atomic charges =   0.00000
 Mulliken charges with hydrogens summed into heavy atoms:
              1
     1  C   -0.063372
     2  C   -0.091876
     3  C   -0.056652
     4  C    0.013308
     5  C    0.423423
     6  C   -0.021257
     7  C   -0.120802
     8  C    0.389590
     9  C    0.011240
    10  O   -0.242272
    11  C    0.501349
    12  O   -0.096536
    13  C   -0.101010
    14  O   -0.469357
    15  C   -0.075777
 Sum of Mulliken charges with hydrogens summed into heavy atoms =   0.00000
 Electronic spatial extent (au):  <R**2>=           3399.0536
 Charge=              0.0000 electrons
 Dipole moment (field-independent basis, Debye):
    X=              2.2513    Y=              2.7550    Z=              3.0654  Tot=              4.6963
 Quadrupole moment (field-independent basis, Debye-Ang):
   XX=            -84.2510   YY=            -88.8954   ZZ=            -89.5909
   XY=             -2.7470   XZ=             -3.9779   YZ=            -10.1074
 Traceless Quadrupole moment (field-independent basis, Debye-Ang):
   XX=              3.3281   YY=             -1.3163   ZZ=             -2.0118
   XY=             -2.7470   XZ=             -3.9779   YZ=            -10.1074
 Octapole moment (field-independent basis, Debye-Ang**2):
  XXX=             57.3129  YYY=             18.8953  ZZZ=             -0.5767  XYY=             14.5398
  XXY=             29.2299  XXZ=             14.9688  XZZ=             -5.2634  YZZ=              3.6026
  YYZ=             10.4753  XYZ=              2.2907
 Hexadecapole moment (field-independent basis, Debye-Ang**3):
 XXXX=          -2531.6283 YYYY=          -1267.8652 ZZZZ=           -708.3395 XXXY=              5.6064
 XXXZ=            -69.3721 YYYX=            -38.4828 YYYZ=            -51.4493 ZZZX=             -7.0438
 ZZZY=             -6.3243 XXYY=           -568.7051 XXZZ=           -548.2005 YYZZ=           -323.3284
 XXYZ=            -17.2683 YYXZ=            -17.7791 ZZXY=             -7.3985
 N-N= 1.024303937709D+03 E-N=-3.660300244970D+03  KE= 6.859023211788D+02
 1\1\GINC-COMPUTE-8-12\SP\RwB97XD\6-31+G(d,p)\C12H16O3\ELUCIANO.IQUIR\1
 7-May-2022\0\\# wb97xd/6-31+g** scrf=(pcm,solvent=chloroform,smd,dovac
 uum) nmr\\comment\\0,1\C,0,1.882453516,1.472060621,1.122876325\C,0,2.7
 99691651,0.350167151,-1.254345164\C,0,3.159974802,0.911433277,1.060900
 548\C,0,1.040357493,1.476053407,-0.00197615\C,0,1.521720981,0.91077082
 4,-1.193168097\C,0,3.617328488,0.348570804,-0.127382283\C,0,-0.3537978
 29,2.068744412,0.103455378\C,0,-1.475498057,1.080634832,0.487894241\C,
 0,-1.590852184,-0.010084619,-0.560809993\O,0,-1.603170503,-1.259150552
 ,-0.030855422\C,0,-1.685694089,-2.315641471,-0.995098076\O,0,-0.685346
 768,2.785403482,-1.091019999\C,0,-1.319564912,0.552823439,1.915496213\
 O,0,-1.680228517,0.238626023,-1.76038664\C,0,-1.648617834,-3.636668101
 ,-0.25217635\H,0,1.549077301,1.910717488,2.061219464\H,0,3.157497397,-
 0.079830362,-2.186355006\H,0,3.79932186,0.91807101,1.939849064\H,0,0.9
 10709074,0.907297231,-2.093162736\H,0,4.612694663,-0.084480446,-0.1777
 73708\H,0,-0.318364079,2.848775575,0.874976647\H,0,-2.435163517,1.6144
 21799,0.445933791\H,0,-0.83622825,-2.255093638,-1.68473596\H,0,-2.6237
 40998,-2.231062306,-1.554890854\H,0,-1.012872198,2.136930932,-1.745531
 048\H,0,-1.224625506,1.378147279,2.628827368\H,0,-2.197501399,-0.03460
 2524,2.207276361\H,0,-0.444474155,-0.096458337,2.021851959\H,0,-0.7254
 1843,-3.72539562,0.330048843\H,0,-1.709662984,-4.477805383,-0.94830036
 9\H,0,-2.480005017,-3.703376226,0.457361654\\Version=EM64L-G09RevC.01\
 State=1-A\HF=-692.4477004\RMSD=8.342e-09\Dipole=-0.1256473,-1.5405163,
 1.0123806\Quadrupole=3.344824,-3.7601712,0.4153472,0.978831,-1.7049767
 ,7.5783343\PG=C01 [X(C12H16O3)]\\@


 Happiness is a conscious choice, not an automatic response.
 -- Mildred Barthel
 Job cpu time:  0 days  1 hours 56 minutes  5.3 seconds.
 File lengths (MBytes):  RWF=    123 Int=      0 D2E=      0 Chk=      9 Scr=      1
 Normal termination of Gaussian 09 at Tue May 17 17:15:22 2022.
