 Entering Gaussian System, Link 0=g09
 Input=/home/eluciano.iquir/wb9/73a_006.gjc
 Output=/home/eluciano.iquir/wb9/73a_006.log
 Initial command:
 /share/apps/Gaussian09/EM64T.SSE4.2-enabled/g09/l1.exe /tmp/Gau-28427.inp -scrdir=/tmp/
 Entering Link 1 = /share/apps/Gaussian09/EM64T.SSE4.2-enabled/g09/l1.exe PID=     28428.
  
 Copyright (c) 1988,1990,1992,1993,1995,1998,2003,2009,2011,
            Gaussian, Inc.  All Rights Reserved.
  
 This is part of the Gaussian(R) 09 program.  It is based on
 the Gaussian(R) 03 system (copyright 2003, Gaussian, Inc.),
 the Gaussian(R) 98 system (copyright 1998, Gaussian, Inc.),
 the Gaussian(R) 94 system (copyright 1995, Gaussian, Inc.),
 the Gaussian 92(TM) system (copyright 1992, Gaussian, Inc.),
 the Gaussian 90(TM) system (copyright 1990, Gaussian, Inc.),
 the Gaussian 88(TM) system (copyright 1988, Gaussian, Inc.),
 the Gaussian 86(TM) system (copyright 1986, Carnegie Mellon
 University), and the Gaussian 82(TM) system (copyright 1983,
 Carnegie Mellon University). Gaussian is a federally registered
 trademark of Gaussian, Inc.
  
 This software contains proprietary and confidential information,
 including trade secrets, belonging to Gaussian, Inc.
  
 This software is provided under written license and may be
 used, copied, transmitted, or stored only in accord with that
 written license.
  
 The following legend is applicable only to US Government
 contracts under FAR:
  
                    RESTRICTED RIGHTS LEGEND
  
 Use, reproduction and disclosure by the US Government is
 subject to restrictions as set forth in subparagraphs (a)
 and (c) of the Commercial Computer Software - Restricted
 Rights clause in FAR 52.227-19.
  
 Gaussian, Inc.
 340 Quinnipiac St., Bldg. 40, Wallingford CT 06492
  
  
 ---------------------------------------------------------------
 Warning -- This program may not be used in any manner that
 competes with the business of Gaussian, Inc. or will provide
 assistance to any competitor of Gaussian, Inc.  The licensee
 of this program is prohibited from giving any competitor of
 Gaussian, Inc. access to this program.  By using this program,
 the user acknowledges that Gaussian, Inc. is engaged in the
 business of creating and licensing software in the field of
 computational chemistry and represents and warrants to the
 licensee that it is not a competitor of Gaussian, Inc. and that
 it will not use this program in any manner prohibited above.
 ---------------------------------------------------------------
  

 Cite this work as:
 Gaussian 09, Revision C.01,
 M. J. Frisch, G. W. Trucks, H. B. Schlegel, G. E. Scuseria, 
 M. A. Robb, J. R. Cheeseman, G. Scalmani, V. Barone, B. Mennucci, 
 G. A. Petersson, H. Nakatsuji, M. Caricato, X. Li, H. P. Hratchian, 
 A. F. Izmaylov, J. Bloino, G. Zheng, J. L. Sonnenberg, M. Hada, 
 M. Ehara, K. Toyota, R. Fukuda, J. Hasegawa, M. Ishida, T. Nakajima, 
 Y. Honda, O. Kitao, H. Nakai, T. Vreven, J. A. Montgomery, Jr., 
 J. E. Peralta, F. Ogliaro, M. Bearpark, J. J. Heyd, E. Brothers, 
 K. N. Kudin, V. N. Staroverov, T. Keith, R. Kobayashi, J. Normand, 
 K. Raghavachari, A. Rendell, J. C. Burant, S. S. Iyengar, J. Tomasi, 
 M. Cossi, N. Rega, J. M. Millam, M. Klene, J. E. Knox, J. B. Cross, 
 V. Bakken, C. Adamo, J. Jaramillo, R. Gomperts, R. E. Stratmann, 
 O. Yazyev, A. J. Austin, R. Cammi, C. Pomelli, J. W. Ochterski, 
 R. L. Martin, K. Morokuma, V. G. Zakrzewski, G. A. Voth, 
 P. Salvador, J. J. Dannenberg, S. Dapprich, A. D. Daniels, 
 O. Farkas, J. B. Foresman, J. V. Ortiz, J. Cioslowski, 
 and D. J. Fox, Gaussian, Inc., Wallingford CT, 2010.
 
 ******************************************
 Gaussian 09:  EM64L-G09RevC.01 23-Sep-2011
                17-May-2022 
 ******************************************
 %nprocshared=4
 Will use up to    4 processors via shared memory.
 ----------------------------------------------------------------
 # wb97xd/6-31+g** scrf=(pcm,solvent=chloroform,smd,dovacuum) nmr
 ----------------------------------------------------------------
 1/38=1/1;
 2/12=2,17=6,18=5,40=1/2;
 3/5=1,6=6,7=111,11=2,16=1,25=1,30=1,70=32101,72=7,74=-58/1,2,8,3;
 4//1;
 5/5=2,38=5,53=7/2;
 8/6=1,10=90,11=11/1;
 10/13=100,45=16/2;
 6/7=2,8=2,9=2,10=2,28=1/1;
 99/9=1/99;
 -------
 comment
 -------
 Charge =  0 Multiplicity = 1
 Symbolic Z-Matrix:
 6                     0.34632   2.62408  -0.02659 
 6                     1.88307   3.10502   2.24773 
 6                     0.36772   3.89693   0.54746 
 6                     1.0943    1.57266   0.52934 
 6                     1.86218   1.832     1.67456 
 6                     1.13555   4.13661   1.68464 
 6                     1.03561   0.19218  -0.1016 
 6                    -0.22923  -0.58067   0.32028 
 6                    -0.41529  -1.73819  -0.63476 
 8                    -1.73737  -2.03423  -0.77041 
 6                    -2.04887  -3.13675  -1.63541 
 8                     2.22026  -0.54157   0.22024 
 6                    -0.18444  -1.12794   1.74526 
 8                     0.50346  -2.32729  -1.19119 
 6                    -2.1644   -2.65865  -3.07052 
 1                    -0.25797   2.45905  -0.91589 
 1                     2.48651   3.28934   3.13259 
 1                    -0.21317   4.70234   0.10577 
 1                     2.45472   1.03806   2.12563 
 1                     1.15459   5.12738   2.13051 
 1                     1.05217   0.33225  -1.19096 
 1                    -1.10072   0.0781    0.20985 
 1                    -3.01035  -3.5419   -1.30345 
 1                    -1.30978  -3.94017  -1.53784 
 1                     2.19822  -1.3493   -0.33088 
 1                    -0.08156  -0.32252   2.47834 
 1                    -1.107    -1.67131   1.97892 
 1                     0.64476  -1.82999   1.88478 
 1                    -2.90683  -1.85779  -3.15025 
 1                    -2.45848  -3.47971  -3.73038 
 1                    -1.21398  -2.24803  -3.42577 
 
                          Input orientation:                          
 ---------------------------------------------------------------------
 Center     Atomic      Atomic             Coordinates (Angstroms)
 Number     Number       Type             X           Y           Z
 ---------------------------------------------------------------------
      1          6           0        0.346318    2.624079   -0.026589
      2          6           0        1.883071    3.105023    2.247730
      3          6           0        0.367717    3.896927    0.547461
      4          6           0        1.094299    1.572662    0.529338
      5          6           0        1.862177    1.832005    1.674564
      6          6           0        1.135547    4.136610    1.684641
      7          6           0        1.035612    0.192181   -0.101601
      8          6           0       -0.229230   -0.580666    0.320279
      9          6           0       -0.415285   -1.738193   -0.634760
     10          8           0       -1.737366   -2.034231   -0.770412
     11          6           0       -2.048868   -3.136752   -1.635414
     12          8           0        2.220255   -0.541570    0.220243
     13          6           0       -0.184436   -1.127944    1.745259
     14          8           0        0.503456   -2.327289   -1.191191
     15          6           0       -2.164398   -2.658650   -3.070522
     16          1           0       -0.257966    2.459049   -0.915891
     17          1           0        2.486508    3.289341    3.132591
     18          1           0       -0.213167    4.702344    0.105768
     19          1           0        2.454717    1.038057    2.125634
     20          1           0        1.154586    5.127379    2.130513
     21          1           0        1.052172    0.332253   -1.190962
     22          1           0       -1.100719    0.078104    0.209845
     23          1           0       -3.010353   -3.541900   -1.303446
     24          1           0       -1.309777   -3.940175   -1.537840
     25          1           0        2.198220   -1.349302   -0.330883
     26          1           0       -0.081563   -0.322525    2.478340
     27          1           0       -1.106995   -1.671307    1.978922
     28          1           0        0.644759   -1.829986    1.884785
     29          1           0       -2.906828   -1.857790   -3.150254
     30          1           0       -2.458483   -3.479707   -3.730379
     31          1           0       -1.213982   -2.248026   -3.425766
 ---------------------------------------------------------------------
                    Distance matrix (angstroms):
                    1          2          3          4          5
     1  C    0.000000
     2  C    2.786654   0.000000
     3  C    1.396472   2.411291   0.000000
     4  C    1.404994   2.433755   2.435254   0.000000
     5  C    2.412287   1.396256   2.787055   1.403010   0.000000
     6  C    2.416390   1.392851   1.392906   2.812518   2.416464
     7  C    2.528810   3.836951   3.820014   1.518965   2.554798
     8  C    3.274440   4.664889   4.522919   2.536189   3.468293
     9  C    4.469824   6.086701   5.810793   3.820436   4.823497
    10  O    5.157020   6.973426   6.430148   4.766272   5.820858
    11  C    6.443012   8.336588   7.750966   6.061702   7.137281
    12  O    3.686990   4.185933   4.820709   2.415221   2.806622
    13  C    4.183159   4.737623   5.195086   3.225972   3.599294
    14  O    5.088913   6.575677   6.463916   4.303363   5.230526
    15  C    6.593668   8.825290   7.904240   6.440660   7.674316
    16  H    1.087774   3.874251   2.144848   2.168638   3.405679
    17  H    3.873423   1.086779   3.397254   3.414990   2.153941
    18  H    2.156323   3.396123   1.086837   3.418156   3.873890
    19  H    3.404831   2.148030   3.875479   2.164417   1.088541
    20  H    3.401896   2.152755   2.153886   3.899155   3.401185
    21  H    2.665794   4.494802   4.024612   2.121278   3.334157
    22  H    2.937993   4.713620   4.105326   2.674675   3.741701
    23  H    7.135608   8.985435   8.376955   6.809259   7.841489
    24  H    6.936567   8.611599   8.281464   6.359574   7.327953
    25  H    4.394302   5.156508   5.625402   3.239829   3.775640
    26  H    3.891044   3.957405   4.661965   2.961924   3.011010
    27  H    4.958279   5.641461   5.935409   4.179751   4.602370
    28  H    4.856038   5.100928   5.887506   3.690168   3.864774
    29  H    6.358254   8.758475   7.583701   6.427785   7.722491
    30  H    7.670799   9.896744   8.983432   7.502924   8.723290
    31  H    6.142178   8.392582   7.486572   5.963947   7.219611
                    6          7          8          9         10
     6  C    0.000000
     7  C    4.331185   0.000000
     8  C    5.096743   1.541136   0.000000
     9  C    6.503692   2.472995   1.512146   0.000000
    10  O    7.236034   3.618511   2.361552   1.361593   0.000000
    11  C    8.606106   4.790448   3.697214   2.371891   1.435554
    12  O    5.020600   1.430159   2.451839   3.018114   4.344214
    13  C    5.427850   2.577235   1.527118   2.467830   3.092175
    14  O    7.102953   2.796091   2.423234   1.225045   2.298743
    15  C    8.926185   5.213616   4.422717   3.136809   2.421314
    16  H    3.393944   2.734063   3.281586   4.209587   4.732795
    17  H    2.153955   4.707175   5.501026   6.920220   7.836770
    18  H    2.152190   4.684444   5.287387   6.486120   6.962206
    19  H    3.396427   2.773075   3.617063   4.854303   5.949756
    20  H    1.086640   5.417810   6.146028   7.566195   8.250297
    21  H    4.769610   1.098454   2.181573   2.597987   3.682204
    22  H    4.862857   2.161926   1.098028   2.117100   2.414163
    23  H    9.223702   5.635391   4.374933   3.230306   2.043940
    24  H    9.033186   4.963869   3.988294   2.542517   2.098666
    25  H    5.940273   1.944325   2.628180   2.659697   4.018849
    26  H    4.689904   2.858164   2.178456   3.436114   4.028152
    27  H    6.232776   3.520217   2.170499   2.704491   2.843927
    28  H    5.990092   2.861408   2.184568   2.735000   3.572996
    29  H    8.697692   5.388831   4.565652   3.542569   2.657522
    30  H   10.012381   6.233738   5.457273   4.097607   3.372064
    31  H    8.508827   4.697378   4.216951   2.947467   2.714874
                   11         12         13         14         15
    11  C    0.000000
    12  O    5.329526   0.000000
    13  C    4.352053   2.907240   0.000000
    14  O    2.714208   2.851024   3.245668   0.000000
    15  C    1.517058   5.876763   5.427252   3.280112   0.000000
    16  H    5.919293   4.054146   4.466950   4.854337   5.870925
    17  H    9.197727   4.819600   5.345188   7.360307   9.771803
    18  H    8.237290   5.782152   6.056485   7.184107   8.251083
    19  H    7.201166   2.486103   3.435312   5.112172   7.874129
    20  H    9.630170   6.076328   6.408624   8.187170   9.934217
    21  H    4.674183   2.029651   3.504678   2.715558   4.777507
    22  H    3.826130   3.378310   2.156762   3.212818   4.402505
    23  H    1.094898   6.219555   4.807036   3.719508   2.149030
    24  H    1.096021   5.206006   4.466965   2.451404   2.172969
    25  H    4.789001   0.978088   3.168030   2.137478   5.315303
    26  H    5.358464   3.231927   1.093934   4.222178   6.370679
    27  H    4.012241   3.929357   1.095882   3.615727   5.252603
    28  H    4.621153   2.629240   1.095397   3.119119   5.756137
    29  H    2.160228   6.275322   5.648907   3.960858   1.094960
    30  H    2.162009   6.791955   6.378455   4.068000   1.093632
    31  H    2.166156   5.291442   5.390181   2.819433   1.094578
                   16         17         18         19         20
    16  H    0.000000
    17  H    4.961021   0.000000
    18  H    2.465394   4.294936   0.000000
    19  H    4.316103   2.466425   4.962305   0.000000
    20  H    4.289040   2.481241   2.480120   4.291027   0.000000
    21  H    2.513043   5.430911   4.730781   3.669482   5.834030
    22  H    2.765215   5.632289   4.709796   4.151251   5.854104
    23  H    6.613412   9.826483   8.819167   7.912116  10.212502
    24  H    6.514844   9.406945   8.865503   7.237075  10.087142
    25  H    4.569313   5.796186   6.529002   3.435077   7.006785
    26  H    4.391933   4.479800   5.558392   2.899707   5.599152
    27  H    5.114746   6.233157   6.703063   4.477495   7.166579
    28  H    5.201396   5.581807   6.824388   3.399945   6.980346
    29  H    5.535698   9.749625   7.803387   8.060217   9.652677
    30  H    6.930543  10.833896   9.311467   8.879336  11.022080
    31  H    5.419409   9.347091   7.860090   7.421303   9.533045
                   21         22         23         24         25
    21  H    0.000000
    22  H    2.581045   0.000000
    23  H    5.614786   4.363621   0.000000
    24  H    4.894157   4.386876   1.762249   0.000000
    25  H    2.209250   3.634952   5.734335   4.524976   0.000000
    26  H    3.895878   2.518978   5.765769   5.543068   3.760774
    27  H    4.327172   2.487993   4.230346   4.190048   4.045162
    28  H    3.781730   3.081059   5.143472   4.470734   2.748360
    29  H    4.930395   4.277848   2.501529   3.080061   5.853967
    30  H    5.770994   5.479682   2.489665   2.517694   6.146550
    31  H    4.097273   4.317567   3.066806   2.537086   4.693520
                   26         27         28         29         30
    26  H    0.000000
    27  H    1.766392   0.000000
    28  H    1.775469   1.761443   0.000000
    29  H    6.482302   5.438991   6.161668   0.000000
    30  H    7.359737   6.139458   6.624330   1.779936   0.000000
    31  H    6.312559   5.436424   5.641952   1.758954   1.777247
                   31
    31  H    0.000000
 Stoichiometry    C12H16O3
 Framework group  C1[X(C12H16O3)]
 Deg. of freedom    87
 Full point group                 C1      NOp   1
 Largest Abelian subgroup         C1      NOp   1
 Largest concise Abelian subgroup C1      NOp   1
                         Standard orientation:                         
 ---------------------------------------------------------------------
 Center     Atomic      Atomic             Coordinates (Angstroms)
 Number     Number       Type             X           Y           Z
 ---------------------------------------------------------------------
      1          6           0        2.122386    1.416719   -0.339208
      2          6           0        4.099002   -0.451544    0.267441
      3          6           0        3.413705    1.842301   -0.020600
      4          6           0        1.801184    0.049079   -0.359113
      5          6           0        2.808126   -0.878000   -0.050843
      6          6           0        4.401168    0.908045    0.283162
      7          6           0        0.383219   -0.385852   -0.686934
      8          6           0       -0.554473   -0.257209    0.529325
      9          6           0       -1.981637   -0.314721    0.032857
     10          8           0       -2.796299    0.415426    0.843502
     11          6           0       -4.188612    0.421889    0.493875
     12          8           0        0.388667   -1.722548   -1.195432
     13          6           0       -0.363159   -1.342006    1.587011
     14          8           0       -2.343474   -0.944560   -0.953608
     15          6           0       -4.468082    1.516356   -0.518796
     16          1           0        1.366877    2.162709   -0.575764
     17          1           0        4.867921   -1.183526    0.499938
     18          1           0        3.649800    2.903147   -0.011691
     19          1           0        2.589959   -1.944401   -0.061499
     20          1           0        5.406825    1.238313    0.528851
     21          1           0        0.030713    0.250355   -1.510087
     22          1           0       -0.407015    0.729452    0.988044
     23          1           0       -4.748414    0.619411    1.413879
     24          1           0       -4.510752   -0.558622    0.124974
     25          1           0       -0.515163   -1.890306   -1.529505
     26          1           0        0.649263   -1.320863    2.000830
     27          1           0       -1.062712   -1.197955    2.418175
     28          1           0       -0.549626   -2.342236    1.181225
     29          1           0       -4.141583    2.488221   -0.134330
     30          1           0       -5.535963    1.568355   -0.748921
     31          1           0       -3.918248    1.341047   -1.448876
 ---------------------------------------------------------------------
 Rotational constants (GHZ):      1.3603145      0.2828861      0.2637374
 Standard basis: 6-31+G(d,p) (6D, 7F)
 There are   365 symmetry adapted basis functions of A   symmetry.
 Integral buffers will be    131072 words long.
 Raffenetti 2 integral format.
 Two-electron integral symmetry is turned on.
   365 basis functions,   592 primitive gaussians,   365 cartesian basis functions
    56 alpha electrons       56 beta electrons
       nuclear repulsion energy       993.2695245995 Hartrees.
 NAtoms=   31 NActive=   31 NUniq=   31 SFac= 1.00D+00 NAtFMM=   60 NAOKFM=F Big=F
 Nuclear repulsion after empirical dispersion term =      993.2490776058 Hartrees.
 ------------------------------------------------------------------------------
 Polarizable Continuum Model (PCM)
 =================================
 Model                : C-PCM.
 Atomic radii         : SMD-Coulomb.
 Polarization charges : Total charges.
 Charge compensation  : None.
 Solution method      : Matrix inversion.
 Cavity type          : VdW (van der Waals Surface) (Alpha=1.000).
 Cavity algorithm     : GePol (No added spheres)
                        Default sphere list used, NSphG=   31.
                        Lebedev-Laikov grids with approx.  5.0 points / Ang**2.
                        Smoothing algorithm: Karplus/York (Gamma=1.0000).
                        Polarization charges: spherical gaussians, with
                                              point-specific exponents (IZeta= 3).
                        Self-potential: point-specific (ISelfS= 7).
                        Self-field    : sphere-specific E.n sum rule (ISelfD= 2).
 Solvent              : Chloroform, Eps=   4.711300 Eps(inf)=   2.090627
 ------------------------------------------------------------------------------
 ------------------------------------------------------------------------------
 Atomic radii for non-electrostatic terms: SMD-CDS.
 ------------------------------------------------------------------------------
 Nuclear repulsion after PCM non-electrostatic terms =      993.2425036615 Hartrees.
 One-electron integrals computed using PRISM.
 NBasis=   365 RedAO= T  NBF=   365
 NBsUse=   365 1.00D-06 NBFU=   365
 Harris functional with IExCor= 4639 diagonalized for initial guess.
 ExpMin= 4.38D-02 ExpMax= 5.48D+03 ExpMxC= 8.25D+02 IAcc=2 IRadAn=         4 AccDes= 0.00D+00
 HarFok:  IExCor= 4639 AccDes= 0.00D+00 IRadAn=         4 IDoV= 1
 ScaDFX=  1.000000  1.000000  1.000000  1.000000
 FoFCou: FMM=F IPFlag=           0 FMFlag=      100000 FMFlg1=           0
         NFxFlg=           0 DoJE=T BraDBF=F KetDBF=T FulRan=T
         Omega=  0.000000  0.000000  1.000000  0.000000  0.000000 ICntrl=     500 IOpCl=  0
         NMat0=    1 NMatS0=    1 NMatT0=    0 NMatD0=    1 NMtDS0=    0 NMtDT0=    0
         I1Cent=           4 NGrid=           0.
 Petite list used in FoFCou.
 Initial guess orbital symmetries:
       Occupied  (A) (A) (A) (A) (A) (A) (A) (A) (A) (A) (A) (A)
                 (A) (A) (A) (A) (A) (A) (A) (A) (A) (A) (A) (A)
                 (A) (A) (A) (A) (A) (A) (A) (A) (A) (A) (A) (A)
                 (A) (A) (A) (A) (A) (A) (A) (A) (A) (A) (A) (A)
                 (A) (A) (A) (A) (A) (A) (A) (A)
       Virtual   (A) (A) (A) (A) (A) (A) (A) (A) (A) (A) (A) (A)
                 (A) (A) (A) (A) (A) (A) (A) (A) (A) (A) (A) (A)
                 (A) (A) (A) (A) (A) (A) (A) (A) (A) (A) (A) (A)
                 (A) (A) (A) (A) (A) (A) (A) (A) (A) (A) (A) (A)
                 (A) (A) (A) (A) (A) (A) (A) (A) (A) (A) (A) (A)
                 (A) (A) (A) (A) (A) (A) (A) (A) (A) (A) (A) (A)
                 (A) (A) (A) (A) (A) (A) (A) (A) (A) (A) (A) (A)
                 (A) (A) (A) (A) (A) (A) (A) (A) (A) (A) (A) (A)
                 (A) (A) (A) (A) (A) (A) (A) (A) (A) (A) (A) (A)
                 (A) (A) (A) (A) (A) (A) (A) (A) (A) (A) (A) (A)
                 (A) (A) (A) (A) (A) (A) (A) (A) (A) (A) (A) (A)
                 (A) (A) (A) (A) (A) (A) (A) (A) (A) (A) (A) (A)
                 (A) (A) (A) (A) (A) (A) (A) (A) (A) (A) (A) (A)
                 (A) (A) (A) (A) (A) (A) (A) (A) (A) (A) (A) (A)
                 (A) (A) (A) (A) (A) (A) (A) (A) (A) (A) (A) (A)
                 (A) (A) (A) (A) (A) (A) (A) (A) (A) (A) (A) (A)
                 (A) (A) (A) (A) (A) (A) (A) (A) (A) (A) (A) (A)
                 (A) (A) (A) (A) (A) (A) (A) (A) (A) (A) (A) (A)
                 (A) (A) (A) (A) (A) (A) (A) (A) (A) (A) (A) (A)
                 (A) (A) (A) (A) (A) (A) (A) (A) (A) (A) (A) (A)
                 (A) (A) (A) (A) (A) (A) (A) (A) (A) (A) (A) (A)
                 (A) (A) (A) (A) (A) (A) (A) (A) (A) (A) (A) (A)
                 (A) (A) (A) (A) (A) (A) (A) (A) (A) (A) (A) (A)
                 (A) (A) (A) (A) (A) (A) (A) (A) (A) (A) (A) (A)
                 (A) (A) (A) (A) (A) (A) (A) (A) (A) (A) (A) (A)
                 (A) (A) (A) (A) (A) (A) (A) (A) (A)
 The electronic state of the initial guess is 1-A.
 Requested convergence on RMS density matrix=1.00D-08 within 128 cycles.
 Requested convergence on MAX density matrix=1.00D-06.
 Requested convergence on             energy=1.00D-06.
 No special actions if energy rises.
 FoFJK:  IHMeth= 1 ICntrl=     0 DoSepK=T KAlg= 1 I1Cent= 0 FoldK=F
 FoFJK:  IHMeth= 1 ICntrl=     0 DoSepK=T KAlg= 1 I1Cent= 0 FoldK=F
 FoFJK:  IHMeth= 1 ICntrl=     0 DoSepK=T KAlg= 1 I1Cent= 0 FoldK=F
 FoFJK:  IHMeth= 1 ICntrl=     0 DoSepK=T KAlg= 1 I1Cent= 0 FoldK=F
 FoFJK:  IHMeth= 1 ICntrl=     0 DoSepK=T KAlg= 1 I1Cent= 0 FoldK=F
 FoFJK:  IHMeth= 1 ICntrl=     0 DoSepK=T KAlg= 1 I1Cent= 0 FoldK=F
 FoFJK:  IHMeth= 1 ICntrl=     0 DoSepK=T KAlg= 1 I1Cent= 0 FoldK=F
 FoFJK:  IHMeth= 1 ICntrl=     0 DoSepK=T KAlg= 1 I1Cent= 0 FoldK=F
 FoFJK:  IHMeth= 1 ICntrl=     0 DoSepK=T KAlg= 1 I1Cent= 0 FoldK=F
 FoFJK:  IHMeth= 1 ICntrl=     0 DoSepK=T KAlg= 1 I1Cent= 0 FoldK=F
 FoFJK:  IHMeth= 1 ICntrl=     0 DoSepK=T KAlg= 1 I1Cent= 0 FoldK=F
 FoFJK:  IHMeth= 1 ICntrl=     0 DoSepK=T KAlg= 1 I1Cent= 0 FoldK=F
 FoFJK:  IHMeth= 1 ICntrl=     0 DoSepK=T KAlg= 1 I1Cent= 0 FoldK=F
 FoFJK:  IHMeth= 1 ICntrl=     0 DoSepK=T KAlg= 1 I1Cent= 0 FoldK=F
 FoFJK:  IHMeth= 1 ICntrl=     0 DoSepK=T KAlg= 1 I1Cent= 0 FoldK=F
 FoFJK:  IHMeth= 1 ICntrl=     0 DoSepK=T KAlg= 1 I1Cent= 0 FoldK=F
 Error on total polarization charges =  0.04073
 SCF Done:  E(RwB97XD) =  -692.446859875     A.U. after   16 cycles
             Convg  =    0.3080D-08             -V/T =  2.0096
 SMD-CDS (non-electrostatic) energy       (kcal/mol) =      -4.13
 (included in total energy above)
 Range of M.O.s used for correlation:     1   365
 NBasis=   365 NAE=    56 NBE=    56 NFC=     0 NFV=     0
 NROrb=    365 NOA=    56 NOB=    56 NVA=   309 NVB=   309

 **** Warning!!: The largest alpha MO coefficient is  0.11978588D+03

 NEqPCM:  Using equilibrium solvation (IEInf=0, Eps=   4.7113, EpsInf=   2.0906)
          Differentiating once with respect to magnetic field using GIAOs.
          Electric field/nuclear overlap derivatives assumed to be zero.
 FoFCou: FMM=F IPFlag=           0 FMFlag=    10101102 FMFlg1=           0
         NFxFlg=    40000000 DoJE=F BraDBF=F KetDBF=T FulRan=T
         Omega=  0.000000  0.000000  1.000000  0.000000  0.000000 ICntrl=    6100 IOpCl=  0
         NMat0=    1 NMatS0=    1 NMatT0=    0 NMatD0=    1 NMtDS0=    0 NMtDT0=    0
         I1Cent=           7 NGrid=        2281.
 Symmetry not used in FoFCou.
 FoFJK:  IHMeth= 1 ICntrl=  6127 DoSepK=T KAlg= 1 I1Cent= 0 FoldK=F
 FoFJK:  IHMeth= 1 ICntrl=     0 DoSepK=T KAlg= 1 I1Cent= 0 FoldK=F
          There are     3 degrees of freedom in the 1st order CPHF.  IDoFFX=0.
      3 vectors produced by pass  0 Test12= 5.77D-13 3.33D-08 XBig12= 1.49D+02 1.76D+00.
 AX will form     3 AO Fock derivatives at one time.
 FoFJK:  IHMeth= 1 ICntrl=     0 DoSepK=T KAlg= 1 I1Cent= 0 FoldK=F
      3 vectors produced by pass  1 Test12= 5.77D-13 3.33D-08 XBig12= 1.18D+00 2.91D-01.
 FoFJK:  IHMeth= 1 ICntrl=     0 DoSepK=T KAlg= 1 I1Cent= 0 FoldK=F
      3 vectors produced by pass  2 Test12= 5.77D-13 3.33D-08 XBig12= 2.62D-02 5.65D-02.
 FoFJK:  IHMeth= 1 ICntrl=     0 DoSepK=T KAlg= 1 I1Cent= 0 FoldK=F
      3 vectors produced by pass  3 Test12= 5.77D-13 3.33D-08 XBig12= 3.85D-04 4.70D-03.
 FoFJK:  IHMeth= 1 ICntrl=     0 DoSepK=T KAlg= 1 I1Cent= 0 FoldK=F
      3 vectors produced by pass  4 Test12= 5.77D-13 3.33D-08 XBig12= 4.66D-06 4.50D-04.
 FoFJK:  IHMeth= 1 ICntrl=     0 DoSepK=T KAlg= 1 I1Cent= 0 FoldK=F
      3 vectors produced by pass  5 Test12= 5.77D-13 3.33D-08 XBig12= 6.50D-08 4.80D-05.
 FoFJK:  IHMeth= 1 ICntrl=     0 DoSepK=T KAlg= 1 I1Cent= 0 FoldK=F
      3 vectors produced by pass  6 Test12= 5.77D-13 3.33D-08 XBig12= 7.15D-10 7.00D-06.
 FoFJK:  IHMeth= 1 ICntrl=     0 DoSepK=T KAlg= 1 I1Cent= 0 FoldK=F
      3 vectors produced by pass  7 Test12= 5.77D-13 3.33D-08 XBig12= 7.45D-12 4.85D-07.
 FoFJK:  IHMeth= 1 ICntrl=     0 DoSepK=T KAlg= 1 I1Cent= 0 FoldK=F
      3 vectors produced by pass  8 Test12= 5.77D-13 3.33D-08 XBig12= 7.83D-14 7.76D-08.
 FoFJK:  IHMeth= 1 ICntrl=     0 DoSepK=T KAlg= 1 I1Cent= 0 FoldK=F
 Inverted reduced A of dimension    27 with in-core refinement.
 Calculating GIAO nuclear magnetic shielding tensors.
 SCF GIAO Magnetic shielding tensor (ppm):
      1  C    Isotropic =    71.7843   Anisotropy =   165.6652
   XX=    24.7915   YX=    34.4581   ZX=   -42.0062
   XY=    42.5067   YY=    19.0642   ZY=    18.2512
   XZ=   -36.7033   YZ=    24.4235   ZZ=   171.4971
   Eigenvalues:   -25.8856    59.0106   182.2278
      2  C    Isotropic =    70.5994   Anisotropy =   175.1688
   XX=    20.5476   YX=    40.7295   ZX=   -45.9333
   XY=    41.7667   YY=    17.0137   ZY=    18.7678
   XZ=   -46.1733   YZ=    20.5785   ZZ=   174.2370
   Eigenvalues:   -32.9564    57.3761   187.3786
      3  C    Isotropic =    70.6871   Anisotropy =   173.9316
   XX=    62.1361   YX=   -19.0383   ZX=   -31.6147
   XY=   -20.9106   YY=   -28.3442   ZY=     5.0902
   XZ=   -31.1761   YZ=     4.4774   ZZ=   178.2694
   Eigenvalues:   -32.5737    57.9935   186.6415
      4  C    Isotropic =    53.6566   Anisotropy =   180.2913
   XX=   -14.3080   YX=   -19.5073   ZX=   -49.8683
   XY=   -17.5507   YY=    17.4191   ZY=     6.8946
   XZ=   -53.1533   YZ=    17.1524   ZZ=   157.8586
   Eigenvalues:   -32.9258    20.0447   173.8507
      5  C    Isotropic =    72.4036   Anisotropy =   182.4129
   XX=    58.4959   YX=   -16.1275   ZX=   -35.9312
   XY=   -14.4165   YY=   -27.4119   ZY=     3.9797
   XZ=   -27.9568   YZ=     6.4969   ZZ=   186.1268
   Eigenvalues:   -30.0464    53.2450   194.0122
      6  C    Isotropic =    73.1163   Anisotropy =   176.1461
   XX=    -7.6428   YX=   -24.6819   ZX=   -50.4971
   XY=   -26.1975   YY=    50.4907   ZY=    -0.0037
   XZ=   -54.1235   YZ=    -1.9864   ZZ=   176.5011
   Eigenvalues:   -29.2252    58.0271   190.5471
      7  C    Isotropic =   122.6352   Anisotropy =    38.4561
   XX=   116.3643   YX=    11.7149   ZX=    -0.1882
   XY=     1.6391   YY=   143.0201   ZY=    14.7605
   XZ=    -3.7827   YZ=    10.7910   ZZ=   108.5213
   Eigenvalues:   103.0473   116.5859   148.2726
      8  C    Isotropic =   147.5899   Anisotropy =    34.0571
   XX=   167.2367   YX=    -3.2779   ZX=   -12.0268
   XY=     4.4245   YY=   141.5167   ZY=     7.1016
   XZ=    -8.9062   YZ=     4.0301   ZZ=   134.0162
   Eigenvalues:   128.6354   143.8397   170.2946
      9  C    Isotropic =    14.5610   Anisotropy =   106.7079
   XX=   -38.8763   YX=    31.4310   ZX=    15.1107
   XY=    55.8389   YY=    47.1098   ZY=   -38.3266
   XZ=    36.6647   YZ=   -44.4847   ZZ=    35.4495
   Eigenvalues:   -72.6681    30.6515    85.6996
     10  O    Isotropic =   131.1415   Anisotropy =   148.0501
   XX=    79.9527   YX=   -16.8712   ZX=   -42.8171
   XY=   -96.3717   YY=   202.2280   ZY=   -70.0661
   XZ=  -165.9702   YZ=   -42.6066   ZZ=   111.2438
   Eigenvalues:   -36.5567   200.1396   229.8416
     11  C    Isotropic =   137.2771   Anisotropy =    66.1845
   XX=   178.5148   YX=    -0.0864   ZX=    12.6986
   XY=    -4.9598   YY=   115.3431   ZY=   -17.7325
   XZ=    11.7932   YZ=   -14.9308   ZZ=   117.9734
   Eigenvalues:    99.7216   130.7096   181.4000
     12  O    Isotropic =   304.1282   Anisotropy =    71.0844
   XX=   339.5859   YX=    21.2615   ZX=    21.2064
   XY=     8.7627   YY=   285.4055   ZY=    13.7832
   XZ=    16.4427   YZ=    19.4903   ZZ=   287.3933
   Eigenvalues:   269.6585   291.2083   351.5178
     13  C    Isotropic =   186.6501   Anisotropy =    18.8130
   XX=   183.8761   YX=    -4.9368   ZX=     1.7074
   XY=    -5.7039   YY=   187.4154   ZY=    -9.9230
   XZ=     1.0085   YZ=    -9.4692   ZZ=   188.6587
   Eigenvalues:   176.8653   183.8928   199.1921
     14  O    Isotropic =   -20.1385   Anisotropy =   524.0985
   XX=  -128.2158   YX=    76.8763   ZX=   -18.2188
   XY=    74.6292   YY=   124.9640   ZY=  -267.7132
   XZ=    -6.2701   YZ=  -272.4193   ZZ=   -57.1636
   Eigenvalues:  -260.5465  -129.1295   329.2605
     15  C    Isotropic =   181.2007   Anisotropy =    26.2310
   XX=   185.5397   YX=    -0.0379   ZX=     5.0629
   XY=    -4.6643   YY=   181.5301   ZY=   -16.0346
   XZ=     8.5607   YZ=   -16.8430   ZZ=   176.5321
   Eigenvalues:   161.8187   183.0953   198.6880
     16  H    Isotropic =    23.9350   Anisotropy =     8.6814
   XX=    25.7433   YX=     4.0110   ZX=     0.5520
   XY=     3.5850   YY=    26.0966   ZY=    -0.3090
   XZ=     0.4851   YZ=    -0.4802   ZZ=    19.9651
   Eigenvalues:    19.7848    22.2975    29.7226
     17  H    Isotropic =    23.7441   Anisotropy =     5.0318
   XX=    25.7924   YX=     1.4861   ZX=     1.1054
   XY=     1.5803   YY=    24.9190   ZY=     0.2832
   XZ=     0.9972   YZ=     0.2005   ZZ=    20.5208
   Eigenvalues:    20.3183    23.8153    27.0986
     18  H    Isotropic =    23.7859   Anisotropy =     4.9884
   XX=    26.7445   YX=    -0.0422   ZX=     1.4805
   XY=     0.1654   YY=    23.9197   ZY=    -0.3689
   XZ=     1.5887   YZ=    -0.2785   ZZ=    20.6936
   Eigenvalues:    20.2967    23.9495    27.1115
     19  H    Isotropic =    23.4053   Anisotropy =    10.2014
   XX=    29.4806   YX=    -1.9113   ZX=     2.1999
   XY=    -1.4118   YY=    21.2478   ZY=    -0.1009
   XZ=     2.0912   YZ=     0.4299   ZZ=    19.4875
   Eigenvalues:    18.9286    21.0811    30.2062
     20  H    Isotropic =    23.7688   Anisotropy =     4.1830
   XX=    24.6176   YX=    -0.4788   ZX=     0.9637
   XY=    -0.4421   YY=    26.3461   ZY=    -0.4945
   XZ=     0.8356   YZ=    -0.6173   ZZ=    20.3427
   Eigenvalues:    20.1277    24.6212    26.5575
     21  H    Isotropic =    26.2705   Anisotropy =     5.8110
   XX=    24.6650   YX=     0.0825   ZX=     0.1745
   XY=     0.9831   YY=    29.2154   ZY=    -3.0057
   XZ=     2.1979   YZ=    -1.3957   ZZ=    24.9312
   Eigenvalues:    22.9919    25.6751    30.1445
     22  H    Isotropic =    29.0097   Anisotropy =     5.4827
   XX=    30.1378   YX=     0.2510   ZX=    -0.2789
   XY=    -0.5517   YY=    31.8966   ZY=     2.0593
   XZ=    -4.2528   YZ=     1.8092   ZZ=    24.9946
   Eigenvalues:    23.7554    30.6088    32.6648
     23  H    Isotropic =    27.7763   Anisotropy =     8.0704
   XX=    30.3399   YX=    -1.5457   ZX=    -3.8124
   XY=    -0.5370   YY=    23.5372   ZY=    -1.9833
   XZ=    -2.6312   YZ=    -1.2502   ZZ=    29.4519
   Eigenvalues:    22.6281    27.5443    33.1566
     24  H    Isotropic =    26.9000   Anisotropy =     6.0793
   XX=    29.7773   YX=     2.5889   ZX=     1.5538
   XY=     1.0892   YY=    28.0480   ZY=    -0.3900
   XZ=    -0.3760   YZ=    -0.5143   ZZ=    22.8749
   Eigenvalues:    22.7493    26.9979    30.9529
     25  H    Isotropic =    27.7509   Anisotropy =    20.3698
   XX=    37.8134   YX=     1.7891   ZX=     6.2455
   XY=     2.8832   YY=    23.4538   ZY=     5.9998
   XZ=     7.1543   YZ=     5.8348   ZZ=    21.9856
   Eigenvalues:    16.1103    25.8117    41.3308
     26  H    Isotropic =    30.6237   Anisotropy =     8.6552
   XX=    34.9030   YX=     0.2395   ZX=     3.3014
   XY=    -1.2068   YY=    25.6531   ZY=    -1.7806
   XZ=     1.4632   YZ=    -4.0119   ZZ=    31.3149
   Eigenvalues:    24.4106    31.0665    36.3938
     27  H    Isotropic =    30.7342   Anisotropy =     9.9032
   XX=    30.6414   YX=    -1.2291   ZX=    -3.6598
   XY=    -1.3723   YY=    26.9653   ZY=    -1.7950
   XZ=    -4.8059   YZ=    -1.4608   ZZ=    34.5961
   Eigenvalues:    25.4006    29.4658    37.3364
     28  H    Isotropic =    30.1104   Anisotropy =     7.5289
   XX=    26.6807   YX=     1.1783   ZX=    -0.4623
   XY=     0.4989   YY=    35.0174   ZY=     0.4061
   XZ=    -0.7465   YZ=    -1.1522   ZZ=    28.6332
   Eigenvalues:    26.4498    28.7518    35.1297
     29  H    Isotropic =    30.4062   Anisotropy =     8.5076
   XX=    27.8979   YX=     0.1902   ZX=     1.3222
   XY=     0.1781   YY=    35.9508   ZY=     1.7043
   XZ=     0.4642   YZ=     0.3141   ZZ=    27.3700
   Eigenvalues:    26.6485    28.4922    36.0780
     30  H    Isotropic =    30.5609   Anisotropy =    11.4331
   XX=    36.2586   YX=    -2.0821   ZX=     3.1626
   XY=    -2.8767   YY=    27.7080   ZY=    -1.2498
   XZ=     3.6663   YZ=    -1.2825   ZZ=    27.7161
   Eigenvalues:    26.3200    27.1798    38.1830
     31  H    Isotropic =    30.2280   Anisotropy =     5.9383
   XX=    28.7392   YX=    -2.3236   ZX=    -1.9529
   XY=    -2.3643   YY=    28.3821   ZY=    -1.8877
   XZ=    -1.5690   YZ=    -0.6543   ZZ=    33.5628
   Eigenvalues:    25.6355    30.8617    34.1869
 End of Minotr Frequency-dependent properties file   721 does not exist.
 End of Minotr Frequency-dependent properties file   722 does not exist.

 **********************************************************************

            Population analysis using the SCF density.

 **********************************************************************

 Orbital symmetries:
       Occupied  (A) (A) (A) (A) (A) (A) (A) (A) (A) (A) (A) (A)
                 (A) (A) (A) (A) (A) (A) (A) (A) (A) (A) (A) (A)
                 (A) (A) (A) (A) (A) (A) (A) (A) (A) (A) (A) (A)
                 (A) (A) (A) (A) (A) (A) (A) (A) (A) (A) (A) (A)
                 (A) (A) (A) (A) (A) (A) (A) (A)
       Virtual   (A) (A) (A) (A) (A) (A) (A) (A) (A) (A) (A) (A)
                 (A) (A) (A) (A) (A) (A) (A) (A) (A) (A) (A) (A)
                 (A) (A) (A) (A) (A) (A) (A) (A) (A) (A) (A) (A)
                 (A) (A) (A) (A) (A) (A) (A) (A) (A) (A) (A) (A)
                 (A) (A) (A) (A) (A) (A) (A) (A) (A) (A) (A) (A)
                 (A) (A) (A) (A) (A) (A) (A) (A) (A) (A) (A) (A)
                 (A) (A) (A) (A) (A) (A) (A) (A) (A) (A) (A) (A)
                 (A) (A) (A) (A) (A) (A) (A) (A) (A) (A) (A) (A)
                 (A) (A) (A) (A) (A) (A) (A) (A) (A) (A) (A) (A)
                 (A) (A) (A) (A) (A) (A) (A) (A) (A) (A) (A) (A)
                 (A) (A) (A) (A) (A) (A) (A) (A) (A) (A) (A) (A)
                 (A) (A) (A) (A) (A) (A) (A) (A) (A) (A) (A) (A)
                 (A) (A) (A) (A) (A) (A) (A) (A) (A) (A) (A) (A)
                 (A) (A) (A) (A) (A) (A) (A) (A) (A) (A) (A) (A)
                 (A) (A) (A) (A) (A) (A) (A) (A) (A) (A) (A) (A)
                 (A) (A) (A) (A) (A) (A) (A) (A) (A) (A) (A) (A)
                 (A) (A) (A) (A) (A) (A) (A) (A) (A) (A) (A) (A)
                 (A) (A) (A) (A) (A) (A) (A) (A) (A) (A) (A) (A)
                 (A) (A) (A) (A) (A) (A) (A) (A) (A) (A) (A) (A)
                 (A) (A) (A) (A) (A) (A) (A) (A) (A) (A) (A) (A)
                 (A) (A) (A) (A) (A) (A) (A) (A) (A) (A) (A) (A)
                 (A) (A) (A) (A) (A) (A) (A) (A) (A) (A) (A) (A)
                 (A) (A) (A) (A) (A) (A) (A) (A) (A) (A) (A) (A)
                 (A) (A) (A) (A) (A) (A) (A) (A) (A) (A) (A) (A)
                 (A) (A) (A) (A) (A) (A) (A) (A) (A) (A) (A) (A)
                 (A) (A) (A) (A) (A) (A) (A) (A) (A)
 The electronic state is 1-A.
 Alpha  occ. eigenvalues --  -19.33287 -19.28440 -19.27474 -10.44541 -10.35863
 Alpha  occ. eigenvalues --  -10.35277 -10.31937 -10.31542 -10.30645 -10.30543
 Alpha  occ. eigenvalues --  -10.30446 -10.30328 -10.30307 -10.29228 -10.28858
 Alpha  occ. eigenvalues --   -1.21536  -1.13633  -1.12006  -0.96062  -0.91406
 Alpha  occ. eigenvalues --   -0.86957  -0.85122  -0.84525  -0.77973  -0.76397
 Alpha  occ. eigenvalues --   -0.71571  -0.69867  -0.67004  -0.65113  -0.60976
 Alpha  occ. eigenvalues --   -0.59775  -0.59316  -0.58612  -0.56267  -0.54719
 Alpha  occ. eigenvalues --   -0.53985  -0.53340  -0.52280  -0.50294  -0.50125
 Alpha  occ. eigenvalues --   -0.49737  -0.47511  -0.46716  -0.46360  -0.45315
 Alpha  occ. eigenvalues --   -0.45243  -0.44537  -0.43082  -0.42136  -0.42071
 Alpha  occ. eigenvalues --   -0.40796  -0.39280  -0.36984  -0.36287  -0.33073
 Alpha  occ. eigenvalues --   -0.32256
 Alpha virt. eigenvalues --    0.05177   0.05586   0.06140   0.07110   0.07865
 Alpha virt. eigenvalues --    0.08092   0.09016   0.09190   0.09673   0.10659
 Alpha virt. eigenvalues --    0.10683   0.11164   0.11269   0.11567   0.12654
 Alpha virt. eigenvalues --    0.13234   0.13527   0.14078   0.14359   0.15219
 Alpha virt. eigenvalues --    0.15672   0.15936   0.16658   0.17462   0.17778
 Alpha virt. eigenvalues --    0.18152   0.18995   0.19522   0.19703   0.20262
 Alpha virt. eigenvalues --    0.20731   0.21326   0.21689   0.22075   0.22543
 Alpha virt. eigenvalues --    0.23107   0.23183   0.24197   0.24562   0.24634
 Alpha virt. eigenvalues --    0.25511   0.25796   0.26381   0.26620   0.27168
 Alpha virt. eigenvalues --    0.27396   0.27518   0.27757   0.28648   0.29134
 Alpha virt. eigenvalues --    0.29921   0.30258   0.30697   0.30992   0.31225
 Alpha virt. eigenvalues --    0.31618   0.32402   0.32789   0.33202   0.33708
 Alpha virt. eigenvalues --    0.34104   0.34352   0.34731   0.35547   0.36199
 Alpha virt. eigenvalues --    0.36911   0.37126   0.37759   0.38239   0.38661
 Alpha virt. eigenvalues --    0.39183   0.39796   0.39948   0.40581   0.41630
 Alpha virt. eigenvalues --    0.41787   0.42892   0.43255   0.43924   0.44139
 Alpha virt. eigenvalues --    0.44868   0.46038   0.46159   0.48280   0.48822
 Alpha virt. eigenvalues --    0.49638   0.50191   0.51782   0.52659   0.54191
 Alpha virt. eigenvalues --    0.55627   0.56362   0.60803   0.66304   0.69992
 Alpha virt. eigenvalues --    0.72910   0.73196   0.75247   0.76676   0.76927
 Alpha virt. eigenvalues --    0.77373   0.78077   0.78966   0.80445   0.81007
 Alpha virt. eigenvalues --    0.81414   0.81815   0.82797   0.83762   0.84014
 Alpha virt. eigenvalues --    0.84545   0.84726   0.85911   0.88088   0.88357
 Alpha virt. eigenvalues --    0.89851   0.91233   0.91844   0.93151   0.95432
 Alpha virt. eigenvalues --    0.97721   0.97887   0.99278   0.99788   1.01468
 Alpha virt. eigenvalues --    1.02740   1.04177   1.05160   1.06285   1.07216
 Alpha virt. eigenvalues --    1.07956   1.10115   1.10644   1.11033   1.13175
 Alpha virt. eigenvalues --    1.13891   1.15310   1.16612   1.18100   1.18770
 Alpha virt. eigenvalues --    1.20655   1.21019   1.21896   1.22694   1.24551
 Alpha virt. eigenvalues --    1.25648   1.27535   1.28869   1.30424   1.31028
 Alpha virt. eigenvalues --    1.31447   1.33547   1.34502   1.36214   1.36723
 Alpha virt. eigenvalues --    1.38119   1.41080   1.41419   1.43562   1.44415
 Alpha virt. eigenvalues --    1.44887   1.45280   1.46782   1.47179   1.48818
 Alpha virt. eigenvalues --    1.50051   1.51017   1.51354   1.52983   1.56177
 Alpha virt. eigenvalues --    1.58521   1.58675   1.62770   1.64188   1.65774
 Alpha virt. eigenvalues --    1.67834   1.69462   1.71653   1.73367   1.75513
 Alpha virt. eigenvalues --    1.79345   1.80357   1.84264   1.85462   1.88292
 Alpha virt. eigenvalues --    1.89992   1.91445   1.92709   1.93898   1.95154
 Alpha virt. eigenvalues --    1.96361   1.96728   1.99178   2.00274   2.01207
 Alpha virt. eigenvalues --    2.01644   2.03830   2.05041   2.05467   2.06486
 Alpha virt. eigenvalues --    2.08053   2.08760   2.09397   2.10405   2.11231
 Alpha virt. eigenvalues --    2.11641   2.13020   2.14516   2.16978   2.18712
 Alpha virt. eigenvalues --    2.19124   2.20235   2.20933   2.22248   2.23786
 Alpha virt. eigenvalues --    2.25493   2.25882   2.27915   2.28492   2.28891
 Alpha virt. eigenvalues --    2.31631   2.35837   2.36731   2.38967   2.39819
 Alpha virt. eigenvalues --    2.41046   2.42923   2.45261   2.47297   2.48290
 Alpha virt. eigenvalues --    2.48818   2.49992   2.50819   2.50978   2.54688
 Alpha virt. eigenvalues --    2.56272   2.56570   2.57923   2.60958   2.61847
 Alpha virt. eigenvalues --    2.63511   2.64265   2.65211   2.68090   2.68695
 Alpha virt. eigenvalues --    2.70438   2.71392   2.73435   2.74331   2.75223
 Alpha virt. eigenvalues --    2.76422   2.77840   2.78972   2.80682   2.83073
 Alpha virt. eigenvalues --    2.84014   2.85620   2.87159   2.88878   2.89616
 Alpha virt. eigenvalues --    2.90573   2.91973   2.93266   2.94759   2.96493
 Alpha virt. eigenvalues --    2.99461   3.00582   3.00989   3.06425   3.08972
 Alpha virt. eigenvalues --    3.11579   3.15825   3.18142   3.21052   3.27249
 Alpha virt. eigenvalues --    3.28717   3.29931   3.36187   3.37266   3.38597
 Alpha virt. eigenvalues --    3.38951   3.43178   3.45154   3.51337   3.52683
 Alpha virt. eigenvalues --    3.53993   3.57200   3.58478   3.60195   3.62895
 Alpha virt. eigenvalues --    3.65222   3.65771   3.68734   3.99701   4.40520
 Alpha virt. eigenvalues --    4.40945   4.42989   4.46303   4.51554   4.55186
 Alpha virt. eigenvalues --    4.58222   4.59794   4.63030   4.65432   4.70659
 Alpha virt. eigenvalues --    4.78284   4.83292   4.94966   4.98214
          Condensed to atoms (all electrons):
              1          2          3          4          5          6
     1  C   16.097597   0.490087  -1.514852  -2.946229  -8.254397   0.171238
     2  C    0.490087   6.433134  -0.056819  -0.028702  -1.164918   0.424135
     3  C   -1.514852  -0.056819   6.644223   0.043451   0.591893   0.382326
     4  C   -2.946229  -0.028702   0.043451  13.405177  -1.355567  -0.484043
     5  C   -8.254397  -1.164918   0.591893  -1.355567  16.678404   0.121132
     6  C    0.171238   0.424135   0.382326  -0.484043   0.121132   5.277248
     7  C    2.149527  -0.267081  -0.187360  -2.905360  -1.125195  -0.014711
     8  C   -0.823959   0.076549   0.213976   0.354533   0.681606  -0.045413
     9  C    0.305369  -0.018582  -0.037654  -0.574182  -0.174956   0.008488
    10  O   -0.013446   0.000262  -0.000608   0.020671   0.002144   0.000012
    11  C    0.009856  -0.000098   0.000375  -0.014903  -0.004857  -0.000020
    12  O   -0.035148   0.079545  -0.022083   0.167205  -0.161558  -0.000423
    13  C    0.100072   0.023476  -0.104824   0.259247  -0.095982   0.024566
    14  O   -0.027553   0.001692  -0.000663  -0.024887   0.041352  -0.000016
    15  C    0.001570   0.000091   0.000711  -0.001924  -0.001861  -0.000010
    16  H    0.168209  -0.000082   0.013869   0.111012   0.038301  -0.010208
    17  H    0.003146   0.270355  -0.004582   0.022538   0.024946   0.015824
    18  H    0.038611  -0.005418   0.259259   0.012002   0.002931   0.023355
    19  H    0.044164  -0.015731  -0.006609   0.073765   0.229400  -0.000969
    20  H   -0.008693   0.030230   0.023839   0.009450  -0.002318   0.271179
    21  H    0.184714   0.002820   0.048693  -0.045148  -0.178561  -0.002566
    22  H   -0.091185   0.009408   0.004369   0.091271   0.060536  -0.001357
    23  H    0.000071  -0.000001   0.000013   0.000404  -0.000007   0.000001
    24  H   -0.000221   0.000004  -0.000014  -0.000727   0.000132   0.000000
    25  H   -0.007527  -0.008948   0.003517   0.001533   0.025592   0.000012
    26  H    0.047443  -0.019401  -0.002600   0.021007  -0.060311  -0.000038
    27  H   -0.005918  -0.002667  -0.001217  -0.001246   0.000890   0.000116
    28  H   -0.014541   0.011276  -0.001349  -0.028410   0.054616   0.001096
    29  H   -0.000471  -0.000002  -0.000116   0.000058   0.000041  -0.000001
    30  H   -0.000008   0.000000   0.000000   0.000009   0.000001   0.000000
    31  H    0.000462  -0.000001   0.000037   0.000420  -0.000106   0.000003
              7          8          9         10         11         12
     1  C    2.149527  -0.823959   0.305369  -0.013446   0.009856  -0.035148
     2  C   -0.267081   0.076549  -0.018582   0.000262  -0.000098   0.079545
     3  C   -0.187360   0.213976  -0.037654  -0.000608   0.000375  -0.022083
     4  C   -2.905360   0.354533  -0.574182   0.020671  -0.014903   0.167205
     5  C   -1.125195   0.681606  -0.174956   0.002144  -0.004857  -0.161558
     6  C   -0.014711  -0.045413   0.008488   0.000012  -0.000020  -0.000423
     7  C    8.863666  -1.468228   0.787363   0.023171  -0.018848   0.059479
     8  C   -1.468228   8.979188  -1.339765  -0.220845  -0.092560  -0.017716
     9  C    0.787363  -1.339765   6.231923   0.275483   0.008390  -0.037431
    10  O    0.023171  -0.220845   0.275483   8.431721   0.052505  -0.002345
    11  C   -0.018848  -0.092560   0.008390   0.052505   5.141199   0.001222
    12  O    0.059479  -0.017716  -0.037431  -0.002345   0.001222   8.392306
    13  C   -0.146835  -0.506007  -0.066149  -0.007019   0.006267  -0.007510
    14  O    0.008928   0.016080   0.498785  -0.142571   0.019778  -0.006281
    15  C    0.006586  -0.021370  -0.019544  -0.056992   0.266234  -0.000391
    16  H   -0.020975   0.014985   0.003388  -0.000047   0.000070   0.000410
    17  H   -0.006326   0.000225  -0.000020   0.000000   0.000000   0.000079
    18  H   -0.004162  -0.000023  -0.000030   0.000000  -0.000001   0.000020
    19  H   -0.001510  -0.007414  -0.002301   0.000004  -0.000032   0.000320
    20  H    0.002605  -0.000215  -0.000008   0.000000   0.000000  -0.000001
    21  H    0.284825   0.061378  -0.019223  -0.000772   0.000743  -0.055860
    22  H   -0.159621   0.478815  -0.094796  -0.005087  -0.001759   0.011412
    23  H   -0.000252  -0.002135   0.014953  -0.059470   0.419978  -0.000002
    24  H   -0.004476   0.014491  -0.007734  -0.035165   0.400069   0.000029
    25  H    0.030576   0.000929  -0.018932   0.000356  -0.000262   0.218641
    26  H    0.057185  -0.095388   0.004046  -0.000362  -0.000483  -0.005317
    27  H    0.036057  -0.202201   0.052165   0.009271   0.003245   0.000076
    28  H   -0.081649   0.018332  -0.044336  -0.000415  -0.000113   0.008602
    29  H   -0.000470  -0.000995   0.009432  -0.004027  -0.041528   0.000000
    30  H   -0.000357   0.003073   0.004151   0.007088  -0.046172   0.000001
    31  H   -0.000024  -0.000647  -0.002109  -0.005907  -0.043731  -0.000014
             13         14         15         16         17         18
     1  C    0.100072  -0.027553   0.001570   0.168209   0.003146   0.038611
     2  C    0.023476   0.001692   0.000091  -0.000082   0.270355  -0.005418
     3  C   -0.104824  -0.000663   0.000711   0.013869  -0.004582   0.259259
     4  C    0.259247  -0.024887  -0.001924   0.111012   0.022538   0.012002
     5  C   -0.095982   0.041352  -0.001861   0.038301   0.024946   0.002931
     6  C    0.024566  -0.000016  -0.000010  -0.010208   0.015824   0.023355
     7  C   -0.146835   0.008928   0.006586  -0.020975  -0.006326  -0.004162
     8  C   -0.506007   0.016080  -0.021370   0.014985   0.000225  -0.000023
     9  C   -0.066149   0.498785  -0.019544   0.003388  -0.000020  -0.000030
    10  O   -0.007019  -0.142571  -0.056992  -0.000047   0.000000   0.000000
    11  C    0.006267   0.019778   0.266234   0.000070   0.000000  -0.000001
    12  O   -0.007510  -0.006281  -0.000391   0.000410   0.000079   0.000020
    13  C    5.856298  -0.073440  -0.000418  -0.000510   0.000038   0.000126
    14  O   -0.073440   8.223696  -0.041053  -0.000033   0.000000   0.000000
    15  C   -0.000418  -0.041053   5.206700  -0.000035   0.000000   0.000001
    16  H   -0.000510  -0.000033  -0.000035   0.509742   0.000012  -0.003948
    17  H    0.000038   0.000000   0.000000   0.000012   0.498078  -0.000123
    18  H    0.000126   0.000000   0.000001  -0.003948  -0.000123   0.497774
    19  H    0.005784   0.000013   0.000000  -0.000110  -0.004035   0.000011
    20  H   -0.000011   0.000000   0.000000  -0.000121  -0.003848  -0.003878
    21  H   -0.013601  -0.002823  -0.000963   0.000996   0.000002  -0.000004
    22  H   -0.010258   0.008515   0.000373   0.000062   0.000000   0.000002
    23  H    0.000841   0.000232  -0.041849   0.000000   0.000000   0.000000
    24  H   -0.001618   0.000311  -0.032770   0.000000   0.000000   0.000000
    25  H   -0.015015   0.019864   0.000372  -0.000003   0.000000   0.000000
    26  H    0.419530  -0.000178   0.000031  -0.000005  -0.000008   0.000000
    27  H    0.469131  -0.000049   0.000302   0.000001   0.000000   0.000000
    28  H    0.432691   0.003003  -0.000266   0.000000   0.000000   0.000000
    29  H    0.000359  -0.000501   0.401156   0.000000   0.000000   0.000000
    30  H    0.000137  -0.000178   0.396347   0.000000   0.000000   0.000000
    31  H   -0.000209   0.001645   0.413699   0.000000   0.000000   0.000000
             19         20         21         22         23         24
     1  C    0.044164  -0.008693   0.184714  -0.091185   0.000071  -0.000221
     2  C   -0.015731   0.030230   0.002820   0.009408  -0.000001   0.000004
     3  C   -0.006609   0.023839   0.048693   0.004369   0.000013  -0.000014
     4  C    0.073765   0.009450  -0.045148   0.091271   0.000404  -0.000727
     5  C    0.229400  -0.002318  -0.178561   0.060536  -0.000007   0.000132
     6  C   -0.000969   0.271179  -0.002566  -0.001357   0.000001   0.000000
     7  C   -0.001510   0.002605   0.284825  -0.159621  -0.000252  -0.004476
     8  C   -0.007414  -0.000215   0.061378   0.478815  -0.002135   0.014491
     9  C   -0.002301  -0.000008  -0.019223  -0.094796   0.014953  -0.007734
    10  O    0.000004   0.000000  -0.000772  -0.005087  -0.059470  -0.035165
    11  C   -0.000032   0.000000   0.000743  -0.001759   0.419978   0.400069
    12  O    0.000320  -0.000001  -0.055860   0.011412  -0.000002   0.000029
    13  C    0.005784  -0.000011  -0.013601  -0.010258   0.000841  -0.001618
    14  O    0.000013   0.000000  -0.002823   0.008515   0.000232   0.000311
    15  C    0.000000   0.000000  -0.000963   0.000373  -0.041849  -0.032770
    16  H   -0.000110  -0.000121   0.000996   0.000062   0.000000   0.000000
    17  H   -0.004035  -0.003848   0.000002   0.000000   0.000000   0.000000
    18  H    0.000011  -0.003878  -0.000004   0.000002   0.000000   0.000000
    19  H    0.499581  -0.000117  -0.000019   0.000015   0.000000   0.000000
    20  H   -0.000117   0.500850   0.000000   0.000000   0.000000   0.000000
    21  H   -0.000019   0.000000   0.583922   0.000201   0.000000   0.000002
    22  H    0.000015   0.000000   0.000201   0.502438  -0.000017  -0.000019
    23  H    0.000000   0.000000   0.000000  -0.000017   0.524844  -0.031229
    24  H    0.000000   0.000000   0.000002  -0.000019  -0.031229   0.520556
    25  H    0.000014   0.000000  -0.007059  -0.000161   0.000000  -0.000006
    26  H   -0.000127   0.000000  -0.000087  -0.003212   0.000000   0.000000
    27  H    0.000012   0.000000  -0.000085  -0.003418  -0.000005   0.000010
    28  H   -0.000088   0.000000  -0.000044   0.003609  -0.000001  -0.000007
    29  H    0.000000   0.000000   0.000001  -0.000014  -0.005055   0.003806
    30  H    0.000000   0.000000   0.000000   0.000000  -0.001192  -0.001085
    31  H    0.000000   0.000000  -0.000013  -0.000006   0.003893  -0.004921
             25         26         27         28         29         30
     1  C   -0.007527   0.047443  -0.005918  -0.014541  -0.000471  -0.000008
     2  C   -0.008948  -0.019401  -0.002667   0.011276  -0.000002   0.000000
     3  C    0.003517  -0.002600  -0.001217  -0.001349  -0.000116   0.000000
     4  C    0.001533   0.021007  -0.001246  -0.028410   0.000058   0.000009
     5  C    0.025592  -0.060311   0.000890   0.054616   0.000041   0.000001
     6  C    0.000012  -0.000038   0.000116   0.001096  -0.000001   0.000000
     7  C    0.030576   0.057185   0.036057  -0.081649  -0.000470  -0.000357
     8  C    0.000929  -0.095388  -0.202201   0.018332  -0.000995   0.003073
     9  C   -0.018932   0.004046   0.052165  -0.044336   0.009432   0.004151
    10  O    0.000356  -0.000362   0.009271  -0.000415  -0.004027   0.007088
    11  C   -0.000262  -0.000483   0.003245  -0.000113  -0.041528  -0.046172
    12  O    0.218641  -0.005317   0.000076   0.008602   0.000000   0.000001
    13  C   -0.015015   0.419530   0.469131   0.432691   0.000359   0.000137
    14  O    0.019864  -0.000178  -0.000049   0.003003  -0.000501  -0.000178
    15  C    0.000372   0.000031   0.000302  -0.000266   0.401156   0.396347
    16  H   -0.000003  -0.000005   0.000001   0.000000   0.000000   0.000000
    17  H    0.000000  -0.000008   0.000000   0.000000   0.000000   0.000000
    18  H    0.000000   0.000000   0.000000   0.000000   0.000000   0.000000
    19  H    0.000014  -0.000127   0.000012  -0.000088   0.000000   0.000000
    20  H    0.000000   0.000000   0.000000   0.000000   0.000000   0.000000
    21  H   -0.007059  -0.000087  -0.000085  -0.000044   0.000001   0.000000
    22  H   -0.000161  -0.003212  -0.003418   0.003609  -0.000014   0.000000
    23  H    0.000000   0.000000  -0.000005  -0.000001  -0.005055  -0.001192
    24  H   -0.000006   0.000000   0.000010  -0.000007   0.003806  -0.001085
    25  H    0.350975   0.000168  -0.000002  -0.000769   0.000000   0.000000
    26  H    0.000168   0.496899  -0.022650  -0.022655   0.000000   0.000000
    27  H   -0.000002  -0.022650   0.517216  -0.026862   0.000000   0.000000
    28  H   -0.000769  -0.022655  -0.026862   0.498277   0.000000   0.000000
    29  H    0.000000   0.000000   0.000000   0.000000   0.515946  -0.022531
    30  H    0.000000   0.000000   0.000000   0.000000  -0.022531   0.503395
    31  H    0.000002   0.000000   0.000000   0.000000  -0.029369  -0.021817
             31
     1  C    0.000462
     2  C   -0.000001
     3  C    0.000037
     4  C    0.000420
     5  C   -0.000106
     6  C    0.000003
     7  C   -0.000024
     8  C   -0.000647
     9  C   -0.002109
    10  O   -0.005907
    11  C   -0.043731
    12  O   -0.000014
    13  C   -0.000209
    14  O    0.001645
    15  C    0.413699
    16  H    0.000000
    17  H    0.000000
    18  H    0.000000
    19  H    0.000000
    20  H    0.000000
    21  H   -0.000013
    22  H   -0.000006
    23  H    0.003893
    24  H   -0.004921
    25  H    0.000002
    26  H    0.000000
    27  H    0.000000
    28  H    0.000000
    29  H   -0.029369
    30  H   -0.021817
    31  H    0.509350
 Mulliken atomic charges:
              1
     1  C   -0.067990
     2  C   -0.264612
     3  C   -0.289202
     4  C   -0.182424
     5  C    0.026677
     6  C   -0.160956
     7  C    0.103470
     8  C   -0.069279
     9  C    0.253815
    10  O   -0.267610
    11  C   -0.064562
    12  O   -0.587267
    13  C   -0.549157
    14  O   -0.523666
    15  C   -0.474725
    16  H    0.175018
    17  H    0.183698
    18  H    0.183494
    19  H    0.185980
    20  H    0.181055
    21  H    0.158529
    22  H    0.199882
    23  H    0.175986
    24  H    0.180581
    25  H    0.406135
    26  H    0.186513
    27  H    0.177829
    28  H    0.190002
    29  H    0.174283
    30  H    0.179138
    31  H    0.179363
 Sum of Mulliken atomic charges =   0.00000
 Mulliken charges with hydrogens summed into heavy atoms:
              1
     1  C    0.107028
     2  C   -0.080914
     3  C   -0.105708
     4  C   -0.182424
     5  C    0.212658
     6  C    0.020098
     7  C    0.261999
     8  C    0.130603
     9  C    0.253815
    10  O   -0.267610
    11  C    0.292004
    12  O   -0.181132
    13  C    0.005188
    14  O   -0.523666
    15  C    0.058059
 Sum of Mulliken charges with hydrogens summed into heavy atoms =   0.00000
 Electronic spatial extent (au):  <R**2>=           4271.0224
 Charge=              0.0000 electrons
 Dipole moment (field-independent basis, Debye):
    X=             -2.2784    Y=              2.6406    Z=              2.1385  Tot=              4.0911
 Quadrupole moment (field-independent basis, Debye-Ang):
   XX=            -74.6369   YY=            -87.8016   ZZ=            -94.7096
   XY=             -1.1189   XZ=              0.6833   YZ=             -4.7759
 Traceless Quadrupole moment (field-independent basis, Debye-Ang):
   XX=             11.0791   YY=             -2.0856   ZZ=             -8.9935
   XY=             -1.1189   XZ=              0.6833   YZ=             -4.7759
 Octapole moment (field-independent basis, Debye-Ang**2):
  XXX=            -61.5189  YYY=              5.9212  ZZZ=             -0.7409  XYY=             -0.6163
  XXY=             16.6874  XXZ=             27.8270  XZZ=            -21.6317  YZZ=             -3.0988
  YYZ=              2.6693  XYZ=              0.4324
 Hexadecapole moment (field-independent basis, Debye-Ang**3):
 XXXX=          -3897.5706 YYYY=           -746.9166 ZZZZ=           -430.8910 XXXY=            -58.0201
 XXXZ=             24.0147 YYYX=             28.1494 YYYZ=              5.7034 ZZZX=             -6.0423
 ZZZY=              7.7995 XXYY=           -832.9023 XXZZ=           -886.7334 YYZZ=           -210.7413
 XXYZ=             -8.8727 YYXZ=              7.5502 ZZXY=             -5.4960
 N-N= 9.932425036615D+02 E-N=-3.598263347608D+03  KE= 6.858942300215D+02
 1\1\GINC-COMPUTE-5-22\SP\RwB97XD\6-31+G(d,p)\C12H16O3\ELUCIANO.IQUIR\1
 7-May-2022\0\\# wb97xd/6-31+g** scrf=(pcm,solvent=chloroform,smd,dovac
 uum) nmr\\comment\\0,1\C,0,0.34631817,2.624078652,-0.026588773\C,0,1.8
 83071432,3.105022692,2.247729838\C,0,0.367716865,3.896927329,0.5474614
 05\C,0,1.094299245,1.572661837,0.529337954\C,0,1.862176874,1.832004883
 ,1.674564143\C,0,1.135547173,4.136610225,1.684640729\C,0,1.035611935,0
 .192181251,-0.101601237\C,0,-0.229230469,-0.580665708,0.320278779\C,0,
 -0.415285448,-1.738192814,-0.63476042\O,0,-1.737365509,-2.034230746,-0
 .770412364\C,0,-2.048867805,-3.136752464,-1.635413667\O,0,2.220255229,
 -0.541570212,0.220243079\C,0,-0.184435508,-1.127943984,1.745258714\O,0
 ,0.50345646,-2.327289203,-1.191190934\C,0,-2.164397692,-2.658650394,-3
 .070522387\H,0,-0.257965981,2.459048954,-0.915891293\H,0,2.486508034,3
 .289341052,3.132590974\H,0,-0.213166769,4.702344108,0.105767969\H,0,2.
 454716761,1.038056614,2.125634474\H,0,1.15458645,5.127378553,2.1305127
 69\H,0,1.052172229,0.332252944,-1.190961811\H,0,-1.100719471,0.0781043
 4,0.209845432\H,0,-3.01035284,-3.541900299,-1.303446212\H,0,-1.3097771
 31,-3.940174824,-1.537840189\H,0,2.198220078,-1.34930192,-0.330883374\
 H,0,-0.081563498,-0.322524856,2.478339993\H,0,-1.106995009,-1.67130668
 1,1.978921822\H,0,0.644758506,-1.829986256,1.884784579\H,0,-2.90682798
 9,-1.857790126,-3.150254475\H,0,-2.458482538,-3.479706507,-3.730379355
 \H,0,-1.213981783,-2.248026441,-3.425766163\\Version=EM64L-G09RevC.01\
 State=1-A\HF=-692.4468599\RMSD=3.080e-09\Dipole=-1.5686963,-0.1858172,
 -0.3087697\Quadrupole=-5.2523428,4.3303474,0.9219953,4.0269914,4.99649
 51,2.5026119\PG=C01 [X(C12H16O3)]\\@


 IF YOU GET CONFUSED, LOGIC OUT YOUR DILEMMA

           --  PICKER X-RAY CORP.    DIGITAL PRINTER MANUAL CA. 1964
 Job cpu time:  0 days  0 hours 44 minutes  0.6 seconds.
 File lengths (MBytes):  RWF=    124 Int=      0 D2E=      0 Chk=      9 Scr=      1
 Normal termination of Gaussian 09 at Tue May 17 15:48:40 2022.
