 Entering Gaussian System, Link 0=g09
 Input=/home/eluciano.iquir/wb9/73a_027.gjc
 Output=/home/eluciano.iquir/wb9/73a_027.log
 Initial command:
 /share/apps/Gaussian09/EM64T.SSE4.2-enabled/g09/l1.exe /tmp/Gau-63334.inp -scrdir=/tmp/
 Entering Link 1 = /share/apps/Gaussian09/EM64T.SSE4.2-enabled/g09/l1.exe PID=     63335.
  
 Copyright (c) 1988,1990,1992,1993,1995,1998,2003,2009,2011,
            Gaussian, Inc.  All Rights Reserved.
  
 This is part of the Gaussian(R) 09 program.  It is based on
 the Gaussian(R) 03 system (copyright 2003, Gaussian, Inc.),
 the Gaussian(R) 98 system (copyright 1998, Gaussian, Inc.),
 the Gaussian(R) 94 system (copyright 1995, Gaussian, Inc.),
 the Gaussian 92(TM) system (copyright 1992, Gaussian, Inc.),
 the Gaussian 90(TM) system (copyright 1990, Gaussian, Inc.),
 the Gaussian 88(TM) system (copyright 1988, Gaussian, Inc.),
 the Gaussian 86(TM) system (copyright 1986, Carnegie Mellon
 University), and the Gaussian 82(TM) system (copyright 1983,
 Carnegie Mellon University). Gaussian is a federally registered
 trademark of Gaussian, Inc.
  
 This software contains proprietary and confidential information,
 including trade secrets, belonging to Gaussian, Inc.
  
 This software is provided under written license and may be
 used, copied, transmitted, or stored only in accord with that
 written license.
  
 The following legend is applicable only to US Government
 contracts under FAR:
  
                    RESTRICTED RIGHTS LEGEND
  
 Use, reproduction and disclosure by the US Government is
 subject to restrictions as set forth in subparagraphs (a)
 and (c) of the Commercial Computer Software - Restricted
 Rights clause in FAR 52.227-19.
  
 Gaussian, Inc.
 340 Quinnipiac St., Bldg. 40, Wallingford CT 06492
  
  
 ---------------------------------------------------------------
 Warning -- This program may not be used in any manner that
 competes with the business of Gaussian, Inc. or will provide
 assistance to any competitor of Gaussian, Inc.  The licensee
 of this program is prohibited from giving any competitor of
 Gaussian, Inc. access to this program.  By using this program,
 the user acknowledges that Gaussian, Inc. is engaged in the
 business of creating and licensing software in the field of
 computational chemistry and represents and warrants to the
 licensee that it is not a competitor of Gaussian, Inc. and that
 it will not use this program in any manner prohibited above.
 ---------------------------------------------------------------
  

 Cite this work as:
 Gaussian 09, Revision C.01,
 M. J. Frisch, G. W. Trucks, H. B. Schlegel, G. E. Scuseria, 
 M. A. Robb, J. R. Cheeseman, G. Scalmani, V. Barone, B. Mennucci, 
 G. A. Petersson, H. Nakatsuji, M. Caricato, X. Li, H. P. Hratchian, 
 A. F. Izmaylov, J. Bloino, G. Zheng, J. L. Sonnenberg, M. Hada, 
 M. Ehara, K. Toyota, R. Fukuda, J. Hasegawa, M. Ishida, T. Nakajima, 
 Y. Honda, O. Kitao, H. Nakai, T. Vreven, J. A. Montgomery, Jr., 
 J. E. Peralta, F. Ogliaro, M. Bearpark, J. J. Heyd, E. Brothers, 
 K. N. Kudin, V. N. Staroverov, T. Keith, R. Kobayashi, J. Normand, 
 K. Raghavachari, A. Rendell, J. C. Burant, S. S. Iyengar, J. Tomasi, 
 M. Cossi, N. Rega, J. M. Millam, M. Klene, J. E. Knox, J. B. Cross, 
 V. Bakken, C. Adamo, J. Jaramillo, R. Gomperts, R. E. Stratmann, 
 O. Yazyev, A. J. Austin, R. Cammi, C. Pomelli, J. W. Ochterski, 
 R. L. Martin, K. Morokuma, V. G. Zakrzewski, G. A. Voth, 
 P. Salvador, J. J. Dannenberg, S. Dapprich, A. D. Daniels, 
 O. Farkas, J. B. Foresman, J. V. Ortiz, J. Cioslowski, 
 and D. J. Fox, Gaussian, Inc., Wallingford CT, 2010.
 
 ******************************************
 Gaussian 09:  EM64L-G09RevC.01 23-Sep-2011
                17-May-2022 
 ******************************************
 %nprocshared=4
 Will use up to    4 processors via shared memory.
 ----------------------------------------------------------------
 # wb97xd/6-31+g** scrf=(pcm,solvent=chloroform,smd,dovacuum) nmr
 ----------------------------------------------------------------
 1/38=1/1;
 2/12=2,17=6,18=5,40=1/2;
 3/5=1,6=6,7=111,11=2,16=1,25=1,30=1,70=32101,72=7,74=-58/1,2,8,3;
 4//1;
 5/5=2,38=5,53=7/2;
 8/6=1,10=90,11=11/1;
 10/13=100,45=16/2;
 6/7=2,8=2,9=2,10=2,28=1/1;
 99/9=1/99;
 -------
 comment
 -------
 Charge =  0 Multiplicity = 1
 Symbolic Z-Matrix:
 6                     2.21612   0.95767   1.32324 
 6                     2.67081  -0.48888  -1.01506 
 6                     3.44473   0.32695   1.11767 
 6                     1.19715   0.8732    0.36146 
 6                     1.44268   0.1423   -0.81123 
 6                     3.67139  -0.39611  -0.05092 
 6                    -0.13133   1.56366   0.59878 
 6                    -1.26487   0.70647   1.18239 
 6                    -1.57406  -0.51125   0.33292 
 8                    -2.42374  -0.18246  -0.68082 
 6                    -2.85148  -1.26194  -1.52319 
 8                    -0.57149   2.21435  -0.5975 
 6                    -0.98686   0.27353   2.62392 
 8                    -1.15157  -1.64034   0.5466 
 6                    -1.84402  -1.50399  -2.63094 
 1                     2.06046   1.51351   2.24557 
 1                     2.84326  -1.05833  -1.92472 
 1                     4.22416   0.3961    1.87218 
 1                     0.67358   0.055    -1.57589 
 1                     4.62573  -0.89163  -0.20834 
 1                     0.04868   2.39043   1.29871 
 1                    -2.18335   1.30982   1.20763 
 1                    -3.81039  -0.96328  -1.95934 
 1                    -3.03397  -2.17206  -0.94031 
 1                     0.22257   2.55159  -1.04878 
 1                    -0.81057   1.1432    3.26533 
 1                    -1.84262  -0.2763    3.03173 
 1                    -0.11604  -0.38659   2.6941 
 1                    -1.64814  -0.57929  -3.18347 
 1                    -2.21021  -2.26272  -3.32834 
 1                    -0.88663  -1.84261  -2.22338 
 
                          Input orientation:                          
 ---------------------------------------------------------------------
 Center     Atomic      Atomic             Coordinates (Angstroms)
 Number     Number       Type             X           Y           Z
 ---------------------------------------------------------------------
      1          6           0        2.216122    0.957666    1.323238
      2          6           0        2.670814   -0.488877   -1.015063
      3          6           0        3.444733    0.326953    1.117674
      4          6           0        1.197150    0.873197    0.361461
      5          6           0        1.442682    0.142300   -0.811231
      6          6           0        3.671390   -0.396110   -0.050917
      7          6           0       -0.131334    1.563663    0.598779
      8          6           0       -1.264875    0.706470    1.182390
      9          6           0       -1.574056   -0.511250    0.332919
     10          8           0       -2.423737   -0.182462   -0.680821
     11          6           0       -2.851478   -1.261936   -1.523188
     12          8           0       -0.571485    2.214351   -0.597502
     13          6           0       -0.986856    0.273526    2.623921
     14          8           0       -1.151569   -1.640344    0.546602
     15          6           0       -1.844019   -1.503985   -2.630943
     16          1           0        2.060458    1.513508    2.245567
     17          1           0        2.843261   -1.058334   -1.924716
     18          1           0        4.224164    0.396101    1.872176
     19          1           0        0.673585    0.055004   -1.575892
     20          1           0        4.625729   -0.891631   -0.208341
     21          1           0        0.048676    2.390431    1.298709
     22          1           0       -2.183354    1.309816    1.207634
     23          1           0       -3.810392   -0.963284   -1.959342
     24          1           0       -3.033972   -2.172056   -0.940310
     25          1           0        0.222574    2.551589   -1.048778
     26          1           0       -0.810570    1.143202    3.265332
     27          1           0       -1.842621   -0.276302    3.031731
     28          1           0       -0.116035   -0.386590    2.694101
     29          1           0       -1.648144   -0.579288   -3.183473
     30          1           0       -2.210214   -2.262717   -3.328339
     31          1           0       -0.886628   -1.842611   -2.223380
 ---------------------------------------------------------------------
                    Distance matrix (angstroms):
                    1          2          3          4          5
     1  C    0.000000
     2  C    2.786913   0.000000
     3  C    1.396260   2.411036   0.000000
     4  C    1.403729   2.433465   2.433489   0.000000
     5  C    2.412258   1.395794   2.786212   1.403461   0.000000
     6  C    2.416364   1.392600   1.392766   2.811238   2.415595
     7  C    2.530340   3.830070   3.819287   1.515893   2.546748
     8  C    3.492889   4.663400   4.725317   2.600632   3.409352
     9  C    4.183766   4.453817   5.148463   3.097918   3.291948
    10  O    5.181161   5.114690   6.158979   3.913002   3.882225
    11  C    6.221684   5.599243   7.010064   4.949958   4.573683
    12  O    3.610991   4.241970   4.757532   2.417928   2.897576
    13  C    3.524044   5.215555   4.680878   3.201283   4.209530
    14  O    4.323674   4.286641   5.032134   3.445090   3.428071
    15  C    6.178998   4.901553   6.736123   4.884074   4.101708
    16  H    1.088064   3.874764   2.143892   2.169137   3.406740
    17  H    3.873856   1.086962   3.396604   3.415713   2.154760
    18  H    2.156136   3.395914   1.087000   3.416533   3.873207
    19  H    3.405756   2.144589   3.874082   2.167232   1.088043
    20  H    3.401741   2.152836   2.153605   3.898005   3.400629
    21  H    2.598314   4.529852   3.977929   2.121185   3.383666
    22  H    4.415061   5.633705   5.713972   3.512044   4.311270
    23  H    7.126307   6.566792   7.985585   5.816723   5.489559
    24  H    6.517844   5.948383   7.242510   5.373134   5.041164
    25  H    3.484435   3.903774   4.474911   2.399077   2.711045
    26  H    3.600974   5.753738   4.835939   3.540665   4.764170
    27  H    4.573294   6.065709   5.655408   4.206174   5.073145
    28  H    3.020802   4.640571   3.958957   2.958501   3.872555
    29  H    6.132310   4.833588   6.727446   4.771998   3.962503
    30  H    7.183348   5.685261   7.645381   5.921040   5.046146
    31  H    5.481524   3.993498   5.884755   4.289423   3.370419
                    6          7          8          9         10
     6  C    0.000000
     7  C    4.327068   0.000000
     8  C    5.206096   1.536326   0.000000
     9  C    5.260731   2.541140   1.516587   0.000000
    10  O    6.131312   3.153005   2.367428   1.362985   0.000000
    11  C    6.742777   4.459365   3.702984   2.374968   1.434507
    12  O    5.011512   1.431159   2.433621   3.049547   3.030262
    13  C    5.413171   2.549033   1.530603   2.491860   3.632337
    14  O    5.016580   3.362924   2.434050   1.224340   2.291375
    15  C    6.188994   4.772301   4.445563   3.137336   2.425999
    16  H    3.393462   2.741966   3.583224   4.579035   5.616766
    17  H    2.153012   4.700118   5.444761   4.990883   5.482307
    18  H    2.152079   4.685627   5.540910   6.067286   7.144726
    19  H    3.393507   2.766431   3.433679   3.002681   3.232791
    20  H    1.086778   5.413830   6.259974   6.234981   7.100783
    21  H    4.765538   1.098112   2.138848   3.462046   4.080581
    22  H    6.226729   2.155442   1.099213   2.110131   2.418871
    23  H    7.742146   5.144406   4.374725   3.234191   2.041351
    24  H    6.993345   4.974907   3.990172   2.551615   2.097190
    25  H    4.645319   1.953380   3.255008   3.810243   3.822746
    26  H    5.784026   2.783640   2.176183   3.452415   4.464506
    27  H    6.318337   3.497603   2.172486   2.722299   3.758929
    28  H    4.677585   2.862533   2.190863   2.777867   4.093563
    29  H    6.176075   4.604170   4.567366   3.517831   2.649960
    30  H    6.987058   5.863888   5.482374   4.108181   3.373783
    31  H    5.252379   4.487511   4.270849   2.963063   2.738300
                   11         12         13         14         15
    11  C    0.000000
    12  O    4.259089   0.000000
    13  C    4.799269   3.783768   0.000000
    14  O    2.704980   4.062529   2.829361   0.000000
    15  C    1.516800   4.424957   5.613187   3.254976   0.000000
    16  H    6.784816   3.937175   3.311620   4.811484   6.937619
    17  H    5.712507   4.912480   6.093746   4.733373   4.761087
    18  H    8.021365   5.692416   5.266391   5.899387   7.791742
    19  H    3.763399   2.677728   4.521420   3.272670   3.143550
    20  H    7.600958   6.067092   6.393779   5.874324   6.935532
    21  H    5.451035   2.002803   2.703664   4.272399   5.847301
    22  H    3.810208   2.583568   2.123999   3.194524   4.771509
    23  H    1.094960   4.737351   5.523437   3.715845   2.147097
    24  H    1.096070   5.042016   4.782813   2.457044   2.172682
    25  H    4.921162   0.973607   4.487873   4.691035   4.818893
    26  H    5.734102   4.015720   1.094907   3.905880   6.545355
    27  H    4.768287   4.581536   1.095881   2.917881   5.794228
    28  H    5.102393   4.219831   1.094992   2.693693   5.708817
    29  H    2.161150   3.956117   5.906812   3.909717   1.094862
    30  H    2.161331   5.494274   6.584720   4.064880   1.093680
    31  H    2.165199   4.381979   5.290029   2.789965   1.094244
                   16         17         18         19         20
    16  H    0.000000
    17  H    4.961694   0.000000
    18  H    2.463665   4.294026   0.000000
    19  H    4.319051   2.463472   4.961062   0.000000
    20  H    4.288004   2.480105   2.479529   4.287861   0.000000
    21  H    2.390146   5.485814   4.662715   3.756070   5.830313
    22  H    4.373641   6.378606   6.506365   4.181467   7.294859
    23  H    7.634307   6.654422   9.004585   4.614107   8.616221
    24  H    7.048859   6.062285   8.196710   4.371468   7.800402
    25  H    3.912562   4.546077   5.402853   2.591177   5.652422
    26  H    3.069177   6.718172   5.277082   5.179222   6.764636
    27  H    4.365260   6.865525   6.213097   5.260346   7.260595
    28  H    2.923812   5.526495   4.486145   4.364784   5.582434
    29  H    6.899855   4.688995   7.809928   2.894316   6.950571
    30  H    7.972889   5.381292   8.689988   4.093800   7.638349
    31  H    6.318255   3.823136   6.921388   2.540560   5.945656
                   21         22         23         24         25
    21  H    0.000000
    22  H    2.481528   0.000000
    23  H    6.062566   4.224213   0.000000
    24  H    5.944090   4.178594   1.761359   0.000000
    25  H    2.359430   3.524470   5.426626   5.738439   0.000000
    26  H    2.482234   2.479196   6.382275   5.798437   4.654297
    27  H    3.700248   2.441147   5.408778   4.559639   5.377040
    28  H    3.112249   3.059605   5.969538   4.991111   4.770398
    29  H    5.638119   4.810092   2.514213   3.080457   4.225979
    30  H    6.940025   5.773973   2.474520   2.527743   5.855972
    31  H    5.585566   4.836440   3.064526   2.523071   4.681775
                   26         27         28         29         30
    26  H    0.000000
    27  H    1.770506   0.000000
    28  H    1.774527   1.762741   0.000000
    29  H    6.727228   6.225624   6.077037   0.000000
    30  H    7.552204   6.673190   6.646445   1.780686   0.000000
    31  H    6.248746   5.566277   5.186081   1.760020   1.774628
                   31
    31  H    0.000000
 Stoichiometry    C12H16O3
 Framework group  C1[X(C12H16O3)]
 Deg. of freedom    87
 Full point group                 C1      NOp   1
 Largest Abelian subgroup         C1      NOp   1
 Largest concise Abelian subgroup C1      NOp   1
                         Standard orientation:                         
 ---------------------------------------------------------------------
 Center     Atomic      Atomic             Coordinates (Angstroms)
 Number     Number       Type             X           Y           Z
 ---------------------------------------------------------------------
      1          6           0        2.622171   -0.712694    0.012110
      2          6           0        2.089850    2.021451   -0.077176
      3          6           0        3.580050    0.171262   -0.488520
      4          6           0        1.383792   -0.240915    0.475033
      5          6           0        1.132042    1.138865    0.424704
      6          6           0        3.313443    1.537541   -0.533233
      7          6           0        0.354035   -1.212924    1.016079
      8          6           0       -0.731040   -1.690211    0.038784
      9          6           0       -1.517904   -0.543862   -0.566828
     10          8           0       -2.523015   -0.160499    0.270139
     11          6           0       -3.389152    0.875448   -0.214039
     12          8           0       -0.248599   -0.685882    2.202365
     13          6           0       -0.165523   -2.574038   -1.075571
     14          8           0       -1.306545   -0.053817   -1.668731
     15          6           0       -2.803993    2.242169    0.086538
     16          1           0        2.851149   -1.776177    0.033455
     17          1           0        1.877160    3.086639   -0.117483
     18          1           0        4.533490   -0.207086   -0.848205
     19          1           0        0.181560    1.537436    0.773363
     20          1           0        4.056901    2.224898   -0.928072
     21          1           0        0.894314   -2.102364    1.366573
     22          1           0       -1.454208   -2.306501    0.591489
     23          1           0       -4.343406    0.762337    0.310883
     24          1           0       -3.595135    0.753091   -1.283604
     25          1           0        0.443033   -0.196005    2.681506
     26          1           0        0.364341   -3.436601   -0.658379
     27          1           0       -0.972786   -2.952209   -1.712962
     28          1           0        0.527149   -2.026278   -1.723005
     29          1           0       -2.573948    2.337659    1.152691
     30          1           0       -3.503278    3.033700   -0.197388
     31          1           0       -1.867686    2.396482   -0.458335
 ---------------------------------------------------------------------
 Rotational constants (GHZ):      0.8782061      0.4386259      0.3731048
 Standard basis: 6-31+G(d,p) (6D, 7F)
 There are   365 symmetry adapted basis functions of A   symmetry.
 Integral buffers will be    131072 words long.
 Raffenetti 2 integral format.
 Two-electron integral symmetry is turned on.
   365 basis functions,   592 primitive gaussians,   365 cartesian basis functions
    56 alpha electrons       56 beta electrons
       nuclear repulsion energy      1030.4532030399 Hartrees.
 NAtoms=   31 NActive=   31 NUniq=   31 SFac= 1.00D+00 NAtFMM=   60 NAOKFM=F Big=F
 Nuclear repulsion after empirical dispersion term =     1030.4306249780 Hartrees.
 ------------------------------------------------------------------------------
 Polarizable Continuum Model (PCM)
 =================================
 Model                : C-PCM.
 Atomic radii         : SMD-Coulomb.
 Polarization charges : Total charges.
 Charge compensation  : None.
 Solution method      : Matrix inversion.
 Cavity type          : VdW (van der Waals Surface) (Alpha=1.000).
 Cavity algorithm     : GePol (No added spheres)
                        Default sphere list used, NSphG=   31.
                        Lebedev-Laikov grids with approx.  5.0 points / Ang**2.
                        Smoothing algorithm: Karplus/York (Gamma=1.0000).
                        Polarization charges: spherical gaussians, with
                                              point-specific exponents (IZeta= 3).
                        Self-potential: point-specific (ISelfS= 7).
                        Self-field    : sphere-specific E.n sum rule (ISelfD= 2).
 Solvent              : Chloroform, Eps=   4.711300 Eps(inf)=   2.090627
 ------------------------------------------------------------------------------
 ------------------------------------------------------------------------------
 Atomic radii for non-electrostatic terms: SMD-CDS.
 ------------------------------------------------------------------------------
 Nuclear repulsion after PCM non-electrostatic terms =     1030.4242190696 Hartrees.
 One-electron integrals computed using PRISM.
 NBasis=   365 RedAO= T  NBF=   365
 NBsUse=   365 1.00D-06 NBFU=   365
 Harris functional with IExCor= 4639 diagonalized for initial guess.
 ExpMin= 4.38D-02 ExpMax= 5.48D+03 ExpMxC= 8.25D+02 IAcc=2 IRadAn=         4 AccDes= 0.00D+00
 HarFok:  IExCor= 4639 AccDes= 0.00D+00 IRadAn=         4 IDoV= 1
 ScaDFX=  1.000000  1.000000  1.000000  1.000000
 FoFCou: FMM=F IPFlag=           0 FMFlag=      100000 FMFlg1=           0
         NFxFlg=           0 DoJE=T BraDBF=F KetDBF=T FulRan=T
         Omega=  0.000000  0.000000  1.000000  0.000000  0.000000 ICntrl=     500 IOpCl=  0
         NMat0=    1 NMatS0=    1 NMatT0=    0 NMatD0=    1 NMtDS0=    0 NMtDT0=    0
         I1Cent=           4 NGrid=           0.
 Petite list used in FoFCou.
 Initial guess orbital symmetries:
       Occupied  (A) (A) (A) (A) (A) (A) (A) (A) (A) (A) (A) (A)
                 (A) (A) (A) (A) (A) (A) (A) (A) (A) (A) (A) (A)
                 (A) (A) (A) (A) (A) (A) (A) (A) (A) (A) (A) (A)
                 (A) (A) (A) (A) (A) (A) (A) (A) (A) (A) (A) (A)
                 (A) (A) (A) (A) (A) (A) (A) (A)
       Virtual   (A) (A) (A) (A) (A) (A) (A) (A) (A) (A) (A) (A)
                 (A) (A) (A) (A) (A) (A) (A) (A) (A) (A) (A) (A)
                 (A) (A) (A) (A) (A) (A) (A) (A) (A) (A) (A) (A)
                 (A) (A) (A) (A) (A) (A) (A) (A) (A) (A) (A) (A)
                 (A) (A) (A) (A) (A) (A) (A) (A) (A) (A) (A) (A)
                 (A) (A) (A) (A) (A) (A) (A) (A) (A) (A) (A) (A)
                 (A) (A) (A) (A) (A) (A) (A) (A) (A) (A) (A) (A)
                 (A) (A) (A) (A) (A) (A) (A) (A) (A) (A) (A) (A)
                 (A) (A) (A) (A) (A) (A) (A) (A) (A) (A) (A) (A)
                 (A) (A) (A) (A) (A) (A) (A) (A) (A) (A) (A) (A)
                 (A) (A) (A) (A) (A) (A) (A) (A) (A) (A) (A) (A)
                 (A) (A) (A) (A) (A) (A) (A) (A) (A) (A) (A) (A)
                 (A) (A) (A) (A) (A) (A) (A) (A) (A) (A) (A) (A)
                 (A) (A) (A) (A) (A) (A) (A) (A) (A) (A) (A) (A)
                 (A) (A) (A) (A) (A) (A) (A) (A) (A) (A) (A) (A)
                 (A) (A) (A) (A) (A) (A) (A) (A) (A) (A) (A) (A)
                 (A) (A) (A) (A) (A) (A) (A) (A) (A) (A) (A) (A)
                 (A) (A) (A) (A) (A) (A) (A) (A) (A) (A) (A) (A)
                 (A) (A) (A) (A) (A) (A) (A) (A) (A) (A) (A) (A)
                 (A) (A) (A) (A) (A) (A) (A) (A) (A) (A) (A) (A)
                 (A) (A) (A) (A) (A) (A) (A) (A) (A) (A) (A) (A)
                 (A) (A) (A) (A) (A) (A) (A) (A) (A) (A) (A) (A)
                 (A) (A) (A) (A) (A) (A) (A) (A) (A) (A) (A) (A)
                 (A) (A) (A) (A) (A) (A) (A) (A) (A) (A) (A) (A)
                 (A) (A) (A) (A) (A) (A) (A) (A) (A) (A) (A) (A)
                 (A) (A) (A) (A) (A) (A) (A) (A) (A)
 The electronic state of the initial guess is 1-A.
 Requested convergence on RMS density matrix=1.00D-08 within 128 cycles.
 Requested convergence on MAX density matrix=1.00D-06.
 Requested convergence on             energy=1.00D-06.
 No special actions if energy rises.
 FoFJK:  IHMeth= 1 ICntrl=     0 DoSepK=T KAlg= 1 I1Cent= 0 FoldK=F
 FoFJK:  IHMeth= 1 ICntrl=     0 DoSepK=T KAlg= 1 I1Cent= 0 FoldK=F
 FoFJK:  IHMeth= 1 ICntrl=     0 DoSepK=T KAlg= 1 I1Cent= 0 FoldK=F
 FoFJK:  IHMeth= 1 ICntrl=     0 DoSepK=T KAlg= 1 I1Cent= 0 FoldK=F
 FoFJK:  IHMeth= 1 ICntrl=     0 DoSepK=T KAlg= 1 I1Cent= 0 FoldK=F
 FoFJK:  IHMeth= 1 ICntrl=     0 DoSepK=T KAlg= 1 I1Cent= 0 FoldK=F
 FoFJK:  IHMeth= 1 ICntrl=     0 DoSepK=T KAlg= 1 I1Cent= 0 FoldK=F
 FoFJK:  IHMeth= 1 ICntrl=     0 DoSepK=T KAlg= 1 I1Cent= 0 FoldK=F
 FoFJK:  IHMeth= 1 ICntrl=     0 DoSepK=T KAlg= 1 I1Cent= 0 FoldK=F
 FoFJK:  IHMeth= 1 ICntrl=     0 DoSepK=T KAlg= 1 I1Cent= 0 FoldK=F
 FoFJK:  IHMeth= 1 ICntrl=     0 DoSepK=T KAlg= 1 I1Cent= 0 FoldK=F
 FoFJK:  IHMeth= 1 ICntrl=     0 DoSepK=T KAlg= 1 I1Cent= 0 FoldK=F
 FoFJK:  IHMeth= 1 ICntrl=     0 DoSepK=T KAlg= 1 I1Cent= 0 FoldK=F
 FoFJK:  IHMeth= 1 ICntrl=     0 DoSepK=T KAlg= 1 I1Cent= 0 FoldK=F
 FoFJK:  IHMeth= 1 ICntrl=     0 DoSepK=T KAlg= 1 I1Cent= 0 FoldK=F
 FoFJK:  IHMeth= 1 ICntrl=     0 DoSepK=T KAlg= 1 I1Cent= 0 FoldK=F
 Error on total polarization charges =  0.03885
 SCF Done:  E(RwB97XD) =  -692.443166819     A.U. after   16 cycles
             Convg  =    0.3695D-08             -V/T =  2.0095
 SMD-CDS (non-electrostatic) energy       (kcal/mol) =      -4.02
 (included in total energy above)
 Range of M.O.s used for correlation:     1   365
 NBasis=   365 NAE=    56 NBE=    56 NFC=     0 NFV=     0
 NROrb=    365 NOA=    56 NOB=    56 NVA=   309 NVB=   309

 **** Warning!!: The largest alpha MO coefficient is  0.12987932D+03

 NEqPCM:  Using equilibrium solvation (IEInf=0, Eps=   4.7113, EpsInf=   2.0906)
          Differentiating once with respect to magnetic field using GIAOs.
          Electric field/nuclear overlap derivatives assumed to be zero.
 FoFCou: FMM=F IPFlag=           0 FMFlag=    10101102 FMFlg1=           0
         NFxFlg=    40000000 DoJE=F BraDBF=F KetDBF=T FulRan=T
         Omega=  0.000000  0.000000  1.000000  0.000000  0.000000 ICntrl=    6100 IOpCl=  0
         NMat0=    1 NMatS0=    1 NMatT0=    0 NMatD0=    1 NMtDS0=    0 NMtDT0=    0
         I1Cent=           7 NGrid=        2265.
 Symmetry not used in FoFCou.
 FoFJK:  IHMeth= 1 ICntrl=  6127 DoSepK=T KAlg= 1 I1Cent= 0 FoldK=F
 FoFJK:  IHMeth= 1 ICntrl=     0 DoSepK=T KAlg= 1 I1Cent= 0 FoldK=F
          There are     3 degrees of freedom in the 1st order CPHF.  IDoFFX=0.
      3 vectors produced by pass  0 Test12= 5.77D-13 3.33D-08 XBig12= 1.70D+02 2.32D+00.
 AX will form     3 AO Fock derivatives at one time.
 FoFJK:  IHMeth= 1 ICntrl=     0 DoSepK=T KAlg= 1 I1Cent= 0 FoldK=F
      3 vectors produced by pass  1 Test12= 5.77D-13 3.33D-08 XBig12= 1.26D+00 2.91D-01.
 FoFJK:  IHMeth= 1 ICntrl=     0 DoSepK=T KAlg= 1 I1Cent= 0 FoldK=F
      3 vectors produced by pass  2 Test12= 5.77D-13 3.33D-08 XBig12= 2.42D-02 5.96D-02.
 FoFJK:  IHMeth= 1 ICntrl=     0 DoSepK=T KAlg= 1 I1Cent= 0 FoldK=F
      3 vectors produced by pass  3 Test12= 5.77D-13 3.33D-08 XBig12= 4.66D-04 4.93D-03.
 FoFJK:  IHMeth= 1 ICntrl=     0 DoSepK=T KAlg= 1 I1Cent= 0 FoldK=F
      3 vectors produced by pass  4 Test12= 5.77D-13 3.33D-08 XBig12= 6.34D-06 4.49D-04.
 FoFJK:  IHMeth= 1 ICntrl=     0 DoSepK=T KAlg= 1 I1Cent= 0 FoldK=F
      3 vectors produced by pass  5 Test12= 5.77D-13 3.33D-08 XBig12= 8.82D-08 6.72D-05.
 FoFJK:  IHMeth= 1 ICntrl=     0 DoSepK=T KAlg= 1 I1Cent= 0 FoldK=F
      3 vectors produced by pass  6 Test12= 5.77D-13 3.33D-08 XBig12= 1.01D-09 6.81D-06.
 FoFJK:  IHMeth= 1 ICntrl=     0 DoSepK=T KAlg= 1 I1Cent= 0 FoldK=F
      3 vectors produced by pass  7 Test12= 5.77D-13 3.33D-08 XBig12= 1.06D-11 7.06D-07.
 FoFJK:  IHMeth= 1 ICntrl=     0 DoSepK=T KAlg= 1 I1Cent= 0 FoldK=F
      3 vectors produced by pass  8 Test12= 5.77D-13 3.33D-08 XBig12= 1.09D-13 5.83D-08.
 FoFJK:  IHMeth= 1 ICntrl=     0 DoSepK=T KAlg= 1 I1Cent= 0 FoldK=F
 Inverted reduced A of dimension    27 with in-core refinement.
 Calculating GIAO nuclear magnetic shielding tensors.
 SCF GIAO Magnetic shielding tensor (ppm):
      1  C    Isotropic =    69.4659   Anisotropy =   163.8942
   XX=    67.9619   YX=    24.0771   ZX=    44.8703
   XY=    23.5225   YY=   -24.0265   ZY=    13.6063
   XZ=    29.2701   YZ=     8.8119   ZZ=   164.4623
   Eigenvalues:   -29.8444    59.5134   178.7287
      2  C    Isotropic =    69.7645   Anisotropy =   176.3686
   XX=    71.1764   YX=    25.7246   ZX=    46.3654
   XY=    23.1121   YY=   -28.2994   ZY=    16.1503
   XZ=    43.3117   YZ=    20.2117   ZZ=   166.4164
   Eigenvalues:   -34.2879    56.2378   187.3435
      3  C    Isotropic =    71.1023   Anisotropy =   174.1377
   XX=     9.0053   YX=    30.5386   ZX=    71.2692
   XY=    32.3145   YY=    48.2972   ZY=     2.7561
   XZ=    74.0993   YZ=     0.2804   ZZ=   156.0043
   Eigenvalues:   -31.1837    57.2964   187.1941
      4  C    Isotropic =    54.8240   Anisotropy =   180.2717
   XX=    12.9007   YX=   -11.8903   ZX=    63.1440
   XY=   -19.6180   YY=     4.4229   ZY=    28.4463
   XZ=    61.5285   YZ=    34.9288   ZZ=   147.1485
   Eigenvalues:   -32.0304    21.4973   175.0051
      5  C    Isotropic =    72.1857   Anisotropy =   182.0049
   XX=    11.2144   YX=    29.8229   ZX=    75.7469
   XY=    32.7836   YY=    39.7553   ZY=     2.5544
   XZ=    64.4739   YZ=    -2.6070   ZZ=   165.5875
   Eigenvalues:   -28.4826    51.5175   193.5223
      6  C    Isotropic =    70.6986   Anisotropy =   176.2627
   XX=    36.6862   YX=   -29.7608   ZX=    67.5099
   XY=   -31.1408   YY=    22.3627   ZY=    32.6966
   XZ=    73.3076   YZ=    35.1081   ZZ=   153.0468
   Eigenvalues:   -30.6590    54.5477   188.2071
      7  C    Isotropic =   119.0211   Anisotropy =    36.3083
   XX=   119.2030   YX=    -5.1904   ZX=   -11.3853
   XY=   -10.0715   YY=   111.0548   ZY=    15.9582
   XZ=   -12.6086   YZ=    11.6493   ZZ=   126.8056
   Eigenvalues:   103.0045   110.8323   143.2267
      8  C    Isotropic =   151.6146   Anisotropy =    20.3639
   XX=   153.4352   YX=    -9.4324   ZX=     2.5032
   XY=    -9.9765   YY=   156.1954   ZY=     0.8498
   XZ=     8.0312   YZ=    -0.4792   ZZ=   145.2131
   Eigenvalues:   140.7815   148.8717   165.1905
      9  C    Isotropic =    20.1418   Anisotropy =    99.2011
   XX=   -12.9423   YX=    68.0637   ZX=    29.9417
   XY=    56.9456   YY=    27.0711   ZY=    10.1881
   XZ=    47.1334   YZ=   -14.2043   ZZ=    46.2966
   Eigenvalues:   -67.9620    42.1115    86.2759
     10  O    Isotropic =   119.5715   Anisotropy =   163.8038
   XX=   175.4639   YX=    17.8567   ZX=    15.3654
   XY=    62.9808   YY=   120.3590   ZY=    84.7621
   XZ=   -88.7130   YZ=   180.0248   ZZ=    62.8916
   Eigenvalues:   -56.4026   186.3431   228.7740
     11  C    Isotropic =   136.9877   Anisotropy =    65.9232
   XX=   146.1899   YX=   -22.2118   ZX=    18.7589
   XY=   -23.7042   YY=   158.0521   ZY=   -12.5893
   XZ=    18.1268   YZ=    -7.6297   ZZ=   106.7210
   Eigenvalues:    99.4243   130.6023   180.9365
     12  O    Isotropic =   276.1966   Anisotropy =    83.6571
   XX=   269.8096   YX=    50.8455   ZX=     8.8686
   XY=    52.2965   YY=   259.0453   ZY=    26.3038
   XZ=    -8.5817   YZ=    35.7914   ZZ=   299.7349
   Eigenvalues:   206.6550   289.9668   331.9680
     13  C    Isotropic =   181.1283   Anisotropy =    21.6734
   XX=   173.9249   YX=    -7.8562   ZX=    -2.2838
   XY=    -7.6971   YY=   185.7747   ZY=     7.8775
   XZ=     0.6838   YZ=     9.7850   ZZ=   183.6854
   Eigenvalues:   169.1565   178.6513   195.5773
     14  O    Isotropic =   -47.8331   Anisotropy =   582.0850
   XX=   -17.3474   YX=   218.8963   ZX=   185.7660
   XY=   196.6231   YY=    68.1416   ZY=   131.9248
   XZ=   197.6262   YZ=   156.5948   ZZ=  -194.2936
   Eigenvalues:  -317.3366  -166.3863   340.2235
     15  C    Isotropic =   180.7827   Anisotropy =    23.8853
   XX=   179.1550   YX=     3.8787   ZX=    10.2349
   XY=    -0.9208   YY=   196.2831   ZY=     1.9877
   XZ=     9.1933   YZ=     1.7744   ZZ=   166.9098
   Eigenvalues:   161.5247   184.1171   196.7062
     16  H    Isotropic =    23.8535   Anisotropy =     8.0376
   XX=    28.7760   YX=     0.6698   ZX=    -2.0731
   XY=     0.8581   YY=    22.2709   ZY=    -0.5470
   XZ=    -1.2659   YZ=    -0.7885   ZZ=    20.5137
   Eigenvalues:    20.0665    22.2821    29.2119
     17  H    Isotropic =    23.7708   Anisotropy =     5.8197
   XX=    26.2932   YX=     1.3562   ZX=    -2.3166
   XY=     1.3228   YY=    24.0013   ZY=    -0.5352
   XZ=    -2.1087   YZ=    -0.4051   ZZ=    21.0178
   Eigenvalues:    20.2125    23.4492    27.6506
     18  H    Isotropic =    23.8082   Anisotropy =     4.6602
   XX=    24.4862   YX=     0.9634   ZX=    -1.5017
   XY=     0.8522   YY=    26.0412   ZY=    -1.0447
   XZ=    -1.4806   YZ=    -1.1435   ZZ=    20.8971
   Eigenvalues:    20.2634    24.2462    26.9150
     19  H    Isotropic =    23.5605   Anisotropy =     7.8467
   XX=    23.8239   YX=     2.8271   ZX=    -0.0340
   XY=     2.1399   YY=    27.3951   ZY=    -1.1482
   XZ=    -0.5273   YZ=    -0.9730   ZZ=    19.4624
   Eigenvalues:    19.3225    22.5673    28.7916
     20  H    Isotropic =    23.7958   Anisotropy =     4.0813
   XX=    25.0720   YX=    -1.0050   ZX=    -1.6207
   XY=    -1.0534   YY=    25.5160   ZY=    -0.0329
   XZ=    -1.2964   YZ=     0.0857   ZZ=    20.7994
   Eigenvalues:    20.3334    24.5373    26.5167
     21  H    Isotropic =    26.6080   Anisotropy =     6.1454
   XX=    26.2811   YX=    -4.4658   ZX=    -0.2704
   XY=    -3.7851   YY=    26.8539   ZY=    -1.0685
   XZ=    -1.2857   YZ=    -0.1376   ZZ=    26.6890
   Eigenvalues:    22.2172    26.9018    30.7049
     22  H    Isotropic =    28.2889   Anisotropy =     5.4695
   XX=    29.1669   YX=     1.2648   ZX=    -3.3511
   XY=     1.8662   YY=    29.4886   ZY=    -1.1297
   XZ=    -2.7394   YZ=     0.7230   ZZ=    26.2111
   Eigenvalues:    24.2169    28.7145    31.9352
     23  H    Isotropic =    27.6624   Anisotropy =     8.6687
   XX=    33.2415   YX=     0.1161   ZX=    -2.5934
   XY=    -0.3094   YY=    27.1853   ZY=    -0.6651
   XZ=    -0.3572   YZ=    -0.8784   ZZ=    22.5604
   Eigenvalues:    22.2381    27.3076    33.4415
     24  H    Isotropic =    26.9103   Anisotropy =     6.9238
   XX=    27.9298   YX=    -1.9661   ZX=     4.5102
   XY=    -1.1314   YY=    25.9362   ZY=    -0.0218
   XZ=     3.4344   YZ=     1.1213   ZZ=    26.8648
   Eigenvalues:    22.7327    26.4720    31.5261
     25  H    Isotropic =    29.9012   Anisotropy =    14.7696
   XX=    29.6907   YX=     4.2098   ZX=     4.6860
   XY=     6.0370   YY=    26.7795   ZY=     6.5531
   XZ=     2.1767   YZ=     4.8298   ZZ=    33.2333
   Eigenvalues:    22.1232    27.8327    39.7475
     26  H    Isotropic =    30.7496   Anisotropy =    10.2765
   XX=    28.9874   YX=    -3.8459   ZX=     0.6011
   XY=    -4.1068   YY=    35.7634   ZY=    -0.5656
   XZ=     0.7307   YZ=     0.9327   ZZ=    27.4981
   Eigenvalues:    26.6211    28.0272    37.6006
     27  H    Isotropic =    30.6104   Anisotropy =    10.9934
   XX=    30.2254   YX=     2.6064   ZX=     2.7727
   XY=     1.8297   YY=    30.6243   ZY=     4.5710
   XZ=     4.3057   YZ=     5.3296   ZZ=    30.9816
   Eigenvalues:    25.6008    28.2910    37.9393
     28  H    Isotropic =    30.6570   Anisotropy =     5.6030
   XX=    31.0226   YX=     2.8255   ZX=    -3.6110
   XY=     1.1346   YY=    29.1770   ZY=     0.0085
   XZ=    -2.1506   YZ=     1.7763   ZZ=    31.7716
   Eigenvalues:    26.7074    30.8713    34.3924
     29  H    Isotropic =    30.1784   Anisotropy =     6.6463
   XX=    27.7585   YX=    -0.4142   ZX=     1.7924
   XY=    -0.1299   YY=    29.7749   ZY=     3.1600
   XZ=     0.8890   YZ=     2.0407   ZZ=    33.0019
   Eigenvalues:    27.0120    28.9140    34.6093
     30  H    Isotropic =    30.5101   Anisotropy =    11.6635
   XX=    29.9589   YX=    -4.3212   ZX=     1.0907
   XY=    -5.0964   YY=    35.2170   ZY=    -1.5624
   XZ=     1.4244   YZ=    -1.3822   ZZ=    26.3545
   Eigenvalues:    25.9591    27.2854    38.2858
     31  H    Isotropic =    29.9202   Anisotropy =     6.4451
   XX=    32.6905   YX=     1.1898   ZX=    -3.7658
   XY=     1.3008   YY=    30.8073   ZY=    -1.0062
   XZ=    -1.5101   YZ=    -0.3914   ZZ=    26.2628
   Eigenvalues:    25.3080    30.2357    34.2169
 End of Minotr Frequency-dependent properties file   721 does not exist.
 End of Minotr Frequency-dependent properties file   722 does not exist.

 **********************************************************************

            Population analysis using the SCF density.

 **********************************************************************

 Orbital symmetries:
       Occupied  (A) (A) (A) (A) (A) (A) (A) (A) (A) (A) (A) (A)
                 (A) (A) (A) (A) (A) (A) (A) (A) (A) (A) (A) (A)
                 (A) (A) (A) (A) (A) (A) (A) (A) (A) (A) (A) (A)
                 (A) (A) (A) (A) (A) (A) (A) (A) (A) (A) (A) (A)
                 (A) (A) (A) (A) (A) (A) (A) (A)
       Virtual   (A) (A) (A) (A) (A) (A) (A) (A) (A) (A) (A) (A)
                 (A) (A) (A) (A) (A) (A) (A) (A) (A) (A) (A) (A)
                 (A) (A) (A) (A) (A) (A) (A) (A) (A) (A) (A) (A)
                 (A) (A) (A) (A) (A) (A) (A) (A) (A) (A) (A) (A)
                 (A) (A) (A) (A) (A) (A) (A) (A) (A) (A) (A) (A)
                 (A) (A) (A) (A) (A) (A) (A) (A) (A) (A) (A) (A)
                 (A) (A) (A) (A) (A) (A) (A) (A) (A) (A) (A) (A)
                 (A) (A) (A) (A) (A) (A) (A) (A) (A) (A) (A) (A)
                 (A) (A) (A) (A) (A) (A) (A) (A) (A) (A) (A) (A)
                 (A) (A) (A) (A) (A) (A) (A) (A) (A) (A) (A) (A)
                 (A) (A) (A) (A) (A) (A) (A) (A) (A) (A) (A) (A)
                 (A) (A) (A) (A) (A) (A) (A) (A) (A) (A) (A) (A)
                 (A) (A) (A) (A) (A) (A) (A) (A) (A) (A) (A) (A)
                 (A) (A) (A) (A) (A) (A) (A) (A) (A) (A) (A) (A)
                 (A) (A) (A) (A) (A) (A) (A) (A) (A) (A) (A) (A)
                 (A) (A) (A) (A) (A) (A) (A) (A) (A) (A) (A) (A)
                 (A) (A) (A) (A) (A) (A) (A) (A) (A) (A) (A) (A)
                 (A) (A) (A) (A) (A) (A) (A) (A) (A) (A) (A) (A)
                 (A) (A) (A) (A) (A) (A) (A) (A) (A) (A) (A) (A)
                 (A) (A) (A) (A) (A) (A) (A) (A) (A) (A) (A) (A)
                 (A) (A) (A) (A) (A) (A) (A) (A) (A) (A) (A) (A)
                 (A) (A) (A) (A) (A) (A) (A) (A) (A) (A) (A) (A)
                 (A) (A) (A) (A) (A) (A) (A) (A) (A) (A) (A) (A)
                 (A) (A) (A) (A) (A) (A) (A) (A) (A) (A) (A) (A)
                 (A) (A) (A) (A) (A) (A) (A) (A) (A) (A) (A) (A)
                 (A) (A) (A) (A) (A) (A) (A) (A) (A)
 The electronic state is 1-A.
 Alpha  occ. eigenvalues --  -19.32288 -19.28011 -19.27258 -10.43662 -10.36276
 Alpha  occ. eigenvalues --  -10.34787 -10.31962 -10.31694 -10.30888 -10.30799
 Alpha  occ. eigenvalues --  -10.30734 -10.30711 -10.30607 -10.28897 -10.28480
 Alpha  occ. eigenvalues --   -1.20530  -1.12900  -1.12078  -0.96316  -0.91268
 Alpha  occ. eigenvalues --   -0.86616  -0.85119  -0.84845  -0.77658  -0.76333
 Alpha  occ. eigenvalues --   -0.71047  -0.70164  -0.68135  -0.63881  -0.62210
 Alpha  occ. eigenvalues --   -0.59656  -0.58298  -0.57748  -0.56268  -0.55139
 Alpha  occ. eigenvalues --   -0.53247  -0.53122  -0.52668  -0.50713  -0.49845
 Alpha  occ. eigenvalues --   -0.48589  -0.46841  -0.46573  -0.46108  -0.45404
 Alpha  occ. eigenvalues --   -0.44733  -0.44123  -0.43968  -0.42333  -0.41600
 Alpha  occ. eigenvalues --   -0.40215  -0.38508  -0.37180  -0.35873  -0.33354
 Alpha  occ. eigenvalues --   -0.32521
 Alpha virt. eigenvalues --    0.04766   0.05082   0.06777   0.06873   0.07753
 Alpha virt. eigenvalues --    0.08227   0.08498   0.09289   0.09900   0.10474
 Alpha virt. eigenvalues --    0.10889   0.11569   0.11606   0.11999   0.13320
 Alpha virt. eigenvalues --    0.13567   0.14209   0.14467   0.14632   0.15004
 Alpha virt. eigenvalues --    0.15709   0.16651   0.17094   0.18161   0.18311
 Alpha virt. eigenvalues --    0.18913   0.19124   0.19242   0.19342   0.19828
 Alpha virt. eigenvalues --    0.20645   0.21198   0.22027   0.22311   0.22964
 Alpha virt. eigenvalues --    0.23229   0.23834   0.23995   0.24375   0.24945
 Alpha virt. eigenvalues --    0.25067   0.25444   0.26012   0.26900   0.27193
 Alpha virt. eigenvalues --    0.27581   0.27779   0.27934   0.28726   0.29317
 Alpha virt. eigenvalues --    0.29652   0.30110   0.30664   0.30920   0.31693
 Alpha virt. eigenvalues --    0.32034   0.32292   0.33325   0.33695   0.33989
 Alpha virt. eigenvalues --    0.34451   0.34642   0.35285   0.35678   0.36414
 Alpha virt. eigenvalues --    0.37078   0.37562   0.37805   0.38748   0.39202
 Alpha virt. eigenvalues --    0.39783   0.40301   0.40421   0.41323   0.41498
 Alpha virt. eigenvalues --    0.42414   0.43439   0.43893   0.44312   0.44819
 Alpha virt. eigenvalues --    0.45670   0.46232   0.47091   0.47424   0.48770
 Alpha virt. eigenvalues --    0.49365   0.50911   0.52238   0.53138   0.54202
 Alpha virt. eigenvalues --    0.55895   0.55941   0.61161   0.66431   0.70276
 Alpha virt. eigenvalues --    0.73437   0.74192   0.76120   0.76398   0.76989
 Alpha virt. eigenvalues --    0.77872   0.78608   0.79485   0.79836   0.81084
 Alpha virt. eigenvalues --    0.81701   0.83004   0.83232   0.83987   0.84598
 Alpha virt. eigenvalues --    0.84979   0.86486   0.87439   0.88313   0.89114
 Alpha virt. eigenvalues --    0.90309   0.92787   0.93456   0.94361   0.97231
 Alpha virt. eigenvalues --    0.97647   0.98552   1.00691   1.01995   1.02073
 Alpha virt. eigenvalues --    1.02564   1.04426   1.06488   1.07367   1.07789
 Alpha virt. eigenvalues --    1.09458   1.10594   1.10902   1.11794   1.12869
 Alpha virt. eigenvalues --    1.13550   1.14464   1.16759   1.18830   1.18952
 Alpha virt. eigenvalues --    1.20612   1.21730   1.22884   1.23837   1.24422
 Alpha virt. eigenvalues --    1.26506   1.26981   1.29881   1.31194   1.32334
 Alpha virt. eigenvalues --    1.33025   1.34024   1.34352   1.35229   1.36384
 Alpha virt. eigenvalues --    1.40567   1.41443   1.41801   1.43465   1.44373
 Alpha virt. eigenvalues --    1.46401   1.48024   1.48914   1.50185   1.50591
 Alpha virt. eigenvalues --    1.51822   1.52578   1.53596   1.55626   1.56368
 Alpha virt. eigenvalues --    1.58105   1.59460   1.62060   1.64682   1.66912
 Alpha virt. eigenvalues --    1.69066   1.72581   1.73503   1.75123   1.77535
 Alpha virt. eigenvalues --    1.79962   1.84707   1.86211   1.87693   1.88899
 Alpha virt. eigenvalues --    1.90050   1.91569   1.93207   1.94182   1.95349
 Alpha virt. eigenvalues --    1.97105   1.97575   1.99645   2.00675   2.01403
 Alpha virt. eigenvalues --    2.02783   2.03442   2.04657   2.05740   2.06888
 Alpha virt. eigenvalues --    2.07924   2.09006   2.10357   2.10670   2.11573
 Alpha virt. eigenvalues --    2.12555   2.14507   2.15784   2.17869   2.20038
 Alpha virt. eigenvalues --    2.20390   2.21395   2.21933   2.22526   2.24118
 Alpha virt. eigenvalues --    2.24541   2.26332   2.26896   2.30266   2.31536
 Alpha virt. eigenvalues --    2.33247   2.34245   2.36699   2.38936   2.39255
 Alpha virt. eigenvalues --    2.42039   2.42634   2.46433   2.47933   2.48475
 Alpha virt. eigenvalues --    2.48989   2.50268   2.50987   2.54432   2.55086
 Alpha virt. eigenvalues --    2.55572   2.56731   2.56924   2.58691   2.60689
 Alpha virt. eigenvalues --    2.63233   2.64458   2.65754   2.66463   2.69133
 Alpha virt. eigenvalues --    2.69767   2.70567   2.72560   2.73120   2.75354
 Alpha virt. eigenvalues --    2.77584   2.79583   2.80213   2.80711   2.81011
 Alpha virt. eigenvalues --    2.84213   2.85508   2.86832   2.87200   2.89469
 Alpha virt. eigenvalues --    2.90280   2.91872   2.92900   2.96074   2.97998
 Alpha virt. eigenvalues --    2.98211   3.00488   3.04453   3.05572   3.11607
 Alpha virt. eigenvalues --    3.13600   3.16356   3.16846   3.18792   3.27411
 Alpha virt. eigenvalues --    3.29195   3.29732   3.37044   3.37199   3.39154
 Alpha virt. eigenvalues --    3.39291   3.43653   3.45613   3.50467   3.53016
 Alpha virt. eigenvalues --    3.53910   3.58737   3.59791   3.60489   3.63213
 Alpha virt. eigenvalues --    3.64781   3.66714   3.67988   3.99653   4.39650
 Alpha virt. eigenvalues --    4.42328   4.44203   4.50864   4.55060   4.55332
 Alpha virt. eigenvalues --    4.57603   4.61826   4.64814   4.69202   4.73047
 Alpha virt. eigenvalues --    4.81635   4.87052   4.96751   4.97973
          Condensed to atoms (all electrons):
              1          2          3          4          5          6
     1  C   18.092097  -1.904342  -0.545762  -4.707834  -8.691896   0.562077
     2  C   -1.904342  10.224072   0.427430  -1.825322  -0.177973   0.824138
     3  C   -0.545762   0.427430   6.448886  -0.599531  -0.117228   0.454795
     4  C   -4.707834  -1.825322  -0.599531  16.199993   0.207583  -1.263977
     5  C   -8.691896  -0.177973  -0.117228   0.207583  17.341285  -0.477807
     6  C    0.562077   0.824138   0.454795  -1.263977  -0.477807   5.747961
     7  C    3.723406  -2.042774  -0.260350  -1.895909  -3.429562  -0.008433
     8  C   -1.712618   1.110392   0.181120  -0.096421   2.159331  -0.008791
     9  C    0.856226  -0.986210  -0.102928   0.315166  -1.218636  -0.006811
    10  O   -0.080374   0.055914   0.005892  -0.096068   0.126482  -0.001109
    11  C   -0.010365   0.048442   0.000838   0.004990   0.006876   0.000686
    12  O   -0.212885   0.231507   0.009663  -0.201199   0.367376   0.010870
    13  C    0.220866   0.012817  -0.038647  -0.104335  -0.119119   0.016124
    14  O   -0.020381   0.038924  -0.005645   0.022505   0.004742   0.007293
    15  C   -0.019379   0.013579   0.003229  -0.024041   0.022249   0.000201
    16  H    0.179800   0.006452   0.058203   0.091097   0.017786  -0.006889
    17  H    0.015758   0.221460  -0.015240   0.029111   0.055999   0.019899
    18  H    0.018292  -0.002215   0.271236   0.020580   0.001889   0.022267
    19  H    0.049771  -0.052855  -0.002751   0.093994   0.209830  -0.009899
    20  H   -0.015605   0.034830   0.039366   0.013123  -0.007936   0.261774
    21  H    0.171051   0.028084   0.045003  -0.177289  -0.001972   0.005595
    22  H   -0.015938   0.002742  -0.002998   0.034299   0.008560  -0.000182
    23  H   -0.000612   0.001109   0.000035  -0.005488   0.003897   0.000008
    24  H    0.002223  -0.004124  -0.000020   0.008109  -0.007781  -0.000155
    25  H    0.033035   0.004062  -0.001103  -0.017058  -0.051861  -0.000417
    26  H    0.053713  -0.000489   0.006475  -0.051183  -0.013598   0.001115
    27  H    0.006953  -0.001701  -0.000761  -0.017820  -0.002957   0.000414
    28  H    0.020042   0.002771  -0.006603   0.018603  -0.012166  -0.001316
    29  H    0.003412  -0.020788  -0.000171   0.026199  -0.009850  -0.001107
    30  H    0.000188  -0.000370   0.000006   0.000109  -0.000338  -0.000049
    31  H   -0.006791   0.032781   0.001208  -0.027950   0.000997   0.001427
              7          8          9         10         11         12
     1  C    3.723406  -1.712618   0.856226  -0.080374  -0.010365  -0.212885
     2  C   -2.042774   1.110392  -0.986210   0.055914   0.048442   0.231507
     3  C   -0.260350   0.181120  -0.102928   0.005892   0.000838   0.009663
     4  C   -1.895909  -0.096421   0.315166  -0.096068   0.004990  -0.201199
     5  C   -3.429562   2.159331  -1.218636   0.126482   0.006876   0.367376
     6  C   -0.008433  -0.008791  -0.006811  -0.001109   0.000686   0.010870
     7  C   11.299697  -3.263334   1.847183  -0.075115   0.004334  -0.161278
     8  C   -3.263334   9.967268  -2.584406  -0.181963   0.009411   0.215672
     9  C    1.847183  -2.584406   7.751773   0.281205  -0.269308  -0.245211
    10  O   -0.075115  -0.181963   0.281205   8.352524   0.063303   0.011007
    11  C    0.004334   0.009411  -0.269308   0.063303   5.164772   0.006229
    12  O   -0.161278   0.215672  -0.245211   0.011007   0.006229   8.306365
    13  C   -0.054469  -0.037671  -0.034490   0.023641  -0.024952   0.020957
    14  O   -0.039998  -0.114920   0.605388  -0.155571  -0.001264   0.000392
    15  C   -0.007031  -0.006725  -0.024723  -0.032711   0.297498  -0.002668
    16  H   -0.041027   0.010807  -0.005585   0.000008  -0.000048   0.000317
    17  H   -0.001663  -0.000584   0.001630  -0.000041  -0.000478   0.000129
    18  H   -0.005551   0.000244  -0.000217   0.000000  -0.000001   0.000025
    19  H    0.017104  -0.004088   0.011837  -0.000208  -0.004603   0.004835
    20  H    0.000831   0.000110   0.000044   0.000001   0.000016  -0.000004
    21  H    0.145962   0.147101  -0.065903   0.000175   0.000461  -0.050764
    22  H    0.040841   0.254170  -0.005693   0.002417   0.001666  -0.006162
    23  H    0.000248  -0.003014   0.022833  -0.062622   0.418482  -0.000034
    24  H    0.002463  -0.005112   0.018804  -0.038979   0.392421  -0.000095
    25  H    0.049132   0.019164  -0.011810  -0.000017   0.000439   0.227781
    26  H   -0.012282  -0.023509  -0.008183  -0.000099  -0.000156   0.000295
    27  H    0.024195  -0.110152   0.060459  -0.000519  -0.000355  -0.000265
    28  H    0.015708  -0.093272  -0.011693   0.000186   0.000053  -0.000964
    29  H    0.004121  -0.005857   0.014686  -0.005499  -0.043693  -0.000289
    30  H    0.000327   0.001877   0.005281   0.007009  -0.046771   0.000009
    31  H   -0.005506   0.001193   0.007272  -0.006267  -0.043799   0.000066
             13         14         15         16         17         18
     1  C    0.220866  -0.020381  -0.019379   0.179800   0.015758   0.018292
     2  C    0.012817   0.038924   0.013579   0.006452   0.221460  -0.002215
     3  C   -0.038647  -0.005645   0.003229   0.058203  -0.015240   0.271236
     4  C   -0.104335   0.022505  -0.024041   0.091097   0.029111   0.020580
     5  C   -0.119119   0.004742   0.022249   0.017786   0.055999   0.001889
     6  C    0.016124   0.007293   0.000201  -0.006889   0.019899   0.022267
     7  C   -0.054469  -0.039998  -0.007031  -0.041027  -0.001663  -0.005551
     8  C   -0.037671  -0.114920  -0.006725   0.010807  -0.000584   0.000244
     9  C   -0.034490   0.605388  -0.024723  -0.005585   0.001630  -0.000217
    10  O    0.023641  -0.155571  -0.032711   0.000008  -0.000041   0.000000
    11  C   -0.024952  -0.001264   0.297498  -0.000048  -0.000478  -0.000001
    12  O    0.020957   0.000392  -0.002668   0.000317   0.000129   0.000025
    13  C    5.485219   0.005191  -0.000105   0.005938   0.000111   0.000343
    14  O    0.005191   8.106007  -0.026739  -0.000018  -0.000062  -0.000005
    15  C   -0.000105  -0.026739   5.172550   0.000017   0.000348  -0.000001
    16  H    0.005938  -0.000018   0.000017   0.507685   0.000011  -0.003978
    17  H    0.000111  -0.000062   0.000348   0.000011   0.496969  -0.000122
    18  H    0.000343  -0.000005  -0.000001  -0.003978  -0.000122   0.495699
    19  H    0.000079  -0.001142  -0.000064  -0.000119  -0.004321   0.000011
    20  H   -0.000069  -0.000003  -0.000010  -0.000121  -0.003853  -0.003868
    21  H   -0.010261   0.000035  -0.000287   0.001975   0.000002   0.000001
    22  H   -0.020542   0.005968  -0.000107  -0.000018   0.000000   0.000000
    23  H   -0.000284  -0.000077  -0.043565   0.000000   0.000000   0.000000
    24  H   -0.001125  -0.000334  -0.034228   0.000000   0.000000   0.000000
    25  H   -0.000880   0.000145   0.000534   0.000044  -0.000002   0.000000
    26  H    0.402247   0.001633  -0.000010  -0.000223   0.000000   0.000000
    27  H    0.406967  -0.003098   0.000104   0.000017   0.000000   0.000000
    28  H    0.424342   0.000487   0.000098  -0.000362   0.000000  -0.000009
    29  H   -0.000579  -0.000970   0.403185   0.000000   0.000002   0.000000
    30  H   -0.000030  -0.000089   0.395406   0.000000   0.000000   0.000000
    31  H    0.000050  -0.000286   0.408988   0.000000  -0.000004   0.000000
             19         20         21         22         23         24
     1  C    0.049771  -0.015605   0.171051  -0.015938  -0.000612   0.002223
     2  C   -0.052855   0.034830   0.028084   0.002742   0.001109  -0.004124
     3  C   -0.002751   0.039366   0.045003  -0.002998   0.000035  -0.000020
     4  C    0.093994   0.013123  -0.177289   0.034299  -0.005488   0.008109
     5  C    0.209830  -0.007936  -0.001972   0.008560   0.003897  -0.007781
     6  C   -0.009899   0.261774   0.005595  -0.000182   0.000008  -0.000155
     7  C    0.017104   0.000831   0.145962   0.040841   0.000248   0.002463
     8  C   -0.004088   0.000110   0.147101   0.254170  -0.003014  -0.005112
     9  C    0.011837   0.000044  -0.065903  -0.005693   0.022833   0.018804
    10  O   -0.000208   0.000001   0.000175   0.002417  -0.062622  -0.038979
    11  C   -0.004603   0.000016   0.000461   0.001666   0.418482   0.392421
    12  O    0.004835  -0.000004  -0.050764  -0.006162  -0.000034  -0.000095
    13  C    0.000079  -0.000069  -0.010261  -0.020542  -0.000284  -0.001125
    14  O   -0.001142  -0.000003   0.000035   0.005968  -0.000077  -0.000334
    15  C   -0.000064  -0.000010  -0.000287  -0.000107  -0.043565  -0.034228
    16  H   -0.000119  -0.000121   0.001975  -0.000018   0.000000   0.000000
    17  H   -0.004321  -0.003853   0.000002   0.000000   0.000000   0.000000
    18  H    0.000011  -0.003868   0.000001   0.000000   0.000000   0.000000
    19  H    0.516236  -0.000127  -0.000038  -0.000024   0.000002   0.000005
    20  H   -0.000127   0.497960   0.000000   0.000000   0.000000   0.000000
    21  H   -0.000038   0.000000   0.617447  -0.007124   0.000000   0.000000
    22  H   -0.000024   0.000000  -0.007124   0.516587  -0.000022   0.000008
    23  H    0.000002   0.000000   0.000000  -0.000022   0.532216  -0.031871
    24  H    0.000005   0.000000   0.000000   0.000008  -0.031871   0.525751
    25  H   -0.000704   0.000000  -0.003841   0.000138   0.000000   0.000000
    26  H    0.000000   0.000000   0.003565  -0.003083   0.000000   0.000000
    27  H    0.000000   0.000000   0.000128  -0.003636   0.000000  -0.000005
    28  H   -0.000002   0.000000  -0.000548   0.004166   0.000000  -0.000001
    29  H    0.000093   0.000000   0.000000   0.000001  -0.004908   0.003795
    30  H    0.000022   0.000000   0.000000   0.000000  -0.001467  -0.000688
    31  H    0.000332   0.000000   0.000000  -0.000004   0.004027  -0.005419
             25         26         27         28         29         30
     1  C    0.033035   0.053713   0.006953   0.020042   0.003412   0.000188
     2  C    0.004062  -0.000489  -0.001701   0.002771  -0.020788  -0.000370
     3  C   -0.001103   0.006475  -0.000761  -0.006603  -0.000171   0.000006
     4  C   -0.017058  -0.051183  -0.017820   0.018603   0.026199   0.000109
     5  C   -0.051861  -0.013598  -0.002957  -0.012166  -0.009850  -0.000338
     6  C   -0.000417   0.001115   0.000414  -0.001316  -0.001107  -0.000049
     7  C    0.049132  -0.012282   0.024195   0.015708   0.004121   0.000327
     8  C    0.019164  -0.023509  -0.110152  -0.093272  -0.005857   0.001877
     9  C   -0.011810  -0.008183   0.060459  -0.011693   0.014686   0.005281
    10  O   -0.000017  -0.000099  -0.000519   0.000186  -0.005499   0.007009
    11  C    0.000439  -0.000156  -0.000355   0.000053  -0.043693  -0.046771
    12  O    0.227781   0.000295  -0.000265  -0.000964  -0.000289   0.000009
    13  C   -0.000880   0.402247   0.406967   0.424342  -0.000579  -0.000030
    14  O    0.000145   0.001633  -0.003098   0.000487  -0.000970  -0.000089
    15  C    0.000534  -0.000010   0.000104   0.000098   0.403185   0.395406
    16  H    0.000044  -0.000223   0.000017  -0.000362   0.000000   0.000000
    17  H   -0.000002   0.000000   0.000000   0.000000   0.000002   0.000000
    18  H    0.000000   0.000000   0.000000  -0.000009   0.000000   0.000000
    19  H   -0.000704   0.000000   0.000000  -0.000002   0.000093   0.000022
    20  H    0.000000   0.000000   0.000000   0.000000   0.000000   0.000000
    21  H   -0.003841   0.003565   0.000128  -0.000548   0.000000   0.000000
    22  H    0.000138  -0.003083  -0.003636   0.004166   0.000001   0.000000
    23  H    0.000000   0.000000   0.000000   0.000000  -0.004908  -0.001467
    24  H    0.000000   0.000000  -0.000005  -0.000001   0.003795  -0.000688
    25  H    0.366035  -0.000008   0.000002   0.000004  -0.000004   0.000000
    26  H   -0.000008   0.522921  -0.023568  -0.026338   0.000000   0.000000
    27  H    0.000002  -0.023568   0.512563  -0.023893   0.000000   0.000000
    28  H    0.000004  -0.026338  -0.023893   0.502545   0.000000   0.000000
    29  H   -0.000004   0.000000   0.000000   0.000000   0.517466  -0.022818
    30  H    0.000000   0.000000   0.000000   0.000000  -0.022818   0.508913
    31  H    0.000003   0.000000   0.000000   0.000000  -0.030198  -0.022733
             31
     1  C   -0.006791
     2  C    0.032781
     3  C    0.001208
     4  C   -0.027950
     5  C    0.000997
     6  C    0.001427
     7  C   -0.005506
     8  C    0.001193
     9  C    0.007272
    10  O   -0.006267
    11  C   -0.043799
    12  O    0.000066
    13  C    0.000050
    14  O   -0.000286
    15  C    0.408988
    16  H    0.000000
    17  H   -0.000004
    18  H    0.000000
    19  H    0.000332
    20  H    0.000000
    21  H    0.000000
    22  H   -0.000004
    23  H    0.004027
    24  H   -0.005419
    25  H    0.000003
    26  H    0.000000
    27  H    0.000000
    28  H    0.000000
    29  H   -0.030198
    30  H   -0.022733
    31  H    0.512228
 Mulliken atomic charges:
              1
     1  C   -0.064130
     2  C   -0.302341
     3  C   -0.253645
     4  C    0.025962
     5  C   -0.194203
     6  C   -0.149700
     7  C    0.128729
     8  C    0.174578
     9  C   -0.217980
    10  O   -0.192601
    11  C    0.024877
    12  O   -0.531677
    13  C   -0.577337
    14  O   -0.428105
    15  C   -0.495593
    16  H    0.178230
    17  H    0.184942
    18  H    0.185379
    19  H    0.176795
    20  H    0.183542
    21  H    0.151439
    22  H    0.193967
    23  H    0.171107
    24  H    0.176355
    25  H    0.387188
    26  H    0.170766
    27  H    0.176927
    28  H    0.188163
    29  H    0.173773
    30  H    0.176206
    31  H    0.178384
 Sum of Mulliken atomic charges =   0.00000
 Mulliken charges with hydrogens summed into heavy atoms:
              1
     1  C    0.114100
     2  C   -0.117399
     3  C   -0.068266
     4  C    0.025962
     5  C   -0.017408
     6  C    0.033842
     7  C    0.280168
     8  C    0.368546
     9  C   -0.217980
    10  O   -0.192601
    11  C    0.372339
    12  O   -0.144489
    13  C   -0.041480
    14  O   -0.428105
    15  C    0.032770
 Sum of Mulliken charges with hydrogens summed into heavy atoms =   0.00000
 Electronic spatial extent (au):  <R**2>=           3303.2298
 Charge=              0.0000 electrons
 Dipole moment (field-independent basis, Debye):
    X=              1.0371    Y=             -0.0402    Z=              1.1656  Tot=              1.5607
 Quadrupole moment (field-independent basis, Debye-Ang):
   XX=            -77.0793   YY=            -78.3749   ZZ=            -98.5738
   XY=             -4.0802   XZ=              0.6613   YZ=              2.0828
 Traceless Quadrupole moment (field-independent basis, Debye-Ang):
   XX=              7.5967   YY=              6.3011   ZZ=            -13.8978
   XY=             -4.0802   XZ=              0.6613   YZ=              2.0828
 Octapole moment (field-independent basis, Debye-Ang**2):
  XXX=            -31.9434  YYY=             -3.2229  ZZZ=             19.6493  XYY=             -4.3412
  XXY=             12.8048  XXZ=            -18.9607  XZZ=              4.7029  YZZ=              2.4004
  YYZ=             -2.7981  XYZ=             -8.3340
 Hexadecapole moment (field-independent basis, Debye-Ang**3):
 XXXX=          -2381.2002 YYYY=          -1142.7000 ZZZZ=           -564.2337 XXXY=            -55.7843
 XXXZ=            -57.4947 YYYX=              8.6637 YYYZ=            -15.2352 ZZZX=             24.1260
 ZZZY=             17.1253 XXYY=           -585.5329 XXZZ=           -557.6379 YYZZ=           -304.9236
 XXYZ=            -19.0415 YYXZ=             -3.6204 ZZXY=             -8.8372
 N-N= 1.030424219070D+03 E-N=-3.673017019828D+03  KE= 6.858945814115D+02
 1\1\GINC-COMPUTE-8-12\SP\RwB97XD\6-31+G(d,p)\C12H16O3\ELUCIANO.IQUIR\1
 7-May-2022\0\\# wb97xd/6-31+g** scrf=(pcm,solvent=chloroform,smd,dovac
 uum) nmr\\comment\\0,1\C,0,2.216121808,0.957665834,1.323238314\C,0,2.6
 70814217,-0.488876642,-1.015063404\C,0,3.444732971,0.326952962,1.11767
 3531\C,0,1.197150046,0.873197329,0.361460868\C,0,1.442682266,0.1423000
 61,-0.811231115\C,0,3.671389505,-0.396110405,-0.050916684\C,0,-0.13133
 3837,1.563662823,0.598779071\C,0,-1.264874562,0.70647005,1.182390318\C
 ,0,-1.574056264,-0.511250402,0.332919294\O,0,-2.423736709,-0.182461758
 ,-0.680820908\C,0,-2.851478092,-1.261936135,-1.523188323\O,0,-0.571485
 341,2.214351303,-0.597501544\C,0,-0.986855704,0.273526495,2.623921056\
 O,0,-1.151569007,-1.640343806,0.546602285\C,0,-1.844018592,-1.50398502
 8,-2.630942622\H,0,2.060457995,1.513508209,2.245567291\H,0,2.843261205
 ,-1.058333938,-1.924715557\H,0,4.224164181,0.396101415,1.872176138\H,0
 ,0.673584597,0.055003529,-1.575891593\H,0,4.625728719,-0.891631304,-0.
 208341491\H,0,0.048676065,2.390430788,1.298709182\H,0,-2.183354251,1.3
 09815712,1.207634207\H,0,-3.810391501,-0.963284299,-1.959342189\H,0,-3
 .033971699,-2.172056206,-0.940309743\H,0,0.222574039,2.551589189,-1.04
 8777967\H,0,-0.810570349,1.143202298,3.265331822\H,0,-1.84262084,-0.27
 6302202,3.031731099\H,0,-0.116035116,-0.386589626,2.69410129\H,0,-1.64
 8143516,-0.579288085,-3.183473413\H,0,-2.21021381,-2.262717168,-3.3283
 39446\H,0,-0.886628422,-1.842610993,-2.223379769\\Version=EM64L-G09Rev
 C.01\State=1-A\HF=-692.4431668\RMSD=3.695e-09\Dipole=0.3539939,0.49046
 37,-0.105701\Quadrupole=3.4223609,-6.8691117,3.4467508,2.8013877,1.459
 6808,6.8395833\PG=C01 [X(C12H16O3)]\\@


 ONLY A FOOL KNOWS EVERYTHING.

               -- THE CHEMIST ANALYST, SEPTEMBER 1946
 Job cpu time:  0 days  2 hours  3 minutes 21.8 seconds.
 File lengths (MBytes):  RWF=    123 Int=      0 D2E=      0 Chk=      9 Scr=      1
 Normal termination of Gaussian 09 at Tue May 17 18:45:37 2022.
