 Entering Gaussian System, Link 0=g09
 Input=/home/eluciano.iquir/wb9/73a_025.gjc
 Output=/home/eluciano.iquir/wb9/73a_025.log
 Initial command:
 /share/apps/Gaussian09/EM64T.SSE4.2-enabled/g09/l1.exe /tmp/Gau-59325.inp -scrdir=/tmp/
 Entering Link 1 = /share/apps/Gaussian09/EM64T.SSE4.2-enabled/g09/l1.exe PID=     59326.
  
 Copyright (c) 1988,1990,1992,1993,1995,1998,2003,2009,2011,
            Gaussian, Inc.  All Rights Reserved.
  
 This is part of the Gaussian(R) 09 program.  It is based on
 the Gaussian(R) 03 system (copyright 2003, Gaussian, Inc.),
 the Gaussian(R) 98 system (copyright 1998, Gaussian, Inc.),
 the Gaussian(R) 94 system (copyright 1995, Gaussian, Inc.),
 the Gaussian 92(TM) system (copyright 1992, Gaussian, Inc.),
 the Gaussian 90(TM) system (copyright 1990, Gaussian, Inc.),
 the Gaussian 88(TM) system (copyright 1988, Gaussian, Inc.),
 the Gaussian 86(TM) system (copyright 1986, Carnegie Mellon
 University), and the Gaussian 82(TM) system (copyright 1983,
 Carnegie Mellon University). Gaussian is a federally registered
 trademark of Gaussian, Inc.
  
 This software contains proprietary and confidential information,
 including trade secrets, belonging to Gaussian, Inc.
  
 This software is provided under written license and may be
 used, copied, transmitted, or stored only in accord with that
 written license.
  
 The following legend is applicable only to US Government
 contracts under FAR:
  
                    RESTRICTED RIGHTS LEGEND
  
 Use, reproduction and disclosure by the US Government is
 subject to restrictions as set forth in subparagraphs (a)
 and (c) of the Commercial Computer Software - Restricted
 Rights clause in FAR 52.227-19.
  
 Gaussian, Inc.
 340 Quinnipiac St., Bldg. 40, Wallingford CT 06492
  
  
 ---------------------------------------------------------------
 Warning -- This program may not be used in any manner that
 competes with the business of Gaussian, Inc. or will provide
 assistance to any competitor of Gaussian, Inc.  The licensee
 of this program is prohibited from giving any competitor of
 Gaussian, Inc. access to this program.  By using this program,
 the user acknowledges that Gaussian, Inc. is engaged in the
 business of creating and licensing software in the field of
 computational chemistry and represents and warrants to the
 licensee that it is not a competitor of Gaussian, Inc. and that
 it will not use this program in any manner prohibited above.
 ---------------------------------------------------------------
  

 Cite this work as:
 Gaussian 09, Revision C.01,
 M. J. Frisch, G. W. Trucks, H. B. Schlegel, G. E. Scuseria, 
 M. A. Robb, J. R. Cheeseman, G. Scalmani, V. Barone, B. Mennucci, 
 G. A. Petersson, H. Nakatsuji, M. Caricato, X. Li, H. P. Hratchian, 
 A. F. Izmaylov, J. Bloino, G. Zheng, J. L. Sonnenberg, M. Hada, 
 M. Ehara, K. Toyota, R. Fukuda, J. Hasegawa, M. Ishida, T. Nakajima, 
 Y. Honda, O. Kitao, H. Nakai, T. Vreven, J. A. Montgomery, Jr., 
 J. E. Peralta, F. Ogliaro, M. Bearpark, J. J. Heyd, E. Brothers, 
 K. N. Kudin, V. N. Staroverov, T. Keith, R. Kobayashi, J. Normand, 
 K. Raghavachari, A. Rendell, J. C. Burant, S. S. Iyengar, J. Tomasi, 
 M. Cossi, N. Rega, J. M. Millam, M. Klene, J. E. Knox, J. B. Cross, 
 V. Bakken, C. Adamo, J. Jaramillo, R. Gomperts, R. E. Stratmann, 
 O. Yazyev, A. J. Austin, R. Cammi, C. Pomelli, J. W. Ochterski, 
 R. L. Martin, K. Morokuma, V. G. Zakrzewski, G. A. Voth, 
 P. Salvador, J. J. Dannenberg, S. Dapprich, A. D. Daniels, 
 O. Farkas, J. B. Foresman, J. V. Ortiz, J. Cioslowski, 
 and D. J. Fox, Gaussian, Inc., Wallingford CT, 2010.
 
 ******************************************
 Gaussian 09:  EM64L-G09RevC.01 23-Sep-2011
                17-May-2022 
 ******************************************
 %nprocshared=4
 Will use up to    4 processors via shared memory.
 ----------------------------------------------------------------
 # wb97xd/6-31+g** scrf=(pcm,solvent=chloroform,smd,dovacuum) nmr
 ----------------------------------------------------------------
 1/38=1/1;
 2/12=2,17=6,18=5,40=1/2;
 3/5=1,6=6,7=111,11=2,16=1,25=1,30=1,70=32101,72=7,74=-58/1,2,8,3;
 4//1;
 5/5=2,38=5,53=7/2;
 8/6=1,10=90,11=11/1;
 10/13=100,45=16/2;
 6/7=2,8=2,9=2,10=2,28=1/1;
 99/9=1/99;
 -------
 comment
 -------
 Charge =  0 Multiplicity = 1
 Symbolic Z-Matrix:
 6                     1.81021   1.1514    1.32134 
 6                     2.61347   0.18358  -1.16235 
 6                     3.05099   0.52586   1.18199 
 6                     0.94791   1.29802   0.2217 
 6                     1.37246   0.80955  -1.02367 
 6                     3.45113   0.0398   -0.05963 
 6                    -0.40731   1.95692   0.40967 
 6                    -1.57354   1.00649   0.75491 
 6                    -1.77485   0.00034  -0.36371 
 8                    -1.8448   -1.2798    0.08099 
 6                    -2.01958  -2.29186  -0.92165 
 8                    -0.72845   2.77557  -0.72048 
 6                    -1.41514   0.37194   2.1381 
 8                    -1.87685   0.33985  -1.53957 
 6                    -0.67546  -2.70016  -1.49485 
 1                     1.52168   1.52777   2.3007 
 1                     2.92657  -0.18653  -2.13524 
 1                     3.70654   0.42175   2.04267 
 1                     0.74438   0.91595  -1.90549 
 1                     4.41784  -0.44404  -0.16992 
 1                    -0.30779   2.67569   1.23333 
 1                    -2.5023    1.59357   0.77598 
 1                    -2.70774  -1.95907  -1.70706 
 1                    -2.48535  -3.15146  -0.42876 
 1                    -1.10883   2.19476  -1.40914 
 1                    -1.25596   1.13851   2.90363 
 1                    -2.31868  -0.18411   2.41269 
 1                    -0.57706  -0.33149   2.17572 
 1                    -0.19934  -1.86285  -2.01415 
 1                    -0.79057  -3.5266   -2.20179 
 1                     0.00644  -3.00933  -0.69592 
 
                          Input orientation:                          
 ---------------------------------------------------------------------
 Center     Atomic      Atomic             Coordinates (Angstroms)
 Number     Number       Type             X           Y           Z
 ---------------------------------------------------------------------
      1          6           0        1.810206    1.151405    1.321344
      2          6           0        2.613471    0.183581   -1.162346
      3          6           0        3.050989    0.525856    1.181986
      4          6           0        0.947908    1.298015    0.221698
      5          6           0        1.372462    0.809549   -1.023674
      6          6           0        3.451127    0.039796   -0.059629
      7          6           0       -0.407308    1.956918    0.409672
      8          6           0       -1.573543    1.006486    0.754909
      9          6           0       -1.774847    0.000341   -0.363706
     10          8           0       -1.844802   -1.279798    0.080988
     11          6           0       -2.019579   -2.291861   -0.921652
     12          8           0       -0.728455    2.775570   -0.720483
     13          6           0       -1.415140    0.371935    2.138097
     14          8           0       -1.876852    0.339849   -1.539572
     15          6           0       -0.675461   -2.700155   -1.494855
     16          1           0        1.521680    1.527769    2.300695
     17          1           0        2.926570   -0.186525   -2.135242
     18          1           0        3.706541    0.421753    2.042665
     19          1           0        0.744376    0.915952   -1.905490
     20          1           0        4.417841   -0.444044   -0.169924
     21          1           0       -0.307790    2.675693    1.233326
     22          1           0       -2.502303    1.593567    0.775977
     23          1           0       -2.707738   -1.959069   -1.707056
     24          1           0       -2.485347   -3.151463   -0.428762
     25          1           0       -1.108834    2.194760   -1.409145
     26          1           0       -1.255962    1.138511    2.903628
     27          1           0       -2.318677   -0.184109    2.412693
     28          1           0       -0.577057   -0.331494    2.175724
     29          1           0       -0.199344   -1.862851   -2.014154
     30          1           0       -0.790569   -3.526602   -2.201793
     31          1           0        0.006439   -3.009332   -0.695920
 ---------------------------------------------------------------------
                    Distance matrix (angstroms):
                    1          2          3          4          5
     1  C    0.000000
     2  C    2.783995   0.000000
     3  C    1.396522   2.409245   0.000000
     4  C    1.405088   2.435496   2.437484   0.000000
     5  C    2.409894   1.396842   2.786192   1.403495   0.000000
     6  C    2.415654   1.392237   1.392111   2.815736   2.417178
     7  C    2.529301   3.839409   3.821547   1.518583   2.557052
     8  C    3.433891   4.678047   4.669014   2.593649   3.446895
     9  C    4.125160   4.464161   5.094509   3.072466   3.316011
    10  O    4.561613   4.854230   5.333043   3.803176   3.992047
    11  C    5.617327   5.258412   6.170533   4.795877   4.597292
    12  O    3.640298   4.252308   4.792160   2.425091   2.893271
    13  C    3.417237   5.211343   4.569917   3.180283   4.237809
    14  O    4.736862   4.508849   5.632503   3.464019   3.323374
    15  C    5.379966   4.386749   5.608837   4.644055   4.090725
    16  H    1.088130   3.871886   2.143391   2.168923   3.404340
    17  H    3.870958   1.086985   3.395139   3.416743   2.154762
    18  H    2.156104   3.394646   1.086902   3.419622   3.873080
    19  H    3.406448   2.140595   3.873647   2.170790   1.087849
    20  H    3.401338   2.152804   2.153289   3.902381   3.402164
    21  H    2.610959   4.525884   3.988211   2.120887   3.376357
    22  H    4.369287   5.649451   5.669559   3.506926   4.343643
    23  H    6.265626   5.762198   6.905386   5.262361   4.977981
    24  H    6.326873   6.136661   6.838728   5.657579   5.561136
    25  H    4.130975   4.238078   5.177192   2.773804   2.867791
    26  H    3.450388   5.693554   4.678593   3.474944   4.737144
    27  H    4.474631   6.102637   5.554458   4.203300   5.140086
    28  H    2.937342   4.646233   3.858145   2.966316   3.916471
    29  H    4.924386   3.581255   5.146445   4.038106   3.254743
    30  H    6.407828   5.141341   6.529160   5.672084   4.986870
    31  H    4.963332   4.148357   5.029252   4.503513   4.069066
                    6          7          8          9         10
     6  C    0.000000
     7  C    4.333949   0.000000
     8  C    5.181242   1.543572   0.000000
     9  C    5.234962   2.509276   1.517943   0.000000
    10  O    5.459667   3.556790   2.398927   1.356983   0.000000
    11  C    6.009021   4.735394   3.726782   2.371790   1.435307
    12  O    5.038859   1.431984   2.453694   2.987327   4.281892
    13  C    5.349848   2.552518   1.530018   2.554699   2.672926
    14  O    5.537836   2.928143   2.408536   1.228141   2.291396
    15  C    5.157125   5.038596   4.427999   3.127432   2.422406
    16  H    3.392339   2.735165   3.498798   4.505458   4.913525
    17  H    2.152801   4.710167   5.479714   5.027582   5.373352
    18  H    2.151923   4.684779   5.466216   6.001152   6.128692
    19  H    3.391365   2.787464   3.529684   3.092236   3.933351
    20  H    1.086647   5.420573   6.233461   6.211636   6.323143
    21  H    4.769606   1.097702   2.148782   3.443875   4.397295
    22  H    6.209330   2.157594   1.098956   2.089602   3.028456
    23  H    6.681399   5.010735   4.017735   2.552286   2.098373
    24  H    6.749972   5.578241   4.418259   3.231550   2.042859
    25  H    5.220949   1.963874   2.512186   2.520315   3.851584
    26  H    5.669635   2.758591   2.176070   3.498592   3.763277
    27  H    6.281175   3.499918   2.172784   2.835166   2.619531
    28  H    4.621788   2.895615   2.191321   2.827281   2.625715
    29  H    4.556992   4.528666   4.217728   2.945789   2.727105
    30  H    5.941384   6.085690   5.468457   4.097157   3.372035
    31  H    4.644128   5.104621   4.552806   3.513045   2.649899
                   11         12         13         14         15
    11  C    0.000000
    12  O    5.233195   0.000000
    13  C    4.101612   3.797430   0.000000
    14  O    2.707045   2.814687   3.706677   0.000000
    15  C    1.517207   5.530464   4.814894   3.269092   0.000000
    16  H    6.124835   3.968329   3.160268   5.263917   6.091713
    17  H    5.510864   4.912714   6.117495   4.868753   4.438813
    18  H    6.995665   5.731024   5.122812   6.634261   6.439123
    19  H    4.347119   2.651726   4.616282   2.708621   3.906506
    20  H    6.739428   6.095359   6.325856   6.489499   5.726012
    21  H    5.678974   2.001076   2.711482   3.950581   6.039694
    22  H    4.267495   2.604432   2.128304   2.706430   5.189420
    23  H    1.095981   5.225677   4.678632   2.450193   2.173566
    24  H    1.094896   6.188821   4.488702   3.713950   2.148469
    25  H    4.604006   0.977897   3.999929   2.011854   4.914809
    26  H    5.194549   4.011535   1.094995   4.556906   5.866771
    27  H    3.956000   4.594051   1.095887   4.011251   4.929460
    28  H    3.939245   4.250269   1.094811   3.992943   4.369598
    29  H    2.165840   4.844429   4.869663   2.809119   1.094275
    30  H    2.161899   6.474219   5.867139   4.070379   1.093629
    31  H    2.161126   5.831447   4.635247   3.933897   1.094931
                   16         17         18         19         20
    16  H    0.000000
    17  H    4.958837   0.000000
    18  H    2.462412   4.293398   0.000000
    19  H    4.320939   2.455649   4.960503   0.000000
    20  H    4.287162   2.480460   2.480142   4.284405   0.000000
    21  H    2.409142   5.477283   4.674412   3.749121   5.833820
    22  H    4.303665   6.412222   6.444175   4.265015   7.275643
    23  H    6.790293   5.922051   7.802032   4.496911   7.445264
    24  H    6.738057   6.402482   7.564080   5.399602   7.419645
    25  H    4.596454   4.741542   6.184366   2.305666   6.248447
    26  H    2.868858   6.681281   5.087381   5.213301   6.644039
    27  H    4.206116   6.942359   6.066898   5.407322   7.219291
    28  H    2.806630   5.557054   4.351356   4.467506   5.519396
    29  H    5.751187   3.549094   6.077264   2.936692   5.170358
    30  H    7.153010   4.997766   7.336820   4.709579   6.384214
    31  H    5.644550   4.308950   5.741337   4.173184   5.130092
                   21         22         23         24         25
    21  H    0.000000
    22  H    2.489188   0.000000
    23  H    5.990545   4.339226   0.000000
    24  H    6.438948   4.895610   1.762186   0.000000
    25  H    2.802788   2.660441   4.460890   5.606964   0.000000
    26  H    2.460055   2.507457   5.741173   5.569569   4.442670
    27  H    3.689586   2.423363   4.502687   4.111792   4.661457
    28  H    3.162877   3.061327   4.718558   4.286857   4.417695
    29  H    5.581780   5.003526   2.528954   3.065910   4.202073
    30  H    7.106446   6.165490   2.525363   2.481258   5.784770
    31  H    6.011676   5.444901   3.080943   2.510094   5.369832
                   26         27         28         29         30
    26  H    0.000000
    27  H    1.766269   0.000000
    28  H    1.775295   1.763836   0.000000
    29  H    5.857406   5.187169   4.476919   0.000000
    30  H    6.931464   5.899225   5.423740   1.775619   0.000000
    31  H    5.635159   4.801201   3.969588   1.759121   1.780573
                   31
    31  H    0.000000
 Stoichiometry    C12H16O3
 Framework group  C1[X(C12H16O3)]
 Deg. of freedom    87
 Full point group                 C1      NOp   1
 Largest Abelian subgroup         C1      NOp   1
 Largest concise Abelian subgroup C1      NOp   1
                         Standard orientation:                         
 ---------------------------------------------------------------------
 Center     Atomic      Atomic             Coordinates (Angstroms)
 Number     Number       Type             X           Y           Z
 ---------------------------------------------------------------------
      1          6           0       -2.287771   -0.540101    0.868394
      2          6           0       -2.182738    1.626105   -0.877215
      3          6           0       -3.135378    0.553411    1.058313
      4          6           0       -1.369247   -0.565674   -0.194589
      5          6           0       -1.334969    0.532451   -1.067941
      6          6           0       -3.080711    1.637484    0.186665
      7          6           0       -0.440365   -1.755721   -0.359093
      8          6           0        0.922277   -1.647638    0.357942
      9          6           0        1.701388   -0.460745   -0.179105
     10          8           0        2.187265    0.341861    0.801278
     11          6           0        2.923828    1.496012    0.370562
     12          8           0       -0.268371   -2.070306   -1.745466
     13          6           0        0.778920   -1.656854    1.881201
     14          8           0        1.872401   -0.279433   -1.381691
     15          6           0        1.976065    2.644001    0.077678
     16          1           0       -2.352554   -1.377881    1.559736
     17          1           0       -2.143736    2.466792   -1.565156
     18          1           0       -3.841028    0.556575    1.884995
     19          1           0       -0.651166    0.548237   -1.913860
     20          1           0       -3.742174    2.487364    0.331487
     21          1           0       -0.961453   -2.633105    0.045399
     22          1           0        1.525066   -2.525775    0.087345
     23          1           0        3.555385    1.264715   -0.494777
     24          1           0        3.592559    1.772055    1.192387
     25          1           0        0.427313   -1.481188   -2.099370
     26          1           0        0.195760   -2.522046    2.213438
     27          1           0        1.762468   -1.719841    2.360404
     28          1           0        0.293009   -0.749911    2.255308
     29          1           0        1.311541    2.401342   -0.757165
     30          1           0        2.532436    3.551241   -0.174097
     31          1           0        1.338424    2.848062    0.944077
 ---------------------------------------------------------------------
 Rotational constants (GHZ):      0.7698807      0.4887843      0.4030821
 Standard basis: 6-31+G(d,p) (6D, 7F)
 There are   365 symmetry adapted basis functions of A   symmetry.
 Integral buffers will be    131072 words long.
 Raffenetti 2 integral format.
 Two-electron integral symmetry is turned on.
   365 basis functions,   592 primitive gaussians,   365 cartesian basis functions
    56 alpha electrons       56 beta electrons
       nuclear repulsion energy      1037.9921121385 Hartrees.
 NAtoms=   31 NActive=   31 NUniq=   31 SFac= 1.00D+00 NAtFMM=   60 NAOKFM=F Big=F
 Nuclear repulsion after empirical dispersion term =     1037.9691855793 Hartrees.
 ------------------------------------------------------------------------------
 Polarizable Continuum Model (PCM)
 =================================
 Model                : C-PCM.
 Atomic radii         : SMD-Coulomb.
 Polarization charges : Total charges.
 Charge compensation  : None.
 Solution method      : Matrix inversion.
 Cavity type          : VdW (van der Waals Surface) (Alpha=1.000).
 Cavity algorithm     : GePol (No added spheres)
                        Default sphere list used, NSphG=   31.
                        Lebedev-Laikov grids with approx.  5.0 points / Ang**2.
                        Smoothing algorithm: Karplus/York (Gamma=1.0000).
                        Polarization charges: spherical gaussians, with
                                              point-specific exponents (IZeta= 3).
                        Self-potential: point-specific (ISelfS= 7).
                        Self-field    : sphere-specific E.n sum rule (ISelfD= 2).
 Solvent              : Chloroform, Eps=   4.711300 Eps(inf)=   2.090627
 ------------------------------------------------------------------------------
 ------------------------------------------------------------------------------
 Atomic radii for non-electrostatic terms: SMD-CDS.
 ------------------------------------------------------------------------------
 Nuclear repulsion after PCM non-electrostatic terms =     1037.9627620668 Hartrees.
 One-electron integrals computed using PRISM.
 NBasis=   365 RedAO= T  NBF=   365
 NBsUse=   365 1.00D-06 NBFU=   365
 Harris functional with IExCor= 4639 diagonalized for initial guess.
 ExpMin= 4.38D-02 ExpMax= 5.48D+03 ExpMxC= 8.25D+02 IAcc=2 IRadAn=         4 AccDes= 0.00D+00
 HarFok:  IExCor= 4639 AccDes= 0.00D+00 IRadAn=         4 IDoV= 1
 ScaDFX=  1.000000  1.000000  1.000000  1.000000
 FoFCou: FMM=F IPFlag=           0 FMFlag=      100000 FMFlg1=           0
         NFxFlg=           0 DoJE=T BraDBF=F KetDBF=T FulRan=T
         Omega=  0.000000  0.000000  1.000000  0.000000  0.000000 ICntrl=     500 IOpCl=  0
         NMat0=    1 NMatS0=    1 NMatT0=    0 NMatD0=    1 NMtDS0=    0 NMtDT0=    0
         I1Cent=           4 NGrid=           0.
 Petite list used in FoFCou.
 Initial guess orbital symmetries:
       Occupied  (A) (A) (A) (A) (A) (A) (A) (A) (A) (A) (A) (A)
                 (A) (A) (A) (A) (A) (A) (A) (A) (A) (A) (A) (A)
                 (A) (A) (A) (A) (A) (A) (A) (A) (A) (A) (A) (A)
                 (A) (A) (A) (A) (A) (A) (A) (A) (A) (A) (A) (A)
                 (A) (A) (A) (A) (A) (A) (A) (A)
       Virtual   (A) (A) (A) (A) (A) (A) (A) (A) (A) (A) (A) (A)
                 (A) (A) (A) (A) (A) (A) (A) (A) (A) (A) (A) (A)
                 (A) (A) (A) (A) (A) (A) (A) (A) (A) (A) (A) (A)
                 (A) (A) (A) (A) (A) (A) (A) (A) (A) (A) (A) (A)
                 (A) (A) (A) (A) (A) (A) (A) (A) (A) (A) (A) (A)
                 (A) (A) (A) (A) (A) (A) (A) (A) (A) (A) (A) (A)
                 (A) (A) (A) (A) (A) (A) (A) (A) (A) (A) (A) (A)
                 (A) (A) (A) (A) (A) (A) (A) (A) (A) (A) (A) (A)
                 (A) (A) (A) (A) (A) (A) (A) (A) (A) (A) (A) (A)
                 (A) (A) (A) (A) (A) (A) (A) (A) (A) (A) (A) (A)
                 (A) (A) (A) (A) (A) (A) (A) (A) (A) (A) (A) (A)
                 (A) (A) (A) (A) (A) (A) (A) (A) (A) (A) (A) (A)
                 (A) (A) (A) (A) (A) (A) (A) (A) (A) (A) (A) (A)
                 (A) (A) (A) (A) (A) (A) (A) (A) (A) (A) (A) (A)
                 (A) (A) (A) (A) (A) (A) (A) (A) (A) (A) (A) (A)
                 (A) (A) (A) (A) (A) (A) (A) (A) (A) (A) (A) (A)
                 (A) (A) (A) (A) (A) (A) (A) (A) (A) (A) (A) (A)
                 (A) (A) (A) (A) (A) (A) (A) (A) (A) (A) (A) (A)
                 (A) (A) (A) (A) (A) (A) (A) (A) (A) (A) (A) (A)
                 (A) (A) (A) (A) (A) (A) (A) (A) (A) (A) (A) (A)
                 (A) (A) (A) (A) (A) (A) (A) (A) (A) (A) (A) (A)
                 (A) (A) (A) (A) (A) (A) (A) (A) (A) (A) (A) (A)
                 (A) (A) (A) (A) (A) (A) (A) (A) (A) (A) (A) (A)
                 (A) (A) (A) (A) (A) (A) (A) (A) (A) (A) (A) (A)
                 (A) (A) (A) (A) (A) (A) (A) (A) (A) (A) (A) (A)
                 (A) (A) (A) (A) (A) (A) (A) (A) (A)
 The electronic state of the initial guess is 1-A.
 Requested convergence on RMS density matrix=1.00D-08 within 128 cycles.
 Requested convergence on MAX density matrix=1.00D-06.
 Requested convergence on             energy=1.00D-06.
 No special actions if energy rises.
 FoFJK:  IHMeth= 1 ICntrl=     0 DoSepK=T KAlg= 1 I1Cent= 0 FoldK=F
 FoFJK:  IHMeth= 1 ICntrl=     0 DoSepK=T KAlg= 1 I1Cent= 0 FoldK=F
 FoFJK:  IHMeth= 1 ICntrl=     0 DoSepK=T KAlg= 1 I1Cent= 0 FoldK=F
 FoFJK:  IHMeth= 1 ICntrl=     0 DoSepK=T KAlg= 1 I1Cent= 0 FoldK=F
 FoFJK:  IHMeth= 1 ICntrl=     0 DoSepK=T KAlg= 1 I1Cent= 0 FoldK=F
 FoFJK:  IHMeth= 1 ICntrl=     0 DoSepK=T KAlg= 1 I1Cent= 0 FoldK=F
 FoFJK:  IHMeth= 1 ICntrl=     0 DoSepK=T KAlg= 1 I1Cent= 0 FoldK=F
 FoFJK:  IHMeth= 1 ICntrl=     0 DoSepK=T KAlg= 1 I1Cent= 0 FoldK=F
 FoFJK:  IHMeth= 1 ICntrl=     0 DoSepK=T KAlg= 1 I1Cent= 0 FoldK=F
 FoFJK:  IHMeth= 1 ICntrl=     0 DoSepK=T KAlg= 1 I1Cent= 0 FoldK=F
 FoFJK:  IHMeth= 1 ICntrl=     0 DoSepK=T KAlg= 1 I1Cent= 0 FoldK=F
 FoFJK:  IHMeth= 1 ICntrl=     0 DoSepK=T KAlg= 1 I1Cent= 0 FoldK=F
 FoFJK:  IHMeth= 1 ICntrl=     0 DoSepK=T KAlg= 1 I1Cent= 0 FoldK=F
 FoFJK:  IHMeth= 1 ICntrl=     0 DoSepK=T KAlg= 1 I1Cent= 0 FoldK=F
 FoFJK:  IHMeth= 1 ICntrl=     0 DoSepK=T KAlg= 1 I1Cent= 0 FoldK=F
 Error on total polarization charges =  0.03789
 SCF Done:  E(RwB97XD) =  -692.447622675     A.U. after   15 cycles
             Convg  =    0.8628D-08             -V/T =  2.0096
 SMD-CDS (non-electrostatic) energy       (kcal/mol) =      -4.03
 (included in total energy above)
 Range of M.O.s used for correlation:     1   365
 NBasis=   365 NAE=    56 NBE=    56 NFC=     0 NFV=     0
 NROrb=    365 NOA=    56 NOB=    56 NVA=   309 NVB=   309

 **** Warning!!: The largest alpha MO coefficient is  0.14576109D+03

 NEqPCM:  Using equilibrium solvation (IEInf=0, Eps=   4.7113, EpsInf=   2.0906)
          Differentiating once with respect to magnetic field using GIAOs.
          Electric field/nuclear overlap derivatives assumed to be zero.
 FoFCou: FMM=F IPFlag=           0 FMFlag=    10101102 FMFlg1=           0
         NFxFlg=    40000000 DoJE=F BraDBF=F KetDBF=T FulRan=T
         Omega=  0.000000  0.000000  1.000000  0.000000  0.000000 ICntrl=    6100 IOpCl=  0
         NMat0=    1 NMatS0=    1 NMatT0=    0 NMatD0=    1 NMtDS0=    0 NMtDT0=    0
         I1Cent=           7 NGrid=        2235.
 Symmetry not used in FoFCou.
 FoFJK:  IHMeth= 1 ICntrl=  6127 DoSepK=T KAlg= 1 I1Cent= 0 FoldK=F
 FoFJK:  IHMeth= 1 ICntrl=     0 DoSepK=T KAlg= 1 I1Cent= 0 FoldK=F
          There are     3 degrees of freedom in the 1st order CPHF.  IDoFFX=0.
      3 vectors produced by pass  0 Test12= 5.77D-13 3.33D-08 XBig12= 1.23D+02 2.01D+00.
 AX will form     3 AO Fock derivatives at one time.
 FoFJK:  IHMeth= 1 ICntrl=     0 DoSepK=T KAlg= 1 I1Cent= 0 FoldK=F
      3 vectors produced by pass  1 Test12= 5.77D-13 3.33D-08 XBig12= 7.29D-01 2.41D-01.
 FoFJK:  IHMeth= 1 ICntrl=     0 DoSepK=T KAlg= 1 I1Cent= 0 FoldK=F
      3 vectors produced by pass  2 Test12= 5.77D-13 3.33D-08 XBig12= 1.26D-02 4.57D-02.
 FoFJK:  IHMeth= 1 ICntrl=     0 DoSepK=T KAlg= 1 I1Cent= 0 FoldK=F
      3 vectors produced by pass  3 Test12= 5.77D-13 3.33D-08 XBig12= 2.57D-04 4.71D-03.
 FoFJK:  IHMeth= 1 ICntrl=     0 DoSepK=T KAlg= 1 I1Cent= 0 FoldK=F
      3 vectors produced by pass  4 Test12= 5.77D-13 3.33D-08 XBig12= 4.50D-06 5.22D-04.
 FoFJK:  IHMeth= 1 ICntrl=     0 DoSepK=T KAlg= 1 I1Cent= 0 FoldK=F
      3 vectors produced by pass  5 Test12= 5.77D-13 3.33D-08 XBig12= 7.34D-08 6.05D-05.
 FoFJK:  IHMeth= 1 ICntrl=     0 DoSepK=T KAlg= 1 I1Cent= 0 FoldK=F
      3 vectors produced by pass  6 Test12= 5.77D-13 3.33D-08 XBig12= 7.16D-10 6.29D-06.
 FoFJK:  IHMeth= 1 ICntrl=     0 DoSepK=T KAlg= 1 I1Cent= 0 FoldK=F
      3 vectors produced by pass  7 Test12= 5.77D-13 3.33D-08 XBig12= 8.51D-12 8.60D-07.
 FoFJK:  IHMeth= 1 ICntrl=     0 DoSepK=T KAlg= 1 I1Cent= 0 FoldK=F
      3 vectors produced by pass  8 Test12= 5.77D-13 3.33D-08 XBig12= 9.79D-14 6.91D-08.
 FoFJK:  IHMeth= 1 ICntrl=     0 DoSepK=T KAlg= 1 I1Cent= 0 FoldK=F
 Inverted reduced A of dimension    27 with in-core refinement.
 Calculating GIAO nuclear magnetic shielding tensors.
 SCF GIAO Magnetic shielding tensor (ppm):
      1  C    Isotropic =    70.0567   Anisotropy =   166.1425
   XX=   109.3249   YX=    35.9241   ZX=    57.8599
   XY=    25.6902   YY=    34.1301   ZY=    76.4424
   XZ=    46.3682   YZ=    80.1869   ZZ=    66.7152
   Eigenvalues:   -30.2571    59.6089   180.8184
      2  C    Isotropic =    69.3663   Anisotropy =   175.7971
   XX=   118.9455   YX=    35.3378   ZX=    56.8451
   XY=    35.0615   YY=    25.5692   ZY=    77.6180
   XZ=    53.4382   YZ=    75.9735   ZZ=    63.5842
   Eigenvalues:   -34.8454    56.3799   186.5643
      3  C    Isotropic =    71.1042   Anisotropy =   172.4084
   XX=    81.9600   YX=    40.1485   ZX=    94.1113
   XY=    38.1580   YY=    82.1460   ZY=    29.9456
   XZ=    95.9746   YZ=    32.1573   ZZ=    49.2065
   Eigenvalues:   -30.8821    58.1515   186.0431
      4  C    Isotropic =    54.5260   Anisotropy =   180.7365
   XX=    69.3971   YX=    65.1132   ZX=    69.9779
   XY=    73.3647   YY=    16.4168   ZY=    35.1324
   XZ=    66.0858   YZ=    31.2233   ZZ=    77.7639
   Eigenvalues:   -32.9465    21.5074   175.0170
      5  C    Isotropic =    72.1100   Anisotropy =   182.4503
   XX=    85.7186   YX=    49.3207   ZX=    95.9754
   XY=    37.8379   YY=    83.6040   ZY=    38.2128
   XZ=    89.3842   YZ=    44.7684   ZZ=    47.0074
   Eigenvalues:   -28.5547    51.1412   193.7435
      6  C    Isotropic =    72.1004   Anisotropy =   176.6525
   XX=    90.4278   YX=    78.4764   ZX=    59.3245
   XY=    83.2361   YY=    26.8347   ZY=    23.8134
   XZ=    62.2700   YZ=    21.8228   ZZ=    99.0387
   Eigenvalues:   -30.4636    56.8961   189.8687
      7  C    Isotropic =   119.7284   Anisotropy =    43.8846
   XX=   108.0797   YX=    -2.6065   ZX=    -4.3419
   XY=    -2.8246   YY=   104.0431   ZY=     6.4339
   XZ=    -7.0632   YZ=     7.0166   ZZ=   147.0624
   Eigenvalues:   102.3426   107.8577   148.9848
      8  C    Isotropic =   149.8685   Anisotropy =    14.0852
   XX=   156.5695   YX=     2.0948   ZX=    -5.1500
   XY=     8.7401   YY=   146.9886   ZY=     6.5814
   XZ=     1.5160   YZ=    -7.3227   ZZ=   146.0473
   Eigenvalues:   144.4277   145.9191   159.2586
      9  C    Isotropic =    19.0930   Anisotropy =   105.1175
   XX=    50.0567   YX=   -61.5912   ZX=   -12.9422
   XY=   -62.8334   YY=    -9.8995   ZY=    -8.7181
   XZ=   -25.6662   YZ=   -47.1807   ZZ=    17.1219
   Eigenvalues:   -63.3019    31.4097    89.1713
     10  O    Isotropic =   121.2366   Anisotropy =   183.6941
   XX=   177.5549   YX=   -89.1612   ZX=    35.9060
   XY=   -69.6501   YY=   147.9907   ZY=    34.4354
   XZ=   100.5055   YZ=   143.7174   ZZ=    38.1643
   Eigenvalues:   -54.1802   174.1908   243.6994
     11  C    Isotropic =   137.3558   Anisotropy =    66.2322
   XX=   144.1389   YX=    19.3219   ZX=    -3.1162
   XY=    22.5263   YY=   164.0889   ZY=   -21.3650
   XZ=    -3.9595   YZ=   -16.6881   ZZ=   103.8396
   Eigenvalues:    98.1870   132.3698   181.5106
     12  O    Isotropic =   278.4103   Anisotropy =    38.6256
   XX=   276.8438   YX=   -11.6788   ZX=    16.7556
   XY=   -10.6238   YY=   265.7150   ZY=    25.2674
   XZ=    10.0515   YZ=    11.4813   ZZ=   292.6721
   Eigenvalues:   247.4292   283.6410   304.1607
     13  C    Isotropic =   181.7667   Anisotropy =    15.8157
   XX=   177.6265   YX=     5.1230   ZX=    -2.0354
   XY=     6.1711   YY=   176.3517   ZY=    -2.7082
   XZ=     0.9040   YZ=    -4.1585   ZZ=   191.3220
   Eigenvalues:   171.0633   181.9264   192.3105
     14  O    Isotropic =   -31.9054   Anisotropy =   528.8947
   XX=   172.1700   YX=  -235.3043   ZX=     9.2894
   XY=  -203.3239   YY=    -9.6119   ZY=   -72.4335
   XZ=   -16.3514   YZ=   -60.2236   ZZ=  -258.2743
   Eigenvalues:  -285.4095  -130.9978   320.6911
     15  C    Isotropic =   181.3066   Anisotropy =    24.1153
   XX=   187.2946   YX=    -7.5232   ZX=    -0.8193
   XY=    -1.8586   YY=   193.1806   ZY=    -7.9027
   XZ=     0.9551   YZ=    -8.6013   ZZ=   163.4446
   Eigenvalues:   161.2596   185.2766   197.3835
     16  H    Isotropic =    23.8827   Anisotropy =     8.1406
   XX=    27.2002   YX=    -2.1904   ZX=    -3.5267
   XY=    -2.2401   YY=    22.5604   ZY=     0.0657
   XZ=    -2.7443   YZ=     0.3394   ZZ=    21.8875
   Eigenvalues:    20.1408    22.1975    29.3098
     17  H    Isotropic =    23.7839   Anisotropy =     5.2391
   XX=    24.6417   YX=    -2.7356   ZX=    -1.5983
   XY=    -2.7357   YY=    23.6188   ZY=    -0.2407
   XZ=    -1.8148   YZ=    -0.1289   ZZ=    23.0911
   Eigenvalues:    20.6583    23.4167    27.2766
     18  H    Isotropic =    23.8631   Anisotropy =     4.6261
   XX=    23.5223   YX=    -2.1477   ZX=    -1.3866
   XY=    -2.1134   YY=    25.5163   ZY=    -1.5163
   XZ=    -1.3402   YZ=    -1.4552   ZZ=    22.5507
   Eigenvalues:    20.3826    24.2596    26.9472
     19  H    Isotropic =    23.6619   Anisotropy =     8.8843
   XX=    23.1300   YX=    -3.7472   ZX=     2.0683
   XY=    -3.7455   YY=    26.1926   ZY=    -2.1208
   XZ=     0.7755   YZ=    -2.3164   ZZ=    21.6632
   Eigenvalues:    20.5987    20.8023    29.5848
     20  H    Isotropic =    23.8348   Anisotropy =     4.1290
   XX=    23.6024   YX=    -1.0496   ZX=    -2.2632
   XY=    -0.9468   YY=    23.6182   ZY=    -1.9915
   XZ=    -2.2191   YZ=    -2.0661   ZZ=    24.2839
   Eigenvalues:    20.3129    24.6041    26.5875
     21  H    Isotropic =    26.8551   Anisotropy =     5.5914
   XX=    25.4160   YX=     2.9306   ZX=    -2.3515
   XY=     1.8610   YY=    27.7796   ZY=    -0.3627
   XZ=    -3.0059   YZ=    -0.6670   ZZ=    27.3696
   Eigenvalues:    22.9046    27.0779    30.5827
     22  H    Isotropic =    28.4792   Anisotropy =     6.4611
   XX=    27.0743   YX=    -4.6063   ZX=    -1.1946
   XY=    -3.1481   YY=    30.0512   ZY=     1.2563
   XZ=    -0.0580   YZ=    -0.7544   ZZ=    28.3122
   Eigenvalues:    24.3738    28.2773    32.7866
     23  H    Isotropic =    26.9805   Anisotropy =     7.1123
   XX=    30.1563   YX=     1.0534   ZX=    -4.0533
   XY=     1.7486   YY=    26.5578   ZY=    -1.0984
   XZ=    -1.7919   YZ=     0.6808   ZZ=    24.2275
   Eigenvalues:    22.9947    26.2248    31.7220
     24  H    Isotropic =    27.9149   Anisotropy =     9.1686
   XX=    30.6661   YX=     2.5423   ZX=     5.2414
   XY=     2.6210   YY=    27.5344   ZY=     0.1516
   XZ=     3.8226   YZ=    -0.5712   ZZ=    25.5442
   Eigenvalues:    22.4310    27.2864    34.0273
     25  H    Isotropic =    26.2081   Anisotropy =    17.2293
   XX=    27.3786   YX=     9.1360   ZX=    -5.6097
   XY=     7.8462   YY=    24.2670   ZY=    -2.1554
   XZ=    -5.8242   YZ=    -2.3744   ZZ=    26.9788
   Eigenvalues:    16.7463    24.1837    37.6944
     26  H    Isotropic =    30.7274   Anisotropy =     9.7650
   XX=    28.9560   YX=     2.4447   ZX=    -1.5361
   XY=     3.2834   YY=    31.7864   ZY=    -3.6727
   XZ=    -1.6343   YZ=    -5.1318   ZZ=    31.4399
   Eigenvalues:    26.6397    28.3051    37.2374
     27  H    Isotropic =    30.3319   Anisotropy =    10.2302
   XX=    32.6080   YX=    -1.1449   ZX=     4.2706
   XY=     0.4974   YY=    26.7513   ZY=    -2.1040
   XZ=     5.2394   YZ=    -1.9526   ZZ=    31.6363
   Eigenvalues:    25.5822    28.2614    37.1520
     28  H    Isotropic =    30.7492   Anisotropy =     5.0778
   XX=    30.2914   YX=    -3.7033   ZX=    -0.6385
   XY=    -1.1361   YY=    30.2387   ZY=     2.7018
   XZ=    -0.4156   YZ=     1.3513   ZZ=    31.7175
   Eigenvalues:    27.5241    30.5892    34.1344
     29  H    Isotropic =    30.5115   Anisotropy =     6.7897
   XX=    31.7286   YX=     0.3812   ZX=     3.9265
   XY=     0.8419   YY=    30.6078   ZY=    -0.9116
   XZ=     4.7616   YZ=     0.8474   ZZ=    29.1982
   Eigenvalues:    25.9058    30.5908    35.0380
     30  H    Isotropic =    30.7782   Anisotropy =    11.7833
   XX=    29.0012   YX=     3.0587   ZX=    -0.9540
   XY=     4.0130   YY=    36.7914   ZY=    -2.5346
   XZ=    -0.4108   YZ=    -2.0855   ZZ=    26.5420
   Eigenvalues:    26.0422    27.6587    38.6337
     31  H    Isotropic =    31.0663   Anisotropy =     6.4061
   XX=    31.6539   YX=    -1.0390   ZX=    -3.9478
   XY=    -1.2150   YY=    30.9094   ZY=     2.5219
   XZ=    -1.3728   YZ=     2.5880   ZZ=    30.6355
   Eigenvalues:    27.7171    30.1448    35.3370
 End of Minotr Frequency-dependent properties file   721 does not exist.
 End of Minotr Frequency-dependent properties file   722 does not exist.

 **********************************************************************

            Population analysis using the SCF density.

 **********************************************************************

 Orbital symmetries:
       Occupied  (A) (A) (A) (A) (A) (A) (A) (A) (A) (A) (A) (A)
                 (A) (A) (A) (A) (A) (A) (A) (A) (A) (A) (A) (A)
                 (A) (A) (A) (A) (A) (A) (A) (A) (A) (A) (A) (A)
                 (A) (A) (A) (A) (A) (A) (A) (A) (A) (A) (A) (A)
                 (A) (A) (A) (A) (A) (A) (A) (A)
       Virtual   (A) (A) (A) (A) (A) (A) (A) (A) (A) (A) (A) (A)
                 (A) (A) (A) (A) (A) (A) (A) (A) (A) (A) (A) (A)
                 (A) (A) (A) (A) (A) (A) (A) (A) (A) (A) (A) (A)
                 (A) (A) (A) (A) (A) (A) (A) (A) (A) (A) (A) (A)
                 (A) (A) (A) (A) (A) (A) (A) (A) (A) (A) (A) (A)
                 (A) (A) (A) (A) (A) (A) (A) (A) (A) (A) (A) (A)
                 (A) (A) (A) (A) (A) (A) (A) (A) (A) (A) (A) (A)
                 (A) (A) (A) (A) (A) (A) (A) (A) (A) (A) (A) (A)
                 (A) (A) (A) (A) (A) (A) (A) (A) (A) (A) (A) (A)
                 (A) (A) (A) (A) (A) (A) (A) (A) (A) (A) (A) (A)
                 (A) (A) (A) (A) (A) (A) (A) (A) (A) (A) (A) (A)
                 (A) (A) (A) (A) (A) (A) (A) (A) (A) (A) (A) (A)
                 (A) (A) (A) (A) (A) (A) (A) (A) (A) (A) (A) (A)
                 (A) (A) (A) (A) (A) (A) (A) (A) (A) (A) (A) (A)
                 (A) (A) (A) (A) (A) (A) (A) (A) (A) (A) (A) (A)
                 (A) (A) (A) (A) (A) (A) (A) (A) (A) (A) (A) (A)
                 (A) (A) (A) (A) (A) (A) (A) (A) (A) (A) (A) (A)
                 (A) (A) (A) (A) (A) (A) (A) (A) (A) (A) (A) (A)
                 (A) (A) (A) (A) (A) (A) (A) (A) (A) (A) (A) (A)
                 (A) (A) (A) (A) (A) (A) (A) (A) (A) (A) (A) (A)
                 (A) (A) (A) (A) (A) (A) (A) (A) (A) (A) (A) (A)
                 (A) (A) (A) (A) (A) (A) (A) (A) (A) (A) (A) (A)
                 (A) (A) (A) (A) (A) (A) (A) (A) (A) (A) (A) (A)
                 (A) (A) (A) (A) (A) (A) (A) (A) (A) (A) (A) (A)
                 (A) (A) (A) (A) (A) (A) (A) (A) (A) (A) (A) (A)
                 (A) (A) (A) (A) (A) (A) (A) (A) (A)
 The electronic state is 1-A.
 Alpha  occ. eigenvalues --  -19.33505 -19.28367 -19.27303 -10.44877 -10.36113
 Alpha  occ. eigenvalues --  -10.35342 -10.32370 -10.31462 -10.30680 -10.30596
 Alpha  occ. eigenvalues --  -10.30581 -10.30539 -10.30425 -10.29032 -10.28784
 Alpha  occ. eigenvalues --   -1.21760  -1.13667  -1.11804  -0.96139  -0.91503
 Alpha  occ. eigenvalues --   -0.86897  -0.85063  -0.84644  -0.77421  -0.76530
 Alpha  occ. eigenvalues --   -0.72500  -0.69962  -0.67964  -0.65285  -0.62078
 Alpha  occ. eigenvalues --   -0.59899  -0.58968  -0.58282  -0.55520  -0.55174
 Alpha  occ. eigenvalues --   -0.53860  -0.52647  -0.51283  -0.50670  -0.50220
 Alpha  occ. eigenvalues --   -0.49078  -0.48241  -0.47010  -0.46758  -0.46038
 Alpha  occ. eigenvalues --   -0.45277  -0.44476  -0.42486  -0.42117  -0.41923
 Alpha  occ. eigenvalues --   -0.41673  -0.39318  -0.36887  -0.36169  -0.33147
 Alpha  occ. eigenvalues --   -0.32461
 Alpha virt. eigenvalues --    0.04960   0.05104   0.06241   0.06897   0.07797
 Alpha virt. eigenvalues --    0.08211   0.08605   0.09438   0.09762   0.10375
 Alpha virt. eigenvalues --    0.10602   0.10870   0.12137   0.12471   0.12874
 Alpha virt. eigenvalues --    0.13317   0.13651   0.14222   0.14711   0.15669
 Alpha virt. eigenvalues --    0.16181   0.17006   0.17373   0.17904   0.18518
 Alpha virt. eigenvalues --    0.18874   0.19081   0.19479   0.19541   0.20290
 Alpha virt. eigenvalues --    0.20768   0.21359   0.21617   0.22273   0.22563
 Alpha virt. eigenvalues --    0.23022   0.23647   0.24283   0.24386   0.24517
 Alpha virt. eigenvalues --    0.24923   0.25548   0.25927   0.26163   0.27312
 Alpha virt. eigenvalues --    0.27478   0.27943   0.28275   0.28975   0.29032
 Alpha virt. eigenvalues --    0.29572   0.30128   0.30352   0.30944   0.31079
 Alpha virt. eigenvalues --    0.31327   0.32490   0.32803   0.32857   0.33563
 Alpha virt. eigenvalues --    0.33854   0.34176   0.34869   0.35185   0.35803
 Alpha virt. eigenvalues --    0.37207   0.37443   0.37907   0.37927   0.38700
 Alpha virt. eigenvalues --    0.39107   0.39808   0.40121   0.41307   0.41702
 Alpha virt. eigenvalues --    0.42656   0.43330   0.43784   0.44238   0.44509
 Alpha virt. eigenvalues --    0.45574   0.46903   0.47260   0.47571   0.48081
 Alpha virt. eigenvalues --    0.49173   0.49417   0.51852   0.53352   0.53560
 Alpha virt. eigenvalues --    0.55082   0.57952   0.60675   0.65746   0.70415
 Alpha virt. eigenvalues --    0.72886   0.74200   0.74883   0.76179   0.76914
 Alpha virt. eigenvalues --    0.77679   0.78128   0.78881   0.79984   0.80292
 Alpha virt. eigenvalues --    0.82199   0.83050   0.83395   0.83866   0.84922
 Alpha virt. eigenvalues --    0.85701   0.85981   0.87907   0.89242   0.90125
 Alpha virt. eigenvalues --    0.90254   0.91715   0.93414   0.95585   0.97166
 Alpha virt. eigenvalues --    0.98735   0.99365   1.00703   1.02001   1.02645
 Alpha virt. eigenvalues --    1.04303   1.04843   1.05764   1.06304   1.07978
 Alpha virt. eigenvalues --    1.09149   1.10464   1.11841   1.12614   1.12926
 Alpha virt. eigenvalues --    1.13592   1.15165   1.16507   1.18863   1.19639
 Alpha virt. eigenvalues --    1.20554   1.22805   1.23516   1.24072   1.25048
 Alpha virt. eigenvalues --    1.25516   1.27579   1.28601   1.30854   1.31717
 Alpha virt. eigenvalues --    1.33150   1.34075   1.35611   1.36481   1.37997
 Alpha virt. eigenvalues --    1.39317   1.40441   1.41542   1.42503   1.44412
 Alpha virt. eigenvalues --    1.45982   1.47322   1.48280   1.49252   1.50297
 Alpha virt. eigenvalues --    1.51239   1.51819   1.52948   1.53512   1.55883
 Alpha virt. eigenvalues --    1.58077   1.59495   1.63043   1.64787   1.66144
 Alpha virt. eigenvalues --    1.69834   1.70447   1.74493   1.75995   1.76285
 Alpha virt. eigenvalues --    1.79776   1.82785   1.83840   1.88423   1.89266
 Alpha virt. eigenvalues --    1.90084   1.90909   1.92294   1.92807   1.93807
 Alpha virt. eigenvalues --    1.97054   1.98401   1.98727   2.00710   2.01048
 Alpha virt. eigenvalues --    2.01519   2.02587   2.03280   2.05423   2.06131
 Alpha virt. eigenvalues --    2.08751   2.09219   2.10224   2.10756   2.11728
 Alpha virt. eigenvalues --    2.13211   2.14716   2.15629   2.17140   2.17598
 Alpha virt. eigenvalues --    2.19133   2.20688   2.21602   2.22591   2.23925
 Alpha virt. eigenvalues --    2.25322   2.26263   2.27933   2.29196   2.30655
 Alpha virt. eigenvalues --    2.32162   2.35911   2.37051   2.38836   2.39726
 Alpha virt. eigenvalues --    2.42334   2.42701   2.45444   2.47036   2.48230
 Alpha virt. eigenvalues --    2.49689   2.49984   2.50721   2.53307   2.54870
 Alpha virt. eigenvalues --    2.56090   2.56853   2.57535   2.59519   2.60439
 Alpha virt. eigenvalues --    2.62996   2.64907   2.65421   2.66591   2.68334
 Alpha virt. eigenvalues --    2.68951   2.69804   2.71874   2.73101   2.74227
 Alpha virt. eigenvalues --    2.76758   2.77537   2.80507   2.81454   2.83731
 Alpha virt. eigenvalues --    2.84366   2.85637   2.87334   2.87944   2.88581
 Alpha virt. eigenvalues --    2.91285   2.92370   2.93227   2.96673   2.97427
 Alpha virt. eigenvalues --    2.98349   3.01166   3.03583   3.07904   3.10044
 Alpha virt. eigenvalues --    3.13658   3.15853   3.15908   3.19294   3.26300
 Alpha virt. eigenvalues --    3.29110   3.30402   3.36783   3.37498   3.39345
 Alpha virt. eigenvalues --    3.39474   3.43439   3.45574   3.51117   3.52516
 Alpha virt. eigenvalues --    3.53969   3.57813   3.59470   3.60471   3.62798
 Alpha virt. eigenvalues --    3.64758   3.66160   3.72938   3.99632   4.40170
 Alpha virt. eigenvalues --    4.42947   4.45153   4.50339   4.52948   4.56670
 Alpha virt. eigenvalues --    4.58156   4.63342   4.65091   4.69833   4.72187
 Alpha virt. eigenvalues --    4.78192   4.83348   4.94854   4.99885
          Condensed to atoms (all electrons):
              1          2          3          4          5          6
     1  C   19.994754  -0.513022  -1.297296  -6.201516  -9.730818   0.755157
     2  C   -0.513022   8.642109   0.241527  -0.769055  -1.950612   0.642656
     3  C   -1.297296   0.241527   6.692070   0.156291   0.067544   0.317215
     4  C   -6.201516  -0.769055   0.156291  15.972798   0.144985  -0.943171
     5  C   -9.730818  -1.950612   0.067544   0.144985  19.437953  -0.540315
     6  C    0.755157   0.642656   0.317215  -0.943171  -0.540315   5.580326
     7  C    4.191064  -0.748928  -0.470592  -2.903543  -2.656277   0.152394
     8  C   -2.083707   0.378975   0.151688   0.738815   1.708703  -0.074443
     9  C    0.769949  -0.094280   0.030155  -0.262443  -0.675114   0.030828
    10  O   -0.048704   0.019384  -0.000117   0.024612   0.030664  -0.000604
    11  C   -0.001164  -0.017342   0.003567  -0.007959   0.032874  -0.002150
    12  O   -0.201212   0.168542  -0.008157  -0.034140   0.048034   0.002750
    13  C    0.107120  -0.069619  -0.073087  -0.035972  -0.053185   0.014407
    14  O   -0.000863  -0.034003   0.010988   0.088936  -0.076681  -0.007335
    15  C   -0.012961   0.034721   0.007358  -0.026978   0.006565  -0.000858
    16  H    0.164911   0.005782   0.050776   0.100708   0.025117  -0.007262
    17  H    0.010150   0.254472  -0.007830   0.029063   0.017454   0.020761
    18  H    0.013519   0.003667   0.275338   0.032774  -0.005892   0.011665
    19  H    0.054315   0.008781   0.002556   0.180086   0.063181  -0.013083
    20  H   -0.011215   0.018464   0.031357   0.002605   0.010846   0.273408
    21  H    0.177064   0.018476   0.053220  -0.182153  -0.108267   0.000001
    22  H    0.002332   0.000572  -0.003008   0.029432  -0.001773   0.000281
    23  H    0.000790  -0.000283   0.000129   0.005604  -0.001822  -0.000139
    24  H   -0.001442   0.001479  -0.000112  -0.002332   0.001169   0.000084
    25  H    0.003257   0.019226   0.009424  -0.055504  -0.014515  -0.003313
    26  H    0.055019  -0.000254   0.003295  -0.049943  -0.010864   0.001204
    27  H    0.005491  -0.000662  -0.000986  -0.018157  -0.003214   0.000263
    28  H    0.036460   0.002220  -0.006825  -0.000935  -0.014363  -0.000067
    29  H   -0.007137   0.020340   0.001073  -0.016206  -0.004400   0.001739
    30  H    0.000535  -0.001009  -0.000081   0.001783  -0.001331   0.000131
    31  H    0.004710   0.001199   0.000369   0.003759  -0.003663  -0.002444
              7          8          9         10         11         12
     1  C    4.191064  -2.083707   0.769949  -0.048704  -0.001164  -0.201212
     2  C   -0.748928   0.378975  -0.094280   0.019384  -0.017342   0.168542
     3  C   -0.470592   0.151688   0.030155  -0.000117   0.003567  -0.008157
     4  C   -2.903543   0.738815  -0.262443   0.024612  -0.007959  -0.034140
     5  C   -2.656277   1.708703  -0.675114   0.030664   0.032874   0.048034
     6  C    0.152394  -0.074443   0.030828  -0.000604  -0.002150   0.002750
     7  C    9.507459  -1.978332   0.484114  -0.034091  -0.022466   0.248557
     8  C   -1.978332   8.261365  -1.114555  -0.238203   0.030286   0.081111
     9  C    0.484114  -1.114555   6.281594   0.338521  -0.164085  -0.178314
    10  O   -0.034091  -0.238203   0.338521   8.382960   0.050245  -0.000320
    11  C   -0.022466   0.030286  -0.164085   0.050245   5.138343   0.000323
    12  O    0.248557   0.081111  -0.178314  -0.000320   0.000323   8.137659
    13  C    0.171491   0.074489  -0.208927  -0.006555  -0.024895   0.028383
    14  O    0.013495  -0.197135   0.654323  -0.158294  -0.000451  -0.017090
    15  C   -0.022802   0.003662  -0.038096  -0.037385   0.303467   0.000195
    16  H   -0.030083   0.006820  -0.006386  -0.000037  -0.000022   0.000327
    17  H    0.001803  -0.001206   0.000867  -0.000029  -0.000068   0.000003
    18  H   -0.004891   0.000535  -0.000702  -0.000002  -0.000029   0.000024
    19  H    0.017738  -0.004996   0.007685  -0.000670  -0.005718   0.005493
    20  H    0.000502   0.000242  -0.000121   0.000003   0.000095  -0.000002
    21  H    0.330809   0.041685   0.023260  -0.000840   0.000626  -0.054345
    22  H   -0.000828   0.311839  -0.023793   0.003926   0.000023  -0.005791
    23  H   -0.005226   0.008728  -0.003927  -0.035924   0.403462   0.000002
    24  H    0.000507  -0.000227   0.012158  -0.062239   0.414006  -0.000004
    25  H    0.011945  -0.037720   0.045726   0.000801   0.002125   0.258494
    26  H   -0.008886  -0.040645   0.006919   0.000435   0.000125   0.000214
    27  H    0.029542  -0.090997   0.026526   0.001653  -0.001913  -0.000370
    28  H    0.001006  -0.066911  -0.018140  -0.001630  -0.001230  -0.000785
    29  H    0.000327   0.000593   0.006089  -0.007780  -0.048300   0.000048
    30  H   -0.000058   0.001501   0.006876   0.007032  -0.046986  -0.000002
    31  H   -0.002092   0.003258  -0.000877  -0.003416  -0.033399  -0.000011
             13         14         15         16         17         18
     1  C    0.107120  -0.000863  -0.012961   0.164911   0.010150   0.013519
     2  C   -0.069619  -0.034003   0.034721   0.005782   0.254472   0.003667
     3  C   -0.073087   0.010988   0.007358   0.050776  -0.007830   0.275338
     4  C   -0.035972   0.088936  -0.026978   0.100708   0.029063   0.032774
     5  C   -0.053185  -0.076681   0.006565   0.025117   0.017454  -0.005892
     6  C    0.014407  -0.007335  -0.000858  -0.007262   0.020761   0.011665
     7  C    0.171491   0.013495  -0.022802  -0.030083   0.001803  -0.004891
     8  C    0.074489  -0.197135   0.003662   0.006820  -0.001206   0.000535
     9  C   -0.208927   0.654323  -0.038096  -0.006386   0.000867  -0.000702
    10  O   -0.006555  -0.158294  -0.037385  -0.000037  -0.000029  -0.000002
    11  C   -0.024895  -0.000451   0.303467  -0.000022  -0.000068  -0.000029
    12  O    0.028383  -0.017090   0.000195   0.000327   0.000003   0.000024
    13  C    5.485795   0.006204  -0.000886   0.005326   0.000007   0.000590
    14  O    0.006204   8.190116  -0.021733   0.000033  -0.000023   0.000002
    15  C   -0.000886  -0.021733   5.173487  -0.000019   0.000839   0.000012
    16  H    0.005326   0.000033  -0.000019   0.511887   0.000011  -0.003974
    17  H    0.000007  -0.000023   0.000839   0.000011   0.501110  -0.000125
    18  H    0.000590   0.000002   0.000012  -0.003974  -0.000125   0.497530
    19  H   -0.001835   0.000410   0.002387  -0.000116  -0.004259   0.000012
    20  H   -0.000061   0.000000  -0.000034  -0.000124  -0.003802  -0.003858
    21  H   -0.039037   0.000166  -0.000054   0.001773   0.000002   0.000000
    22  H   -0.007844  -0.006547  -0.000284  -0.000019   0.000000   0.000000
    23  H   -0.003477   0.001670  -0.036191   0.000000   0.000000   0.000000
    24  H    0.004021  -0.000263  -0.035577   0.000000   0.000000   0.000000
    25  H   -0.006946   0.029477   0.000501  -0.000011   0.000000   0.000000
    26  H    0.398522  -0.000255  -0.000210  -0.000302   0.000000   0.000000
    27  H    0.415892  -0.001006  -0.000385   0.000034   0.000000   0.000000
    28  H    0.428700  -0.000149   0.000273  -0.000539   0.000000  -0.000013
    29  H    0.000520   0.000928   0.413575   0.000000  -0.000010   0.000000
    30  H    0.000220  -0.000326   0.396119   0.000000   0.000001   0.000000
    31  H   -0.001499  -0.000529   0.397441   0.000000  -0.000008   0.000000
             19         20         21         22         23         24
     1  C    0.054315  -0.011215   0.177064   0.002332   0.000790  -0.001442
     2  C    0.008781   0.018464   0.018476   0.000572  -0.000283   0.001479
     3  C    0.002556   0.031357   0.053220  -0.003008   0.000129  -0.000112
     4  C    0.180086   0.002605  -0.182153   0.029432   0.005604  -0.002332
     5  C    0.063181   0.010846  -0.108267  -0.001773  -0.001822   0.001169
     6  C   -0.013083   0.273408   0.000001   0.000281  -0.000139   0.000084
     7  C    0.017738   0.000502   0.330809  -0.000828  -0.005226   0.000507
     8  C   -0.004996   0.000242   0.041685   0.311839   0.008728  -0.000227
     9  C    0.007685  -0.000121   0.023260  -0.023793  -0.003927   0.012158
    10  O   -0.000670   0.000003  -0.000840   0.003926  -0.035924  -0.062239
    11  C   -0.005718   0.000095   0.000626   0.000023   0.403462   0.414006
    12  O    0.005493  -0.000002  -0.054345  -0.005791   0.000002  -0.000004
    13  C   -0.001835  -0.000061  -0.039037  -0.007844  -0.003477   0.004021
    14  O    0.000410   0.000000   0.000166  -0.006547   0.001670  -0.000263
    15  C    0.002387  -0.000034  -0.000054  -0.000284  -0.036191  -0.035577
    16  H   -0.000116  -0.000124   0.001773  -0.000019   0.000000   0.000000
    17  H   -0.004259  -0.003802   0.000002   0.000000   0.000000   0.000000
    18  H    0.000012  -0.003858   0.000000   0.000000   0.000000   0.000000
    19  H    0.523354  -0.000132  -0.000011  -0.000019  -0.000004   0.000000
    20  H   -0.000132   0.499616   0.000000   0.000000   0.000000   0.000000
    21  H   -0.000011   0.000000   0.569963  -0.006040   0.000000   0.000000
    22  H   -0.000019   0.000000  -0.006040   0.489089   0.000006   0.000008
    23  H   -0.000004   0.000000   0.000000   0.000006   0.518336  -0.031039
    24  H    0.000000   0.000000   0.000000   0.000008  -0.031039   0.525188
    25  H   -0.000862   0.000000   0.006211  -0.001085   0.000001   0.000000
    26  H    0.000000   0.000000   0.003684  -0.002835   0.000001  -0.000001
    27  H    0.000000   0.000000   0.000110  -0.003726  -0.000009   0.000015
    28  H   -0.000002   0.000000  -0.000380   0.003800  -0.000006   0.000010
    29  H    0.000305  -0.000001   0.000000  -0.000001  -0.005094   0.003960
    30  H    0.000005   0.000000   0.000000   0.000000  -0.000948  -0.001364
    31  H   -0.000010   0.000000   0.000000   0.000000   0.003737  -0.004866
             25         26         27         28         29         30
     1  C    0.003257   0.055019   0.005491   0.036460  -0.007137   0.000535
     2  C    0.019226  -0.000254  -0.000662   0.002220   0.020340  -0.001009
     3  C    0.009424   0.003295  -0.000986  -0.006825   0.001073  -0.000081
     4  C   -0.055504  -0.049943  -0.018157  -0.000935  -0.016206   0.001783
     5  C   -0.014515  -0.010864  -0.003214  -0.014363  -0.004400  -0.001331
     6  C   -0.003313   0.001204   0.000263  -0.000067   0.001739   0.000131
     7  C    0.011945  -0.008886   0.029542   0.001006   0.000327  -0.000058
     8  C   -0.037720  -0.040645  -0.090997  -0.066911   0.000593   0.001501
     9  C    0.045726   0.006919   0.026526  -0.018140   0.006089   0.006876
    10  O    0.000801   0.000435   0.001653  -0.001630  -0.007780   0.007032
    11  C    0.002125   0.000125  -0.001913  -0.001230  -0.048300  -0.046986
    12  O    0.258494   0.000214  -0.000370  -0.000785   0.000048  -0.000002
    13  C   -0.006946   0.398522   0.415892   0.428700   0.000520   0.000220
    14  O    0.029477  -0.000255  -0.001006  -0.000149   0.000928  -0.000326
    15  C    0.000501  -0.000210  -0.000385   0.000273   0.413575   0.396119
    16  H   -0.000011  -0.000302   0.000034  -0.000539   0.000000   0.000000
    17  H    0.000000   0.000000   0.000000   0.000000  -0.000010   0.000001
    18  H    0.000000   0.000000   0.000000  -0.000013   0.000000   0.000000
    19  H   -0.000862   0.000000   0.000000  -0.000002   0.000305   0.000005
    20  H    0.000000   0.000000   0.000000   0.000000  -0.000001   0.000000
    21  H    0.006211   0.003684   0.000110  -0.000380   0.000000   0.000000
    22  H   -0.001085  -0.002835  -0.003726   0.003800  -0.000001   0.000000
    23  H    0.000001   0.000001  -0.000009  -0.000006  -0.005094  -0.000948
    24  H    0.000000  -0.000001   0.000015   0.000010   0.003960  -0.001364
    25  H    0.347277  -0.000003  -0.000003  -0.000006  -0.000001   0.000000
    26  H   -0.000003   0.524494  -0.024039  -0.026576   0.000000   0.000000
    27  H   -0.000003  -0.024039   0.513181  -0.024087   0.000000   0.000000
    28  H   -0.000006  -0.026576  -0.024087   0.503502   0.000000   0.000000
    29  H   -0.000001   0.000000   0.000000   0.000000   0.509844  -0.022481
    30  H    0.000000   0.000000   0.000000   0.000000  -0.022481   0.504543
    31  H    0.000000   0.000000  -0.000002   0.000000  -0.028987  -0.022991
             31
     1  C    0.004710
     2  C    0.001199
     3  C    0.000369
     4  C    0.003759
     5  C   -0.003663
     6  C   -0.002444
     7  C   -0.002092
     8  C    0.003258
     9  C   -0.000877
    10  O   -0.003416
    11  C   -0.033399
    12  O   -0.000011
    13  C   -0.001499
    14  O   -0.000529
    15  C    0.397441
    16  H    0.000000
    17  H   -0.000008
    18  H    0.000000
    19  H   -0.000010
    20  H    0.000000
    21  H    0.000000
    22  H    0.000000
    23  H    0.003737
    24  H   -0.004866
    25  H    0.000000
    26  H    0.000000
    27  H   -0.000002
    28  H    0.000000
    29  H   -0.028987
    30  H   -0.022991
    31  H    0.514211
 Mulliken atomic charges:
              1
     1  C   -0.235540
     2  C   -0.283525
     3  C   -0.237847
     4  C   -0.002245
     5  C    0.258019
     6  C   -0.210087
     7  C   -0.273658
     8  C    0.124780
     9  C    0.064170
    10  O   -0.223397
    11  C   -0.001391
    12  O   -0.479618
    13  C   -0.607863
    14  O   -0.474064
    15  C   -0.506150
    16  H    0.175388
    17  H    0.180817
    18  H    0.183819
    19  H    0.165408
    20  H    0.182211
    21  H    0.164076
    22  H    0.222284
    23  H    0.181625
    24  H    0.176862
    25  H    0.385503
    26  H    0.170902
    27  H    0.176849
    28  H    0.186672
    29  H    0.181057
    30  H    0.178832
    31  H    0.176111
 Sum of Mulliken atomic charges =   0.00000
 Mulliken charges with hydrogens summed into heavy atoms:
              1
     1  C   -0.060152
     2  C   -0.102708
     3  C   -0.054028
     4  C   -0.002245
     5  C    0.423427
     6  C   -0.027876
     7  C   -0.109582
     8  C    0.347064
     9  C    0.064170
    10  O   -0.223397
    11  C    0.357096
    12  O   -0.094115
    13  C   -0.073441
    14  O   -0.474064
    15  C    0.029851
 Sum of Mulliken charges with hydrogens summed into heavy atoms =   0.00000
 Electronic spatial extent (au):  <R**2>=           3157.4902
 Charge=              0.0000 electrons
 Dipole moment (field-independent basis, Debye):
    X=              1.5300    Y=              2.1204    Z=              3.7691  Tot=              4.5873
 Quadrupole moment (field-independent basis, Debye-Ang):
   XX=            -83.6137   YY=            -84.2699   ZZ=            -94.2836
   XY=             -0.3678   XZ=             -2.1570   YZ=             -9.0959
 Traceless Quadrupole moment (field-independent basis, Debye-Ang):
   XX=              3.7753   YY=              3.1192   ZZ=             -6.8945
   XY=             -0.3678   XZ=             -2.1570   YZ=             -9.0959
 Octapole moment (field-independent basis, Debye-Ang**2):
  XXX=             41.5506  YYY=             13.4459  ZZZ=              2.9326  XYY=             15.0274
  XXY=             24.0939  XXZ=             25.3123  XZZ=              0.7676  YZZ=              9.2103
  YYZ=             15.1581  XYZ=              8.2934
 Hexadecapole moment (field-independent basis, Debye-Ang**3):
 XXXX=          -2159.5259 YYYY=          -1276.9773 ZZZZ=           -684.1731 XXXY=             10.3905
 XXXZ=            -45.1889 YYYX=              2.6641 YYYZ=            -49.8539 ZZZX=            -13.9022
 ZZZY=            -14.2915 XXYY=           -509.3439 XXZZ=           -488.1739 YYZZ=           -349.9875
 XXYZ=              6.3448 YYXZ=             -1.8684 ZZXY=             -5.8780
 N-N= 1.037962762067D+03 E-N=-3.687665188769D+03  KE= 6.858960321428D+02
 1\1\GINC-COMPUTE-8-12\SP\RwB97XD\6-31+G(d,p)\C12H16O3\ELUCIANO.IQUIR\1
 7-May-2022\0\\# wb97xd/6-31+g** scrf=(pcm,solvent=chloroform,smd,dovac
 uum) nmr\\comment\\0,1\C,0,1.810205926,1.151404687,1.321343833\C,0,2.6
 13470834,0.183580734,-1.1623456\C,0,3.05098864,0.525856144,1.181985573
 \C,0,0.947907738,1.298015114,0.221698445\C,0,1.372462223,0.809549146,-
 1.023673537\C,0,3.45112701,0.039795724,-0.059629354\C,0,-0.407307594,1
 .956917535,0.409671577\C,0,-1.573542895,1.006486042,0.754909429\C,0,-1
 .774847087,0.000341394,-0.363705736\O,0,-1.844801574,-1.279798378,0.08
 0987586\C,0,-2.01957868,-2.291861031,-0.921652454\O,0,-0.728454938,2.7
 7557031,-0.720483313\C,0,-1.415139633,0.371935363,2.138096951\O,0,-1.8
 76852483,0.339848953,-1.539571528\C,0,-0.675461322,-2.70015521,-1.4948
 54927\H,0,1.521679508,1.527768517,2.300695046\H,0,2.926569825,-0.18652
 5103,-2.13524233\H,0,3.706541336,0.421752926,2.0426653\H,0,0.744375746
 ,0.915951678,-1.90549016\H,0,4.417841164,-0.444044447,-0.169923809\H,0
 ,-0.30778955,2.675692969,1.233326362\H,0,-2.502303238,1.59356663,0.775
 97718\H,0,-2.70773832,-1.959069068,-1.707056318\H,0,-2.485347375,-3.15
 1463339,-0.428761872\H,0,-1.108834035,2.194759754,-1.409144549\H,0,-1.
 255962452,1.138511316,2.903628464\H,0,-2.318677414,-0.18410922,2.41269
 3168\H,0,-0.577056885,-0.331494115,2.17572388\H,0,-0.199344211,-1.8628
 50972,-2.014154291\H,0,-0.790569162,-3.526601694,-2.201792722\H,0,0.00
 6438897,-3.009332359,-0.695920296\\Version=EM64L-G09RevC.01\State=1-A\
 HF=-692.4476227\RMSD=8.628e-09\Dipole=-0.1500228,-1.5813046,0.8568297\
 Quadrupole=2.8608847,-4.8610757,2.000191,0.9045814,-1.3901093,6.891025
 1\PG=C01 [X(C12H16O3)]\\@


 WE ARE PERHAPS NOT FAR REMOVED FROM THE TIME WHEN WE SHALL BE ABLE TO SUBMIT
 THE BULK OF CHEMICAL PHENOMENA TO CALCULATION.

            -- JOSEPH LOUIS GAY-LUSSAC
               MEMOIRES DE LA SOCIETE D'ARCUEIL, 2, 207 (1808)
 Job cpu time:  0 days  1 hours 55 minutes 41.0 seconds.
 File lengths (MBytes):  RWF=    122 Int=      0 D2E=      0 Chk=      9 Scr=      1
 Normal termination of Gaussian 09 at Tue May 17 17:44:20 2022.
