 Entering Gaussian System, Link 0=g09
 Input=/home/eluciano.iquir/wb9/73b_011.gjc
 Output=/home/eluciano.iquir/wb9/73b_011.log
 Initial command:
 /share/apps/Gaussian09/EM64T.SSE4.2-enabled/g09/l1.exe /tmp/Gau-4209.inp -scrdir=/tmp/
 Entering Link 1 = /share/apps/Gaussian09/EM64T.SSE4.2-enabled/g09/l1.exe PID=      4210.
  
 Copyright (c) 1988,1990,1992,1993,1995,1998,2003,2009,2011,
            Gaussian, Inc.  All Rights Reserved.
  
 This is part of the Gaussian(R) 09 program.  It is based on
 the Gaussian(R) 03 system (copyright 2003, Gaussian, Inc.),
 the Gaussian(R) 98 system (copyright 1998, Gaussian, Inc.),
 the Gaussian(R) 94 system (copyright 1995, Gaussian, Inc.),
 the Gaussian 92(TM) system (copyright 1992, Gaussian, Inc.),
 the Gaussian 90(TM) system (copyright 1990, Gaussian, Inc.),
 the Gaussian 88(TM) system (copyright 1988, Gaussian, Inc.),
 the Gaussian 86(TM) system (copyright 1986, Carnegie Mellon
 University), and the Gaussian 82(TM) system (copyright 1983,
 Carnegie Mellon University). Gaussian is a federally registered
 trademark of Gaussian, Inc.
  
 This software contains proprietary and confidential information,
 including trade secrets, belonging to Gaussian, Inc.
  
 This software is provided under written license and may be
 used, copied, transmitted, or stored only in accord with that
 written license.
  
 The following legend is applicable only to US Government
 contracts under FAR:
  
                    RESTRICTED RIGHTS LEGEND
  
 Use, reproduction and disclosure by the US Government is
 subject to restrictions as set forth in subparagraphs (a)
 and (c) of the Commercial Computer Software - Restricted
 Rights clause in FAR 52.227-19.
  
 Gaussian, Inc.
 340 Quinnipiac St., Bldg. 40, Wallingford CT 06492
  
  
 ---------------------------------------------------------------
 Warning -- This program may not be used in any manner that
 competes with the business of Gaussian, Inc. or will provide
 assistance to any competitor of Gaussian, Inc.  The licensee
 of this program is prohibited from giving any competitor of
 Gaussian, Inc. access to this program.  By using this program,
 the user acknowledges that Gaussian, Inc. is engaged in the
 business of creating and licensing software in the field of
 computational chemistry and represents and warrants to the
 licensee that it is not a competitor of Gaussian, Inc. and that
 it will not use this program in any manner prohibited above.
 ---------------------------------------------------------------
  

 Cite this work as:
 Gaussian 09, Revision C.01,
 M. J. Frisch, G. W. Trucks, H. B. Schlegel, G. E. Scuseria, 
 M. A. Robb, J. R. Cheeseman, G. Scalmani, V. Barone, B. Mennucci, 
 G. A. Petersson, H. Nakatsuji, M. Caricato, X. Li, H. P. Hratchian, 
 A. F. Izmaylov, J. Bloino, G. Zheng, J. L. Sonnenberg, M. Hada, 
 M. Ehara, K. Toyota, R. Fukuda, J. Hasegawa, M. Ishida, T. Nakajima, 
 Y. Honda, O. Kitao, H. Nakai, T. Vreven, J. A. Montgomery, Jr., 
 J. E. Peralta, F. Ogliaro, M. Bearpark, J. J. Heyd, E. Brothers, 
 K. N. Kudin, V. N. Staroverov, T. Keith, R. Kobayashi, J. Normand, 
 K. Raghavachari, A. Rendell, J. C. Burant, S. S. Iyengar, J. Tomasi, 
 M. Cossi, N. Rega, J. M. Millam, M. Klene, J. E. Knox, J. B. Cross, 
 V. Bakken, C. Adamo, J. Jaramillo, R. Gomperts, R. E. Stratmann, 
 O. Yazyev, A. J. Austin, R. Cammi, C. Pomelli, J. W. Ochterski, 
 R. L. Martin, K. Morokuma, V. G. Zakrzewski, G. A. Voth, 
 P. Salvador, J. J. Dannenberg, S. Dapprich, A. D. Daniels, 
 O. Farkas, J. B. Foresman, J. V. Ortiz, J. Cioslowski, 
 and D. J. Fox, Gaussian, Inc., Wallingford CT, 2010.
 
 ******************************************
 Gaussian 09:  EM64L-G09RevC.01 23-Sep-2011
                17-May-2022 
 ******************************************
 %nprocshared=4
 Will use up to    4 processors via shared memory.
 ----------------------------------------------------------------
 # wb97xd/6-31+g** scrf=(pcm,solvent=chloroform,smd,dovacuum) nmr
 ----------------------------------------------------------------
 1/38=1/1;
 2/12=2,17=6,18=5,40=1/2;
 3/5=1,6=6,7=111,11=2,16=1,25=1,30=1,70=32101,72=7,74=-58/1,2,8,3;
 4//1;
 5/5=2,38=5,53=7/2;
 8/6=1,10=90,11=11/1;
 10/13=100,45=16/2;
 6/7=2,8=2,9=2,10=2,28=1/1;
 99/9=1/99;
 -------
 comment
 -------
 Charge =  0 Multiplicity = 1
 Symbolic Z-Matrix:
 6                     0.5233   -1.29242  -1.02662 
 6                     0.16919  -3.37529   0.79074 
 6                     1.45053  -2.33443  -0.96645 
 6                    -0.59306  -1.27574  -0.17648 
 6                    -0.75814  -2.33361   0.73165 
 6                     1.2734   -3.37496  -0.05782 
 6                    -1.58692  -0.13203  -0.25415 
 6                    -1.40589   0.9919    0.77837 
 6                    -0.0904    1.71499   0.56962 
 8                    -0.07876   2.32831  -0.65018 
 6                     1.0802    3.12602  -0.93792 
 8                    -2.92408  -0.64286  -0.16392 
 6                    -1.56106   0.54608   2.23412 
 8                     0.81724   1.77913   1.38722 
 6                     2.17669   2.2678   -1.53947 
 1                     0.68153  -0.49207  -1.74611 
 1                     0.03139  -4.18474   1.50307 
 1                     2.31341  -2.3327   -1.62757 
 1                    -1.61209  -2.34994   1.40674 
 1                     1.99739  -4.18406  -0.00879 
 1                    -1.52327   0.29793  -1.26189 
 1                    -2.19974   1.73497   0.61564 
 1                     1.43001   3.65649  -0.04485 
 1                     0.77112   3.88729  -1.66169 
 1                    -2.9395   -1.48276  -0.65628 
 1                    -1.54187   1.41542   2.90158 
 1                    -2.51172   0.02768   2.39343 
 1                    -0.74682  -0.11341   2.55084 
 1                     2.49986   1.49266  -0.83765 
 1                     3.04324   2.8785   -1.80818 
 1                     1.81484   1.75584  -2.43704 
 
                          Input orientation:                          
 ---------------------------------------------------------------------
 Center     Atomic      Atomic             Coordinates (Angstroms)
 Number     Number       Type             X           Y           Z
 ---------------------------------------------------------------------
      1          6           0        0.523297   -1.292417   -1.026616
      2          6           0        0.169194   -3.375288    0.790741
      3          6           0        1.450532   -2.334430   -0.966448
      4          6           0       -0.593064   -1.275739   -0.176475
      5          6           0       -0.758142   -2.333615    0.731649
      6          6           0        1.273401   -3.374958   -0.057816
      7          6           0       -1.586921   -0.132031   -0.254149
      8          6           0       -1.405894    0.991895    0.778367
      9          6           0       -0.090402    1.714994    0.569621
     10          8           0       -0.078759    2.328306   -0.650180
     11          6           0        1.080204    3.126019   -0.937918
     12          8           0       -2.924077   -0.642859   -0.163918
     13          6           0       -1.561061    0.546085    2.234123
     14          8           0        0.817236    1.779131    1.387222
     15          6           0        2.176686    2.267803   -1.539473
     16          1           0        0.681527   -0.492070   -1.746107
     17          1           0        0.031386   -4.184740    1.503074
     18          1           0        2.313408   -2.332695   -1.627575
     19          1           0       -1.612091   -2.349939    1.406745
     20          1           0        1.997385   -4.184062   -0.008792
     21          1           0       -1.523265    0.297926   -1.261885
     22          1           0       -2.199744    1.734969    0.615643
     23          1           0        1.430009    3.656489   -0.044847
     24          1           0        0.771124    3.887293   -1.661694
     25          1           0       -2.939499   -1.482762   -0.656283
     26          1           0       -1.541868    1.415417    2.901575
     27          1           0       -2.511716    0.027683    2.393433
     28          1           0       -0.746825   -0.113408    2.550843
     29          1           0        2.499864    1.492663   -0.837646
     30          1           0        3.043235    2.878498   -1.808180
     31          1           0        1.814840    1.755843   -2.437037
 ---------------------------------------------------------------------
                    Distance matrix (angstroms):
                    1          2          3          4          5
     1  C    0.000000
     2  C    2.786848   0.000000
     3  C    1.396129   2.411000   0.000000
     4  C    1.403310   2.434061   2.433345   0.000000
     5  C    2.411985   1.395897   2.785996   1.403938   0.000000
     6  C    2.416238   1.392594   1.392726   2.811493   2.415537
     7  C    2.529075   3.833334   3.818907   1.517185   2.550616
     8  C    3.492539   4.642559   4.718897   2.591251   3.388330
     9  C    3.459641   5.101692   4.596936   3.123109   4.106503
    10  O    3.689690   5.888015   4.917302   3.671245   4.909635
    11  C    4.454278   6.788607   5.473067   4.770229   5.997880
    12  O    3.612555   4.236256   4.758431   2.415432   2.889977
    13  C    4.284514   4.522644   5.254590   3.172861   3.345860
    14  O    3.917578   5.229129   4.781444   3.710300   4.452670
    15  C    3.958773   6.426850   4.694274   4.699571   5.911367
    16  H    1.087778   3.874407   2.143252   2.168517   3.406349
    17  H    3.873866   1.087025   3.396493   3.416594   2.155253
    18  H    2.155882   3.396012   1.087036   3.416200   3.873029
    19  H    3.405800   2.145642   3.874524   2.167696   1.088691
    20  H    3.401546   2.153056   2.153437   3.898319   3.400785
    21  H    2.602491   4.535438   3.982468   2.125985   3.388894
    22  H    4.390562   5.635358   5.691005   3.503318   4.317991
    23  H    5.126175   7.192618   6.061426   5.332638   6.424352
    24  H    5.224379   7.689073   6.297206   5.542903   6.838599
    25  H    3.487740   3.916568   4.482623   2.403919   2.721878
    26  H    5.198842   5.507651   6.162582   4.197254   4.402050
    27  H    4.759275   4.619104   5.706819   3.461873   3.378206
    28  H    3.975108   3.817973   4.704535   2.968657   2.870351
    29  H    3.420410   5.637430   3.970432   4.203261   5.264760
    30  H    4.935328   7.356925   5.515418   5.756980   6.933060
    31  H    3.598508   6.281338   4.361845   4.483149   5.777930
                    6          7          8          9         10
     6  C    0.000000
     7  C    4.328575   0.000000
     8  C    5.191072   1.536903   0.000000
     9  C    5.306717   2.515883   1.515575   0.000000
    10  O    5.891218   2.912842   2.363901   1.365357   0.000000
    11  C    6.563124   4.265674   3.698756   2.373601   1.436082
    12  O    5.009435   1.434250   2.421818   3.758625   4.142476
    13  C    5.353666   2.579148   1.530375   2.509931   3.700370
    14  O    5.372230   3.482328   2.435724   1.223271   2.292467
    15  C    5.903557   4.644997   4.453673   3.145403   2.425187
    16  H    3.392888   2.738873   3.596172   3.290836   3.119873
    17  H    2.152841   4.704381   5.421119   5.974364   6.860642
    18  H    2.152224   4.684206   5.538472   5.195167   5.329417
    19  H    3.394357   2.770978   3.406645   4.420406   5.335543
    20  H    1.086833   5.415386   6.244395   6.284288   6.865325
    21  H    4.770870   1.097474   2.158240   2.723159   2.565779
    22  H    6.215113   2.148902   1.099471   2.109939   2.540263
    23  H    7.033203   4.847531   3.977448   2.541382   2.099257
    24  H    7.454193   4.867907   4.367680   3.231079   2.043502
    25  H    4.656940   1.953370   3.245627   4.454867   4.765302
    26  H    6.295349   3.514999   2.169302   2.763062   3.948293
    27  H    5.649221   2.808993   2.181968   3.469304   4.525011
    28  H    4.639409   2.928154   2.190374   2.774741   4.081033
    29  H    5.079969   4.436430   4.256432   2.956232   2.717120
    30  H    6.730661   5.737302   5.481264   4.102116   3.374985
    31  H    5.681458   4.461058   4.614712   3.559720   2.665762
                   11         12         13         14         15
    11  C    0.000000
    12  O    5.553177   0.000000
    13  C    4.867667   3.003665   0.000000
    14  O    2.699913   4.719057   2.809616   0.000000
    15  C    1.516798   6.031740   5.583467   3.263809   0.000000
    16  H    3.728629   3.940360   4.684998   3.872276   3.145647
    17  H    7.778538   4.904950   5.044901   6.016539   7.449478
    18  H    5.638615   5.694653   6.181553   5.313628   4.603373
    19  H    6.536972   2.665035   3.012327   4.790744   6.660223
    20  H    7.425751   6.065061   6.329890   6.237089   6.633377
    21  H    3.857604   2.013177   3.505009   3.832712   4.200846
    22  H    3.886724   2.605080   2.107330   3.114395   4.907298
    23  H    1.096055   6.120183   4.880044   2.439423   2.172529
    24  H    1.094952   6.034908   5.637388   3.707069   2.147857
    25  H    6.121943   0.973703   3.790878   5.378561   6.404850
    26  H    4.954102   3.942620   1.096175   2.826823   5.854666
    27  H    5.796504   2.675764   1.094469   3.893835   6.516671
    28  H    5.099350   3.520039   1.094634   2.716985   5.563072
    29  H    2.166412   5.868006   5.179082   2.804164   1.094463
    30  H    2.161508   7.121261   6.555907   4.046513   1.093645
    31  H    2.159729   5.777384   5.888969   3.952304   1.094831
                   16         17         18         19         20
    16  H    0.000000
    17  H    4.961419   0.000000
    18  H    2.462719   4.294026   0.000000
    19  H    4.318893   2.465114   4.961545   0.000000
    20  H    4.287255   2.480100   2.479493   4.289064   0.000000
    21  H    2.391584   5.491470   4.666257   3.760408   5.835533
    22  H    4.340425   6.388148   6.476608   4.202101   7.282908
    23  H    4.545883   8.114006   6.257455   6.887573   7.861136
    24  H    4.381092   8.701763   6.408436   7.348339   8.329620
    25  H    3.909094   4.559568   5.409142   2.601940   5.664723
    26  H    5.493901   5.982699   7.030270   4.051834   7.235379
    27  H    5.253831   5.000462   6.709821   2.726897   6.621290
    28  H    4.543936   4.275415   5.634663   2.657013   5.536483
    29  H    2.840918   6.618555   3.910514   6.058965   5.758879
    30  H    4.116096   8.362115   5.265150   7.703528   7.362836
    31  H    2.610535   7.348178   4.197612   6.586042   6.419671
                   21         22         23         24         25
    21  H    0.000000
    22  H    2.459233   0.000000
    23  H    4.634971   4.159759   0.000000
    24  H    4.278741   4.317964   1.761134   0.000000
    25  H    2.354426   3.538195   6.773356   6.604321   0.000000
    26  H    4.310862   2.400084   4.747196   5.681859   4.796996
    27  H    3.796237   2.484490   5.886479   6.489813   3.430045
    28  H    3.912666   3.045074   5.068367   6.004602   4.119297
    29  H    4.218169   4.925148   2.540720   3.066244   6.202638
    30  H    5.273587   5.888243   2.513386   2.490304   7.492700
    31  H    3.827460   5.043428   3.079467   2.496713   6.021908
                   26         27         28         29         30
    26  H    0.000000
    27  H    1.767659   0.000000
    28  H    1.758526   1.777506   0.000000
    29  H    5.506663   6.140193   4.960072   0.000000
    30  H    6.733912   7.525834   6.505162   1.776999   0.000000
    31  H    6.315390   6.711114   5.910598   1.759709   1.778980
                   31
    31  H    0.000000
 Stoichiometry    C12H16O3
 Framework group  C1[X(C12H16O3)]
 Deg. of freedom    87
 Full point group                 C1      NOp   1
 Largest Abelian subgroup         C1      NOp   1
 Largest concise Abelian subgroup C1      NOp   1
                         Standard orientation:                         
 ---------------------------------------------------------------------
 Center     Atomic      Atomic             Coordinates (Angstroms)
 Number     Number       Type             X           Y           Z
 ---------------------------------------------------------------------
      1          6           0        1.017773    1.291788   -0.658716
      2          6           0        3.326044    0.531360    0.705161
      3          6           0        1.900569    2.262163   -0.180992
      4          6           0        1.275412   -0.073069   -0.458552
      5          6           0        2.443721   -0.439545    0.228319
      6          6           0        3.053822    1.881726    0.500890
      7          6           0        0.301356   -1.112126   -0.981453
      8          6           0       -0.710303   -1.662653    0.036160
      9          6           0       -1.650835   -0.573340    0.511305
     10          8           0       -2.394930   -0.105192   -0.533377
     11          6           0       -3.393092    0.872491   -0.201501
     12          8           0        1.023442   -2.205127   -1.565419
     13          6           0       -0.080641   -2.398217    1.221285
     14          8           0       -1.762397   -0.192371    1.668374
     15          6           0       -2.793580    2.265719   -0.214949
     16          1           0        0.124881    1.613049   -1.190501
     17          1           0        4.223822    0.232802    1.240399
     18          1           0        1.686623    3.316179   -0.338859
     19          1           0        2.672181   -1.489669    0.402369
     20          1           0        3.738932    2.637555    0.875794
     21          1           0       -0.246640   -0.664057   -1.820133
     22          1           0       -1.332767   -2.411959   -0.473658
     23          1           0       -3.865407    0.647961    0.761745
     24          1           0       -4.174529    0.801695   -0.965219
     25          1           0        1.792785   -1.822777   -2.023696
     26          1           0       -0.859236   -2.865842    1.835056
     27          1           0        0.595946   -3.190225    0.885406
     28          1           0        0.474410   -1.720420    1.877588
     29          1           0       -2.003299    2.361701    0.536111
     30          1           0       -3.560056    3.019303   -0.013245
     31          1           0       -2.338041    2.478439   -1.187517
 ---------------------------------------------------------------------
 Rotational constants (GHZ):      0.7922095      0.4646831      0.3606012
 Standard basis: 6-31+G(d,p) (6D, 7F)
 There are   365 symmetry adapted basis functions of A   symmetry.
 Integral buffers will be    131072 words long.
 Raffenetti 2 integral format.
 Two-electron integral symmetry is turned on.
   365 basis functions,   592 primitive gaussians,   365 cartesian basis functions
    56 alpha electrons       56 beta electrons
       nuclear repulsion energy      1025.6016870000 Hartrees.
 NAtoms=   31 NActive=   31 NUniq=   31 SFac= 1.00D+00 NAtFMM=   60 NAOKFM=F Big=F
 Nuclear repulsion after empirical dispersion term =     1025.5789680969 Hartrees.
 ------------------------------------------------------------------------------
 Polarizable Continuum Model (PCM)
 =================================
 Model                : C-PCM.
 Atomic radii         : SMD-Coulomb.
 Polarization charges : Total charges.
 Charge compensation  : None.
 Solution method      : Matrix inversion.
 Cavity type          : VdW (van der Waals Surface) (Alpha=1.000).
 Cavity algorithm     : GePol (No added spheres)
                        Default sphere list used, NSphG=   31.
                        Lebedev-Laikov grids with approx.  5.0 points / Ang**2.
                        Smoothing algorithm: Karplus/York (Gamma=1.0000).
                        Polarization charges: spherical gaussians, with
                                              point-specific exponents (IZeta= 3).
                        Self-potential: point-specific (ISelfS= 7).
                        Self-field    : sphere-specific E.n sum rule (ISelfD= 2).
 Solvent              : Chloroform, Eps=   4.711300 Eps(inf)=   2.090627
 ------------------------------------------------------------------------------
 ------------------------------------------------------------------------------
 Atomic radii for non-electrostatic terms: SMD-CDS.
 ------------------------------------------------------------------------------
 Nuclear repulsion after PCM non-electrostatic terms =     1025.5727376229 Hartrees.
 One-electron integrals computed using PRISM.
 NBasis=   365 RedAO= T  NBF=   365
 NBsUse=   365 1.00D-06 NBFU=   365
 Harris functional with IExCor= 4639 diagonalized for initial guess.
 ExpMin= 4.38D-02 ExpMax= 5.48D+03 ExpMxC= 8.25D+02 IAcc=2 IRadAn=         4 AccDes= 0.00D+00
 HarFok:  IExCor= 4639 AccDes= 0.00D+00 IRadAn=         4 IDoV= 1
 ScaDFX=  1.000000  1.000000  1.000000  1.000000
 FoFCou: FMM=F IPFlag=           0 FMFlag=      100000 FMFlg1=           0
         NFxFlg=           0 DoJE=T BraDBF=F KetDBF=T FulRan=T
         Omega=  0.000000  0.000000  1.000000  0.000000  0.000000 ICntrl=     500 IOpCl=  0
         NMat0=    1 NMatS0=    1 NMatT0=    0 NMatD0=    1 NMtDS0=    0 NMtDT0=    0
         I1Cent=           4 NGrid=           0.
 Petite list used in FoFCou.
 Initial guess orbital symmetries:
       Occupied  (A) (A) (A) (A) (A) (A) (A) (A) (A) (A) (A) (A)
                 (A) (A) (A) (A) (A) (A) (A) (A) (A) (A) (A) (A)
                 (A) (A) (A) (A) (A) (A) (A) (A) (A) (A) (A) (A)
                 (A) (A) (A) (A) (A) (A) (A) (A) (A) (A) (A) (A)
                 (A) (A) (A) (A) (A) (A) (A) (A)
       Virtual   (A) (A) (A) (A) (A) (A) (A) (A) (A) (A) (A) (A)
                 (A) (A) (A) (A) (A) (A) (A) (A) (A) (A) (A) (A)
                 (A) (A) (A) (A) (A) (A) (A) (A) (A) (A) (A) (A)
                 (A) (A) (A) (A) (A) (A) (A) (A) (A) (A) (A) (A)
                 (A) (A) (A) (A) (A) (A) (A) (A) (A) (A) (A) (A)
                 (A) (A) (A) (A) (A) (A) (A) (A) (A) (A) (A) (A)
                 (A) (A) (A) (A) (A) (A) (A) (A) (A) (A) (A) (A)
                 (A) (A) (A) (A) (A) (A) (A) (A) (A) (A) (A) (A)
                 (A) (A) (A) (A) (A) (A) (A) (A) (A) (A) (A) (A)
                 (A) (A) (A) (A) (A) (A) (A) (A) (A) (A) (A) (A)
                 (A) (A) (A) (A) (A) (A) (A) (A) (A) (A) (A) (A)
                 (A) (A) (A) (A) (A) (A) (A) (A) (A) (A) (A) (A)
                 (A) (A) (A) (A) (A) (A) (A) (A) (A) (A) (A) (A)
                 (A) (A) (A) (A) (A) (A) (A) (A) (A) (A) (A) (A)
                 (A) (A) (A) (A) (A) (A) (A) (A) (A) (A) (A) (A)
                 (A) (A) (A) (A) (A) (A) (A) (A) (A) (A) (A) (A)
                 (A) (A) (A) (A) (A) (A) (A) (A) (A) (A) (A) (A)
                 (A) (A) (A) (A) (A) (A) (A) (A) (A) (A) (A) (A)
                 (A) (A) (A) (A) (A) (A) (A) (A) (A) (A) (A) (A)
                 (A) (A) (A) (A) (A) (A) (A) (A) (A) (A) (A) (A)
                 (A) (A) (A) (A) (A) (A) (A) (A) (A) (A) (A) (A)
                 (A) (A) (A) (A) (A) (A) (A) (A) (A) (A) (A) (A)
                 (A) (A) (A) (A) (A) (A) (A) (A) (A) (A) (A) (A)
                 (A) (A) (A) (A) (A) (A) (A) (A) (A) (A) (A) (A)
                 (A) (A) (A) (A) (A) (A) (A) (A) (A) (A) (A) (A)
                 (A) (A) (A) (A) (A) (A) (A) (A) (A)
 The electronic state of the initial guess is 1-A.
 Requested convergence on RMS density matrix=1.00D-08 within 128 cycles.
 Requested convergence on MAX density matrix=1.00D-06.
 Requested convergence on             energy=1.00D-06.
 No special actions if energy rises.
 FoFJK:  IHMeth= 1 ICntrl=     0 DoSepK=T KAlg= 1 I1Cent= 0 FoldK=F
 FoFJK:  IHMeth= 1 ICntrl=     0 DoSepK=T KAlg= 1 I1Cent= 0 FoldK=F
 FoFJK:  IHMeth= 1 ICntrl=     0 DoSepK=T KAlg= 1 I1Cent= 0 FoldK=F
 FoFJK:  IHMeth= 1 ICntrl=     0 DoSepK=T KAlg= 1 I1Cent= 0 FoldK=F
 FoFJK:  IHMeth= 1 ICntrl=     0 DoSepK=T KAlg= 1 I1Cent= 0 FoldK=F
 FoFJK:  IHMeth= 1 ICntrl=     0 DoSepK=T KAlg= 1 I1Cent= 0 FoldK=F
 FoFJK:  IHMeth= 1 ICntrl=     0 DoSepK=T KAlg= 1 I1Cent= 0 FoldK=F
 FoFJK:  IHMeth= 1 ICntrl=     0 DoSepK=T KAlg= 1 I1Cent= 0 FoldK=F
 FoFJK:  IHMeth= 1 ICntrl=     0 DoSepK=T KAlg= 1 I1Cent= 0 FoldK=F
 FoFJK:  IHMeth= 1 ICntrl=     0 DoSepK=T KAlg= 1 I1Cent= 0 FoldK=F
 FoFJK:  IHMeth= 1 ICntrl=     0 DoSepK=T KAlg= 1 I1Cent= 0 FoldK=F
 FoFJK:  IHMeth= 1 ICntrl=     0 DoSepK=T KAlg= 1 I1Cent= 0 FoldK=F
 FoFJK:  IHMeth= 1 ICntrl=     0 DoSepK=T KAlg= 1 I1Cent= 0 FoldK=F
 FoFJK:  IHMeth= 1 ICntrl=     0 DoSepK=T KAlg= 1 I1Cent= 0 FoldK=F
 FoFJK:  IHMeth= 1 ICntrl=     0 DoSepK=T KAlg= 1 I1Cent= 0 FoldK=F
 FoFJK:  IHMeth= 1 ICntrl=     0 DoSepK=T KAlg= 1 I1Cent= 0 FoldK=F
 Error on total polarization charges =  0.03741
 SCF Done:  E(RwB97XD) =  -692.444572776     A.U. after   16 cycles
             Convg  =    0.3260D-08             -V/T =  2.0096
 SMD-CDS (non-electrostatic) energy       (kcal/mol) =      -3.91
 (included in total energy above)
 Range of M.O.s used for correlation:     1   365
 NBasis=   365 NAE=    56 NBE=    56 NFC=     0 NFV=     0
 NROrb=    365 NOA=    56 NOB=    56 NVA=   309 NVB=   309

 **** Warning!!: The largest alpha MO coefficient is  0.11688509D+03

 NEqPCM:  Using equilibrium solvation (IEInf=0, Eps=   4.7113, EpsInf=   2.0906)
          Differentiating once with respect to magnetic field using GIAOs.
          Electric field/nuclear overlap derivatives assumed to be zero.
 FoFCou: FMM=F IPFlag=           0 FMFlag=    10101102 FMFlg1=           0
         NFxFlg=    40000000 DoJE=F BraDBF=F KetDBF=T FulRan=T
         Omega=  0.000000  0.000000  1.000000  0.000000  0.000000 ICntrl=    6100 IOpCl=  0
         NMat0=    1 NMatS0=    1 NMatT0=    0 NMatD0=    1 NMtDS0=    0 NMtDT0=    0
         I1Cent=           7 NGrid=        2296.
 Symmetry not used in FoFCou.
 FoFJK:  IHMeth= 1 ICntrl=  6127 DoSepK=T KAlg= 1 I1Cent= 0 FoldK=F
 FoFJK:  IHMeth= 1 ICntrl=     0 DoSepK=T KAlg= 1 I1Cent= 0 FoldK=F
          There are     3 degrees of freedom in the 1st order CPHF.  IDoFFX=0.
      3 vectors produced by pass  0 Test12= 5.77D-13 3.33D-08 XBig12= 1.50D+02 1.67D+00.
 AX will form     3 AO Fock derivatives at one time.
 FoFJK:  IHMeth= 1 ICntrl=     0 DoSepK=T KAlg= 1 I1Cent= 0 FoldK=F
      3 vectors produced by pass  1 Test12= 5.77D-13 3.33D-08 XBig12= 1.11D+00 2.97D-01.
 FoFJK:  IHMeth= 1 ICntrl=     0 DoSepK=T KAlg= 1 I1Cent= 0 FoldK=F
      3 vectors produced by pass  2 Test12= 5.77D-13 3.33D-08 XBig12= 2.11D-02 5.67D-02.
 FoFJK:  IHMeth= 1 ICntrl=     0 DoSepK=T KAlg= 1 I1Cent= 0 FoldK=F
      3 vectors produced by pass  3 Test12= 5.77D-13 3.33D-08 XBig12= 3.62D-04 3.74D-03.
 FoFJK:  IHMeth= 1 ICntrl=     0 DoSepK=T KAlg= 1 I1Cent= 0 FoldK=F
      3 vectors produced by pass  4 Test12= 5.77D-13 3.33D-08 XBig12= 6.39D-06 5.24D-04.
 FoFJK:  IHMeth= 1 ICntrl=     0 DoSepK=T KAlg= 1 I1Cent= 0 FoldK=F
      3 vectors produced by pass  5 Test12= 5.77D-13 3.33D-08 XBig12= 1.31D-07 1.12D-04.
 FoFJK:  IHMeth= 1 ICntrl=     0 DoSepK=T KAlg= 1 I1Cent= 0 FoldK=F
      3 vectors produced by pass  6 Test12= 5.77D-13 3.33D-08 XBig12= 2.68D-09 1.56D-05.
 FoFJK:  IHMeth= 1 ICntrl=     0 DoSepK=T KAlg= 1 I1Cent= 0 FoldK=F
      3 vectors produced by pass  7 Test12= 5.77D-13 3.33D-08 XBig12= 3.58D-11 1.53D-06.
 FoFJK:  IHMeth= 1 ICntrl=     0 DoSepK=T KAlg= 1 I1Cent= 0 FoldK=F
      2 vectors produced by pass  8 Test12= 5.77D-13 3.33D-08 XBig12= 3.84D-13 1.30D-07.
 FoFJK:  IHMeth= 1 ICntrl=     0 DoSepK=T KAlg= 1 I1Cent= 0 FoldK=F
 Inverted reduced A of dimension    26 with in-core refinement.
 Calculating GIAO nuclear magnetic shielding tensors.
 SCF GIAO Magnetic shielding tensor (ppm):
      1  C    Isotropic =    70.1622   Anisotropy =   164.1613
   XX=    28.9111   YX=    13.0008   ZX=   -88.7629
   XY=    20.6363   YY=    51.3155   ZY=    16.3448
   XZ=   -81.4633   YZ=    27.9947   ZZ=   130.2599
   Eigenvalues:   -27.8008    58.6842   179.6030
      2  C    Isotropic =    70.4094   Anisotropy =   176.5100
   XX=    30.7338   YX=    17.1039   ZX=   -92.4712
   XY=    18.9408   YY=    49.5814   ZY=    15.4532
   XZ=   -96.7121   YZ=    19.1200   ZZ=   130.9130
   Eigenvalues:   -33.3747    56.5202   188.0827
      3  C    Isotropic =    70.5211   Anisotropy =   175.1076
   XX=    86.0775   YX=    15.7089   ZX=   -59.7997
   XY=    14.7456   YY=   -27.8388   ZY=    15.9779
   XZ=   -57.1283   YZ=    13.0574   ZZ=   153.3248
   Eigenvalues:   -32.8630    57.1668   187.2596
      4  C    Isotropic =    55.5920   Anisotropy =   179.8100
   XX=    46.9510   YX=   -32.7211   ZX=   -75.9130
   XY=   -26.8172   YY=    -2.4989   ZY=    -2.9966
   XZ=   -86.3013   YZ=     1.9827   ZZ=   122.3240
   Eigenvalues:   -29.6194    20.9300   175.4654
      5  C    Isotropic =    71.2331   Anisotropy =   180.9998
   XX=    79.4266   YX=    12.8734   ZX=   -64.4194
   XY=    19.9418   YY=   -23.9591   ZY=    14.3104
   XZ=   -57.8933   YZ=    22.3481   ZZ=   158.2317
   Eigenvalues:   -31.2153    53.0149   191.8996
      6  C    Isotropic =    71.1630   Anisotropy =   177.2849
   XX=    57.3790   YX=   -36.8167   ZX=   -75.9057
   XY=   -39.4415   YY=    12.6712   ZY=   -16.9849
   XZ=   -79.6740   YZ=   -21.5433   ZZ=   143.4387
   Eigenvalues:   -30.5593    54.6953   189.3529
      7  C    Isotropic =   122.4120   Anisotropy =    38.0073
   XX=   115.5251   YX=   -12.9451   ZX=    -5.2054
   XY=   -13.9621   YY=   138.1486   ZY=    12.3615
   XZ=    -4.3173   YZ=     6.7654   ZZ=   113.5623
   Eigenvalues:   109.1911   110.2948   147.7502
      8  C    Isotropic =   151.3624   Anisotropy =    27.8716
   XX=   155.4177   YX=   -13.0002   ZX=    -1.4926
   XY=   -12.8096   YY=   157.5029   ZY=    -6.2406
   XZ=   -14.4704   YZ=     1.8144   ZZ=   141.1665
   Eigenvalues:   134.6387   149.5051   169.9434
      9  C    Isotropic =    21.2615   Anisotropy =    96.0537
   XX=    10.4399   YX=    63.9262   ZX=   -31.7528
   XY=    61.1568   YY=    25.7893   ZY=     7.0189
   XZ=   -53.0706   YZ=    32.5679   ZZ=    27.5554
   Eigenvalues:   -66.5699    45.0571    85.2973
     10  O    Isotropic =   129.3745   Anisotropy =   158.3494
   XX=   155.8171   YX=    66.9953   ZX=    24.0708
   XY=    87.5247   YY=   150.8590   ZY=   -49.0685
   XZ=   134.3381   YZ=  -156.2556   ZZ=    81.4472
   Eigenvalues:   -50.5019   203.6845   234.9407
     11  C    Isotropic =   137.0396   Anisotropy =    66.2324
   XX=   154.4078   YX=   -22.8427   ZX=    -9.1356
   XY=   -25.8705   YY=   155.4270   ZY=    11.0300
   XZ=    -8.3655   YZ=     6.4617   ZZ=   101.2840
   Eigenvalues:    99.3682   130.5560   181.1946
     12  O    Isotropic =   277.6983   Anisotropy =    76.5983
   XX=   301.8497   YX=    28.1363   ZX=   -36.6405
   XY=    27.8243   YY=   270.9730   ZY=    23.9488
   XZ=   -46.1189   YZ=    38.4397   ZZ=   260.2721
   Eigenvalues:   207.6842   296.6468   328.7638
     13  C    Isotropic =   186.5457   Anisotropy =    11.0332
   XX=   186.6505   YX=    -3.4385   ZX=     3.5895
   XY=    -3.8880   YY=   186.1095   ZY=    -5.4756
   XZ=     2.4894   YZ=    -3.1424   ZZ=   186.8772
   Eigenvalues:   181.9715   183.7645   193.9012
     14  O    Isotropic =   -49.5415   Anisotropy =   580.5794
   XX=    55.9875   YX=   251.6017   ZX=  -102.5159
   XY=   240.2601   YY=    90.5324   ZY=   -45.2012
   XZ=   -92.9907   YZ=   -61.4508   ZZ=  -295.1443
   Eigenvalues:  -320.9320  -165.2039   337.5114
     15  C    Isotropic =   180.6687   Anisotropy =    22.6844
   XX=   183.1989   YX=     4.1910   ZX=    -4.9980
   XY=    -0.1334   YY=   195.4526   ZY=     1.1250
   XZ=    -4.9587   YZ=     1.6922   ZZ=   163.3544
   Eigenvalues:   162.0740   184.1404   195.7916
     16  H    Isotropic =    23.8542   Anisotropy =     6.5783
   XX=    24.3646   YX=     2.1196   ZX=    -0.3211
   XY=     1.7884   YY=    27.1916   ZY=    -0.7657
   XZ=     0.3168   YZ=    -0.6707   ZZ=    20.0064
   Eigenvalues:    19.9261    23.3968    28.2397
     17  H    Isotropic =    23.6980   Anisotropy =     4.9634
   XX=    23.9551   YX=     1.2311   ZX=     1.7622
   XY=     1.3580   YY=    26.2094   ZY=     0.4592
   XZ=     1.5212   YZ=     0.4198   ZZ=    20.9294
   Eigenvalues:    20.2074    23.8796    27.0069
     18  H    Isotropic =    23.8692   Anisotropy =     5.4936
   XX=    25.6032   YX=     1.4515   ZX=     2.4796
   XY=     1.6065   YY=    24.3434   ZY=     0.1034
   XZ=     2.6534   YZ=     0.2318   ZZ=    21.6612
   Eigenvalues:    20.3216    23.7545    27.5316
     19  H    Isotropic =    23.3919   Anisotropy =     9.5340
   XX=    27.9414   YX=     1.6972   ZX=     3.6900
   XY=     2.3292   YY=    21.4441   ZY=     0.9686
   XZ=     2.6358   YZ=     1.0861   ZZ=    20.7901
   Eigenvalues:    19.5472    20.8805    29.7479
     20  H    Isotropic =    23.7836   Anisotropy =     4.1247
   XX=    24.5768   YX=    -0.6220   ZX=     2.2766
   XY=    -0.6483   YY=    25.3711   ZY=    -0.7711
   XZ=     2.0490   YZ=    -1.0618   ZZ=    21.4029
   Eigenvalues:    20.2503    24.5670    26.5334
     21  H    Isotropic =    26.0031   Anisotropy =     6.9757
   XX=    25.3580   YX=    -3.7619   ZX=     0.9024
   XY=    -3.8851   YY=    26.9694   ZY=    -1.6493
   XZ=     2.1211   YZ=    -0.2628   ZZ=    25.6818
   Eigenvalues:    22.1530    25.2027    30.6536
     22  H    Isotropic =    28.3223   Anisotropy =     6.3878
   XX=    29.4720   YX=     1.8969   ZX=     3.6123
   XY=     1.8395   YY=    28.8327   ZY=     1.6391
   XZ=     2.8875   YZ=    -0.3993   ZZ=    26.6622
   Eigenvalues:    24.4598    27.9263    32.5808
     23  H    Isotropic =    26.9258   Anisotropy =     7.0215
   XX=    29.8126   YX=    -1.1294   ZX=    -3.9913
   XY=    -0.9477   YY=    25.9961   ZY=    -0.3733
   XZ=    -2.8169   YZ=    -1.6695   ZZ=    24.9687
   Eigenvalues:    22.6386    26.5320    31.6068
     24  H    Isotropic =    27.6774   Anisotropy =     8.5960
   XX=    31.8392   YX=    -0.3839   ZX=     4.9680
   XY=    -0.5491   YY=    26.9829   ZY=     0.8818
   XZ=     2.6283   YZ=     1.1100   ZZ=    24.2102
   Eigenvalues:    22.3796    27.2446    33.4081
     25  H    Isotropic =    29.9345   Anisotropy =    14.9128
   XX=    34.2375   YX=     1.8230   ZX=    -9.2315
   XY=     1.8918   YY=    27.0893   ZY=     0.1155
   XZ=    -6.6554   YZ=     1.9205   ZZ=    28.4768
   Eigenvalues:    22.1669    27.7603    39.8764
     26  H    Isotropic =    30.7253   Anisotropy =    11.1220
   XX=    30.4578   YX=     3.2318   ZX=    -2.8341
   XY=     2.0114   YY=    30.6605   ZY=    -5.0077
   XZ=    -3.6457   YZ=    -5.0511   ZZ=    31.0576
   Eigenvalues:    25.7832    28.2528    38.1400
     27  H    Isotropic =    30.1531   Anisotropy =     8.9941
   XX=    29.4504   YX=    -4.1012   ZX=    -1.0982
   XY=    -4.9309   YY=    33.0414   ZY=    -1.0430
   XZ=    -0.9473   YZ=    -1.7607   ZZ=    27.9675
   Eigenvalues:    25.3529    28.9572    36.1492
     28  H    Isotropic =    30.6030   Anisotropy =     6.5348
   XX=    30.4515   YX=     3.8594   ZX=     3.0285
   XY=     1.9121   YY=    28.7283   ZY=     1.4140
   XZ=     2.1628   YZ=    -0.9088   ZZ=    32.6293
   Eigenvalues:    26.2532    30.5964    34.9595
     29  H    Isotropic =    30.3199   Anisotropy =     5.6243
   XX=    31.5252   YX=     0.8901   ZX=     4.4333
   XY=     0.7461   YY=    30.9642   ZY=     1.4003
   XZ=     1.8098   YZ=     1.0770   ZZ=    28.4702
   Eigenvalues:    26.4331    30.4571    34.0694
     30  H    Isotropic =    30.5416   Anisotropy =    11.6752
   XX=    30.7270   YX=    -4.5640   ZX=    -0.8600
   XY=    -5.3631   YY=    34.7692   ZY=     1.1726
   XZ=    -1.4085   YZ=     1.2290   ZZ=    26.1288
   Eigenvalues:    25.8637    27.4360    38.3251
     31  H    Isotropic =    30.2698   Anisotropy =     6.8371
   XX=    29.0857   YX=     0.4954   ZX=    -2.5982
   XY=     0.8674   YY=    30.3936   ZY=    -3.6676
   XZ=    -2.2543   YZ=    -2.3185   ZZ=    31.3299
   Eigenvalues:    26.9917    28.9897    34.8279
 End of Minotr Frequency-dependent properties file   721 does not exist.
 End of Minotr Frequency-dependent properties file   722 does not exist.

 **********************************************************************

            Population analysis using the SCF density.

 **********************************************************************

 Orbital symmetries:
       Occupied  (A) (A) (A) (A) (A) (A) (A) (A) (A) (A) (A) (A)
                 (A) (A) (A) (A) (A) (A) (A) (A) (A) (A) (A) (A)
                 (A) (A) (A) (A) (A) (A) (A) (A) (A) (A) (A) (A)
                 (A) (A) (A) (A) (A) (A) (A) (A) (A) (A) (A) (A)
                 (A) (A) (A) (A) (A) (A) (A) (A)
       Virtual   (A) (A) (A) (A) (A) (A) (A) (A) (A) (A) (A) (A)
                 (A) (A) (A) (A) (A) (A) (A) (A) (A) (A) (A) (A)
                 (A) (A) (A) (A) (A) (A) (A) (A) (A) (A) (A) (A)
                 (A) (A) (A) (A) (A) (A) (A) (A) (A) (A) (A) (A)
                 (A) (A) (A) (A) (A) (A) (A) (A) (A) (A) (A) (A)
                 (A) (A) (A) (A) (A) (A) (A) (A) (A) (A) (A) (A)
                 (A) (A) (A) (A) (A) (A) (A) (A) (A) (A) (A) (A)
                 (A) (A) (A) (A) (A) (A) (A) (A) (A) (A) (A) (A)
                 (A) (A) (A) (A) (A) (A) (A) (A) (A) (A) (A) (A)
                 (A) (A) (A) (A) (A) (A) (A) (A) (A) (A) (A) (A)
                 (A) (A) (A) (A) (A) (A) (A) (A) (A) (A) (A) (A)
                 (A) (A) (A) (A) (A) (A) (A) (A) (A) (A) (A) (A)
                 (A) (A) (A) (A) (A) (A) (A) (A) (A) (A) (A) (A)
                 (A) (A) (A) (A) (A) (A) (A) (A) (A) (A) (A) (A)
                 (A) (A) (A) (A) (A) (A) (A) (A) (A) (A) (A) (A)
                 (A) (A) (A) (A) (A) (A) (A) (A) (A) (A) (A) (A)
                 (A) (A) (A) (A) (A) (A) (A) (A) (A) (A) (A) (A)
                 (A) (A) (A) (A) (A) (A) (A) (A) (A) (A) (A) (A)
                 (A) (A) (A) (A) (A) (A) (A) (A) (A) (A) (A) (A)
                 (A) (A) (A) (A) (A) (A) (A) (A) (A) (A) (A) (A)
                 (A) (A) (A) (A) (A) (A) (A) (A) (A) (A) (A) (A)
                 (A) (A) (A) (A) (A) (A) (A) (A) (A) (A) (A) (A)
                 (A) (A) (A) (A) (A) (A) (A) (A) (A) (A) (A) (A)
                 (A) (A) (A) (A) (A) (A) (A) (A) (A) (A) (A) (A)
                 (A) (A) (A) (A) (A) (A) (A) (A) (A) (A) (A) (A)
                 (A) (A) (A) (A) (A) (A) (A) (A) (A)
 The electronic state is 1-A.
 Alpha  occ. eigenvalues --  -19.32744 -19.28221 -19.27729 -10.44192 -10.36214
 Alpha  occ. eigenvalues --  -10.35072 -10.32062 -10.31695 -10.30878 -10.30839
 Alpha  occ. eigenvalues --  -10.30765 -10.30750 -10.30641 -10.28688 -10.28388
 Alpha  occ. eigenvalues --   -1.20947  -1.12968  -1.12521  -0.96353  -0.91361
 Alpha  occ. eigenvalues --   -0.86620  -0.85239  -0.84846  -0.78136  -0.76002
 Alpha  occ. eigenvalues --   -0.70916  -0.70171  -0.68283  -0.64119  -0.62715
 Alpha  occ. eigenvalues --   -0.59304  -0.58547  -0.57260  -0.56645  -0.55893
 Alpha  occ. eigenvalues --   -0.53258  -0.52970  -0.52569  -0.50874  -0.50444
 Alpha  occ. eigenvalues --   -0.48700  -0.47452  -0.46490  -0.46290  -0.45558
 Alpha  occ. eigenvalues --   -0.44641  -0.44057  -0.43464  -0.42494  -0.41767
 Alpha  occ. eigenvalues --   -0.40227  -0.38837  -0.37036  -0.36541  -0.33400
 Alpha  occ. eigenvalues --   -0.32616
 Alpha virt. eigenvalues --    0.04823   0.05027   0.06439   0.06852   0.07864
 Alpha virt. eigenvalues --    0.08168   0.08269   0.09341   0.09866   0.10426
 Alpha virt. eigenvalues --    0.10973   0.11327   0.11713   0.12111   0.13293
 Alpha virt. eigenvalues --    0.13535   0.13840   0.14308   0.14841   0.15039
 Alpha virt. eigenvalues --    0.15688   0.16772   0.17279   0.18287   0.18371
 Alpha virt. eigenvalues --    0.18512   0.18805   0.19489   0.20037   0.20069
 Alpha virt. eigenvalues --    0.21222   0.21378   0.21528   0.22185   0.22794
 Alpha virt. eigenvalues --    0.23334   0.23591   0.23873   0.24507   0.24813
 Alpha virt. eigenvalues --    0.25342   0.25540   0.26161   0.26467   0.27119
 Alpha virt. eigenvalues --    0.27487   0.27901   0.28112   0.28516   0.28795
 Alpha virt. eigenvalues --    0.29694   0.29937   0.31026   0.31172   0.31324
 Alpha virt. eigenvalues --    0.31851   0.32445   0.33128   0.33289   0.33434
 Alpha virt. eigenvalues --    0.33962   0.34784   0.35574   0.35948   0.36491
 Alpha virt. eigenvalues --    0.37202   0.37583   0.38078   0.38234   0.38763
 Alpha virt. eigenvalues --    0.39200   0.40212   0.40697   0.40942   0.41206
 Alpha virt. eigenvalues --    0.42012   0.42938   0.43403   0.44221   0.44550
 Alpha virt. eigenvalues --    0.45384   0.45731   0.46701   0.47488   0.47666
 Alpha virt. eigenvalues --    0.48810   0.50016   0.50486   0.51959   0.53449
 Alpha virt. eigenvalues --    0.55414   0.56427   0.61302   0.66290   0.70307
 Alpha virt. eigenvalues --    0.72905   0.73900   0.75814   0.77176   0.77275
 Alpha virt. eigenvalues --    0.78106   0.78161   0.79337   0.80029   0.81080
 Alpha virt. eigenvalues --    0.81997   0.82217   0.83304   0.83892   0.84472
 Alpha virt. eigenvalues --    0.85012   0.86475   0.88370   0.88691   0.89315
 Alpha virt. eigenvalues --    0.90845   0.92077   0.93184   0.93792   0.97166
 Alpha virt. eigenvalues --    0.97938   0.98904   1.00305   1.01094   1.02375
 Alpha virt. eigenvalues --    1.03057   1.03438   1.05898   1.07066   1.07579
 Alpha virt. eigenvalues --    1.09421   1.10378   1.10965   1.11551   1.12388
 Alpha virt. eigenvalues --    1.15140   1.15319   1.16814   1.18110   1.20123
 Alpha virt. eigenvalues --    1.20483   1.20834   1.22509   1.23372   1.24399
 Alpha virt. eigenvalues --    1.25067   1.27311   1.28638   1.29610   1.31631
 Alpha virt. eigenvalues --    1.33997   1.34672   1.35622   1.36752   1.38447
 Alpha virt. eigenvalues --    1.39302   1.41380   1.42033   1.42745   1.43701
 Alpha virt. eigenvalues --    1.46007   1.47832   1.49094   1.49531   1.50066
 Alpha virt. eigenvalues --    1.50799   1.51491   1.52135   1.53908   1.56206
 Alpha virt. eigenvalues --    1.57305   1.58505   1.59812   1.62711   1.66072
 Alpha virt. eigenvalues --    1.68763   1.70676   1.72139   1.74591   1.76479
 Alpha virt. eigenvalues --    1.80668   1.83920   1.85913   1.87164   1.87532
 Alpha virt. eigenvalues --    1.90436   1.91607   1.92887   1.94193   1.94968
 Alpha virt. eigenvalues --    1.97067   1.98436   1.99283   2.00855   2.01437
 Alpha virt. eigenvalues --    2.01622   2.03559   2.04361   2.05176   2.05756
 Alpha virt. eigenvalues --    2.06882   2.08586   2.10491   2.10779   2.10985
 Alpha virt. eigenvalues --    2.11775   2.14711   2.16063   2.17699   2.18774
 Alpha virt. eigenvalues --    2.19577   2.20857   2.21866   2.22626   2.24058
 Alpha virt. eigenvalues --    2.25802   2.26602   2.27582   2.28239   2.30513
 Alpha virt. eigenvalues --    2.33299   2.34529   2.36856   2.38309   2.39138
 Alpha virt. eigenvalues --    2.42396   2.42699   2.46496   2.47442   2.48195
 Alpha virt. eigenvalues --    2.49432   2.49728   2.51419   2.51883   2.55584
 Alpha virt. eigenvalues --    2.55950   2.56826   2.57335   2.59019   2.60243
 Alpha virt. eigenvalues --    2.63023   2.64345   2.65876   2.66891   2.68713
 Alpha virt. eigenvalues --    2.69537   2.71211   2.71828   2.73132   2.75323
 Alpha virt. eigenvalues --    2.78035   2.78755   2.79521   2.82087   2.82867
 Alpha virt. eigenvalues --    2.84304   2.85690   2.86395   2.87467   2.89420
 Alpha virt. eigenvalues --    2.91137   2.92218   2.95176   2.95637   2.97288
 Alpha virt. eigenvalues --    2.98104   2.98474   3.02942   3.05196   3.10267
 Alpha virt. eigenvalues --    3.12272   3.16930   3.17578   3.20602   3.27805
 Alpha virt. eigenvalues --    3.29966   3.30269   3.36979   3.37286   3.39013
 Alpha virt. eigenvalues --    3.39698   3.43725   3.45472   3.51991   3.52689
 Alpha virt. eigenvalues --    3.53727   3.57446   3.59693   3.60829   3.62824
 Alpha virt. eigenvalues --    3.64856   3.66352   3.67238   3.99614   4.39644
 Alpha virt. eigenvalues --    4.41339   4.43637   4.49041   4.53704   4.56168
 Alpha virt. eigenvalues --    4.58371   4.62071   4.64541   4.70339   4.74227
 Alpha virt. eigenvalues --    4.79361   4.82812   4.93942   4.98124
          Condensed to atoms (all electrons):
              1          2          3          4          5          6
     1  C   18.398727  -0.599806  -0.413061  -4.623829  -8.913754   0.197460
     2  C   -0.599806   7.448992   0.094980  -0.330993  -0.177707   0.693492
     3  C   -0.413061   0.094980   6.607155  -0.479951  -0.077621   0.508398
     4  C   -4.623829  -0.330993  -0.479951  16.431015  -1.057540  -1.012860
     5  C   -8.913754  -0.177707  -0.077621  -1.057540  16.441940  -0.021035
     6  C    0.197460   0.693492   0.508398  -1.012860  -0.021035   5.533488
     7  C    2.192844  -1.540239  -0.375226  -3.411877  -0.828323  -0.030212
     8  C   -0.612957   0.345771   0.187178   0.129422   0.602893  -0.010508
     9  C   -0.141656   0.025315  -0.200079   0.437202  -0.078368  -0.005945
    10  O    0.142283   0.006217   0.029395  -0.101286  -0.049043   0.002614
    11  C    0.015022   0.005396   0.016872   0.010522  -0.000602   0.001646
    12  O   -0.184327   0.149568   0.002949  -0.146857   0.269395   0.016563
    13  C    0.035783  -0.103614  -0.014353  -0.007763  -0.089135  -0.005270
    14  O    0.016742   0.004822   0.001520   0.016594  -0.045121   0.000378
    15  C    0.074126   0.001008  -0.014911  -0.050776  -0.016120   0.000090
    16  H    0.161219   0.009079   0.043965   0.125959   0.015359  -0.011633
    17  H    0.006696   0.268612  -0.004695   0.036435   0.016129   0.009772
    18  H    0.021807  -0.006136   0.261085   0.017589   0.005009   0.028636
    19  H    0.052814  -0.044506  -0.002573   0.109844   0.222413  -0.005538
    20  H   -0.010561   0.030827   0.040122   0.012243  -0.011623   0.263495
    21  H    0.176672   0.021445   0.052997  -0.013577  -0.067076   0.001893
    22  H    0.009079   0.001544  -0.000836   0.044167  -0.018468  -0.000285
    23  H   -0.003831   0.000031  -0.000887   0.005165   0.001117  -0.000046
    24  H    0.000169   0.000020   0.000458  -0.000511   0.000191  -0.000009
    25  H    0.014760  -0.006169  -0.003435   0.006623  -0.037105   0.000547
    26  H   -0.006941  -0.001957  -0.001174  -0.020962   0.015444   0.000546
    27  H   -0.012818   0.006078   0.000551  -0.036975   0.053851   0.000660
    28  H    0.042037   0.010663  -0.003638   0.038973  -0.075096   0.000410
    29  H    0.004293   0.000354  -0.000694  -0.000191   0.001457  -0.001302
    30  H   -0.001560   0.000007   0.000255   0.001449   0.000137  -0.000192
    31  H   -0.006111   0.000260  -0.006660   0.013394   0.000799  -0.000382
              7          8          9         10         11         12
     1  C    2.192844  -0.612957  -0.141656   0.142283   0.015022  -0.184327
     2  C   -1.540239   0.345771   0.025315   0.006217   0.005396   0.149568
     3  C   -0.375226   0.187178  -0.200079   0.029395   0.016872   0.002949
     4  C   -3.411877   0.129422   0.437202  -0.101286   0.010522  -0.146857
     5  C   -0.828323   0.602893  -0.078368  -0.049043  -0.000602   0.269395
     6  C   -0.030212  -0.010508  -0.005945   0.002614   0.001646   0.016563
     7  C   11.046060  -1.237885  -0.075216  -0.087259  -0.069677  -0.038295
     8  C   -1.237885   7.912130  -1.120021  -0.287918   0.041130   0.014664
     9  C   -0.075216  -1.120021   6.480161   0.335283  -0.179579   0.025334
    10  O   -0.087259  -0.287918   0.335283   8.442249   0.069662  -0.000992
    11  C   -0.069677   0.041130  -0.179579   0.069662   5.114528  -0.000233
    12  O   -0.038295   0.014664   0.025334  -0.000992  -0.000233   8.306223
    13  C    0.227447  -0.103458  -0.010964   0.023059  -0.017678  -0.057428
    14  O    0.011392  -0.130122   0.638275  -0.160352   0.003452  -0.001691
    15  C    0.005795  -0.030572  -0.015125  -0.045238   0.307914  -0.000145
    16  H   -0.047259   0.010592   0.011608   0.000500  -0.004355   0.000380
    17  H   -0.006912   0.000177  -0.000201   0.000002   0.000000   0.000159
    18  H   -0.002098  -0.000962   0.001351  -0.000029  -0.000338   0.000024
    19  H   -0.008142  -0.012726  -0.002039   0.000001  -0.000024   0.003421
    20  H    0.001899   0.000245  -0.000208   0.000001   0.000020  -0.000005
    21  H    0.016419   0.170202  -0.093683   0.020608   0.005432  -0.039746
    22  H   -0.006942   0.284122   0.023790  -0.000585   0.000088  -0.007385
    23  H   -0.001928   0.003189   0.009872  -0.037183   0.396349   0.000003
    24  H    0.001257  -0.002263   0.007815  -0.059654   0.425514   0.000008
    25  H    0.040319   0.002641  -0.000082   0.000235   0.000293   0.236169
    26  H    0.030783  -0.110898   0.034922  -0.000840   0.000337   0.000263
    27  H   -0.046770  -0.021917  -0.004898  -0.000104  -0.000055   0.008966
    28  H    0.031881  -0.104602   0.012276   0.000282  -0.000190  -0.004616
    29  H   -0.004049   0.001084  -0.006795  -0.004503  -0.035970   0.000010
    30  H    0.000396   0.002101   0.005273   0.006938  -0.045668   0.000000
    31  H   -0.001661  -0.003889   0.019292  -0.005406  -0.048243  -0.000003
             13         14         15         16         17         18
     1  C    0.035783   0.016742   0.074126   0.161219   0.006696   0.021807
     2  C   -0.103614   0.004822   0.001008   0.009079   0.268612  -0.006136
     3  C   -0.014353   0.001520  -0.014911   0.043965  -0.004695   0.261085
     4  C   -0.007763   0.016594  -0.050776   0.125959   0.036435   0.017589
     5  C   -0.089135  -0.045121  -0.016120   0.015359   0.016129   0.005009
     6  C   -0.005270   0.000378   0.000090  -0.011633   0.009772   0.028636
     7  C    0.227447   0.011392   0.005795  -0.047259  -0.006912  -0.002098
     8  C   -0.103458  -0.130122  -0.030572   0.010592   0.000177  -0.000962
     9  C   -0.010964   0.638275  -0.015125   0.011608  -0.000201   0.001351
    10  O    0.023059  -0.160352  -0.045238   0.000500   0.000002  -0.000029
    11  C   -0.017678   0.003452   0.307914  -0.004355   0.000000  -0.000338
    12  O   -0.057428  -0.001691  -0.000145   0.000380   0.000159   0.000024
    13  C    5.492012  -0.011437  -0.001582   0.000045   0.000532   0.000043
    14  O   -0.011437   8.131172  -0.030323  -0.000807  -0.000001  -0.000043
    15  C   -0.001582  -0.030323   5.169136  -0.000347   0.000002   0.000482
    16  H    0.000045  -0.000807  -0.000347   0.518121   0.000011  -0.004191
    17  H    0.000532  -0.000001   0.000002   0.000011   0.495403  -0.000122
    18  H    0.000043  -0.000043   0.000482  -0.004191  -0.000122   0.497452
    19  H    0.006041  -0.000016   0.000006  -0.000117  -0.004037   0.000011
    20  H   -0.000009   0.000004  -0.000026  -0.000125  -0.003840  -0.003914
    21  H   -0.015825   0.000086  -0.000514   0.001757   0.000002  -0.000001
    22  H   -0.035283   0.003701  -0.000156  -0.000012   0.000000   0.000000
    23  H   -0.001757  -0.001213  -0.036196  -0.000001   0.000000   0.000000
    24  H   -0.000251   0.000502  -0.041657   0.000001   0.000000   0.000000
    25  H   -0.002132   0.000017  -0.000113   0.000037  -0.000001   0.000000
    26  H    0.422783  -0.001418   0.000025   0.000000   0.000000   0.000000
    27  H    0.413426   0.001506  -0.000041   0.000000   0.000000   0.000000
    28  H    0.407256   0.000469   0.000090  -0.000003  -0.000016   0.000000
    29  H    0.000012   0.001343   0.408638  -0.000096   0.000000  -0.000010
    30  H   -0.000069  -0.000118   0.394192   0.000026   0.000000   0.000000
    31  H   -0.000655  -0.001177   0.402984  -0.000003   0.000000   0.000002
             19         20         21         22         23         24
     1  C    0.052814  -0.010561   0.176672   0.009079  -0.003831   0.000169
     2  C   -0.044506   0.030827   0.021445   0.001544   0.000031   0.000020
     3  C   -0.002573   0.040122   0.052997  -0.000836  -0.000887   0.000458
     4  C    0.109844   0.012243  -0.013577   0.044167   0.005165  -0.000511
     5  C    0.222413  -0.011623  -0.067076  -0.018468   0.001117   0.000191
     6  C   -0.005538   0.263495   0.001893  -0.000285  -0.000046  -0.000009
     7  C   -0.008142   0.001899   0.016419  -0.006942  -0.001928   0.001257
     8  C   -0.012726   0.000245   0.170202   0.284122   0.003189  -0.002263
     9  C   -0.002039  -0.000208  -0.093683   0.023790   0.009872   0.007815
    10  O    0.000001   0.000001   0.020608  -0.000585  -0.037183  -0.059654
    11  C   -0.000024   0.000020   0.005432   0.000088   0.396349   0.425514
    12  O    0.003421  -0.000005  -0.039746  -0.007385   0.000003   0.000008
    13  C    0.006041  -0.000009  -0.015825  -0.035283  -0.001757  -0.000251
    14  O   -0.000016   0.000004   0.000086   0.003701  -0.001213   0.000502
    15  C    0.000006  -0.000026  -0.000514  -0.000156  -0.036196  -0.041657
    16  H   -0.000117  -0.000125   0.001757  -0.000012  -0.000001   0.000001
    17  H   -0.004037  -0.003840   0.000002   0.000000   0.000000   0.000000
    18  H    0.000011  -0.003914  -0.000001   0.000000   0.000000   0.000000
    19  H    0.500479  -0.000120  -0.000049  -0.000020   0.000000   0.000000
    20  H   -0.000120   0.497993   0.000000   0.000000   0.000000   0.000000
    21  H   -0.000049   0.000000   0.613413  -0.005792  -0.000011  -0.000006
    22  H   -0.000020   0.000000  -0.005792   0.504175   0.000010   0.000001
    23  H    0.000000   0.000000  -0.000011   0.000010   0.521512  -0.031388
    24  H    0.000000   0.000000  -0.000006   0.000001  -0.031388   0.528831
    25  H   -0.000841   0.000000  -0.004348   0.000101   0.000000   0.000000
    26  H    0.000061   0.000000  -0.000099  -0.003920  -0.000003   0.000000
    27  H   -0.000403   0.000000   0.000042  -0.002081   0.000000   0.000000
    28  H   -0.000685   0.000000  -0.000116   0.004050   0.000000   0.000000
    29  H    0.000000   0.000000   0.000020  -0.000003  -0.004949   0.003928
    30  H    0.000000   0.000000  -0.000001   0.000000  -0.001072  -0.001105
    31  H    0.000000   0.000000  -0.000032   0.000001   0.003837  -0.005154
             25         26         27         28         29         30
     1  C    0.014760  -0.006941  -0.012818   0.042037   0.004293  -0.001560
     2  C   -0.006169  -0.001957   0.006078   0.010663   0.000354   0.000007
     3  C   -0.003435  -0.001174   0.000551  -0.003638  -0.000694   0.000255
     4  C    0.006623  -0.020962  -0.036975   0.038973  -0.000191   0.001449
     5  C   -0.037105   0.015444   0.053851  -0.075096   0.001457   0.000137
     6  C    0.000547   0.000546   0.000660   0.000410  -0.001302  -0.000192
     7  C    0.040319   0.030783  -0.046770   0.031881  -0.004049   0.000396
     8  C    0.002641  -0.110898  -0.021917  -0.104602   0.001084   0.002101
     9  C   -0.000082   0.034922  -0.004898   0.012276  -0.006795   0.005273
    10  O    0.000235  -0.000840  -0.000104   0.000282  -0.004503   0.006938
    11  C    0.000293   0.000337  -0.000055  -0.000190  -0.035970  -0.045668
    12  O    0.236169   0.000263   0.008966  -0.004616   0.000010   0.000000
    13  C   -0.002132   0.422783   0.413426   0.407256   0.000012  -0.000069
    14  O    0.000017  -0.001418   0.001506   0.000469   0.001343  -0.000118
    15  C   -0.000113   0.000025  -0.000041   0.000090   0.408638   0.394192
    16  H    0.000037   0.000000   0.000000  -0.000003  -0.000096   0.000026
    17  H   -0.000001   0.000000   0.000000  -0.000016   0.000000   0.000000
    18  H    0.000000   0.000000   0.000000   0.000000  -0.000010   0.000000
    19  H   -0.000841   0.000061  -0.000403  -0.000685   0.000000   0.000000
    20  H    0.000000   0.000000   0.000000   0.000000   0.000000   0.000000
    21  H   -0.004348  -0.000099   0.000042  -0.000116   0.000020  -0.000001
    22  H    0.000101  -0.003920  -0.002081   0.004050  -0.000003   0.000000
    23  H    0.000000  -0.000003   0.000000   0.000000  -0.004949  -0.001072
    24  H    0.000000   0.000000   0.000000   0.000000   0.003928  -0.001105
    25  H    0.361128   0.000002  -0.000164   0.000009   0.000000   0.000000
    26  H    0.000002   0.517847  -0.024547  -0.023862   0.000000   0.000000
    27  H   -0.000164  -0.024547   0.512447  -0.025493   0.000000   0.000000
    28  H    0.000009  -0.023862  -0.025493   0.505904  -0.000001   0.000000
    29  H    0.000000   0.000000   0.000000  -0.000001   0.507340  -0.021876
    30  H    0.000000   0.000000   0.000000   0.000000  -0.021876   0.506959
    31  H    0.000000   0.000000   0.000000   0.000000  -0.030058  -0.023361
             31
     1  C   -0.006111
     2  C    0.000260
     3  C   -0.006660
     4  C    0.013394
     5  C    0.000799
     6  C   -0.000382
     7  C   -0.001661
     8  C   -0.003889
     9  C    0.019292
    10  O   -0.005406
    11  C   -0.048243
    12  O   -0.000003
    13  C   -0.000655
    14  O   -0.001177
    15  C    0.402984
    16  H   -0.000003
    17  H    0.000000
    18  H    0.000002
    19  H    0.000000
    20  H    0.000000
    21  H   -0.000032
    22  H    0.000001
    23  H    0.003837
    24  H   -0.005154
    25  H    0.000000
    26  H    0.000000
    27  H    0.000000
    28  H    0.000000
    29  H   -0.030058
    30  H   -0.023361
    31  H    0.521398
 Mulliken atomic charges:
              1
     1  C   -0.031321
     2  C   -0.313356
     3  C   -0.248086
     4  C   -0.140647
     5  C   -0.082398
     6  C   -0.154872
     7  C    0.213479
     8  C    0.083155
     9  C   -0.132909
    10  O   -0.238937
    11  C   -0.011562
    12  O   -0.552379
    13  C   -0.549774
    14  O   -0.448133
    15  C   -0.480644
    16  H    0.170291
    17  H    0.185894
    18  H    0.184354
    19  H    0.186744
    20  H    0.183580
    21  H    0.159889
    22  H    0.206940
    23  H    0.179380
    24  H    0.173305
    25  H    0.391510
    26  H    0.173610
    27  H    0.178740
    28  H    0.184017
    29  H    0.182018
    30  H    0.177289
    31  H    0.170826
 Sum of Mulliken atomic charges =   0.00000
 Mulliken charges with hydrogens summed into heavy atoms:
              1
     1  C    0.138970
     2  C   -0.127462
     3  C   -0.063732
     4  C   -0.140647
     5  C    0.104346
     6  C    0.028708
     7  C    0.373368
     8  C    0.290094
     9  C   -0.132909
    10  O   -0.238937
    11  C    0.341122
    12  O   -0.160870
    13  C   -0.013407
    14  O   -0.448133
    15  C    0.049489
 Sum of Mulliken charges with hydrogens summed into heavy atoms =   0.00000
 Electronic spatial extent (au):  <R**2>=           3340.4057
 Charge=              0.0000 electrons
 Dipole moment (field-independent basis, Debye):
    X=              0.0758    Y=              1.9622    Z=             -2.0634  Tot=              2.8484
 Quadrupole moment (field-independent basis, Debye-Ang):
   XX=            -75.9419   YY=            -86.5712   ZZ=            -96.3971
   XY=             -1.9912   XZ=              5.5005   YZ=             -3.6935
 Traceless Quadrupole moment (field-independent basis, Debye-Ang):
   XX=             10.3615   YY=             -0.2678   ZZ=            -10.0937
   XY=             -1.9912   XZ=              5.5005   YZ=             -3.6935
 Octapole moment (field-independent basis, Debye-Ang**2):
  XXX=            -29.9795  YYY=             21.5889  ZZZ=            -21.1754  XYY=             -9.9852
  XXY=              9.5510  XXZ=              3.0042  XZZ=              7.9214  YZZ=             -2.2515
  YYZ=             10.6541  XYZ=              7.5548
 Hexadecapole moment (field-independent basis, Debye-Ang**3):
 XXXX=          -2282.0567 YYYY=          -1392.8468 ZZZZ=           -529.9918 XXXY=            -67.0468
 XXXZ=             68.3575 YYYX=             31.3649 YYYZ=            -27.2511 ZZZX=             -4.0046
 ZZZY=             11.2569 XXYY=           -591.8797 XXZZ=           -509.4380 YYZZ=           -339.5997
 XXYZ=             27.6131 YYXZ=              8.8191 ZZXY=            -20.4451
 N-N= 1.025572737623D+03 E-N=-3.662959427138D+03  KE= 6.858816365335D+02
 1\1\GINC-COMPUTE-8-6\SP\RwB97XD\6-31+G(d,p)\C12H16O3\ELUCIANO.IQUIR\17
 -May-2022\0\\# wb97xd/6-31+g** scrf=(pcm,solvent=chloroform,smd,dovacu
 um) nmr\\comment\\0,1\C,0,0.523296672,-1.292417263,-1.026615512\C,0,0.
 169194477,-3.375288353,0.790740598\C,0,1.450531834,-2.33443014,-0.9664
 47619\C,0,-0.593064155,-1.275738797,-0.17647527\C,0,-0.758142446,-2.33
 3614759,0.73164927\C,0,1.273400664,-3.374957883,-0.057815632\C,0,-1.58
 6920547,-0.132030962,-0.254148677\C,0,-1.405894398,0.991895355,0.77836
 7315\C,0,-0.090401792,1.714993937,0.569620979\O,0,-0.078758697,2.32830
 573,-0.650179885\C,0,1.080203591,3.126018622,-0.937917577\O,0,-2.92407
 6594,-0.642859472,-0.16391814\C,0,-1.561061472,0.546084902,2.234123241
 \O,0,0.817236151,1.779131211,1.38722181\C,0,2.17668577,2.267802912,-1.
 539473376\H,0,0.68152726,-0.492069798,-1.746107084\H,0,0.031385514,-4.
 184740275,1.503074115\H,0,2.313407588,-2.332695341,-1.627574509\H,0,-1
 .612090516,-2.349939046,1.406744616\H,0,1.997385379,-4.184062017,-0.00
 8791704\H,0,-1.523265388,0.297926243,-1.261885211\H,0,-2.199744181,1.7
 34969109,0.615642653\H,0,1.430009391,3.656488926,-0.044847477\H,0,0.77
 1123751,3.887292848,-1.661693627\H,0,-2.939498503,-1.482762082,-0.6562
 8286\H,0,-1.541868199,1.415416831,2.901575291\H,0,-2.511715746,0.02768
 3456,2.393432869\H,0,-0.746824512,-0.113408138,2.550843385\H,0,2.49986
 4307,1.492663137,-0.837645508\H,0,3.043235232,2.878497915,-1.808179796
 \H,0,1.814839563,1.755843192,-2.437036678\\Version=EM64L-G09RevC.01\St
 ate=1-A\HF=-692.4445728\RMSD=3.260e-09\Dipole=0.2640863,-0.1988204,-1.
 0707992\Quadrupole=-4.2510726,6.6635536,-2.412481,0.5706938,-5.2669544
 ,-4.7003102\PG=C01 [X(C12H16O3)]\\@


 IF I HAVE SEEN FARTHER, IT IS BY STANDING ON THE
 SHOULDERS OF GIANTS. -- SIR ISAAC NEWTON
 Job cpu time:  0 days  1 hours 51 minutes 38.4 seconds.
 File lengths (MBytes):  RWF=    124 Int=      0 D2E=      0 Chk=      9 Scr=      1
 Normal termination of Gaussian 09 at Tue May 17 17:53:20 2022.
