 Entering Gaussian System, Link 0=g09
 Input=/home/eluciano.iquir/wb9/73b_001.gjc
 Output=/home/eluciano.iquir/wb9/73b_001.log
 Initial command:
 /share/apps/Gaussian09/EM64T.SSE4.2-enabled/g09/l1.exe /tmp/Gau-13267.inp -scrdir=/tmp/
 Entering Link 1 = /share/apps/Gaussian09/EM64T.SSE4.2-enabled/g09/l1.exe PID=     13268.
  
 Copyright (c) 1988,1990,1992,1993,1995,1998,2003,2009,2011,
            Gaussian, Inc.  All Rights Reserved.
  
 This is part of the Gaussian(R) 09 program.  It is based on
 the Gaussian(R) 03 system (copyright 2003, Gaussian, Inc.),
 the Gaussian(R) 98 system (copyright 1998, Gaussian, Inc.),
 the Gaussian(R) 94 system (copyright 1995, Gaussian, Inc.),
 the Gaussian 92(TM) system (copyright 1992, Gaussian, Inc.),
 the Gaussian 90(TM) system (copyright 1990, Gaussian, Inc.),
 the Gaussian 88(TM) system (copyright 1988, Gaussian, Inc.),
 the Gaussian 86(TM) system (copyright 1986, Carnegie Mellon
 University), and the Gaussian 82(TM) system (copyright 1983,
 Carnegie Mellon University). Gaussian is a federally registered
 trademark of Gaussian, Inc.
  
 This software contains proprietary and confidential information,
 including trade secrets, belonging to Gaussian, Inc.
  
 This software is provided under written license and may be
 used, copied, transmitted, or stored only in accord with that
 written license.
  
 The following legend is applicable only to US Government
 contracts under FAR:
  
                    RESTRICTED RIGHTS LEGEND
  
 Use, reproduction and disclosure by the US Government is
 subject to restrictions as set forth in subparagraphs (a)
 and (c) of the Commercial Computer Software - Restricted
 Rights clause in FAR 52.227-19.
  
 Gaussian, Inc.
 340 Quinnipiac St., Bldg. 40, Wallingford CT 06492
  
  
 ---------------------------------------------------------------
 Warning -- This program may not be used in any manner that
 competes with the business of Gaussian, Inc. or will provide
 assistance to any competitor of Gaussian, Inc.  The licensee
 of this program is prohibited from giving any competitor of
 Gaussian, Inc. access to this program.  By using this program,
 the user acknowledges that Gaussian, Inc. is engaged in the
 business of creating and licensing software in the field of
 computational chemistry and represents and warrants to the
 licensee that it is not a competitor of Gaussian, Inc. and that
 it will not use this program in any manner prohibited above.
 ---------------------------------------------------------------
  

 Cite this work as:
 Gaussian 09, Revision C.01,
 M. J. Frisch, G. W. Trucks, H. B. Schlegel, G. E. Scuseria, 
 M. A. Robb, J. R. Cheeseman, G. Scalmani, V. Barone, B. Mennucci, 
 G. A. Petersson, H. Nakatsuji, M. Caricato, X. Li, H. P. Hratchian, 
 A. F. Izmaylov, J. Bloino, G. Zheng, J. L. Sonnenberg, M. Hada, 
 M. Ehara, K. Toyota, R. Fukuda, J. Hasegawa, M. Ishida, T. Nakajima, 
 Y. Honda, O. Kitao, H. Nakai, T. Vreven, J. A. Montgomery, Jr., 
 J. E. Peralta, F. Ogliaro, M. Bearpark, J. J. Heyd, E. Brothers, 
 K. N. Kudin, V. N. Staroverov, T. Keith, R. Kobayashi, J. Normand, 
 K. Raghavachari, A. Rendell, J. C. Burant, S. S. Iyengar, J. Tomasi, 
 M. Cossi, N. Rega, J. M. Millam, M. Klene, J. E. Knox, J. B. Cross, 
 V. Bakken, C. Adamo, J. Jaramillo, R. Gomperts, R. E. Stratmann, 
 O. Yazyev, A. J. Austin, R. Cammi, C. Pomelli, J. W. Ochterski, 
 R. L. Martin, K. Morokuma, V. G. Zakrzewski, G. A. Voth, 
 P. Salvador, J. J. Dannenberg, S. Dapprich, A. D. Daniels, 
 O. Farkas, J. B. Foresman, J. V. Ortiz, J. Cioslowski, 
 and D. J. Fox, Gaussian, Inc., Wallingford CT, 2010.
 
 ******************************************
 Gaussian 09:  EM64L-G09RevC.01 23-Sep-2011
                17-May-2022 
 ******************************************
 %nprocshared=4
 Will use up to    4 processors via shared memory.
 ----------------------------------------------------------------
 # wb97xd/6-31+g** scrf=(pcm,solvent=chloroform,smd,dovacuum) nmr
 ----------------------------------------------------------------
 1/38=1/1;
 2/12=2,17=6,18=5,40=1/2;
 3/5=1,6=6,7=111,11=2,16=1,25=1,30=1,70=32101,72=7,74=-58/1,2,8,3;
 4//1;
 5/5=2,38=5,53=7/2;
 8/6=1,10=90,11=11/1;
 10/13=100,45=16/2;
 6/7=2,8=2,9=2,10=2,28=1/1;
 99/9=1/99;
 -------
 comment
 -------
 Charge =  0 Multiplicity = 1
 Symbolic Z-Matrix:
 6                    -1.23369  -2.84132  -0.55275 
 6                    -3.66275  -1.47446  -0.67475 
 6                    -2.4377   -3.54555  -0.49503 
 6                    -1.23101  -1.44366  -0.6712 
 6                    -2.46063  -0.76822  -0.7322 
 6                    -3.65075  -2.86248  -0.55579 
 6                     0.08126  -0.68494  -0.72829 
 6                     0.32915   0.22297   0.48471 
 6                     1.73833   0.76435   0.37945 
 8                     1.73267   2.12644   0.42136 
 6                     3.03067   2.72296   0.32166 
 8                     0.06643   0.11951  -1.9154 
 6                     0.20558  -0.49085   1.83041 
 8                     2.74462   0.06886   0.3103 
 6                     2.8631    4.22949   0.35574 
 1                    -0.29732  -3.39347  -0.50103 
 1                    -4.6087   -0.94111  -0.72324 
 1                    -2.4292   -4.62864  -0.40157 
 1                    -2.4852    0.31586  -0.829 
 1                    -4.58726  -3.41233  -0.51046 
 1                     0.90715  -1.39632  -0.85186 
 1                    -0.36921   1.06985   0.46419 
 1                     3.50433   2.42477  -0.62042 
 1                     3.65083   2.40075   1.16558 
 1                    -0.36202  -0.40929  -2.61215 
 1                     0.52145   0.16594   2.6489 
 1                    -0.82742  -0.79183   2.03019 
 1                     0.83644  -1.3861    1.86694 
 1                     2.22728   4.56535  -0.47011 
 1                     3.83181   4.73163   0.28264 
 1                     2.37177   4.54184   1.28318 
 
                          Input orientation:                          
 ---------------------------------------------------------------------
 Center     Atomic      Atomic             Coordinates (Angstroms)
 Number     Number       Type             X           Y           Z
 ---------------------------------------------------------------------
      1          6           0       -1.233692   -2.841315   -0.552751
      2          6           0       -3.662754   -1.474462   -0.674749
      3          6           0       -2.437700   -3.545549   -0.495030
      4          6           0       -1.231013   -1.443656   -0.671204
      5          6           0       -2.460634   -0.768221   -0.732196
      6          6           0       -3.650754   -2.862476   -0.555788
      7          6           0        0.081259   -0.684935   -0.728295
      8          6           0        0.329145    0.222969    0.484709
      9          6           0        1.738334    0.764346    0.379454
     10          8           0        1.732667    2.126436    0.421360
     11          6           0        3.030669    2.722961    0.321657
     12          8           0        0.066433    0.119513   -1.915396
     13          6           0        0.205585   -0.490846    1.830406
     14          8           0        2.744620    0.068864    0.310296
     15          6           0        2.863104    4.229495    0.355741
     16          1           0       -0.297315   -3.393472   -0.501025
     17          1           0       -4.608697   -0.941113   -0.723236
     18          1           0       -2.429201   -4.628644   -0.401575
     19          1           0       -2.485200    0.315856   -0.829000
     20          1           0       -4.587263   -3.412331   -0.510455
     21          1           0        0.907152   -1.396318   -0.851864
     22          1           0       -0.369209    1.069846    0.464187
     23          1           0        3.504326    2.424769   -0.620419
     24          1           0        3.650832    2.400748    1.165583
     25          1           0       -0.362018   -0.409285   -2.612151
     26          1           0        0.521452    0.165936    2.648896
     27          1           0       -0.827419   -0.791830    2.030189
     28          1           0        0.836436   -1.386098    1.866944
     29          1           0        2.227276    4.565350   -0.470114
     30          1           0        3.831808    4.731627    0.282644
     31          1           0        2.371771    4.541835    1.283180
 ---------------------------------------------------------------------
                    Distance matrix (angstroms):
                    1          2          3          4          5
     1  C    0.000000
     2  C    2.789894   0.000000
     3  C    1.396034   2.412976   0.000000
     4  C    1.402673   2.431939   2.430038   0.000000
     5  C    2.415638   1.395411   2.787530   1.404243   0.000000
     6  C    2.417156   1.393154   1.393477   2.807404   2.415246
     7  C    2.531776   3.826729   3.818727   1.516896   2.543260
     8  C    3.592857   4.490086   4.776720   2.558880   3.200965
     9  C    4.764739   5.940990   6.064584   3.846580   4.606067
    10  O    5.867430   6.578639   7.099517   4.766828   5.224318
    11  C    7.064739   7.963234   8.358484   6.042218   6.591916
    12  O    3.509078   4.241084   4.660558   2.382199   2.928156
    13  C    3.643578   4.712468   4.661096   3.038044   3.708448
    14  O    5.004095   6.663829   6.369378   4.365401   5.374213
    15  C    8.222254   8.728337   9.448473   7.071142   7.382612
    16  H    1.088280   3.878009   2.145789   2.168533   3.409594
    17  H    3.876917   1.087023   3.398292   3.415260   2.155028
    18  H    2.155607   3.397814   1.087153   3.413577   3.874683
    19  H    3.407392   2.148411   3.876112   2.166510   1.088668
    20  H    3.402100   2.153380   2.153743   3.894347   3.400448
    21  H    2.600135   4.574005   3.991812   2.146306   3.427945
    22  H    4.132636   4.314872   5.147876   2.889552   3.030491
    23  H    7.084140   8.159289   8.424256   6.114795   6.766714
    24  H    7.368207   8.478952   8.671004   6.479632   7.141004
    25  H    3.303894   3.972781   4.315879   2.364815   2.840291
    26  H    4.730183   5.589732   5.693502   4.084725   4.604049
    27  H    3.322202   3.977663   4.068501   2.808076   3.209162
    28  H    3.501145   5.168242   4.578440   3.274119   4.243580
    29  H    8.175807   8.438819   9.356778   6.936018   7.105783
    30  H    9.149133   9.777556  10.412644   8.042145   8.418613
    31  H    8.419081   8.743272   9.575950   7.254362   7.457249
                    6          7          8          9         10
     6  C    0.000000
     7  C    4.324276   0.000000
     8  C    5.142198   1.535290   0.000000
     9  C    6.562833   2.464431   1.513268   0.000000
    10  O    7.404410   3.457262   2.365813   1.362747   0.000000
    11  C    8.752624   4.627653   3.684396   2.347263   1.431989
    12  O    4.955630   1.434073   2.416655   2.911598   3.502072
    13  C    5.117607   2.569062   1.528300   2.455624   3.341790
    14  O    7.088277   2.956413   2.426662   1.225189   2.295645
    15  C    9.672502   5.750254   4.742344   3.643203   2.388525
    16  H    3.395660   2.744293   3.800365   4.712384   5.953235
    17  H    2.153446   4.696950   5.215026   6.664031   7.136725
    18  H    2.152980   4.686363   5.650852   6.860226   7.976809
    19  H    3.396315   2.756527   3.107249   4.415852   4.757310
    20  H    1.086943   5.411215   6.194904   7.632153   8.455042
    21  H    4.797060   1.097011   2.177753   2.622112   3.835670
    22  H    5.222264   2.168914   1.097870   2.131255   2.352891
    23  H    8.896870   4.625936   4.018831   2.622113   2.076796
    24  H    9.163940   5.084296   4.029877   2.636941   2.075686
    25  H    4.589397   1.954838   3.235427   3.839087   4.474346
    26  H    6.070303   3.510437   2.173463   2.643722   3.205077
    27  H    4.352708   2.906261   2.180818   3.424865   4.202219
    28  H    5.308879   2.792344   2.181059   2.765946   3.902671
    29  H    9.472654   5.677811   4.834341   3.925361   2.643419
    30  H   10.694022   6.665415   5.712921   4.486794   3.348530
    31  H    9.719899   6.050752   4.843808   3.935402   2.642979
                   11         12         13         14         15
    11  C    0.000000
    12  O    4.535311   0.000000
    13  C    4.537178   3.797754   0.000000
    14  O    2.669491   3.482666   3.011763   0.000000
    15  C    1.516207   5.465473   5.614149   4.162565   0.000000
    16  H    7.011636   3.804447   3.756823   4.679678   8.296501
    17  H    8.536811   4.939940   5.468193   7.493965   9.150256
    18  H    9.185823   5.573584   5.389361   7.024370  10.346432
    19  H    6.127232   2.780222   3.868273   5.358174   6.732350
    20  H    9.816675   6.008716   6.081620   8.157749  10.707744
    21  H    4.780683   2.033630   2.916616   2.621767   6.077321
    22  H    3.783156   2.599102   2.152372   3.274382   4.521392
    23  H    1.095799   4.337082   5.038754   2.644554   2.149672
    24  H    1.095735   5.248274   4.546761   2.643939   2.149575
    25  H    5.470696   0.973994   4.479413   4.291914   6.381855
    26  H    4.272071   4.587151   1.095929   3.228150   5.220575
    27  H    5.491601   4.146945   1.094349   4.056882   6.452708
    28  H    4.907844   4.143171   1.095804   2.860286   6.158409
    29  H    2.160264   5.150102   5.911408   4.592937   1.095041
    30  H    2.162888   6.346733   6.543645   4.787911   1.093557
    31  H    2.160319   5.924729   5.506333   4.592710   1.095038
                   16         17         18         19         20
    16  H    0.000000
    17  H    4.965023   0.000000
    18  H    2.465862   4.295527   0.000000
    19  H    4.318973   2.469898   4.963256   0.000000
    20  H    4.290000   2.480455   2.479618   4.291798   0.000000
    21  H    2.358486   5.536095   4.667113   3.800015   5.862548
    22  H    4.567057   4.840164   6.120940   2.591959   6.231519
    23  H    6.951162   8.784126   9.219830   6.353380   9.977858
    24  H    7.206832   9.107990   9.425239   6.780562  10.220920
    25  H    3.656010   4.678154   5.192580   2.865896   5.593578
    26  H    4.823045   6.238209   6.403102   4.599804   6.991743
    27  H    3.668323   4.679925   4.816672   3.485709   5.240070
    28  H    3.304878   6.046198   5.130757   4.604132   6.258927
    29  H    8.349692   8.781556  10.306163   6.355661  10.492043
    30  H    9.147733  10.219290  11.281980   7.787129  11.740265
    31  H    8.560170   9.100294  10.487393   6.775719  10.719797
                   21         22         23         24         25
    21  H    0.000000
    22  H    3.072954   0.000000
    23  H    4.625968   4.244579   0.000000
    24  H    5.100547   4.292317   1.792162   0.000000
    25  H    2.384038   3.413464   5.191095   6.186317   0.000000
    26  H    3.852884   2.526516   4.968730   4.121604   5.365632
    27  H    3.417656   2.475511   6.011343   5.567300   4.681267
    28  H    2.719746   3.074568   5.275160   4.770004   4.738433
    29  H    6.118001   4.453448   2.497106   3.063906   6.003312
    30  H    6.884215   5.575853   2.498872   2.499066   7.238576
    31  H    6.478054   4.498714   3.064040   2.496815   6.867372
                   26         27         28         29         30
    26  H    0.000000
    27  H    1.766229   0.000000
    28  H    1.766203   1.774322   0.000000
    29  H    5.656227   6.654476   6.543394   0.000000
    30  H    6.115811   7.434439   6.993484   1.780117   0.000000
    31  H    4.943415   6.264249   6.151295   1.759395   1.780113
                   31
    31  H    0.000000
 Stoichiometry    C12H16O3
 Framework group  C1[X(C12H16O3)]
 Deg. of freedom    87
 Full point group                 C1      NOp   1
 Largest Abelian subgroup         C1      NOp   1
 Largest concise Abelian subgroup C1      NOp   1
                         Standard orientation:                         
 ---------------------------------------------------------------------
 Center     Atomic      Atomic             Coordinates (Angstroms)
 Number     Number       Type             X           Y           Z
 ---------------------------------------------------------------------
      1          6           0        2.790684    0.995435   -0.519065
      2          6           0        3.622989   -1.426812    0.587055
      3          6           0        4.128721    0.808712   -0.167349
      4          6           0        1.852454   -0.028135   -0.320267
      5          6           0        2.284904   -1.242478    0.236739
      6          6           0        4.544019   -0.401202    0.385293
      7          6           0        0.399334    0.183964   -0.700308
      8          6           0       -0.561979    0.197613    0.496691
      9          6           0       -1.930184    0.598056   -0.010892
     10          8           0       -2.859904   -0.339044    0.327549
     11          6           0       -4.186467   -0.039677   -0.121009
     12          8           0        0.022721   -0.878738   -1.586532
     13          6           0       -0.169077    1.182058    1.597690
     14          8           0       -2.170701    1.642128   -0.605160
     15          6           0       -5.097103   -1.175342    0.303128
     16          1           0        2.486408    1.948765   -0.946770
     17          1           0        3.946522   -2.371245    1.017161
     18          1           0        4.847956    1.608771   -0.323898
     19          1           0        1.577011   -2.053986    0.396550
     20          1           0        5.586141   -0.544805    0.658801
     21          1           0        0.306775    1.111331   -1.278976
     22          1           0       -0.633952   -0.809718    0.927299
     23          1           0       -4.196302    0.054215   -1.212733
     24          1           0       -4.527337    0.897120    0.333801
     25          1           0        0.785628   -1.048380   -2.167788
     26          1           0       -0.954711    1.247126    2.359008
     27          1           0        0.751940    0.872418    2.101130
     28          1           0       -0.017759    2.190430    1.196351
     29          1           0       -4.756710   -2.123312   -0.126522
     30          1           0       -6.126100   -0.991145   -0.017970
     31          1           0       -5.082211   -1.295497    1.391452
 ---------------------------------------------------------------------
 Rotational constants (GHZ):      1.5789707      0.2634616      0.2541392
 Standard basis: 6-31+G(d,p) (6D, 7F)
 There are   365 symmetry adapted basis functions of A   symmetry.
 Integral buffers will be    131072 words long.
 Raffenetti 2 integral format.
 Two-electron integral symmetry is turned on.
   365 basis functions,   592 primitive gaussians,   365 cartesian basis functions
    56 alpha electrons       56 beta electrons
       nuclear repulsion energy       986.5151217021 Hartrees.
 NAtoms=   31 NActive=   31 NUniq=   31 SFac= 1.00D+00 NAtFMM=   60 NAOKFM=F Big=F
 Nuclear repulsion after empirical dispersion term =      986.4948963149 Hartrees.
 ------------------------------------------------------------------------------
 Polarizable Continuum Model (PCM)
 =================================
 Model                : C-PCM.
 Atomic radii         : SMD-Coulomb.
 Polarization charges : Total charges.
 Charge compensation  : None.
 Solution method      : Matrix inversion.
 Cavity type          : VdW (van der Waals Surface) (Alpha=1.000).
 Cavity algorithm     : GePol (No added spheres)
                        Default sphere list used, NSphG=   31.
                        Lebedev-Laikov grids with approx.  5.0 points / Ang**2.
                        Smoothing algorithm: Karplus/York (Gamma=1.0000).
                        Polarization charges: spherical gaussians, with
                                              point-specific exponents (IZeta= 3).
                        Self-potential: point-specific (ISelfS= 7).
                        Self-field    : sphere-specific E.n sum rule (ISelfD= 2).
 Solvent              : Chloroform, Eps=   4.711300 Eps(inf)=   2.090627
 ------------------------------------------------------------------------------
 ------------------------------------------------------------------------------
 Atomic radii for non-electrostatic terms: SMD-CDS.
 ------------------------------------------------------------------------------
 Nuclear repulsion after PCM non-electrostatic terms =      986.4883820307 Hartrees.
 One-electron integrals computed using PRISM.
 NBasis=   365 RedAO= T  NBF=   365
 NBsUse=   365 1.00D-06 NBFU=   365
 Harris functional with IExCor= 4639 diagonalized for initial guess.
 ExpMin= 4.38D-02 ExpMax= 5.48D+03 ExpMxC= 8.25D+02 IAcc=2 IRadAn=         4 AccDes= 0.00D+00
 HarFok:  IExCor= 4639 AccDes= 0.00D+00 IRadAn=         4 IDoV= 1
 ScaDFX=  1.000000  1.000000  1.000000  1.000000
 FoFCou: FMM=F IPFlag=           0 FMFlag=      100000 FMFlg1=           0
         NFxFlg=           0 DoJE=T BraDBF=F KetDBF=T FulRan=T
         Omega=  0.000000  0.000000  1.000000  0.000000  0.000000 ICntrl=     500 IOpCl=  0
         NMat0=    1 NMatS0=    1 NMatT0=    0 NMatD0=    1 NMtDS0=    0 NMtDT0=    0
         I1Cent=           4 NGrid=           0.
 Petite list used in FoFCou.
 Initial guess orbital symmetries:
       Occupied  (A) (A) (A) (A) (A) (A) (A) (A) (A) (A) (A) (A)
                 (A) (A) (A) (A) (A) (A) (A) (A) (A) (A) (A) (A)
                 (A) (A) (A) (A) (A) (A) (A) (A) (A) (A) (A) (A)
                 (A) (A) (A) (A) (A) (A) (A) (A) (A) (A) (A) (A)
                 (A) (A) (A) (A) (A) (A) (A) (A)
       Virtual   (A) (A) (A) (A) (A) (A) (A) (A) (A) (A) (A) (A)
                 (A) (A) (A) (A) (A) (A) (A) (A) (A) (A) (A) (A)
                 (A) (A) (A) (A) (A) (A) (A) (A) (A) (A) (A) (A)
                 (A) (A) (A) (A) (A) (A) (A) (A) (A) (A) (A) (A)
                 (A) (A) (A) (A) (A) (A) (A) (A) (A) (A) (A) (A)
                 (A) (A) (A) (A) (A) (A) (A) (A) (A) (A) (A) (A)
                 (A) (A) (A) (A) (A) (A) (A) (A) (A) (A) (A) (A)
                 (A) (A) (A) (A) (A) (A) (A) (A) (A) (A) (A) (A)
                 (A) (A) (A) (A) (A) (A) (A) (A) (A) (A) (A) (A)
                 (A) (A) (A) (A) (A) (A) (A) (A) (A) (A) (A) (A)
                 (A) (A) (A) (A) (A) (A) (A) (A) (A) (A) (A) (A)
                 (A) (A) (A) (A) (A) (A) (A) (A) (A) (A) (A) (A)
                 (A) (A) (A) (A) (A) (A) (A) (A) (A) (A) (A) (A)
                 (A) (A) (A) (A) (A) (A) (A) (A) (A) (A) (A) (A)
                 (A) (A) (A) (A) (A) (A) (A) (A) (A) (A) (A) (A)
                 (A) (A) (A) (A) (A) (A) (A) (A) (A) (A) (A) (A)
                 (A) (A) (A) (A) (A) (A) (A) (A) (A) (A) (A) (A)
                 (A) (A) (A) (A) (A) (A) (A) (A) (A) (A) (A) (A)
                 (A) (A) (A) (A) (A) (A) (A) (A) (A) (A) (A) (A)
                 (A) (A) (A) (A) (A) (A) (A) (A) (A) (A) (A) (A)
                 (A) (A) (A) (A) (A) (A) (A) (A) (A) (A) (A) (A)
                 (A) (A) (A) (A) (A) (A) (A) (A) (A) (A) (A) (A)
                 (A) (A) (A) (A) (A) (A) (A) (A) (A) (A) (A) (A)
                 (A) (A) (A) (A) (A) (A) (A) (A) (A) (A) (A) (A)
                 (A) (A) (A) (A) (A) (A) (A) (A) (A) (A) (A) (A)
                 (A) (A) (A) (A) (A) (A) (A) (A) (A)
 The electronic state of the initial guess is 1-A.
 Requested convergence on RMS density matrix=1.00D-08 within 128 cycles.
 Requested convergence on MAX density matrix=1.00D-06.
 Requested convergence on             energy=1.00D-06.
 No special actions if energy rises.
 FoFJK:  IHMeth= 1 ICntrl=     0 DoSepK=T KAlg= 1 I1Cent= 0 FoldK=F
 FoFJK:  IHMeth= 1 ICntrl=     0 DoSepK=T KAlg= 1 I1Cent= 0 FoldK=F
 FoFJK:  IHMeth= 1 ICntrl=     0 DoSepK=T KAlg= 1 I1Cent= 0 FoldK=F
 FoFJK:  IHMeth= 1 ICntrl=     0 DoSepK=T KAlg= 1 I1Cent= 0 FoldK=F
 FoFJK:  IHMeth= 1 ICntrl=     0 DoSepK=T KAlg= 1 I1Cent= 0 FoldK=F
 FoFJK:  IHMeth= 1 ICntrl=     0 DoSepK=T KAlg= 1 I1Cent= 0 FoldK=F
 FoFJK:  IHMeth= 1 ICntrl=     0 DoSepK=T KAlg= 1 I1Cent= 0 FoldK=F
 FoFJK:  IHMeth= 1 ICntrl=     0 DoSepK=T KAlg= 1 I1Cent= 0 FoldK=F
 FoFJK:  IHMeth= 1 ICntrl=     0 DoSepK=T KAlg= 1 I1Cent= 0 FoldK=F
 FoFJK:  IHMeth= 1 ICntrl=     0 DoSepK=T KAlg= 1 I1Cent= 0 FoldK=F
 FoFJK:  IHMeth= 1 ICntrl=     0 DoSepK=T KAlg= 1 I1Cent= 0 FoldK=F
 FoFJK:  IHMeth= 1 ICntrl=     0 DoSepK=T KAlg= 1 I1Cent= 0 FoldK=F
 FoFJK:  IHMeth= 1 ICntrl=     0 DoSepK=T KAlg= 1 I1Cent= 0 FoldK=F
 FoFJK:  IHMeth= 1 ICntrl=     0 DoSepK=T KAlg= 1 I1Cent= 0 FoldK=F
 FoFJK:  IHMeth= 1 ICntrl=     0 DoSepK=T KAlg= 1 I1Cent= 0 FoldK=F
 FoFJK:  IHMeth= 1 ICntrl=     0 DoSepK=T KAlg= 1 I1Cent= 0 FoldK=F
 Error on total polarization charges =  0.04059
 SCF Done:  E(RwB97XD) =  -692.445920582     A.U. after   16 cycles
             Convg  =    0.3141D-08             -V/T =  2.0095
 SMD-CDS (non-electrostatic) energy       (kcal/mol) =      -4.09
 (included in total energy above)
 Range of M.O.s used for correlation:     1   365
 NBasis=   365 NAE=    56 NBE=    56 NFC=     0 NFV=     0
 NROrb=    365 NOA=    56 NOB=    56 NVA=   309 NVB=   309

 **** Warning!!: The largest alpha MO coefficient is  0.13337699D+03

 NEqPCM:  Using equilibrium solvation (IEInf=0, Eps=   4.7113, EpsInf=   2.0906)
          Differentiating once with respect to magnetic field using GIAOs.
          Electric field/nuclear overlap derivatives assumed to be zero.
 FoFCou: FMM=F IPFlag=           0 FMFlag=    10101102 FMFlg1=           0
         NFxFlg=    40000000 DoJE=F BraDBF=F KetDBF=T FulRan=T
         Omega=  0.000000  0.000000  1.000000  0.000000  0.000000 ICntrl=    6100 IOpCl=  0
         NMat0=    1 NMatS0=    1 NMatT0=    0 NMatD0=    1 NMtDS0=    0 NMtDT0=    0
         I1Cent=           7 NGrid=        2306.
 Symmetry not used in FoFCou.
 FoFJK:  IHMeth= 1 ICntrl=  6127 DoSepK=T KAlg= 1 I1Cent= 0 FoldK=F
 FoFJK:  IHMeth= 1 ICntrl=     0 DoSepK=T KAlg= 1 I1Cent= 0 FoldK=F
          There are     3 degrees of freedom in the 1st order CPHF.  IDoFFX=0.
      3 vectors produced by pass  0 Test12= 5.77D-13 3.33D-08 XBig12= 1.79D+02 2.93D+00.
 AX will form     3 AO Fock derivatives at one time.
 FoFJK:  IHMeth= 1 ICntrl=     0 DoSepK=T KAlg= 1 I1Cent= 0 FoldK=F
      3 vectors produced by pass  1 Test12= 5.77D-13 3.33D-08 XBig12= 1.38D+00 2.91D-01.
 FoFJK:  IHMeth= 1 ICntrl=     0 DoSepK=T KAlg= 1 I1Cent= 0 FoldK=F
      3 vectors produced by pass  2 Test12= 5.77D-13 3.33D-08 XBig12= 2.61D-02 5.92D-02.
 FoFJK:  IHMeth= 1 ICntrl=     0 DoSepK=T KAlg= 1 I1Cent= 0 FoldK=F
      3 vectors produced by pass  3 Test12= 5.77D-13 3.33D-08 XBig12= 4.68D-04 5.47D-03.
 FoFJK:  IHMeth= 1 ICntrl=     0 DoSepK=T KAlg= 1 I1Cent= 0 FoldK=F
      3 vectors produced by pass  4 Test12= 5.77D-13 3.33D-08 XBig12= 7.37D-06 4.75D-04.
 FoFJK:  IHMeth= 1 ICntrl=     0 DoSepK=T KAlg= 1 I1Cent= 0 FoldK=F
      3 vectors produced by pass  5 Test12= 5.77D-13 3.33D-08 XBig12= 9.72D-08 7.63D-05.
 FoFJK:  IHMeth= 1 ICntrl=     0 DoSepK=T KAlg= 1 I1Cent= 0 FoldK=F
      3 vectors produced by pass  6 Test12= 5.77D-13 3.33D-08 XBig12= 1.32D-09 1.11D-05.
 FoFJK:  IHMeth= 1 ICntrl=     0 DoSepK=T KAlg= 1 I1Cent= 0 FoldK=F
      3 vectors produced by pass  7 Test12= 5.77D-13 3.33D-08 XBig12= 1.75D-11 1.01D-06.
 FoFJK:  IHMeth= 1 ICntrl=     0 DoSepK=T KAlg= 1 I1Cent= 0 FoldK=F
      3 vectors produced by pass  8 Test12= 5.77D-13 3.33D-08 XBig12= 1.84D-13 7.34D-08.
 FoFJK:  IHMeth= 1 ICntrl=     0 DoSepK=T KAlg= 1 I1Cent= 0 FoldK=F
 Inverted reduced A of dimension    27 with in-core refinement.
 Calculating GIAO nuclear magnetic shielding tensors.
 SCF GIAO Magnetic shielding tensor (ppm):
      1  C    Isotropic =    69.7599   Anisotropy =   161.7884
   XX=    58.0359   YX=    12.3840   ZX=   -29.8322
   XY=    16.4671   YY=     5.1286   ZY=    69.8782
   XZ=   -20.2249   YZ=    70.0972   ZZ=   146.1153
   Eigenvalues:   -29.7770    61.4379   177.6189
      2  C    Isotropic =    69.1193   Anisotropy =   177.5010
   XX=    53.4272   YX=    10.1871   ZX=   -32.5959
   XY=    13.7017   YY=     3.0571   ZY=    73.7872
   XZ=   -33.2272   YZ=    76.6412   ZZ=   150.8737
   Eigenvalues:   -35.0802    54.9849   187.4533
      3  C    Isotropic =    70.0031   Anisotropy =   173.7409
   XX=    22.0774   YX=   -50.9796   ZX=   -15.1358
   XY=   -52.9347   YY=    24.2964   ZY=    51.3223
   XZ=   -14.7730   YZ=    49.1195   ZZ=   163.6356
   Eigenvalues:   -32.1808    56.3598   185.8304
      4  C    Isotropic =    52.4990   Anisotropy =   187.7206
   XX=   -25.2165   YX=    -8.4565   ZX=   -32.7799
   XY=    -4.2549   YY=    38.7687   ZY=    57.5596
   XZ=   -39.6525   YZ=    63.0859   ZZ=   143.9448
   Eigenvalues:   -33.3075    13.1584   177.6461
      5  C    Isotropic =    73.0545   Anisotropy =   179.0648
   XX=    25.3301   YX=   -46.3168   ZX=   -18.4098
   XY=   -46.5415   YY=    24.5451   ZY=    52.8975
   XZ=    -9.0237   YZ=    56.3096   ZZ=   169.2882
   Eigenvalues:   -26.4226    53.1551   192.4310
      6  C    Isotropic =    70.9216   Anisotropy =   176.5911
   XX=   -18.9542   YX=     0.3215   ZX=   -44.1405
   XY=     0.4545   YY=    70.3233   ZY=    45.4756
   XZ=   -47.0288   YZ=    45.0366   ZZ=   161.3956
   Eigenvalues:   -31.1069    55.2226   188.6490
      7  C    Isotropic =   116.5952   Anisotropy =    27.5563
   XX=   112.1457   YX=     7.9371   ZX=     2.2403
   XY=     9.5188   YY=   123.5715   ZY=    11.3595
   XZ=     3.1534   YZ=    12.3297   ZZ=   114.0683
   Eigenvalues:   104.5717   110.2478   134.9660
      8  C    Isotropic =   147.5487   Anisotropy =    25.3809
   XX=   162.4385   YX=    -7.4403   ZX=    -3.9341
   XY=    -5.1157   YY=   141.0970   ZY=    -1.4898
   XZ=    -2.6636   YZ=    -1.0986   ZZ=   139.1105
   Eigenvalues:   136.9652   141.2115   164.4693
      9  C    Isotropic =    15.9290   Anisotropy =   102.0995
   XX=   -50.1232   YX=   -33.9748   ZX=    -6.0031
   XY=   -60.1149   YY=    26.4958   ZY=    20.3532
   XZ=     4.9549   YZ=    24.6974   ZZ=    71.4143
   Eigenvalues:   -73.0833    36.8749    83.9953
     10  O    Isotropic =   123.9831   Anisotropy =   174.8149
   XX=   127.5890   YX=    62.0292   ZX=   -47.8997
   XY=   176.1602   YY=   109.3506   ZY=    79.6439
   XZ=  -110.5035   YZ=    53.9735   ZZ=   135.0098
   Eigenvalues:   -56.3845   187.8075   240.5264
     11  C    Isotropic =   136.6062   Anisotropy =    58.7686
   XX=   169.4358   YX=   -12.0090   ZX=    18.4972
   XY=    -4.2297   YY=   120.0445   ZY=    -3.7974
   XZ=    13.7091   YZ=    -6.4976   ZZ=   120.3383
   Eigenvalues:   114.0426   119.9908   175.7852
     12  O    Isotropic =   265.7989   Anisotropy =    46.0926
   XX=   288.6914   YX=    -5.9047   ZX=    -8.1472
   XY=    -4.7426   YY=   240.3478   ZY=    30.4277
   XZ=     1.7534   YZ=    40.3849   ZZ=   268.3575
   Eigenvalues:   216.1830   284.6864   296.5273
     13  C    Isotropic =   180.6982   Anisotropy =    21.5928
   XX=   178.2248   YX=     1.1157   ZX=     4.1620
   XY=    -1.0728   YY=   180.5572   ZY=    14.0715
   XZ=     5.5973   YZ=    10.4704   ZZ=   183.3126
   Eigenvalues:   168.4550   178.5462   195.0934
     14  O    Isotropic =   -30.4786   Anisotropy =   550.9311
   XX=  -158.5477   YX=   -33.7629   ZX=   -75.3992
   XY=   -77.2566   YY=  -127.2746   ZY=   237.8433
   XZ=   -48.4238   YZ=   244.9380   ZZ=   194.3864
   Eigenvalues:  -260.7751  -167.4695   336.8088
     15  C    Isotropic =   182.4161   Anisotropy =    23.4211
   XX=   189.8651   YX=     5.9687   ZX=     1.2638
   XY=    12.1187   YY=   185.5183   ZY=    -6.8254
   XZ=    -2.1316   YZ=    -8.3656   ZZ=   171.8650
   Eigenvalues:   167.8980   181.3202   198.0302
     16  H    Isotropic =    23.7311   Anisotropy =     7.7442
   XX=    28.0391   YX=     2.4205   ZX=    -0.1751
   XY=     2.1113   YY=    22.5009   ZY=    -1.1058
   XZ=    -0.2021   YZ=    -1.4548   ZZ=    20.6533
   Eigenvalues:    19.8885    22.4110    28.8939
     17  H    Isotropic =    23.6699   Anisotropy =     5.2104
   XX=    26.9390   YX=     0.4987   ZX=     1.0162
   XY=     0.6780   YY=    23.4625   ZY=    -0.9282
   XZ=     0.9368   YZ=    -0.8309   ZZ=    20.6082
   Eigenvalues:    20.1793    23.6870    27.1435
     18  H    Isotropic =    23.8412   Anisotropy =     4.7097
   XX=    26.1009   YX=    -0.8617   ZX=     1.2402
   XY=    -0.8406   YY=    24.0559   ZY=    -1.7148
   XZ=     1.2345   YZ=    -1.5998   ZZ=    21.3668
   Eigenvalues:    20.4697    24.0728    26.9810
     19  H    Isotropic =    23.2696   Anisotropy =     9.8351
   XX=    26.0072   YX=    -4.2554   ZX=     2.3805
   XY=    -3.1768   YY=    23.9007   ZY=    -2.3742
   XZ=     2.3539   YZ=    -1.8591   ZZ=    19.9011
   Eigenvalues:    18.8641    21.1185    29.8263
     20  H    Isotropic =    23.7604   Anisotropy =     4.1750
   XX=    24.4393   YX=     0.6119   ZX=     0.4430
   XY=     0.6217   YY=    25.7126   ZY=    -1.9590
   XZ=     0.3450   YZ=    -1.9996   ZZ=    21.1294
   Eigenvalues:    20.3096    24.4279    26.5438
     21  H    Isotropic =    26.6132   Anisotropy =     4.4795
   XX=    26.0603   YX=     1.7801   ZX=     0.2609
   XY=     0.4734   YY=    28.9449   ZY=    -1.6460
   XZ=    -0.0387   YZ=    -0.7985   ZZ=    24.8343
   Eigenvalues:    24.3846    25.8555    29.5995
     22  H    Isotropic =    28.4737   Anisotropy =     4.5053
   XX=    29.8431   YX=     0.6440   ZX=     0.6160
   XY=     1.1345   YY=    30.2148   ZY=    -1.3146
   XZ=    -2.0021   YZ=    -2.1885   ZZ=    25.3633
   Eigenvalues:    24.7665    29.1774    31.4773
     23  H    Isotropic =    27.4446   Anisotropy =     6.0938
   XX=    28.9175   YX=     1.3309   ZX=     2.8933
   XY=     2.1058   YY=    24.0945   ZY=    -2.1208
   XZ=     1.7934   YZ=    -2.2647   ZZ=    29.3218
   Eigenvalues:    22.3585    28.4682    31.5071
     24  H    Isotropic =    27.4554   Anisotropy =     6.5292
   XX=    30.4775   YX=    -2.1573   ZX=    -1.0170
   XY=    -0.9261   YY=    29.5117   ZY=     1.0045
   XZ=    -1.2568   YZ=     0.5162   ZZ=    22.3769
   Eigenvalues:    22.1784    28.3796    31.8081
     25  H    Isotropic =    29.9129   Anisotropy =    14.8343
   XX=    31.6451   YX=    -1.5173   ZX=    -7.0469
   XY=    -1.5038   YY=    25.5928   ZY=     6.4355
   XZ=    -4.0306   YZ=     5.5594   ZZ=    32.5009
   Eigenvalues:    21.8444    28.0919    39.8025
     26  H    Isotropic =    30.6909   Anisotropy =    10.1537
   XX=    30.8958   YX=     0.0644   ZX=    -3.3300
   XY=    -0.7610   YY=    27.0236   ZY=     3.4202
   XZ=    -4.5873   YZ=     2.3492   ZZ=    34.1534
   Eigenvalues:    25.7290    28.8838    37.4600
     27  H    Isotropic =    31.3576   Anisotropy =     6.7458
   XX=    33.9685   YX=    -2.1025   ZX=     3.6402
   XY=    -2.3883   YY=    26.9858   ZY=     1.5081
   XZ=     0.7232   YZ=     1.3886   ZZ=    33.1185
   Eigenvalues:    25.7555    32.4625    35.8548
     28  H    Isotropic =    30.7061   Anisotropy =     7.9441
   XX=    28.1914   YX=     1.6661   ZX=     0.1919
   XY=     0.8827   YY=    35.7669   ZY=    -0.6260
   XZ=    -1.2697   YZ=     1.7261   ZZ=    28.1601
   Eigenvalues:    27.4339    28.6823    36.0022
     29  H    Isotropic =    30.2472   Anisotropy =     8.1552
   XX=    28.5926   YX=     0.7233   ZX=    -1.0139
   XY=    -0.0505   YY=    34.9587   ZY=     2.7365
   XZ=    -0.4625   YZ=     2.2204   ZZ=    27.1905
   Eigenvalues:    26.1977    28.8600    35.6840
     30  H    Isotropic =    30.3586   Anisotropy =    10.8733
   XX=    37.2319   YX=     0.4917   ZX=     2.0673
   XY=     0.8771   YY=    27.2173   ZY=    -0.5409
   XZ=     1.8142   YZ=    -0.6384   ZZ=    26.6265
   Eigenvalues:    25.9019    27.5664    37.6074
     31  H    Isotropic =    30.2971   Anisotropy =     8.4062
   XX=    28.6213   YX=     1.9455   ZX=    -1.8377
   XY=     1.3007   YY=    27.6883   ZY=    -2.6033
   XZ=    -1.6976   YZ=    -1.8965   ZZ=    34.5816
   Eigenvalues:    26.3762    28.6137    35.9012
 End of Minotr Frequency-dependent properties file   721 does not exist.
 End of Minotr Frequency-dependent properties file   722 does not exist.

 **********************************************************************

            Population analysis using the SCF density.

 **********************************************************************

 Orbital symmetries:
       Occupied  (A) (A) (A) (A) (A) (A) (A) (A) (A) (A) (A) (A)
                 (A) (A) (A) (A) (A) (A) (A) (A) (A) (A) (A) (A)
                 (A) (A) (A) (A) (A) (A) (A) (A) (A) (A) (A) (A)
                 (A) (A) (A) (A) (A) (A) (A) (A) (A) (A) (A) (A)
                 (A) (A) (A) (A) (A) (A) (A) (A)
       Virtual   (A) (A) (A) (A) (A) (A) (A) (A) (A) (A) (A) (A)
                 (A) (A) (A) (A) (A) (A) (A) (A) (A) (A) (A) (A)
                 (A) (A) (A) (A) (A) (A) (A) (A) (A) (A) (A) (A)
                 (A) (A) (A) (A) (A) (A) (A) (A) (A) (A) (A) (A)
                 (A) (A) (A) (A) (A) (A) (A) (A) (A) (A) (A) (A)
                 (A) (A) (A) (A) (A) (A) (A) (A) (A) (A) (A) (A)
                 (A) (A) (A) (A) (A) (A) (A) (A) (A) (A) (A) (A)
                 (A) (A) (A) (A) (A) (A) (A) (A) (A) (A) (A) (A)
                 (A) (A) (A) (A) (A) (A) (A) (A) (A) (A) (A) (A)
                 (A) (A) (A) (A) (A) (A) (A) (A) (A) (A) (A) (A)
                 (A) (A) (A) (A) (A) (A) (A) (A) (A) (A) (A) (A)
                 (A) (A) (A) (A) (A) (A) (A) (A) (A) (A) (A) (A)
                 (A) (A) (A) (A) (A) (A) (A) (A) (A) (A) (A) (A)
                 (A) (A) (A) (A) (A) (A) (A) (A) (A) (A) (A) (A)
                 (A) (A) (A) (A) (A) (A) (A) (A) (A) (A) (A) (A)
                 (A) (A) (A) (A) (A) (A) (A) (A) (A) (A) (A) (A)
                 (A) (A) (A) (A) (A) (A) (A) (A) (A) (A) (A) (A)
                 (A) (A) (A) (A) (A) (A) (A) (A) (A) (A) (A) (A)
                 (A) (A) (A) (A) (A) (A) (A) (A) (A) (A) (A) (A)
                 (A) (A) (A) (A) (A) (A) (A) (A) (A) (A) (A) (A)
                 (A) (A) (A) (A) (A) (A) (A) (A) (A) (A) (A) (A)
                 (A) (A) (A) (A) (A) (A) (A) (A) (A) (A) (A) (A)
                 (A) (A) (A) (A) (A) (A) (A) (A) (A) (A) (A) (A)
                 (A) (A) (A) (A) (A) (A) (A) (A) (A) (A) (A) (A)
                 (A) (A) (A) (A) (A) (A) (A) (A) (A) (A) (A) (A)
                 (A) (A) (A) (A) (A) (A) (A) (A) (A)
 The electronic state is 1-A.
 Alpha  occ. eigenvalues --  -19.32799 -19.28150 -19.27487 -10.43778 -10.35969
 Alpha  occ. eigenvalues --  -10.34852 -10.31880 -10.31602 -10.30887 -10.30886
 Alpha  occ. eigenvalues --  -10.30829 -10.30792 -10.30704 -10.29330 -10.28705
 Alpha  occ. eigenvalues --   -1.20944  -1.13028  -1.12344  -0.96355  -0.91482
 Alpha  occ. eigenvalues --   -0.86967  -0.85211  -0.84896  -0.77923  -0.75732
 Alpha  occ. eigenvalues --   -0.70932  -0.70227  -0.67555  -0.64958  -0.61777
 Alpha  occ. eigenvalues --   -0.60945  -0.58299  -0.58026  -0.56823  -0.55134
 Alpha  occ. eigenvalues --   -0.53572  -0.52954  -0.51309  -0.50794  -0.50315
 Alpha  occ. eigenvalues --   -0.49063  -0.47595  -0.46825  -0.45541  -0.45441
 Alpha  occ. eigenvalues --   -0.45106  -0.43870  -0.43346  -0.43032  -0.42471
 Alpha  occ. eigenvalues --   -0.40281  -0.38823  -0.36937  -0.36565  -0.33508
 Alpha  occ. eigenvalues --   -0.32609
 Alpha virt. eigenvalues --    0.04553   0.05173   0.06752   0.07443   0.08144
 Alpha virt. eigenvalues --    0.08234   0.08635   0.09362   0.09828   0.10445
 Alpha virt. eigenvalues --    0.10620   0.11032   0.11411   0.12178   0.13149
 Alpha virt. eigenvalues --    0.13335   0.13584   0.13823   0.14172   0.15101
 Alpha virt. eigenvalues --    0.15835   0.16596   0.16686   0.17339   0.17669
 Alpha virt. eigenvalues --    0.18621   0.19219   0.19378   0.19723   0.20533
 Alpha virt. eigenvalues --    0.20676   0.20873   0.21597   0.21878   0.22287
 Alpha virt. eigenvalues --    0.22822   0.23106   0.23945   0.24409   0.25024
 Alpha virt. eigenvalues --    0.25554   0.26388   0.26442   0.26481   0.27048
 Alpha virt. eigenvalues --    0.27456   0.28010   0.28484   0.28823   0.28998
 Alpha virt. eigenvalues --    0.29452   0.29713   0.30526   0.31020   0.31299
 Alpha virt. eigenvalues --    0.31481   0.31927   0.32638   0.32969   0.33405
 Alpha virt. eigenvalues --    0.34376   0.34542   0.35190   0.35450   0.36149
 Alpha virt. eigenvalues --    0.36372   0.36901   0.37648   0.38132   0.38466
 Alpha virt. eigenvalues --    0.38996   0.39154   0.40189   0.40964   0.41516
 Alpha virt. eigenvalues --    0.42387   0.42625   0.43211   0.43498   0.44277
 Alpha virt. eigenvalues --    0.45232   0.45951   0.46570   0.48273   0.48567
 Alpha virt. eigenvalues --    0.48661   0.50317   0.51201   0.52871   0.53374
 Alpha virt. eigenvalues --    0.54363   0.56729   0.61466   0.66318   0.70131
 Alpha virt. eigenvalues --    0.72875   0.73693   0.75027   0.75819   0.76237
 Alpha virt. eigenvalues --    0.76847   0.77269   0.78412   0.79560   0.79861
 Alpha virt. eigenvalues --    0.81221   0.82377   0.83294   0.83425   0.83851
 Alpha virt. eigenvalues --    0.84889   0.85963   0.87613   0.88278   0.88797
 Alpha virt. eigenvalues --    0.90297   0.90853   0.91835   0.93343   0.94612
 Alpha virt. eigenvalues --    0.94997   0.98184   1.00478   1.00521   1.02164
 Alpha virt. eigenvalues --    1.02633   1.03128   1.05870   1.06284   1.06619
 Alpha virt. eigenvalues --    1.08649   1.09351   1.09969   1.10424   1.11681
 Alpha virt. eigenvalues --    1.13809   1.15694   1.17438   1.18468   1.19677
 Alpha virt. eigenvalues --    1.19912   1.21021   1.21571   1.23535   1.24728
 Alpha virt. eigenvalues --    1.25614   1.26610   1.27708   1.28453   1.29910
 Alpha virt. eigenvalues --    1.30986   1.33284   1.34529   1.35446   1.37186
 Alpha virt. eigenvalues --    1.38359   1.40452   1.42673   1.43547   1.44816
 Alpha virt. eigenvalues --    1.46380   1.47407   1.48068   1.49376   1.50251
 Alpha virt. eigenvalues --    1.50800   1.52952   1.53967   1.54630   1.55429
 Alpha virt. eigenvalues --    1.57294   1.58950   1.59814   1.62342   1.64686
 Alpha virt. eigenvalues --    1.68526   1.69921   1.70618   1.74288   1.76183
 Alpha virt. eigenvalues --    1.76642   1.79214   1.85261   1.86865   1.88109
 Alpha virt. eigenvalues --    1.89424   1.90995   1.92458   1.94069   1.95571
 Alpha virt. eigenvalues --    1.96789   1.97322   1.99051   2.00248   2.01249
 Alpha virt. eigenvalues --    2.01721   2.03157   2.04254   2.04986   2.06459
 Alpha virt. eigenvalues --    2.06810   2.08241   2.08692   2.10026   2.11581
 Alpha virt. eigenvalues --    2.12295   2.13863   2.14382   2.15951   2.17957
 Alpha virt. eigenvalues --    2.18903   2.20209   2.20519   2.20808   2.21992
 Alpha virt. eigenvalues --    2.22503   2.25016   2.25330   2.28606   2.31066
 Alpha virt. eigenvalues --    2.31737   2.35735   2.37132   2.38185   2.38976
 Alpha virt. eigenvalues --    2.41344   2.42669   2.44029   2.46325   2.47988
 Alpha virt. eigenvalues --    2.48501   2.49376   2.50788   2.52928   2.53458
 Alpha virt. eigenvalues --    2.55770   2.56767   2.58476   2.59329   2.61218
 Alpha virt. eigenvalues --    2.61859   2.64114   2.64752   2.66198   2.68748
 Alpha virt. eigenvalues --    2.70284   2.71226   2.72575   2.73803   2.74282
 Alpha virt. eigenvalues --    2.78107   2.78593   2.80605   2.83498   2.83853
 Alpha virt. eigenvalues --    2.84290   2.85118   2.87159   2.87734   2.89590
 Alpha virt. eigenvalues --    2.90713   2.92338   2.94224   2.96629   2.98463
 Alpha virt. eigenvalues --    2.99632   2.99795   3.02950   3.04696   3.07168
 Alpha virt. eigenvalues --    3.13908   3.14412   3.16401   3.20356   3.26266
 Alpha virt. eigenvalues --    3.28385   3.30535   3.36272   3.36912   3.38240
 Alpha virt. eigenvalues --    3.38728   3.44321   3.44766   3.48931   3.49334
 Alpha virt. eigenvalues --    3.53938   3.57649   3.58780   3.60911   3.62066
 Alpha virt. eigenvalues --    3.64003   3.65109   3.68707   3.99700   4.40591
 Alpha virt. eigenvalues --    4.41280   4.44248   4.47873   4.53293   4.55123
 Alpha virt. eigenvalues --    4.56015   4.59866   4.64213   4.68073   4.74051
 Alpha virt. eigenvalues --    4.76881   4.78209   4.93842   4.98424
          Condensed to atoms (all electrons):
              1          2          3          4          5          6
     1  C   15.890946  -1.006113  -1.196988  -6.249181  -6.293433   0.263055
     2  C   -1.006113   7.769597   0.399945   0.965154  -0.966565   0.403320
     3  C   -1.196988   0.399945   6.644161   0.788748  -0.083134   0.414629
     4  C   -6.249181   0.965154   0.788748  18.891205  -0.130098  -1.048639
     5  C   -6.293433  -0.966565  -0.083134  -0.130098  15.335812   0.373705
     6  C    0.263055   0.403320   0.414629  -1.048639   0.373705   5.516244
     7  C    5.404251  -1.874889  -1.144174  -8.726311  -3.009262  -0.019407
     8  C   -1.567567   0.320906   0.105563   1.743914   1.242067  -0.072636
     9  C    0.492065  -0.104460  -0.061411  -0.844748  -0.569325   0.004879
    10  O   -0.000800  -0.002020  -0.000537  -0.012100  -0.005304  -0.000115
    11  C   -0.003842   0.000926   0.000649   0.034224   0.004986   0.000039
    12  O   -0.078217   0.096696   0.021549   0.324548  -0.013439   0.002746
    13  C    0.117565  -0.015591  -0.030944  -0.001068   0.011988   0.038082
    14  O   -0.002644  -0.000035  -0.003587  -0.028608  -0.001628  -0.000302
    15  C    0.002175   0.000000   0.000247   0.016845  -0.004885  -0.000015
    16  H    0.228377   0.010329   0.041141   0.064535  -0.001433  -0.010186
    17  H    0.008161   0.277163  -0.002667   0.046074   0.006358  -0.005175
    18  H    0.030595   0.002934   0.278307   0.012391  -0.009579   0.015428
    19  H    0.038099  -0.050212  -0.002343   0.069454   0.197563  -0.018962
    20  H   -0.005172   0.018652   0.027334   0.004006  -0.003262   0.283286
    21  H    0.160004   0.008699   0.054352   0.055811  -0.079339   0.002011
    22  H    0.039091  -0.006702   0.003867   0.040836  -0.075751  -0.002455
    23  H    0.000297  -0.000047   0.000014   0.001839  -0.000676   0.000000
    24  H   -0.000267   0.000024  -0.000010  -0.000720   0.000384   0.000000
    25  H   -0.030135   0.005453   0.004360   0.103323  -0.067972  -0.007164
    26  H    0.007930  -0.003116  -0.001471  -0.025801  -0.009630   0.000195
    27  H    0.002024   0.004369  -0.003234   0.044442   0.023864   0.005483
    28  H    0.020118  -0.000536   0.002412  -0.026478  -0.010031   0.000010
    29  H   -0.000017   0.000006  -0.000001  -0.000183   0.000034   0.000000
    30  H    0.000000   0.000000   0.000000  -0.000003  -0.000007   0.000000
    31  H    0.000010  -0.000004   0.000000   0.000168  -0.000061   0.000000
              7          8          9         10         11         12
     1  C    5.404251  -1.567567   0.492065  -0.000800  -0.003842  -0.078217
     2  C   -1.874889   0.320906  -0.104460  -0.002020   0.000926   0.096696
     3  C   -1.144174   0.105563  -0.061411  -0.000537   0.000649   0.021549
     4  C   -8.726311   1.743914  -0.844748  -0.012100   0.034224   0.324548
     5  C   -3.009262   1.242067  -0.569325  -0.005304   0.004986  -0.013439
     6  C   -0.019407  -0.072636   0.004879  -0.000115   0.000039   0.002746
     7  C   17.645872  -3.333681   1.409297  -0.022822  -0.029132  -0.220602
     8  C   -3.333681  10.015385  -2.488061  -0.218852  -0.046515  -0.176235
     9  C    1.409297  -2.488061   7.716735   0.312718  -0.074991   0.049301
    10  O   -0.022822  -0.218852   0.312718   8.449273   0.034619   0.003829
    11  C   -0.029132  -0.046515  -0.074991   0.034619   5.324685  -0.003606
    12  O   -0.220602  -0.176235   0.049301   0.003829  -0.003606   8.305541
    13  C   -0.136896  -0.227046  -0.042268  -0.018498  -0.002015   0.046978
    14  O   -0.018483   0.104205   0.457495  -0.160948  -0.054353  -0.002976
    15  C   -0.019265  -0.078167   0.056937  -0.004828   0.089407  -0.000800
    16  H   -0.016864   0.008829  -0.011527   0.000001  -0.000127  -0.000044
    17  H   -0.003616   0.000045   0.000183   0.000000  -0.000001   0.000081
    18  H   -0.002977  -0.000343   0.000236   0.000000   0.000000   0.000013
    19  H    0.071267  -0.012942   0.033725  -0.000083   0.000038   0.001204
    20  H    0.002298  -0.000280  -0.000080   0.000000   0.000000  -0.000007
    21  H    0.069629   0.091792  -0.045447  -0.000534   0.001305  -0.044574
    22  H   -0.032400   0.451939  -0.075327  -0.007554   0.000684   0.001061
    23  H    0.003267  -0.021131  -0.019021  -0.040276   0.411576  -0.000261
    24  H   -0.000834  -0.005258  -0.001084  -0.042918   0.396089   0.000013
    25  H    0.005994   0.005592   0.002016  -0.000025   0.000644   0.228072
    26  H    0.069429  -0.205971   0.086753   0.004940   0.002644  -0.000579
    27  H   -0.059453  -0.063801  -0.039255   0.000069  -0.000063  -0.000368
    28  H   -0.003218   0.004733  -0.024565  -0.000548  -0.000537   0.000363
    29  H    0.000476  -0.007637   0.005561  -0.003613  -0.066082  -0.000036
    30  H    0.000096  -0.000899   0.002500   0.006520  -0.058412   0.000000
    31  H    0.000039  -0.004703  -0.002051  -0.002591  -0.060372  -0.000002
             13         14         15         16         17         18
     1  C    0.117565  -0.002644   0.002175   0.228377   0.008161   0.030595
     2  C   -0.015591  -0.000035   0.000000   0.010329   0.277163   0.002934
     3  C   -0.030944  -0.003587   0.000247   0.041141  -0.002667   0.278307
     4  C   -0.001068  -0.028608   0.016845   0.064535   0.046074   0.012391
     5  C    0.011988  -0.001628  -0.004885  -0.001433   0.006358  -0.009579
     6  C    0.038082  -0.000302  -0.000015  -0.010186  -0.005175   0.015428
     7  C   -0.136896  -0.018483  -0.019265  -0.016864  -0.003616  -0.002977
     8  C   -0.227046   0.104205  -0.078167   0.008829   0.000045  -0.000343
     9  C   -0.042268   0.457495   0.056937  -0.011527   0.000183   0.000236
    10  O   -0.018498  -0.160948  -0.004828   0.000001   0.000000   0.000000
    11  C   -0.002015  -0.054353   0.089407  -0.000127  -0.000001   0.000000
    12  O    0.046978  -0.002976  -0.000800  -0.000044   0.000081   0.000013
    13  C    5.647238  -0.027815  -0.001193   0.004365   0.000260  -0.000060
    14  O   -0.027815   8.193531   0.006595   0.000055   0.000000   0.000000
    15  C   -0.001193   0.006595   5.368152  -0.000004   0.000000   0.000000
    16  H    0.004365   0.000055  -0.000004   0.503627   0.000011  -0.003889
    17  H    0.000260   0.000000   0.000000   0.000011   0.494806  -0.000122
    18  H   -0.000060   0.000000   0.000000  -0.003889  -0.000122   0.495101
    19  H   -0.008476  -0.000058   0.000145  -0.000108  -0.003969   0.000011
    20  H   -0.000023   0.000000   0.000000  -0.000119  -0.003818  -0.003858
    21  H   -0.022939  -0.002854   0.000761   0.002213   0.000002  -0.000002
    22  H   -0.036156   0.005543  -0.000756  -0.000008   0.000001   0.000000
    23  H    0.000554   0.003060  -0.007944   0.000000   0.000000   0.000000
    24  H    0.000951   0.002323  -0.018170   0.000000   0.000000   0.000000
    25  H   -0.003283  -0.000065   0.000025   0.000104  -0.000003   0.000000
    26  H    0.432341  -0.000930   0.000293   0.000002   0.000000   0.000000
    27  H    0.446536   0.000874  -0.000233  -0.000038  -0.000004  -0.000002
    28  H    0.391171   0.000209   0.000124  -0.000090   0.000000   0.000000
    29  H    0.000088  -0.000155   0.434555   0.000000   0.000000   0.000000
    30  H    0.000106   0.000117   0.416814   0.000000   0.000000   0.000000
    31  H    0.000238  -0.000088   0.432971   0.000000   0.000000   0.000000
             19         20         21         22         23         24
     1  C    0.038099  -0.005172   0.160004   0.039091   0.000297  -0.000267
     2  C   -0.050212   0.018652   0.008699  -0.006702  -0.000047   0.000024
     3  C   -0.002343   0.027334   0.054352   0.003867   0.000014  -0.000010
     4  C    0.069454   0.004006   0.055811   0.040836   0.001839  -0.000720
     5  C    0.197563  -0.003262  -0.079339  -0.075751  -0.000676   0.000384
     6  C   -0.018962   0.283286   0.002011  -0.002455   0.000000   0.000000
     7  C    0.071267   0.002298   0.069629  -0.032400   0.003267  -0.000834
     8  C   -0.012942  -0.000280   0.091792   0.451939  -0.021131  -0.005258
     9  C    0.033725  -0.000080  -0.045447  -0.075327  -0.019021  -0.001084
    10  O   -0.000083   0.000000  -0.000534  -0.007554  -0.040276  -0.042918
    11  C    0.000038   0.000000   0.001305   0.000684   0.411576   0.396089
    12  O    0.001204  -0.000007  -0.044574   0.001061  -0.000261   0.000013
    13  C   -0.008476  -0.000023  -0.022939  -0.036156   0.000554   0.000951
    14  O   -0.000058   0.000000  -0.002854   0.005543   0.003060   0.002323
    15  C    0.000145   0.000000   0.000761  -0.000756  -0.007944  -0.018170
    16  H   -0.000108  -0.000119   0.002213  -0.000008   0.000000   0.000000
    17  H   -0.003969  -0.003818   0.000002   0.000001   0.000000   0.000000
    18  H    0.000011  -0.003858  -0.000002   0.000000   0.000000   0.000000
    19  H    0.503119  -0.000117  -0.000085  -0.000487   0.000000   0.000000
    20  H   -0.000117   0.497675   0.000000   0.000000   0.000000   0.000000
    21  H   -0.000085   0.000000   0.583700   0.003506  -0.000005  -0.000001
    22  H   -0.000487   0.000000   0.003506   0.492773  -0.000005  -0.000004
    23  H    0.000000   0.000000  -0.000005  -0.000005   0.528199  -0.034126
    24  H    0.000000   0.000000  -0.000001  -0.000004  -0.034126   0.532295
    25  H   -0.000295   0.000000  -0.003789  -0.000007   0.000000   0.000000
    26  H    0.000006   0.000000  -0.000085  -0.002442   0.000001  -0.000012
    27  H   -0.000046   0.000000  -0.000026  -0.003530   0.000000   0.000000
    28  H   -0.000002   0.000000   0.001945   0.003685   0.000001  -0.000005
    29  H    0.000000   0.000000   0.000000  -0.000005  -0.005145   0.003991
    30  H    0.000000   0.000000   0.000000   0.000000  -0.001711  -0.001716
    31  H    0.000000   0.000000   0.000000  -0.000002   0.003964  -0.005243
             25         26         27         28         29         30
     1  C   -0.030135   0.007930   0.002024   0.020118  -0.000017   0.000000
     2  C    0.005453  -0.003116   0.004369  -0.000536   0.000006   0.000000
     3  C    0.004360  -0.001471  -0.003234   0.002412  -0.000001   0.000000
     4  C    0.103323  -0.025801   0.044442  -0.026478  -0.000183  -0.000003
     5  C   -0.067972  -0.009630   0.023864  -0.010031   0.000034  -0.000007
     6  C   -0.007164   0.000195   0.005483   0.000010   0.000000   0.000000
     7  C    0.005994   0.069429  -0.059453  -0.003218   0.000476   0.000096
     8  C    0.005592  -0.205971  -0.063801   0.004733  -0.007637  -0.000899
     9  C    0.002016   0.086753  -0.039255  -0.024565   0.005561   0.002500
    10  O   -0.000025   0.004940   0.000069  -0.000548  -0.003613   0.006520
    11  C    0.000644   0.002644  -0.000063  -0.000537  -0.066082  -0.058412
    12  O    0.228072  -0.000579  -0.000368   0.000363  -0.000036   0.000000
    13  C   -0.003283   0.432341   0.446536   0.391171   0.000088   0.000106
    14  O   -0.000065  -0.000930   0.000874   0.000209  -0.000155   0.000117
    15  C    0.000025   0.000293  -0.000233   0.000124   0.434555   0.416814
    16  H    0.000104   0.000002  -0.000038  -0.000090   0.000000   0.000000
    17  H   -0.000003   0.000000  -0.000004   0.000000   0.000000   0.000000
    18  H    0.000000   0.000000  -0.000002   0.000000   0.000000   0.000000
    19  H   -0.000295   0.000006  -0.000046  -0.000002   0.000000   0.000000
    20  H    0.000000   0.000000   0.000000   0.000000   0.000000   0.000000
    21  H   -0.003789  -0.000085  -0.000026   0.001945   0.000000   0.000000
    22  H   -0.000007  -0.002442  -0.003530   0.003685  -0.000005   0.000000
    23  H    0.000000   0.000001   0.000000   0.000001  -0.005145  -0.001711
    24  H    0.000000  -0.000012   0.000000  -0.000005   0.003991  -0.001716
    25  H    0.355799   0.000002  -0.000003  -0.000002   0.000000   0.000000
    26  H    0.000002   0.514704  -0.023614  -0.024741   0.000000   0.000000
    27  H   -0.000003  -0.023614   0.504777  -0.024117   0.000000   0.000000
    28  H   -0.000002  -0.024741  -0.024117   0.500661   0.000000   0.000000
    29  H    0.000000   0.000000   0.000000   0.000000   0.512251  -0.022617
    30  H    0.000000   0.000000   0.000000   0.000000  -0.022617   0.501649
    31  H    0.000000  -0.000001   0.000000   0.000000  -0.028646  -0.022768
             31
     1  C    0.000010
     2  C   -0.000004
     3  C    0.000000
     4  C    0.000168
     5  C   -0.000061
     6  C    0.000000
     7  C    0.000039
     8  C   -0.004703
     9  C   -0.002051
    10  O   -0.002591
    11  C   -0.060372
    12  O   -0.000002
    13  C    0.000238
    14  O   -0.000088
    15  C    0.432971
    16  H    0.000000
    17  H    0.000000
    18  H    0.000000
    19  H    0.000000
    20  H    0.000000
    21  H    0.000000
    22  H   -0.000002
    23  H    0.003964
    24  H   -0.005243
    25  H    0.000000
    26  H   -0.000001
    27  H    0.000000
    28  H    0.000000
    29  H   -0.028646
    30  H   -0.022768
    31  H    0.513873
 Mulliken atomic charges:
              1
     1  C   -0.270386
     2  C   -0.253883
     3  C   -0.256774
     4  C   -0.113578
     5  C    0.138053
     6  C   -0.138055
     7  C   -0.007630
     8  C    0.436755
     9  C   -0.226777
    10  O   -0.267002
    11  C    0.097534
    12  O   -0.540249
    13  C   -0.564189
    14  O   -0.468478
    15  C   -0.689784
    16  H    0.180847
    17  H    0.186230
    18  H    0.185816
    19  H    0.183556
    20  H    0.183487
    21  H    0.163950
    22  H    0.200604
    23  H    0.177578
    24  H    0.174299
    25  H    0.401357
    26  H    0.179153
    27  H    0.185349
    28  H    0.189437
    29  H    0.177176
    30  H    0.180332
    31  H    0.175270
 Sum of Mulliken atomic charges =   0.00000
 Mulliken charges with hydrogens summed into heavy atoms:
              1
     1  C   -0.089538
     2  C   -0.067653
     3  C   -0.070958
     4  C   -0.113578
     5  C    0.321609
     6  C    0.045432
     7  C    0.156321
     8  C    0.637359
     9  C   -0.226777
    10  O   -0.267002
    11  C    0.449412
    12  O   -0.138892
    13  C   -0.010250
    14  O   -0.468478
    15  C   -0.157006
 Sum of Mulliken charges with hydrogens summed into heavy atoms =   0.00000
 Electronic spatial extent (au):  <R**2>=           4431.9694
 Charge=              0.0000 electrons
 Dipole moment (field-independent basis, Debye):
    X=              1.6119    Y=             -1.0890    Z=              1.3888  Tot=              2.3902
 Quadrupole moment (field-independent basis, Debye-Ang):
   XX=            -71.9105   YY=            -91.5654   ZZ=            -89.6871
   XY=              3.9361   XZ=             -3.3591   YZ=              0.0710
 Traceless Quadrupole moment (field-independent basis, Debye-Ang):
   XX=             12.4772   YY=             -7.1777   ZZ=             -5.2995
   XY=              3.9361   XZ=             -3.3591   YZ=              0.0710
 Octapole moment (field-independent basis, Debye-Ang**2):
  XXX=            -50.9254  YYY=            -11.3883  ZZZ=            -11.3094  XYY=             18.4425
  XXY=            -10.6329  XXZ=              7.4083  XZZ=            -10.5997  YZZ=             -2.2995
  YYZ=              4.1266  XYZ=            -14.6670
 Hexadecapole moment (field-independent basis, Debye-Ang**3):
 XXXX=          -4201.9059 YYYY=           -628.5869 ZZZZ=           -417.6104 XXXY=             43.6535
 XXXZ=             73.2347 YYYX=             14.6537 YYYZ=             -6.1398 ZZZX=            -25.6400
 ZZZY=             15.0513 XXYY=           -909.3320 XXZZ=           -922.5497 YYZZ=           -175.1812
 XXYZ=            -18.3298 YYXZ=             -8.8018 ZZXY=             -9.3981
 N-N= 9.864883820307D+02 E-N=-3.584913919531D+03  KE= 6.859084188364D+02
 1\1\GINC-COMPUTE-8-12\SP\RwB97XD\6-31+G(d,p)\C12H16O3\ELUCIANO.IQUIR\1
 7-May-2022\0\\# wb97xd/6-31+g** scrf=(pcm,solvent=chloroform,smd,dovac
 uum) nmr\\comment\\0,1\C,0,-1.233692374,-2.841315267,-0.552751255\C,0,
 -3.662754051,-1.474462296,-0.674749463\C,0,-2.437700159,-3.54554878,-0
 .495029743\C,0,-1.231013206,-1.443655512,-0.671204092\C,0,-2.460633676
 ,-0.768220521,-0.732195824\C,0,-3.650753712,-2.862476197,-0.555787538\
 C,0,0.081259117,-0.684935093,-0.728294726\C,0,0.329145109,0.22296949,0
 .484708553\C,0,1.738334209,0.764345827,0.379453944\O,0,1.732666787,2.1
 26436168,0.421360151\C,0,3.030669179,2.722960772,0.321657087\O,0,0.066
 432504,0.119512859,-1.915395809\C,0,0.205584666,-0.490846028,1.8304063
 53\O,0,2.744620396,0.068864459,0.310296046\C,0,2.863104456,4.229494786
 ,0.355741445\H,0,-0.297315368,-3.393471903,-0.501025129\H,0,-4.6086966
 64,-0.941112991,-0.723235709\H,0,-2.429201229,-4.628644011,-0.40157494
 4\H,0,-2.485200166,0.315856493,-0.829000139\H,0,-4.587263371,-3.412331
 442,-0.510455019\H,0,0.907152053,-1.39631763,-0.85186363\H,0,-0.369208
 661,1.069846028,0.464186674\H,0,3.504325997,2.424768591,-0.620418536\H
 ,0,3.650832015,2.400747821,1.165583105\H,0,-0.362017655,-0.409285184,-
 2.612150921\H,0,0.521452069,0.165935558,2.648895883\H,0,-0.827418938,-
 0.791829771,2.030189001\H,0,0.836436331,-1.386098261,1.866944007\H,0,2
 .227275813,4.565349918,-0.470113889\H,0,3.831808006,4.731626846,0.2826
 43744\H,0,2.371770522,4.541835271,1.283180372\\Version=EM64L-G09RevC.0
 1\State=1-A\HF=-692.4459206\RMSD=3.141e-09\Dipole=-0.9122197,-0.013145
 4,0.2280434\Quadrupole=-1.4123302,5.0302533,-3.617923,7.1253991,1.3542
 194,2.651822\PG=C01 [X(C12H16O3)]\\@


 Statistics are no substitute for judgment.
                            -- Henry Clay
 Job cpu time:  0 days  2 hours  0 minutes 33.1 seconds.
 File lengths (MBytes):  RWF=    125 Int=      0 D2E=      0 Chk=      9 Scr=      1
 Normal termination of Gaussian 09 at Tue May 17 22:28:58 2022.
