 Entering Gaussian System, Link 0=g09
 Input=/home/eluciano.iquir/wb9/73b_026.gjc
 Output=/home/eluciano.iquir/wb9/73b_026.log
 Initial command:
 /share/apps/Gaussian09/EM64T.SSE4.2-enabled/g09/l1.exe /tmp/Gau-30158.inp -scrdir=/tmp/
 Entering Link 1 = /share/apps/Gaussian09/EM64T.SSE4.2-enabled/g09/l1.exe PID=     30159.
  
 Copyright (c) 1988,1990,1992,1993,1995,1998,2003,2009,2011,
            Gaussian, Inc.  All Rights Reserved.
  
 This is part of the Gaussian(R) 09 program.  It is based on
 the Gaussian(R) 03 system (copyright 2003, Gaussian, Inc.),
 the Gaussian(R) 98 system (copyright 1998, Gaussian, Inc.),
 the Gaussian(R) 94 system (copyright 1995, Gaussian, Inc.),
 the Gaussian 92(TM) system (copyright 1992, Gaussian, Inc.),
 the Gaussian 90(TM) system (copyright 1990, Gaussian, Inc.),
 the Gaussian 88(TM) system (copyright 1988, Gaussian, Inc.),
 the Gaussian 86(TM) system (copyright 1986, Carnegie Mellon
 University), and the Gaussian 82(TM) system (copyright 1983,
 Carnegie Mellon University). Gaussian is a federally registered
 trademark of Gaussian, Inc.
  
 This software contains proprietary and confidential information,
 including trade secrets, belonging to Gaussian, Inc.
  
 This software is provided under written license and may be
 used, copied, transmitted, or stored only in accord with that
 written license.
  
 The following legend is applicable only to US Government
 contracts under FAR:
  
                    RESTRICTED RIGHTS LEGEND
  
 Use, reproduction and disclosure by the US Government is
 subject to restrictions as set forth in subparagraphs (a)
 and (c) of the Commercial Computer Software - Restricted
 Rights clause in FAR 52.227-19.
  
 Gaussian, Inc.
 340 Quinnipiac St., Bldg. 40, Wallingford CT 06492
  
  
 ---------------------------------------------------------------
 Warning -- This program may not be used in any manner that
 competes with the business of Gaussian, Inc. or will provide
 assistance to any competitor of Gaussian, Inc.  The licensee
 of this program is prohibited from giving any competitor of
 Gaussian, Inc. access to this program.  By using this program,
 the user acknowledges that Gaussian, Inc. is engaged in the
 business of creating and licensing software in the field of
 computational chemistry and represents and warrants to the
 licensee that it is not a competitor of Gaussian, Inc. and that
 it will not use this program in any manner prohibited above.
 ---------------------------------------------------------------
  

 Cite this work as:
 Gaussian 09, Revision C.01,
 M. J. Frisch, G. W. Trucks, H. B. Schlegel, G. E. Scuseria, 
 M. A. Robb, J. R. Cheeseman, G. Scalmani, V. Barone, B. Mennucci, 
 G. A. Petersson, H. Nakatsuji, M. Caricato, X. Li, H. P. Hratchian, 
 A. F. Izmaylov, J. Bloino, G. Zheng, J. L. Sonnenberg, M. Hada, 
 M. Ehara, K. Toyota, R. Fukuda, J. Hasegawa, M. Ishida, T. Nakajima, 
 Y. Honda, O. Kitao, H. Nakai, T. Vreven, J. A. Montgomery, Jr., 
 J. E. Peralta, F. Ogliaro, M. Bearpark, J. J. Heyd, E. Brothers, 
 K. N. Kudin, V. N. Staroverov, T. Keith, R. Kobayashi, J. Normand, 
 K. Raghavachari, A. Rendell, J. C. Burant, S. S. Iyengar, J. Tomasi, 
 M. Cossi, N. Rega, J. M. Millam, M. Klene, J. E. Knox, J. B. Cross, 
 V. Bakken, C. Adamo, J. Jaramillo, R. Gomperts, R. E. Stratmann, 
 O. Yazyev, A. J. Austin, R. Cammi, C. Pomelli, J. W. Ochterski, 
 R. L. Martin, K. Morokuma, V. G. Zakrzewski, G. A. Voth, 
 P. Salvador, J. J. Dannenberg, S. Dapprich, A. D. Daniels, 
 O. Farkas, J. B. Foresman, J. V. Ortiz, J. Cioslowski, 
 and D. J. Fox, Gaussian, Inc., Wallingford CT, 2010.
 
 ******************************************
 Gaussian 09:  EM64L-G09RevC.01 23-Sep-2011
                17-May-2022 
 ******************************************
 %nprocshared=4
 Will use up to    4 processors via shared memory.
 ----------------------------------------------------------------
 # wb97xd/6-31+g** scrf=(pcm,solvent=chloroform,smd,dovacuum) nmr
 ----------------------------------------------------------------
 1/38=1/1;
 2/12=2,17=6,18=5,40=1/2;
 3/5=1,6=6,7=111,11=2,16=1,25=1,30=1,70=32101,72=7,74=-58/1,2,8,3;
 4//1;
 5/5=2,38=5,53=7/2;
 8/6=1,10=90,11=11/1;
 10/13=100,45=16/2;
 6/7=2,8=2,9=2,10=2,28=1/1;
 99/9=1/99;
 -------
 comment
 -------
 Charge =  0 Multiplicity = 1
 Symbolic Z-Matrix:
 6                    -1.15268  -2.75608   0.30822 
 6                    -3.69974  -1.71904  -0.15646 
 6                    -2.28453  -3.51672   0.6086 
 6                    -1.28071  -1.46497  -0.22722 
 6                    -2.56949  -0.95694  -0.45637 
 6                    -3.55681  -2.99782   0.37734 
 6                    -0.04718  -0.63572  -0.52116 
 6                     0.17015   0.53044   0.46264 
 6                     1.58838   1.0399    0.27273 
 8                     1.69169   1.69579  -0.9214 
 6                     2.98309   2.25001  -1.22214 
 8                    -0.2083   -0.13532  -1.8566 
 6                    -0.02071   0.14968   1.93427 
 8                     2.50914   0.881     1.06129 
 6                     3.11519   3.63128  -0.60909 
 1                    -0.16876  -3.17966   0.4969 
 1                    -4.69095  -1.31548  -0.345 
 1                    -2.17305  -4.51588   1.02157 
 1                    -2.69436   0.03596  -0.88354 
 1                    -4.43695  -3.59184   0.60833 
 1                     0.83434  -1.28899  -0.543 
 1                    -0.50727   1.36482   0.23779 
 1                     3.0521    2.32279  -2.31244 
 1                     3.78854   1.58392  -0.89253 
 1                     0.53947   0.45927  -2.04617 
 1                     0.27054   0.97727   2.5913 
 1                    -1.06664  -0.08439   2.15539 
 1                     0.59176  -0.71735   2.20606 
 1                     2.30339   4.28224  -0.94989 
 1                     4.07126   4.08683  -0.88193 
 1                     3.04909   3.58502   0.48249 
 
                          Input orientation:                          
 ---------------------------------------------------------------------
 Center     Atomic      Atomic             Coordinates (Angstroms)
 Number     Number       Type             X           Y           Z
 ---------------------------------------------------------------------
      1          6           0       -1.152682   -2.756079    0.308220
      2          6           0       -3.699739   -1.719038   -0.156462
      3          6           0       -2.284532   -3.516722    0.608601
      4          6           0       -1.280714   -1.464972   -0.227219
      5          6           0       -2.569486   -0.956941   -0.456368
      6          6           0       -3.556813   -2.997818    0.377344
      7          6           0       -0.047179   -0.635721   -0.521160
      8          6           0        0.170153    0.530442    0.462635
      9          6           0        1.588380    1.039902    0.272730
     10          8           0        1.691688    1.695786   -0.921401
     11          6           0        2.983087    2.250011   -1.222142
     12          8           0       -0.208298   -0.135318   -1.856596
     13          6           0       -0.020708    0.149677    1.934274
     14          8           0        2.509143    0.880996    1.061292
     15          6           0        3.115191    3.631275   -0.609087
     16          1           0       -0.168756   -3.179659    0.496899
     17          1           0       -4.690949   -1.315479   -0.345001
     18          1           0       -2.173052   -4.515880    1.021574
     19          1           0       -2.694359    0.035955   -0.883542
     20          1           0       -4.436949   -3.591838    0.608329
     21          1           0        0.834336   -1.288988   -0.542997
     22          1           0       -0.507268    1.364818    0.237794
     23          1           0        3.052103    2.322791   -2.312436
     24          1           0        3.788536    1.583919   -0.892534
     25          1           0        0.539472    0.459266   -2.046165
     26          1           0        0.270542    0.977270    2.591295
     27          1           0       -1.066641   -0.084391    2.155395
     28          1           0        0.591759   -0.717346    2.206060
     29          1           0        2.303386    4.282239   -0.949892
     30          1           0        4.071257    4.086827   -0.881929
     31          1           0        3.049093    3.585016    0.482489
 ---------------------------------------------------------------------
                    Distance matrix (angstroms):
                    1          2          3          4          5
     1  C    0.000000
     2  C    2.789065   0.000000
     3  C    1.396385   2.412426   0.000000
     4  C    1.403582   2.433359   2.432267   0.000000
     5  C    2.414297   1.395782   2.787084   1.404115   0.000000
     6  C    2.417243   1.393073   1.393356   2.809935   2.415589
     7  C    2.530993   3.827241   3.818675   1.515147   2.543504
     8  C    3.546118   4.518795   4.735644   2.561756   3.249999
     9  C    4.682323   5.979980   5.989581   3.841360   4.669777
    10  O    5.424160   6.427569   6.732123   4.394026   5.040915
    11  C    6.671397   7.845329   8.022135   5.742036   6.457710
    12  O    3.527985   4.193899   4.671385   2.360705   2.865469
    13  C    3.516935   4.625855   4.508302   2.977710   3.665520
    14  O    5.215783   6.840564   6.521056   4.639703   5.610149
    15  C    7.736569   8.676059   9.040666   6.741035   7.306888
    16  H    1.087718   3.876614   2.145367   2.168166   3.407741
    17  H    3.875740   1.086694   3.397892   3.415541   2.154427
    18  H    2.155673   3.397185   1.086872   3.415228   3.873954
    19  H    3.404779   2.149287   3.875043   2.163778   1.088078
    20  H    3.402200   2.153082   2.153727   3.896603   3.400541
    21  H    2.612503   4.570798   4.002039   2.145723   3.421077
    22  H    4.171728   4.456173   5.208224   2.970214   3.182007
    23  H    7.095279   8.159165   8.432796   6.121159   6.767857
    24  H    6.685284   8.217395   8.071685   5.952787   6.860805
    25  H    4.329545   5.127075   5.552590   3.213151   3.768118
    26  H    4.601727   5.530224   5.536736   4.039179   4.592949
    27  H    3.249211   3.866517   3.956858   2.762006   3.137067
    28  H    3.286533   5.000185   4.319888   3.160055   4.139975
    29  H    7.941358   8.525396   9.181595   6.811642   7.171991
    30  H    8.690878   9.727423  10.021561   7.739168   8.349860
    31  H    7.608862   8.607438   8.882463   6.689791   7.285552
                    6          7          8          9         10
     6  C    0.000000
     7  C    4.324852   0.000000
     8  C    5.132852   1.541110   0.000000
     9  C    6.541188   2.472454   1.518875   0.000000
    10  O    7.159848   2.935946   2.364033   1.366311   0.000000
    11  C    8.536296   4.242799   3.702430   2.375756   1.437123
    12  O    4.939326   1.435184   2.442396   3.023777   2.799550
    13  C    4.983452   2.578120   1.532035   2.478385   3.671190
    14  O    7.232482   3.367397   2.439703   1.222655   2.294164
    15  C    9.456932   5.311833   4.408742   3.134322   2.422812
    16  H    3.395039   2.742780   3.725705   4.576294   5.407660
    17  H    2.153674   4.696563   5.262130   6.734937   7.080820
    18  H    2.152752   4.685616   5.591814   6.750988   7.569423
    19  H    3.396680   2.755001   3.203457   4.548267   4.689763
    20  H    1.086670   5.411511   6.183834   7.607248   8.237671
    21  H    4.800971   1.097407   2.182374   2.580256   3.128437
    22  H    5.324640   2.188573   1.098015   2.120975   2.507725
    23  H    8.900650   4.644030   4.383967   3.235950   2.044222
    24  H    8.749803   4.447182   4.004871   2.548427   2.100028
    25  H    5.882548   1.966926   2.536837   2.610483   2.030192
    26  H    5.945717   3.519952   2.177367   2.667651   3.856806
    27  H    4.224983   2.916713   2.184746   3.443486   4.499342
    28  H    5.074978   2.802255   2.185007   2.796236   4.100495
    29  H    9.439423   5.467659   4.541134   3.538190   2.657955
    30  H   10.486440   6.276474   5.447416   4.096544   3.373571
    31  H    9.326455   5.329994   4.197513   2.941988   2.717103
                   11         12         13         14         15
    11  C    0.000000
    12  O    4.034510   0.000000
    13  C    4.837060   3.806193   0.000000
    14  O    2.704237   4.114785   2.774359   0.000000
    15  C    1.516963   5.175818   5.331424   3.274370   0.000000
    16  H    6.509265   3.848183   3.629385   4.896794   7.641749
    17  H    8.507228   4.875639   5.399345   7.657903   9.245320
    18  H    8.797574   5.597628   5.218527   7.144983   9.848894
    19  H    6.103285   2.675195   3.886055   5.618977   6.837582
    20  H    9.619499   5.992067   5.938033   8.274032  10.520945
    21  H    4.195579   2.035579   2.989603   3.176090   5.423620
    22  H    3.885558   2.593504   2.142744   3.164012   4.356174
    23  H    1.094898   4.108565   5.674428   3.708857   2.148838
    24  H    1.095933   4.456442   4.955626   2.438931   2.173799
    25  H    3.139592   0.973975   4.031568   3.703208   4.331416
    26  H    4.849750   4.609868   1.096091   2.713210   5.037680
    27  H    5.766930   4.103098   1.094375   3.862028   6.239892
    28  H    5.126034   4.181390   1.095770   2.746188   5.762228
    29  H    2.160107   5.161926   5.549585   3.956722   1.094956
    30  H    2.161886   6.090245   6.338480   4.061239   1.093632
    31  H    2.166186   5.470175   4.830416   2.817497   1.094554
                   16         17         18         19         20
    16  H    0.000000
    17  H    4.963284   0.000000
    18  H    2.465354   4.295335   0.000000
    19  H    4.315606   2.470379   4.961898   0.000000
    20  H    4.289496   2.480961   2.479890   4.292223   0.000000
    21  H    2.379541   5.528895   4.680288   3.784592   5.866440
    22  H    4.564427   5.002682   6.162123   2.794036   6.336254
    23  H    6.967298   8.778534   9.229587   6.347691   9.979960
    24  H    6.346838   8.978193   8.741389   6.665148   9.833597
    25  H    4.495612   5.779358   6.443670   3.462448   6.944245
    26  H    4.675418   6.204428   6.213684   4.663819   6.853420
    27  H    3.624567   4.571998   4.706144   3.449505   5.104368
    28  H    3.092345   5.896836   4.845208   4.572928   6.008606
    29  H    7.992784   8.978923  10.066383   6.558413  10.481472
    30  H    8.525297  10.307738  10.799133   7.885628  11.557350
    31  H    7.491034   9.198253   9.653286   6.888332  10.371302
                   21         22         23         24         25
    21  H    0.000000
    22  H    3.074447   0.000000
    23  H    4.592858   4.482244   0.000000
    24  H    4.135585   4.447424   1.761927   0.000000
    25  H    2.324403   2.670611   3.139577   3.626586   0.000000
    26  H    3.908654   2.508814   5.796040   4.988122   4.674044
    27  H    3.513700   2.467852   6.536060   5.970416   4.530813
    28  H    2.818321   3.068768   5.975996   5.011635   4.412320
    29  H    5.776005   4.221578   2.501307   3.080567   4.350670
    30  H    6.284259   5.442978   2.489347   2.518848   5.195012
    31  H    5.450934   4.199627   3.066729   2.538081   4.739474
                   26         27         28         29         30
    26  H    0.000000
    27  H    1.762156   0.000000
    28  H    1.767289   1.775806   0.000000
    29  H    5.253121   6.329877   6.155124   0.000000
    30  H    6.014820   7.281647   6.687500   1.779936   0.000000
    31  H    4.355198   5.762155   5.245904   1.758953   1.777152
                   31
    31  H    0.000000
 Stoichiometry    C12H16O3
 Framework group  C1[X(C12H16O3)]
 Deg. of freedom    87
 Full point group                 C1      NOp   1
 Largest Abelian subgroup         C1      NOp   1
 Largest concise Abelian subgroup C1      NOp   1
                         Standard orientation:                         
 ---------------------------------------------------------------------
 Center     Atomic      Atomic             Coordinates (Angstroms)
 Number     Number       Type             X           Y           Z
 ---------------------------------------------------------------------
      1          6           0        2.595648    0.622245   -1.049386
      2          6           0        3.747750   -0.892714    0.989349
      3          6           0        3.967197    0.708405   -0.801756
      4          6           0        1.781847   -0.222282   -0.278319
      5          6           0        2.376456   -0.979321    0.743870
      6          6           0        4.542166   -0.047768    0.217583
      7          6           0        0.289891   -0.285752   -0.534652
      8          6           0       -0.560129    0.399957    0.552680
      9          6           0       -1.966291    0.569972    0.004242
     10          8           0       -2.586893   -0.644929   -0.071094
     11          6           0       -3.938962   -0.628693   -0.557889
     12          8           0       -0.044041   -1.678877   -0.620947
     13          6           0       -0.033256    1.772338    0.984080
     14          8           0       -2.471152    1.631332   -0.332677
     15          6           0       -4.902494   -0.361596    0.582919
     16          1           0        2.166725    1.221425   -1.849472
     17          1           0        4.195421   -1.489300    1.779653
     18          1           0        4.587678    1.364781   -1.406294
     19          1           0        1.768788   -1.651542    1.346175
     20          1           0        5.610153    0.017482    0.407317
     21          1           0        0.070998    0.143459   -1.520638
     22          1           0       -0.635094   -0.231119    1.448091
     23          1           0       -4.136214   -1.618411   -0.982564
     24          1           0       -4.061529    0.099232   -1.367932
     25          1           0       -1.010736   -1.750073   -0.716126
     26          1           0       -0.741577    2.266550    1.658950
     27          1           0        0.916620    1.686484    1.520757
     28          1           0        0.115744    2.432787    0.122502
     29          1           0       -4.766140   -1.098153    1.381556
     30          1           0       -5.938127   -0.406367    0.234362
     31          1           0       -4.724963    0.623808    1.025085
 ---------------------------------------------------------------------
 Rotational constants (GHZ):      1.6343512      0.2776436      0.2624441
 Standard basis: 6-31+G(d,p) (6D, 7F)
 There are   365 symmetry adapted basis functions of A   symmetry.
 Integral buffers will be    131072 words long.
 Raffenetti 2 integral format.
 Two-electron integral symmetry is turned on.
   365 basis functions,   592 primitive gaussians,   365 cartesian basis functions
    56 alpha electrons       56 beta electrons
       nuclear repulsion energy       997.0771898717 Hartrees.
 NAtoms=   31 NActive=   31 NUniq=   31 SFac= 1.00D+00 NAtFMM=   60 NAOKFM=F Big=F
 Nuclear repulsion after empirical dispersion term =      997.0562312583 Hartrees.
 ------------------------------------------------------------------------------
 Polarizable Continuum Model (PCM)
 =================================
 Model                : C-PCM.
 Atomic radii         : SMD-Coulomb.
 Polarization charges : Total charges.
 Charge compensation  : None.
 Solution method      : Matrix inversion.
 Cavity type          : VdW (van der Waals Surface) (Alpha=1.000).
 Cavity algorithm     : GePol (No added spheres)
                        Default sphere list used, NSphG=   31.
                        Lebedev-Laikov grids with approx.  5.0 points / Ang**2.
                        Smoothing algorithm: Karplus/York (Gamma=1.0000).
                        Polarization charges: spherical gaussians, with
                                              point-specific exponents (IZeta= 3).
                        Self-potential: point-specific (ISelfS= 7).
                        Self-field    : sphere-specific E.n sum rule (ISelfD= 2).
 Solvent              : Chloroform, Eps=   4.711300 Eps(inf)=   2.090627
 ------------------------------------------------------------------------------
 ------------------------------------------------------------------------------
 Atomic radii for non-electrostatic terms: SMD-CDS.
 ------------------------------------------------------------------------------
 Nuclear repulsion after PCM non-electrostatic terms =      997.0497470274 Hartrees.
 One-electron integrals computed using PRISM.
 NBasis=   365 RedAO= T  NBF=   365
 NBsUse=   365 1.00D-06 NBFU=   365
 Harris functional with IExCor= 4639 diagonalized for initial guess.
 ExpMin= 4.38D-02 ExpMax= 5.48D+03 ExpMxC= 8.25D+02 IAcc=2 IRadAn=         4 AccDes= 0.00D+00
 HarFok:  IExCor= 4639 AccDes= 0.00D+00 IRadAn=         4 IDoV= 1
 ScaDFX=  1.000000  1.000000  1.000000  1.000000
 FoFCou: FMM=F IPFlag=           0 FMFlag=      100000 FMFlg1=           0
         NFxFlg=           0 DoJE=T BraDBF=F KetDBF=T FulRan=T
         Omega=  0.000000  0.000000  1.000000  0.000000  0.000000 ICntrl=     500 IOpCl=  0
         NMat0=    1 NMatS0=    1 NMatT0=    0 NMatD0=    1 NMtDS0=    0 NMtDT0=    0
         I1Cent=           4 NGrid=           0.
 Petite list used in FoFCou.
 Initial guess orbital symmetries:
       Occupied  (A) (A) (A) (A) (A) (A) (A) (A) (A) (A) (A) (A)
                 (A) (A) (A) (A) (A) (A) (A) (A) (A) (A) (A) (A)
                 (A) (A) (A) (A) (A) (A) (A) (A) (A) (A) (A) (A)
                 (A) (A) (A) (A) (A) (A) (A) (A) (A) (A) (A) (A)
                 (A) (A) (A) (A) (A) (A) (A) (A)
       Virtual   (A) (A) (A) (A) (A) (A) (A) (A) (A) (A) (A) (A)
                 (A) (A) (A) (A) (A) (A) (A) (A) (A) (A) (A) (A)
                 (A) (A) (A) (A) (A) (A) (A) (A) (A) (A) (A) (A)
                 (A) (A) (A) (A) (A) (A) (A) (A) (A) (A) (A) (A)
                 (A) (A) (A) (A) (A) (A) (A) (A) (A) (A) (A) (A)
                 (A) (A) (A) (A) (A) (A) (A) (A) (A) (A) (A) (A)
                 (A) (A) (A) (A) (A) (A) (A) (A) (A) (A) (A) (A)
                 (A) (A) (A) (A) (A) (A) (A) (A) (A) (A) (A) (A)
                 (A) (A) (A) (A) (A) (A) (A) (A) (A) (A) (A) (A)
                 (A) (A) (A) (A) (A) (A) (A) (A) (A) (A) (A) (A)
                 (A) (A) (A) (A) (A) (A) (A) (A) (A) (A) (A) (A)
                 (A) (A) (A) (A) (A) (A) (A) (A) (A) (A) (A) (A)
                 (A) (A) (A) (A) (A) (A) (A) (A) (A) (A) (A) (A)
                 (A) (A) (A) (A) (A) (A) (A) (A) (A) (A) (A) (A)
                 (A) (A) (A) (A) (A) (A) (A) (A) (A) (A) (A) (A)
                 (A) (A) (A) (A) (A) (A) (A) (A) (A) (A) (A) (A)
                 (A) (A) (A) (A) (A) (A) (A) (A) (A) (A) (A) (A)
                 (A) (A) (A) (A) (A) (A) (A) (A) (A) (A) (A) (A)
                 (A) (A) (A) (A) (A) (A) (A) (A) (A) (A) (A) (A)
                 (A) (A) (A) (A) (A) (A) (A) (A) (A) (A) (A) (A)
                 (A) (A) (A) (A) (A) (A) (A) (A) (A) (A) (A) (A)
                 (A) (A) (A) (A) (A) (A) (A) (A) (A) (A) (A) (A)
                 (A) (A) (A) (A) (A) (A) (A) (A) (A) (A) (A) (A)
                 (A) (A) (A) (A) (A) (A) (A) (A) (A) (A) (A) (A)
                 (A) (A) (A) (A) (A) (A) (A) (A) (A) (A) (A) (A)
                 (A) (A) (A) (A) (A) (A) (A) (A) (A)
 The electronic state of the initial guess is 1-A.
 Requested convergence on RMS density matrix=1.00D-08 within 128 cycles.
 Requested convergence on MAX density matrix=1.00D-06.
 Requested convergence on             energy=1.00D-06.
 No special actions if energy rises.
 FoFJK:  IHMeth= 1 ICntrl=     0 DoSepK=T KAlg= 1 I1Cent= 0 FoldK=F
 FoFJK:  IHMeth= 1 ICntrl=     0 DoSepK=T KAlg= 1 I1Cent= 0 FoldK=F
 FoFJK:  IHMeth= 1 ICntrl=     0 DoSepK=T KAlg= 1 I1Cent= 0 FoldK=F
 FoFJK:  IHMeth= 1 ICntrl=     0 DoSepK=T KAlg= 1 I1Cent= 0 FoldK=F
 FoFJK:  IHMeth= 1 ICntrl=     0 DoSepK=T KAlg= 1 I1Cent= 0 FoldK=F
 FoFJK:  IHMeth= 1 ICntrl=     0 DoSepK=T KAlg= 1 I1Cent= 0 FoldK=F
 FoFJK:  IHMeth= 1 ICntrl=     0 DoSepK=T KAlg= 1 I1Cent= 0 FoldK=F
 FoFJK:  IHMeth= 1 ICntrl=     0 DoSepK=T KAlg= 1 I1Cent= 0 FoldK=F
 FoFJK:  IHMeth= 1 ICntrl=     0 DoSepK=T KAlg= 1 I1Cent= 0 FoldK=F
 FoFJK:  IHMeth= 1 ICntrl=     0 DoSepK=T KAlg= 1 I1Cent= 0 FoldK=F
 FoFJK:  IHMeth= 1 ICntrl=     0 DoSepK=T KAlg= 1 I1Cent= 0 FoldK=F
 FoFJK:  IHMeth= 1 ICntrl=     0 DoSepK=T KAlg= 1 I1Cent= 0 FoldK=F
 FoFJK:  IHMeth= 1 ICntrl=     0 DoSepK=T KAlg= 1 I1Cent= 0 FoldK=F
 FoFJK:  IHMeth= 1 ICntrl=     0 DoSepK=T KAlg= 1 I1Cent= 0 FoldK=F
 FoFJK:  IHMeth= 1 ICntrl=     0 DoSepK=T KAlg= 1 I1Cent= 0 FoldK=F
 FoFJK:  IHMeth= 1 ICntrl=     0 DoSepK=T KAlg= 1 I1Cent= 0 FoldK=F
 Error on total polarization charges =  0.04048
 SCF Done:  E(RwB97XD) =  -692.444426190     A.U. after   16 cycles
             Convg  =    0.2217D-08             -V/T =  2.0095
 SMD-CDS (non-electrostatic) energy       (kcal/mol) =      -4.07
 (included in total energy above)
 Range of M.O.s used for correlation:     1   365
 NBasis=   365 NAE=    56 NBE=    56 NFC=     0 NFV=     0
 NROrb=    365 NOA=    56 NOB=    56 NVA=   309 NVB=   309

 **** Warning!!: The largest alpha MO coefficient is  0.13091882D+03

 NEqPCM:  Using equilibrium solvation (IEInf=0, Eps=   4.7113, EpsInf=   2.0906)
          Differentiating once with respect to magnetic field using GIAOs.
          Electric field/nuclear overlap derivatives assumed to be zero.
 FoFCou: FMM=F IPFlag=           0 FMFlag=    10101102 FMFlg1=           0
         NFxFlg=    40000000 DoJE=F BraDBF=F KetDBF=T FulRan=T
         Omega=  0.000000  0.000000  1.000000  0.000000  0.000000 ICntrl=    6100 IOpCl=  0
         NMat0=    1 NMatS0=    1 NMatT0=    0 NMatD0=    1 NMtDS0=    0 NMtDT0=    0
         I1Cent=           7 NGrid=        2278.
 Symmetry not used in FoFCou.
 FoFJK:  IHMeth= 1 ICntrl=  6127 DoSepK=T KAlg= 1 I1Cent= 0 FoldK=F
 FoFJK:  IHMeth= 1 ICntrl=     0 DoSepK=T KAlg= 1 I1Cent= 0 FoldK=F
          There are     3 degrees of freedom in the 1st order CPHF.  IDoFFX=0.
      3 vectors produced by pass  0 Test12= 5.77D-13 3.33D-08 XBig12= 1.17D+02 1.55D+00.
 AX will form     3 AO Fock derivatives at one time.
 FoFJK:  IHMeth= 1 ICntrl=     0 DoSepK=T KAlg= 1 I1Cent= 0 FoldK=F
      3 vectors produced by pass  1 Test12= 5.77D-13 3.33D-08 XBig12= 1.10D+00 2.40D-01.
 FoFJK:  IHMeth= 1 ICntrl=     0 DoSepK=T KAlg= 1 I1Cent= 0 FoldK=F
      3 vectors produced by pass  2 Test12= 5.77D-13 3.33D-08 XBig12= 2.15D-02 4.68D-02.
 FoFJK:  IHMeth= 1 ICntrl=     0 DoSepK=T KAlg= 1 I1Cent= 0 FoldK=F
      3 vectors produced by pass  3 Test12= 5.77D-13 3.33D-08 XBig12= 3.79D-04 3.95D-03.
 FoFJK:  IHMeth= 1 ICntrl=     0 DoSepK=T KAlg= 1 I1Cent= 0 FoldK=F
      3 vectors produced by pass  4 Test12= 5.77D-13 3.33D-08 XBig12= 4.84D-06 3.88D-04.
 FoFJK:  IHMeth= 1 ICntrl=     0 DoSepK=T KAlg= 1 I1Cent= 0 FoldK=F
      3 vectors produced by pass  5 Test12= 5.77D-13 3.33D-08 XBig12= 5.82D-08 5.19D-05.
 FoFJK:  IHMeth= 1 ICntrl=     0 DoSepK=T KAlg= 1 I1Cent= 0 FoldK=F
      3 vectors produced by pass  6 Test12= 5.77D-13 3.33D-08 XBig12= 7.67D-10 7.74D-06.
 FoFJK:  IHMeth= 1 ICntrl=     0 DoSepK=T KAlg= 1 I1Cent= 0 FoldK=F
      3 vectors produced by pass  7 Test12= 5.77D-13 3.33D-08 XBig12= 8.80D-12 7.69D-07.
 FoFJK:  IHMeth= 1 ICntrl=     0 DoSepK=T KAlg= 1 I1Cent= 0 FoldK=F
      3 vectors produced by pass  8 Test12= 5.77D-13 3.33D-08 XBig12= 9.89D-14 6.26D-08.
 FoFJK:  IHMeth= 1 ICntrl=     0 DoSepK=T KAlg= 1 I1Cent= 0 FoldK=F
 Inverted reduced A of dimension    27 with in-core refinement.
 Calculating GIAO nuclear magnetic shielding tensors.
 SCF GIAO Magnetic shielding tensor (ppm):
      1  C    Isotropic =    68.5333   Anisotropy =   161.1884
   XX=    49.6580   YX=     3.7747   ZX=   -38.7739
   XY=    12.1611   YY=    97.9038   ZY=    92.1241
   XZ=   -32.8927   YZ=    95.2950   ZZ=    58.0380
   Eigenvalues:   -31.3801    60.9877   175.9922
      2  C    Isotropic =    69.7907   Anisotropy =   176.6108
   XX=    45.6467   YX=     2.7457   ZX=   -39.4298
   XY=     4.4599   YY=   102.3726   ZY=    98.5957
   XZ=   -40.1568   YZ=   101.2559   ZZ=    61.3527
   Eigenvalues:   -34.2723    56.1132   187.5312
      3  C    Isotropic =    70.6530   Anisotropy =   173.7824
   XX=    31.1104   YX=   -46.9096   ZX=    14.4449
   XY=   -46.7214   YY=    97.1087   ZY=    91.8310
   XZ=    15.1295   YZ=    91.8015   ZZ=    83.7400
   Eigenvalues:   -31.8973    57.3484   186.5080
      4  C    Isotropic =    55.1018   Anisotropy =   183.8914
   XX=   -30.2982   YX=   -22.4463   ZX=   -19.8769
   XY=   -23.8045   YY=   114.0855   ZY=    71.0167
   XZ=   -28.3282   YZ=    74.6226   ZZ=    81.5180
   Eigenvalues:   -35.8842    23.4934   177.6960
      5  C    Isotropic =    73.2554   Anisotropy =   183.4861
   XX=    31.2978   YX=   -43.1560   ZX=     9.3346
   XY=   -39.9205   YY=   101.5000   ZY=    96.1096
   XZ=    15.3017   YZ=    99.8579   ZZ=    86.9684
   Eigenvalues:   -28.2640    52.4507   195.5794
      6  C    Isotropic =    71.1323   Anisotropy =   175.3415
   XX=   -23.2822   YX=   -22.2230   ZX=   -27.9336
   XY=   -23.3091   YY=   127.8907   ZY=    63.5447
   XZ=   -30.0253   YZ=    61.9904   ZZ=   108.7883
   Eigenvalues:   -30.0519    55.4221   188.0266
      7  C    Isotropic =   118.5380   Anisotropy =    33.3362
   XX=   113.4910   YX=     7.7218   ZX=    -3.5661
   XY=    11.0309   YY=   137.2804   ZY=    -0.4695
   XZ=    -6.1764   YZ=    -2.1950   ZZ=   104.8426
   Eigenvalues:   102.4118   112.4400   140.7622
      8  C    Isotropic =   147.9189   Anisotropy =    14.3419
   XX=   156.9511   YX=     1.8970   ZX=    -0.2724
   XY=    -5.3536   YY=   144.4355   ZY=     2.1432
   XZ=    -3.4018   YZ=     1.9324   ZZ=   142.3703
   Eigenvalues:   141.0884   145.1882   157.4802
      9  C    Isotropic =    18.8547   Anisotropy =    93.8967
   XX=   -11.8183   YX=   -45.0406   ZX=   -31.0672
   XY=   -75.9792   YY=    -5.0466   ZY=   -15.6280
   XZ=   -21.6646   YZ=    -8.2001   ZZ=    73.4290
   Eigenvalues:   -74.1282    49.2398    81.4525
     10  O    Isotropic =   130.8391   Anisotropy =   140.8956
   XX=    78.1168   YX=    34.8992   ZX=   -74.9236
   XY=   157.5115   YY=   124.5256   ZY=    63.9357
   XZ=   -67.9844   YZ=    33.2580   ZZ=   189.8749
   Eigenvalues:   -31.2694   199.0172   224.7695
     11  C    Isotropic =   137.5130   Anisotropy =    66.8421
   XX=   178.1641   YX=    -0.0166   ZX=    15.7419
   XY=     3.8734   YY=   101.8090   ZY=     8.3016
   XZ=    11.2268   YZ=     9.3004   ZZ=   132.5660
   Eigenvalues:    99.4339   131.0307   182.0744
     12  O    Isotropic =   277.0076   Anisotropy =    33.2989
   XX=   296.4743   YX=     6.7679   ZX=    -2.3894
   XY=     3.9526   YY=   287.8483   ZY=     5.1033
   XZ=     7.8162   YZ=    -2.7821   ZZ=   246.7001
   Eigenvalues:   246.5342   285.2817   299.2068
     13  C    Isotropic =   181.6046   Anisotropy =    12.3661
   XX=   185.2391   YX=     0.5406   ZX=     2.1158
   XY=    -1.6724   YY=   187.7412   ZY=     7.4242
   XZ=     0.9459   YZ=     4.8978   ZZ=   171.8334
   Eigenvalues:   169.5566   185.4085   189.8486
     14  O    Isotropic =   -38.0350   Anisotropy =   560.1137
   XX=  -102.2461   YX=   -13.6715   ZX=  -169.0133
   XY=   -25.3147   YY=  -287.7656   ZY=    71.5080
   XZ=  -138.2675   YZ=    32.0971   ZZ=   275.9067
   Eigenvalues:  -292.6879  -156.7912   335.3741
     15  C    Isotropic =   181.4102   Anisotropy =    26.4125
   XX=   193.6792   YX=    -1.5423   ZX=    -4.5374
   XY=    -3.6740   YY=   162.6325   ZY=     4.6890
   XZ=    -9.7265   YZ=     3.2081   ZZ=   187.9190
   Eigenvalues:   161.9540   183.2581   199.0185
     16  H    Isotropic =    23.8517   Anisotropy =     8.0383
   XX=    27.6491   YX=     2.1944   ZX=    -2.0051
   XY=     1.9565   YY=    21.2339   ZY=    -1.4211
   XZ=    -2.1592   YZ=    -1.9052   ZZ=    22.6722
   Eigenvalues:    20.0755    22.2691    29.2106
     17  H    Isotropic =    23.7238   Anisotropy =     5.0210
   XX=    26.8380   YX=     1.0287   ZX=     0.1521
   XY=     0.9929   YY=    22.2815   ZY=    -1.8037
   XZ=    -0.0018   YZ=    -1.7020   ZZ=    22.0520
   Eigenvalues:    20.3231    23.7773    27.0711
     18  H    Isotropic =    23.8063   Anisotropy =     4.7874
   XX=    26.4675   YX=    -0.1685   ZX=     1.2750
   XY=    -0.0287   YY=    21.9168   ZY=    -2.0240
   XZ=     1.2361   YZ=    -1.9885   ZZ=    23.0345
   Eigenvalues:    20.3143    24.1067    26.9978
     19  H    Isotropic =    23.3482   Anisotropy =     9.8255
   XX=    26.9957   YX=    -2.1806   ZX=     4.0204
   XY=    -1.2494   YY=    21.3140   ZY=    -2.5428
   XZ=     3.8119   YZ=    -2.1696   ZZ=    21.7348
   Eigenvalues:    18.7800    21.3660    29.8985
     20  H    Isotropic =    23.7882   Anisotropy =     4.1035
   XX=    24.4719   YX=     0.4560   ZX=     0.2119
   XY=     0.4494   YY=    23.0234   ZY=    -3.0043
   XZ=     0.0934   YZ=    -3.0593   ZZ=    23.8692
   Eigenvalues:    20.3379    24.5028    26.5239
     21  H    Isotropic =    26.9822   Anisotropy =     5.3505
   XX=    26.1490   YX=     1.4754   ZX=    -0.7488
   XY=     1.8011   YY=    26.7277   ZY=    -3.1183
   XZ=    -0.8341   YZ=    -1.7716   ZZ=    28.0698
   Eigenvalues:    24.3523    26.0449    30.5492
     22  H    Isotropic =    28.6887   Anisotropy =     4.2895
   XX=    28.0254   YX=     1.8709   ZX=     0.5405
   XY=     0.7717   YY=    28.3267   ZY=    -1.1601
   XZ=    -0.4623   YZ=    -3.3412   ZZ=    29.7139
   Eigenvalues:    26.0380    28.4797    31.5483
     23  H    Isotropic =    27.6198   Anisotropy =     7.5749
   XX=    28.8488   YX=     2.2310   ZX=     1.0087
   XY=     1.0299   YY=    27.5044   ZY=     3.8367
   XZ=     1.1987   YZ=     5.4436   ZZ=    26.5062
   Eigenvalues:    22.3266    27.8630    32.6697
     24  H    Isotropic =    26.7142   Anisotropy =     6.1611
   XX=    28.1241   YX=    -0.6306   ZX=     2.3373
   XY=     1.1995   YY=    23.2919   ZY=    -1.2821
   XZ=     2.0178   YZ=    -2.3575   ZZ=    28.7267
   Eigenvalues:    22.5734    26.7477    30.8216
     25  H    Isotropic =    27.8978   Anisotropy =    20.9709
   XX=    41.5760   YX=     0.7289   ZX=     1.6578
   XY=     2.8305   YY=    24.6431   ZY=     1.4713
   XZ=     1.2322   YZ=     3.2870   ZZ=    17.4745
   Eigenvalues:    16.7257    25.0894    41.8785
     26  H    Isotropic =    30.7225   Anisotropy =    10.4337
   XX=    30.4540   YX=    -1.6308   ZX=    -2.5985
   XY=    -3.4528   YY=    31.0603   ZY=     4.7781
   XZ=    -2.6510   YZ=     5.1649   ZZ=    30.6531
   Eigenvalues:    25.8755    28.6136    37.6782
     27  H    Isotropic =    31.6323   Anisotropy =     6.6111
   XX=    34.8253   YX=    -0.4608   ZX=     4.0012
   XY=    -2.6586   YY=    30.0164   ZY=     3.3062
   XZ=     1.3870   YZ=     3.2665   ZZ=    30.0551
   Eigenvalues:    25.7449    33.1122    36.0396
     28  H    Isotropic =    30.7044   Anisotropy =     7.8733
   XX=    28.9600   YX=     1.8532   ZX=    -0.6872
   XY=    -0.6741   YY=    34.2612   ZY=    -3.9935
   XZ=    -2.4222   YZ=    -2.3865   ZZ=    28.8919
   Eigenvalues:    26.7506    29.4093    35.9533
     29  H    Isotropic =    30.3848   Anisotropy =     8.4383
   XX=    29.0128   YX=     0.5911   ZX=    -2.0927
   XY=     0.2618   YY=    29.7963   ZY=    -3.5282
   XZ=    -1.5688   YZ=    -5.1291   ZZ=    32.3452
   Eigenvalues:    26.3183    28.8258    36.0103
     30  H    Isotropic =    30.5564   Anisotropy =    11.5527
   XX=    38.2062   YX=     0.3219   ZX=     1.2454
   XY=     0.0393   YY=    26.3296   ZY=     0.0038
   XZ=     0.2381   YZ=    -0.1353   ZZ=    27.1336
   Eigenvalues:    26.3191    27.0920    38.2582
     31  H    Isotropic =    30.2309   Anisotropy =     6.3583
   XX=    29.8144   YX=     0.2831   ZX=    -2.0946
   XY=     0.2448   YY=    32.2243   ZY=     2.6658
   XZ=    -2.9181   YZ=     3.9309   ZZ=    28.6539
   Eigenvalues:    25.4521    30.7707    34.4697
 End of Minotr Frequency-dependent properties file   721 does not exist.
 End of Minotr Frequency-dependent properties file   722 does not exist.

 **********************************************************************

            Population analysis using the SCF density.

 **********************************************************************

 Orbital symmetries:
       Occupied  (A) (A) (A) (A) (A) (A) (A) (A) (A) (A) (A) (A)
                 (A) (A) (A) (A) (A) (A) (A) (A) (A) (A) (A) (A)
                 (A) (A) (A) (A) (A) (A) (A) (A) (A) (A) (A) (A)
                 (A) (A) (A) (A) (A) (A) (A) (A) (A) (A) (A) (A)
                 (A) (A) (A) (A) (A) (A) (A) (A)
       Virtual   (A) (A) (A) (A) (A) (A) (A) (A) (A) (A) (A) (A)
                 (A) (A) (A) (A) (A) (A) (A) (A) (A) (A) (A) (A)
                 (A) (A) (A) (A) (A) (A) (A) (A) (A) (A) (A) (A)
                 (A) (A) (A) (A) (A) (A) (A) (A) (A) (A) (A) (A)
                 (A) (A) (A) (A) (A) (A) (A) (A) (A) (A) (A) (A)
                 (A) (A) (A) (A) (A) (A) (A) (A) (A) (A) (A) (A)
                 (A) (A) (A) (A) (A) (A) (A) (A) (A) (A) (A) (A)
                 (A) (A) (A) (A) (A) (A) (A) (A) (A) (A) (A) (A)
                 (A) (A) (A) (A) (A) (A) (A) (A) (A) (A) (A) (A)
                 (A) (A) (A) (A) (A) (A) (A) (A) (A) (A) (A) (A)
                 (A) (A) (A) (A) (A) (A) (A) (A) (A) (A) (A) (A)
                 (A) (A) (A) (A) (A) (A) (A) (A) (A) (A) (A) (A)
                 (A) (A) (A) (A) (A) (A) (A) (A) (A) (A) (A) (A)
                 (A) (A) (A) (A) (A) (A) (A) (A) (A) (A) (A) (A)
                 (A) (A) (A) (A) (A) (A) (A) (A) (A) (A) (A) (A)
                 (A) (A) (A) (A) (A) (A) (A) (A) (A) (A) (A) (A)
                 (A) (A) (A) (A) (A) (A) (A) (A) (A) (A) (A) (A)
                 (A) (A) (A) (A) (A) (A) (A) (A) (A) (A) (A) (A)
                 (A) (A) (A) (A) (A) (A) (A) (A) (A) (A) (A) (A)
                 (A) (A) (A) (A) (A) (A) (A) (A) (A) (A) (A) (A)
                 (A) (A) (A) (A) (A) (A) (A) (A) (A) (A) (A) (A)
                 (A) (A) (A) (A) (A) (A) (A) (A) (A) (A) (A) (A)
                 (A) (A) (A) (A) (A) (A) (A) (A) (A) (A) (A) (A)
                 (A) (A) (A) (A) (A) (A) (A) (A) (A) (A) (A) (A)
                 (A) (A) (A) (A) (A) (A) (A) (A) (A) (A) (A) (A)
                 (A) (A) (A) (A) (A) (A) (A) (A) (A)
 The electronic state is 1-A.
 Alpha  occ. eigenvalues --  -19.33699 -19.28138 -19.27595 -10.44461 -10.36384
 Alpha  occ. eigenvalues --  -10.35456 -10.32101 -10.31550 -10.30676 -10.30607
 Alpha  occ. eigenvalues --  -10.30576 -10.30538 -10.30467 -10.28916 -10.28812
 Alpha  occ. eigenvalues --   -1.21703  -1.13217  -1.12412  -0.96165  -0.91364
 Alpha  occ. eigenvalues --   -0.87159  -0.85124  -0.84643  -0.77812  -0.76579
 Alpha  occ. eigenvalues --   -0.71435  -0.70169  -0.67103  -0.65111  -0.61942
 Alpha  occ. eigenvalues --   -0.60521  -0.59995  -0.58239  -0.55926  -0.54652
 Alpha  occ. eigenvalues --   -0.53501  -0.53179  -0.51328  -0.50993  -0.50182
 Alpha  occ. eigenvalues --   -0.49510  -0.47990  -0.47152  -0.46512  -0.45707
 Alpha  occ. eigenvalues --   -0.44426  -0.43802  -0.43225  -0.42493  -0.42070
 Alpha  occ. eigenvalues --   -0.41016  -0.39319  -0.37157  -0.36243  -0.33228
 Alpha  occ. eigenvalues --   -0.32566
 Alpha virt. eigenvalues --    0.04616   0.05450   0.06832   0.06975   0.07748
 Alpha virt. eigenvalues --    0.08089   0.08613   0.09257   0.09855   0.10373
 Alpha virt. eigenvalues --    0.10808   0.10915   0.11869   0.12185   0.12760
 Alpha virt. eigenvalues --    0.13261   0.13809   0.14257   0.14364   0.15260
 Alpha virt. eigenvalues --    0.15458   0.15962   0.16729   0.17323   0.17721
 Alpha virt. eigenvalues --    0.18453   0.19003   0.19453   0.19765   0.20079
 Alpha virt. eigenvalues --    0.20871   0.21267   0.21411   0.22004   0.22190
 Alpha virt. eigenvalues --    0.22782   0.23417   0.24036   0.24416   0.24593
 Alpha virt. eigenvalues --    0.25468   0.25875   0.26222   0.26627   0.27291
 Alpha virt. eigenvalues --    0.27500   0.27572   0.28159   0.28385   0.28739
 Alpha virt. eigenvalues --    0.29561   0.29758   0.30106   0.30824   0.31367
 Alpha virt. eigenvalues --    0.31689   0.32141   0.32816   0.33467   0.33575
 Alpha virt. eigenvalues --    0.34070   0.34737   0.34791   0.35578   0.36137
 Alpha virt. eigenvalues --    0.36379   0.37487   0.37779   0.38312   0.39071
 Alpha virt. eigenvalues --    0.39443   0.39772   0.40002   0.40622   0.41392
 Alpha virt. eigenvalues --    0.42336   0.42795   0.42964   0.43784   0.44718
 Alpha virt. eigenvalues --    0.45772   0.46290   0.46787   0.47472   0.47636
 Alpha virt. eigenvalues --    0.49137   0.49686   0.50885   0.52732   0.53256
 Alpha virt. eigenvalues --    0.54712   0.57022   0.60039   0.66565   0.69855
 Alpha virt. eigenvalues --    0.73106   0.73968   0.74536   0.75603   0.75930
 Alpha virt. eigenvalues --    0.77376   0.77561   0.78225   0.79539   0.81256
 Alpha virt. eigenvalues --    0.81820   0.82746   0.83233   0.83970   0.84110
 Alpha virt. eigenvalues --    0.85093   0.85962   0.88114   0.88737   0.89296
 Alpha virt. eigenvalues --    0.89652   0.90260   0.92502   0.92895   0.96006
 Alpha virt. eigenvalues --    0.97080   0.98175   0.98671   1.00477   1.01860
 Alpha virt. eigenvalues --    1.02621   1.03240   1.05342   1.06553   1.07766
 Alpha virt. eigenvalues --    1.08515   1.09418   1.10037   1.10804   1.12369
 Alpha virt. eigenvalues --    1.13971   1.15849   1.16375   1.18644   1.18959
 Alpha virt. eigenvalues --    1.20161   1.22078   1.22411   1.24553   1.24993
 Alpha virt. eigenvalues --    1.27556   1.28135   1.28863   1.30299   1.32237
 Alpha virt. eigenvalues --    1.33241   1.33537   1.35903   1.36383   1.36981
 Alpha virt. eigenvalues --    1.39206   1.40442   1.42220   1.43865   1.44247
 Alpha virt. eigenvalues --    1.45096   1.45561   1.47337   1.48729   1.50065
 Alpha virt. eigenvalues --    1.50345   1.51432   1.53855   1.54637   1.55664
 Alpha virt. eigenvalues --    1.57128   1.59196   1.61294   1.64142   1.64944
 Alpha virt. eigenvalues --    1.69032   1.70558   1.73206   1.74878   1.75645
 Alpha virt. eigenvalues --    1.77737   1.79513   1.82923   1.84369   1.85953
 Alpha virt. eigenvalues --    1.89603   1.91065   1.92545   1.93671   1.94728
 Alpha virt. eigenvalues --    1.95985   1.97083   1.98141   1.98862   2.00339
 Alpha virt. eigenvalues --    2.01433   2.01861   2.04809   2.05171   2.06361
 Alpha virt. eigenvalues --    2.07036   2.08094   2.09896   2.10394   2.11160
 Alpha virt. eigenvalues --    2.12161   2.14035   2.15354   2.17135   2.17605
 Alpha virt. eigenvalues --    2.19563   2.20862   2.21494   2.22328   2.23358
 Alpha virt. eigenvalues --    2.24505   2.26484   2.27493   2.29889   2.30579
 Alpha virt. eigenvalues --    2.33773   2.36399   2.37184   2.39085   2.40410
 Alpha virt. eigenvalues --    2.40890   2.42458   2.45567   2.47916   2.48291
 Alpha virt. eigenvalues --    2.49145   2.50537   2.50798   2.52678   2.54455
 Alpha virt. eigenvalues --    2.56209   2.56629   2.57295   2.58247   2.62115
 Alpha virt. eigenvalues --    2.62461   2.63240   2.64968   2.65886   2.68341
 Alpha virt. eigenvalues --    2.68962   2.71783   2.72343   2.72913   2.75368
 Alpha virt. eigenvalues --    2.76695   2.78009   2.80262   2.82103   2.83414
 Alpha virt. eigenvalues --    2.84156   2.85620   2.86622   2.88009   2.88220
 Alpha virt. eigenvalues --    2.91369   2.92102   2.94638   2.95703   2.95982
 Alpha virt. eigenvalues --    2.98388   3.01027   3.03126   3.06619   3.11111
 Alpha virt. eigenvalues --    3.13037   3.15916   3.16660   3.18191   3.27572
 Alpha virt. eigenvalues --    3.28660   3.29133   3.36713   3.37178   3.38530
 Alpha virt. eigenvalues --    3.39044   3.43204   3.44895   3.48879   3.51742
 Alpha virt. eigenvalues --    3.54158   3.57469   3.58908   3.61287   3.62722
 Alpha virt. eigenvalues --    3.64359   3.65406   3.73095   3.99969   4.39987
 Alpha virt. eigenvalues --    4.41887   4.43543   4.44951   4.51836   4.55781
 Alpha virt. eigenvalues --    4.57071   4.59853   4.64038   4.70095   4.72366
 Alpha virt. eigenvalues --    4.74784   4.81171   4.94168   4.97586
          Condensed to atoms (all electrons):
              1          2          3          4          5          6
     1  C   13.737072   0.095878  -1.006990  -2.394029  -6.060360   0.026245
     2  C    0.095878   6.444346  -0.066279  -0.002251  -0.749271   0.421379
     3  C   -1.006990  -0.066279   6.341445   0.137737   0.215615   0.478805
     4  C   -2.394029  -0.002251   0.137737  12.801515  -1.011516  -0.443874
     5  C   -6.060360  -0.749271   0.215615  -1.011516  14.387668   0.278262
     6  C    0.026245   0.421379   0.478805  -0.443874   0.278262   5.357968
     7  C    2.261880  -0.214381  -0.230489  -3.255820  -1.803163  -0.208629
     8  C   -0.544336  -0.018771   0.037556   0.379555   0.542250  -0.024626
     9  C   -0.109533  -0.021740  -0.005690  -0.564904   0.122743  -0.002802
    10  O   -0.021304   0.001192   0.000582  -0.017635   0.028030  -0.000098
    11  C    0.006550   0.000378  -0.000548   0.000141  -0.005109   0.000097
    12  O   -0.119736   0.062521  -0.018838   0.237163  -0.012204  -0.006279
    13  C    0.063251   0.015929  -0.050457   0.074116  -0.064886   0.016035
    14  O   -0.000581  -0.000724  -0.003812   0.016552  -0.003334   0.000193
    15  C   -0.001383   0.000684  -0.000351  -0.015703   0.001772  -0.000043
    16  H    0.242956   0.003362   0.038816   0.036726  -0.001677  -0.005334
    17  H    0.007538   0.267633  -0.003936   0.036567   0.017188   0.002841
    18  H    0.043047   0.002298   0.267064   0.012722  -0.009715   0.014232
    19  H    0.041906  -0.053852  -0.003496   0.046089   0.222038  -0.013959
    20  H   -0.005067   0.021414   0.027286   0.004782  -0.004211   0.280334
    21  H    0.102058  -0.001873   0.042086  -0.112409  -0.114843  -0.005089
    22  H    0.022955  -0.002652   0.000901   0.020044  -0.038992  -0.000981
    23  H   -0.000176   0.000024  -0.000006  -0.000594   0.000194  -0.000001
    24  H   -0.000262   0.000004  -0.000018  -0.001698   0.000397   0.000001
    25  H    0.004122  -0.009417   0.003518  -0.020072   0.013518   0.000064
    26  H    0.009386  -0.002444   0.000453  -0.011289  -0.009873   0.000201
    27  H    0.027268   0.002383  -0.003168   0.032790  -0.004853   0.005061
    28  H    0.003084  -0.000160  -0.005841  -0.022681   0.001088  -0.000686
    29  H   -0.000004   0.000006   0.000001  -0.000320   0.000139   0.000000
    30  H    0.000001   0.000000   0.000000   0.000060  -0.000004   0.000000
    31  H   -0.000033   0.000001  -0.000003  -0.000188   0.000017   0.000000
              7          8          9         10         11         12
     1  C    2.261880  -0.544336  -0.109533  -0.021304   0.006550  -0.119736
     2  C   -0.214381  -0.018771  -0.021740   0.001192   0.000378   0.062521
     3  C   -0.230489   0.037556  -0.005690   0.000582  -0.000548  -0.018838
     4  C   -3.255820   0.379555  -0.564904  -0.017635   0.000141   0.237163
     5  C   -1.803163   0.542250   0.122743   0.028030  -0.005109  -0.012204
     6  C   -0.208629  -0.024626  -0.002802  -0.000098   0.000097  -0.006279
     7  C    9.882803  -1.173628   0.323448  -0.000818   0.022242  -0.093911
     8  C   -1.173628   8.080479  -0.995291  -0.415364  -0.096350  -0.029512
     9  C    0.323448  -0.995291   6.379752   0.399151  -0.048052  -0.014512
    10  O   -0.000818  -0.415364   0.399151   8.528891   0.053906   0.008390
    11  C    0.022242  -0.096350  -0.048052   0.053906   5.144957  -0.001574
    12  O   -0.093911  -0.029512  -0.014512   0.008390  -0.001574   8.371361
    13  C   -0.104780  -0.006478   0.003673   0.032126   0.000839   0.029769
    14  O   -0.037042  -0.032664   0.523741  -0.142062   0.016653  -0.001505
    15  C    0.011276  -0.053784   0.029097  -0.055509   0.254642   0.001540
    16  H    0.002895  -0.000239  -0.004689  -0.000005  -0.000004  -0.000042
    17  H   -0.001176  -0.000365   0.000028  -0.000001   0.000000  -0.000034
    18  H   -0.002759  -0.000284   0.000014   0.000000   0.000000   0.000000
    19  H    0.067065   0.001387   0.016575  -0.000081   0.000058   0.001126
    20  H    0.002106  -0.000188  -0.000037   0.000000   0.000000  -0.000001
    21  H    0.347808   0.062536   0.011462  -0.001309   0.000959  -0.050492
    22  H   -0.047628   0.421440  -0.033197  -0.000760  -0.002286  -0.002121
    23  H   -0.000813  -0.006014   0.016573  -0.059294   0.417538   0.000640
    24  H   -0.003396   0.012072   0.005877  -0.039851   0.393974  -0.000268
    25  H    0.094237  -0.072364  -0.007360   0.020139   0.006115   0.211053
    26  H    0.039031  -0.140395   0.051452  -0.000211   0.000182  -0.000388
    27  H   -0.048868  -0.046526  -0.022843  -0.000080  -0.000015  -0.000506
    28  H    0.004977  -0.013863  -0.001575  -0.000166   0.000027   0.000299
    29  H   -0.000463  -0.000731   0.012810  -0.005896  -0.044429  -0.000027
    30  H   -0.000235   0.004217   0.003554   0.006787  -0.047431   0.000009
    31  H   -0.000043  -0.005582   0.001886  -0.005860  -0.045394   0.000006
             13         14         15         16         17         18
     1  C    0.063251  -0.000581  -0.001383   0.242956   0.007538   0.043047
     2  C    0.015929  -0.000724   0.000684   0.003362   0.267633   0.002298
     3  C   -0.050457  -0.003812  -0.000351   0.038816  -0.003936   0.267064
     4  C    0.074116   0.016552  -0.015703   0.036726   0.036567   0.012722
     5  C   -0.064886  -0.003334   0.001772  -0.001677   0.017188  -0.009715
     6  C    0.016035   0.000193  -0.000043  -0.005334   0.002841   0.014232
     7  C   -0.104780  -0.037042   0.011276   0.002895  -0.001176  -0.002759
     8  C   -0.006478  -0.032664  -0.053784  -0.000239  -0.000365  -0.000284
     9  C    0.003673   0.523741   0.029097  -0.004689   0.000028   0.000014
    10  O    0.032126  -0.142062  -0.055509  -0.000005  -0.000001   0.000000
    11  C    0.000839   0.016653   0.254642  -0.000004   0.000000   0.000000
    12  O    0.029769  -0.001505   0.001540  -0.000042  -0.000034   0.000000
    13  C    5.418573  -0.022491  -0.002860   0.004378   0.000311   0.000229
    14  O   -0.022491   8.199385  -0.041913   0.000001   0.000000   0.000000
    15  C   -0.002860  -0.041913   5.233165   0.000003   0.000000   0.000000
    16  H    0.004378   0.000001   0.000003   0.507741   0.000011  -0.003856
    17  H    0.000311   0.000000   0.000000   0.000011   0.496508  -0.000123
    18  H    0.000229   0.000000   0.000000  -0.003856  -0.000123   0.496642
    19  H   -0.006393  -0.000008  -0.000014  -0.000107  -0.004032   0.000011
    20  H   -0.000054   0.000000   0.000000  -0.000121  -0.003821  -0.003863
    21  H   -0.017982  -0.000569   0.000571   0.001918   0.000002  -0.000005
    22  H   -0.039374   0.004239   0.002873  -0.000011   0.000001   0.000000
    23  H    0.000235   0.000321  -0.035056   0.000000   0.000000   0.000000
    24  H   -0.000285  -0.000520  -0.034153   0.000000   0.000000   0.000000
    25  H   -0.004125   0.001060  -0.001139  -0.000007   0.000000   0.000000
    26  H    0.427073  -0.001891  -0.000063   0.000005   0.000000   0.000000
    27  H    0.416596   0.001945  -0.000010  -0.000053  -0.000005  -0.000003
    28  H    0.393362  -0.001734   0.000243  -0.000152   0.000000  -0.000001
    29  H   -0.000188  -0.000474   0.401785   0.000000   0.000000   0.000000
    30  H    0.000130  -0.000132   0.397473   0.000000   0.000000   0.000000
    31  H    0.000329   0.001649   0.417365   0.000000   0.000000   0.000000
             19         20         21         22         23         24
     1  C    0.041906  -0.005067   0.102058   0.022955  -0.000176  -0.000262
     2  C   -0.053852   0.021414  -0.001873  -0.002652   0.000024   0.000004
     3  C   -0.003496   0.027286   0.042086   0.000901  -0.000006  -0.000018
     4  C    0.046089   0.004782  -0.112409   0.020044  -0.000594  -0.001698
     5  C    0.222038  -0.004211  -0.114843  -0.038992   0.000194   0.000397
     6  C   -0.013959   0.280334  -0.005089  -0.000981  -0.000001   0.000001
     7  C    0.067065   0.002106   0.347808  -0.047628  -0.000813  -0.003396
     8  C    0.001387  -0.000188   0.062536   0.421440  -0.006014   0.012072
     9  C    0.016575  -0.000037   0.011462  -0.033197   0.016573   0.005877
    10  O   -0.000081   0.000000  -0.001309  -0.000760  -0.059294  -0.039851
    11  C    0.000058   0.000000   0.000959  -0.002286   0.417538   0.393974
    12  O    0.001126  -0.000001  -0.050492  -0.002121   0.000640  -0.000268
    13  C   -0.006393  -0.000054  -0.017982  -0.039374   0.000235  -0.000285
    14  O   -0.000008   0.000000  -0.000569   0.004239   0.000321  -0.000520
    15  C   -0.000014   0.000000   0.000571   0.002873  -0.035056  -0.034153
    16  H   -0.000107  -0.000121   0.001918  -0.000011   0.000000   0.000000
    17  H   -0.004032  -0.003821   0.000002   0.000001   0.000000   0.000000
    18  H    0.000011  -0.003863  -0.000005   0.000000   0.000000   0.000000
    19  H    0.505012  -0.000117  -0.000040  -0.000491   0.000000   0.000000
    20  H   -0.000117   0.499216   0.000000   0.000000   0.000000   0.000000
    21  H   -0.000040   0.000000   0.573785   0.003157   0.000002  -0.000013
    22  H   -0.000491   0.000000   0.003157   0.481440  -0.000002  -0.000019
    23  H    0.000000   0.000000   0.000002  -0.000002   0.522933  -0.030766
    24  H    0.000000   0.000000  -0.000013  -0.000019  -0.030766   0.517993
    25  H   -0.000016   0.000000  -0.003221  -0.000977  -0.000131   0.000075
    26  H    0.000004   0.000000  -0.000119  -0.002541   0.000000   0.000001
    27  H   -0.000055   0.000000   0.000036  -0.003223   0.000000   0.000000
    28  H   -0.000004   0.000000   0.001505   0.003579   0.000000  -0.000002
    29  H    0.000000   0.000000   0.000000  -0.000022  -0.004956   0.003797
    30  H    0.000000   0.000000   0.000000  -0.000001  -0.001359  -0.000977
    31  H    0.000000   0.000000   0.000000   0.000003   0.003877  -0.004852
             25         26         27         28         29         30
     1  C    0.004122   0.009386   0.027268   0.003084  -0.000004   0.000001
     2  C   -0.009417  -0.002444   0.002383  -0.000160   0.000006   0.000000
     3  C    0.003518   0.000453  -0.003168  -0.005841   0.000001   0.000000
     4  C   -0.020072  -0.011289   0.032790  -0.022681  -0.000320   0.000060
     5  C    0.013518  -0.009873  -0.004853   0.001088   0.000139  -0.000004
     6  C    0.000064   0.000201   0.005061  -0.000686   0.000000   0.000000
     7  C    0.094237   0.039031  -0.048868   0.004977  -0.000463  -0.000235
     8  C   -0.072364  -0.140395  -0.046526  -0.013863  -0.000731   0.004217
     9  C   -0.007360   0.051452  -0.022843  -0.001575   0.012810   0.003554
    10  O    0.020139  -0.000211  -0.000080  -0.000166  -0.005896   0.006787
    11  C    0.006115   0.000182  -0.000015   0.000027  -0.044429  -0.047431
    12  O    0.211053  -0.000388  -0.000506   0.000299  -0.000027   0.000009
    13  C   -0.004125   0.427073   0.416596   0.393362  -0.000188   0.000130
    14  O    0.001060  -0.001891   0.001945  -0.001734  -0.000474  -0.000132
    15  C   -0.001139  -0.000063  -0.000010   0.000243   0.401785   0.397473
    16  H   -0.000007   0.000005  -0.000053  -0.000152   0.000000   0.000000
    17  H    0.000000   0.000000  -0.000005   0.000000   0.000000   0.000000
    18  H    0.000000   0.000000  -0.000003  -0.000001   0.000000   0.000000
    19  H   -0.000016   0.000004  -0.000055  -0.000004   0.000000   0.000000
    20  H    0.000000   0.000000   0.000000   0.000000   0.000000   0.000000
    21  H   -0.003221  -0.000119   0.000036   0.001505   0.000000   0.000000
    22  H   -0.000977  -0.002541  -0.003223   0.003579  -0.000022  -0.000001
    23  H   -0.000131   0.000000   0.000000   0.000000  -0.004956  -0.001359
    24  H    0.000075   0.000001   0.000000  -0.000002   0.003797  -0.000977
    25  H    0.357261  -0.000003   0.000006  -0.000003  -0.000004  -0.000001
    26  H   -0.000003   0.517627  -0.026136  -0.024183   0.000000   0.000000
    27  H    0.000006  -0.026136   0.515040  -0.025047   0.000000   0.000000
    28  H   -0.000003  -0.024183  -0.025047   0.503492   0.000000   0.000000
    29  H   -0.000004   0.000000   0.000000   0.000000   0.515232  -0.022206
    30  H   -0.000001   0.000000   0.000000   0.000000  -0.022206   0.502134
    31  H    0.000000  -0.000004   0.000000   0.000000  -0.029222  -0.021703
             31
     1  C   -0.000033
     2  C    0.000001
     3  C   -0.000003
     4  C   -0.000188
     5  C    0.000017
     6  C    0.000000
     7  C   -0.000043
     8  C   -0.005582
     9  C    0.001886
    10  O   -0.005860
    11  C   -0.045394
    12  O    0.000006
    13  C    0.000329
    14  O    0.001649
    15  C    0.417365
    16  H    0.000000
    17  H    0.000000
    18  H    0.000000
    19  H    0.000000
    20  H    0.000000
    21  H    0.000000
    22  H    0.000003
    23  H    0.003877
    24  H   -0.004852
    25  H    0.000000
    26  H   -0.000004
    27  H    0.000000
    28  H    0.000000
    29  H   -0.029222
    30  H   -0.021703
    31  H    0.507480
 Mulliken atomic charges:
              1
     1  C   -0.431406
     2  C   -0.195618
     3  C   -0.191944
     4  C    0.038425
     5  C    0.063093
     6  C   -0.169313
     7  C    0.168274
     8  C    0.135864
     9  C   -0.069608
    10  O   -0.312892
    11  C   -0.028067
    12  O   -0.571929
    13  C   -0.576601
    14  O   -0.474283
    15  C   -0.510506
    16  H    0.177485
    17  H    0.184866
    18  H    0.184349
    19  H    0.181394
    20  H    0.182342
    21  H    0.160081
    22  H    0.214645
    23  H    0.176830
    24  H    0.182891
    25  H    0.407671
    26  H    0.174125
    27  H    0.180266
    28  H    0.184444
    29  H    0.175171
    30  H    0.179682
    31  H    0.180270
 Sum of Mulliken atomic charges =   0.00000
 Mulliken charges with hydrogens summed into heavy atoms:
              1
     1  C   -0.253921
     2  C   -0.010752
     3  C   -0.007596
     4  C    0.038425
     5  C    0.244487
     6  C    0.013028
     7  C    0.328355
     8  C    0.350510
     9  C   -0.069608
    10  O   -0.312892
    11  C    0.331654
    12  O   -0.164258
    13  C   -0.037765
    14  O   -0.474283
    15  C    0.024617
 Sum of Mulliken charges with hydrogens summed into heavy atoms =   0.00000
 Electronic spatial extent (au):  <R**2>=           4257.0339
 Charge=              0.0000 electrons
 Dipole moment (field-independent basis, Debye):
    X=             -1.5253    Y=             -0.3543    Z=              0.6847  Tot=              1.7091
 Quadrupole moment (field-independent basis, Debye-Ang):
   XX=            -73.3449   YY=            -98.5381   ZZ=            -86.0712
   XY=             11.8290   XZ=              2.5642   YZ=             -3.2350
 Traceless Quadrupole moment (field-independent basis, Debye-Ang):
   XX=             12.6399   YY=            -12.5534   ZZ=             -0.0865
   XY=             11.8290   XZ=              2.5642   YZ=             -3.2350
 Octapole moment (field-independent basis, Debye-Ang**2):
  XXX=            -44.3531  YYY=             -7.1010  ZZZ=             -2.8509  XYY=             -4.3134
  XXY=            -26.1137  XXZ=             -1.9670  XZZ=            -11.9652  YZZ=              0.3434
  YYZ=              4.5710  XYZ=            -23.7923
 Hexadecapole moment (field-independent basis, Debye-Ang**3):
 XXXX=          -4078.6794 YYYY=           -678.0822 ZZZZ=           -394.9570 XXXY=            137.4647
 XXXZ=             80.9093 YYYX=             46.8435 YYYZ=             -4.9679 ZZZX=             10.9421
 ZZZY=            -14.4762 XXYY=           -921.2937 XXZZ=           -828.6444 YYZZ=           -162.2789
 XXYZ=            -36.0586 YYXZ=              3.4664 ZZXY=              3.6755
 N-N= 9.970497470274D+02 E-N=-3.605705708437D+03  KE= 6.858989543596D+02
 1\1\GINC-COMPUTE-9-6\SP\RwB97XD\6-31+G(d,p)\C12H16O3\ELUCIANO.IQUIR\17
 -May-2022\0\\# wb97xd/6-31+g** scrf=(pcm,solvent=chloroform,smd,dovacu
 um) nmr\\comment\\0,1\C,0,-1.152682009,-2.756079206,0.308220099\C,0,-3
 .69973907,-1.719038166,-0.156461605\C,0,-2.284532344,-3.516722022,0.60
 8600527\C,0,-1.280714446,-1.464972436,-0.227218755\C,0,-2.569486178,-0
 .956940715,-0.456368027\C,0,-3.556813276,-2.997817563,0.377343619\C,0,
 -0.04717906,-0.635721013,-0.521159985\C,0,0.170153,0.530441591,0.46263
 5059\C,0,1.588380021,1.039901659,0.272730448\O,0,1.691688005,1.6957863
 33,-0.921400881\C,0,2.983087067,2.250011266,-1.222141843\O,0,-0.208298
 483,-0.135318072,-1.856596356\C,0,-0.020708111,0.149676503,1.934273738
 \O,0,2.509142789,0.880995565,1.061292058\C,0,3.115191437,3.631275187,-
 0.609087412\H,0,-0.168756033,-3.179658573,0.49689857\H,0,-4.690949132,
 -1.315478668,-0.345000732\H,0,-2.17305167,-4.515880004,1.021573793\H,0
 ,-2.694358976,0.035955043,-0.883542028\H,0,-4.436948665,-3.591837789,0
 .608329271\H,0,0.834336201,-1.288987574,-0.542997182\H,0,-0.50726845,1
 .364818057,0.237794274\H,0,3.052102998,2.322791211,-2.312435704\H,0,3.
 7885356,1.583918579,-0.892534075\H,0,0.539471824,0.459265824,-2.046165
 253\H,0,0.270542363,0.977270024,2.591295143\H,0,-1.066640887,-0.084390
 921,2.155394646\H,0,0.591758659,-0.717346095,2.206059813\H,0,2.3033860
 65,4.282238851,-0.949891925\H,0,4.071257263,4.086826869,-0.881928771\H
 ,0,3.049093499,3.585016257,0.482489476\\Version=EM64L-G09RevC.01\State
 =1-A\HF=-692.4444262\RMSD=2.217e-09\Dipole=0.2402428,0.6237314,-0.0733
 527\Quadrupole=2.4084775,5.4746496,-7.8831271,3.910487,-8.7846633,-5.7
 49351\PG=C01 [X(C12H16O3)]\\@


 THE REASON MAN'S BEST FRIEND IS A DOG IS BECAUSE
 HE WAGS HIS TAIL INSTEAD OF HIS TONGUE.
 Job cpu time:  0 days  0 hours 24 minutes 58.7 seconds.
 File lengths (MBytes):  RWF=    124 Int=      0 D2E=      0 Chk=      9 Scr=      1
 Normal termination of Gaussian 09 at Tue May 17 15:38:30 2022.
