 Entering Gaussian System, Link 0=g09
 Input=/home/eluciano.iquir/wb9/73b_021.gjc
 Output=/home/eluciano.iquir/wb9/73b_021.log
 Initial command:
 /share/apps/Gaussian09/EM64T.SSE4.2-enabled/g09/l1.exe /tmp/Gau-24194.inp -scrdir=/tmp/
 Entering Link 1 = /share/apps/Gaussian09/EM64T.SSE4.2-enabled/g09/l1.exe PID=     24195.
  
 Copyright (c) 1988,1990,1992,1993,1995,1998,2003,2009,2011,
            Gaussian, Inc.  All Rights Reserved.
  
 This is part of the Gaussian(R) 09 program.  It is based on
 the Gaussian(R) 03 system (copyright 2003, Gaussian, Inc.),
 the Gaussian(R) 98 system (copyright 1998, Gaussian, Inc.),
 the Gaussian(R) 94 system (copyright 1995, Gaussian, Inc.),
 the Gaussian 92(TM) system (copyright 1992, Gaussian, Inc.),
 the Gaussian 90(TM) system (copyright 1990, Gaussian, Inc.),
 the Gaussian 88(TM) system (copyright 1988, Gaussian, Inc.),
 the Gaussian 86(TM) system (copyright 1986, Carnegie Mellon
 University), and the Gaussian 82(TM) system (copyright 1983,
 Carnegie Mellon University). Gaussian is a federally registered
 trademark of Gaussian, Inc.
  
 This software contains proprietary and confidential information,
 including trade secrets, belonging to Gaussian, Inc.
  
 This software is provided under written license and may be
 used, copied, transmitted, or stored only in accord with that
 written license.
  
 The following legend is applicable only to US Government
 contracts under FAR:
  
                    RESTRICTED RIGHTS LEGEND
  
 Use, reproduction and disclosure by the US Government is
 subject to restrictions as set forth in subparagraphs (a)
 and (c) of the Commercial Computer Software - Restricted
 Rights clause in FAR 52.227-19.
  
 Gaussian, Inc.
 340 Quinnipiac St., Bldg. 40, Wallingford CT 06492
  
  
 ---------------------------------------------------------------
 Warning -- This program may not be used in any manner that
 competes with the business of Gaussian, Inc. or will provide
 assistance to any competitor of Gaussian, Inc.  The licensee
 of this program is prohibited from giving any competitor of
 Gaussian, Inc. access to this program.  By using this program,
 the user acknowledges that Gaussian, Inc. is engaged in the
 business of creating and licensing software in the field of
 computational chemistry and represents and warrants to the
 licensee that it is not a competitor of Gaussian, Inc. and that
 it will not use this program in any manner prohibited above.
 ---------------------------------------------------------------
  

 Cite this work as:
 Gaussian 09, Revision C.01,
 M. J. Frisch, G. W. Trucks, H. B. Schlegel, G. E. Scuseria, 
 M. A. Robb, J. R. Cheeseman, G. Scalmani, V. Barone, B. Mennucci, 
 G. A. Petersson, H. Nakatsuji, M. Caricato, X. Li, H. P. Hratchian, 
 A. F. Izmaylov, J. Bloino, G. Zheng, J. L. Sonnenberg, M. Hada, 
 M. Ehara, K. Toyota, R. Fukuda, J. Hasegawa, M. Ishida, T. Nakajima, 
 Y. Honda, O. Kitao, H. Nakai, T. Vreven, J. A. Montgomery, Jr., 
 J. E. Peralta, F. Ogliaro, M. Bearpark, J. J. Heyd, E. Brothers, 
 K. N. Kudin, V. N. Staroverov, T. Keith, R. Kobayashi, J. Normand, 
 K. Raghavachari, A. Rendell, J. C. Burant, S. S. Iyengar, J. Tomasi, 
 M. Cossi, N. Rega, J. M. Millam, M. Klene, J. E. Knox, J. B. Cross, 
 V. Bakken, C. Adamo, J. Jaramillo, R. Gomperts, R. E. Stratmann, 
 O. Yazyev, A. J. Austin, R. Cammi, C. Pomelli, J. W. Ochterski, 
 R. L. Martin, K. Morokuma, V. G. Zakrzewski, G. A. Voth, 
 P. Salvador, J. J. Dannenberg, S. Dapprich, A. D. Daniels, 
 O. Farkas, J. B. Foresman, J. V. Ortiz, J. Cioslowski, 
 and D. J. Fox, Gaussian, Inc., Wallingford CT, 2010.
 
 ******************************************
 Gaussian 09:  EM64L-G09RevC.01 23-Sep-2011
                17-May-2022 
 ******************************************
 %nprocshared=4
 Will use up to    4 processors via shared memory.
 ----------------------------------------------------------------
 # wb97xd/6-31+g** scrf=(pcm,solvent=chloroform,smd,dovacuum) nmr
 ----------------------------------------------------------------
 1/38=1/1;
 2/12=2,17=6,18=5,40=1/2;
 3/5=1,6=6,7=111,11=2,16=1,25=1,30=1,70=32101,72=7,74=-58/1,2,8,3;
 4//1;
 5/5=2,38=5,53=7/2;
 8/6=1,10=90,11=11/1;
 10/13=100,45=16/2;
 6/7=2,8=2,9=2,10=2,28=1/1;
 99/9=1/99;
 -------
 comment
 -------
 Charge =  0 Multiplicity = 1
 Symbolic Z-Matrix:
 6                     0.2149   -1.40379  -1.59236 
 6                    -0.24515  -3.63755   0.00862 
 6                     1.06591  -2.50822  -1.67006 
 6                    -0.87715  -1.39832  -0.70876 
 6                    -1.09616  -2.53342   0.0871 
 6                     0.8366   -3.62384  -0.86845 
 6                    -1.77642  -0.17821  -0.62325 
 6                    -1.31723   0.89291   0.38394 
 6                    -0.05452   1.55582  -0.13164 
 8                     0.95788   1.53023   0.77304 
 6                     2.20098   2.11058   0.35192 
 8                    -3.1103   -0.59176  -0.29647 
 6                    -1.22646   0.38696   1.8265 
 8                     0.02007   2.06408  -1.2454 
 6                     2.2061    3.6       0.63935 
 1                     0.40985  -0.54617  -2.23425 
 1                    -0.43093  -4.50885   0.63096 
 1                     1.90577  -2.49826  -2.35983 
 1                    -1.94012  -2.56282   0.77386 
 1                     1.49707  -4.48441  -0.93077 
 1                    -1.84158   0.25461  -1.63036 
 1                    -2.07621   1.68806   0.40246 
 1                     2.39862   1.9045   -0.70629 
 1                     2.99333   1.62149   0.92791 
 1                    -3.70558   0.126    -0.5709 
 1                    -1.01219   1.21631   2.51027 
 1                    -2.16961  -0.06684   2.14733 
 1                    -0.42811  -0.35103   1.95514 
 1                     1.42072   4.11203   0.07451 
 1                     3.17085   4.04256   0.37588 
 1                     2.00908   3.78738   1.70002 
 
                          Input orientation:                          
 ---------------------------------------------------------------------
 Center     Atomic      Atomic             Coordinates (Angstroms)
 Number     Number       Type             X           Y           Z
 ---------------------------------------------------------------------
      1          6           0        0.214896   -1.403794   -1.592361
      2          6           0       -0.245153   -3.637554    0.008618
      3          6           0        1.065910   -2.508224   -1.670062
      4          6           0       -0.877155   -1.398315   -0.708756
      5          6           0       -1.096162   -2.533425    0.087103
      6          6           0        0.836598   -3.623835   -0.868453
      7          6           0       -1.776424   -0.178208   -0.623254
      8          6           0       -1.317226    0.892914    0.383939
      9          6           0       -0.054521    1.555817   -0.131645
     10          8           0        0.957879    1.530225    0.773042
     11          6           0        2.200975    2.110578    0.351917
     12          8           0       -3.110299   -0.591763   -0.296466
     13          6           0       -1.226464    0.386957    1.826504
     14          8           0        0.020074    2.064084   -1.245399
     15          6           0        2.206100    3.599996    0.639348
     16          1           0        0.409853   -0.546173   -2.234255
     17          1           0       -0.430926   -4.508850    0.630964
     18          1           0        1.905772   -2.498260   -2.359833
     19          1           0       -1.940120   -2.562823    0.773864
     20          1           0        1.497070   -4.484406   -0.930768
     21          1           0       -1.841582    0.254608   -1.630363
     22          1           0       -2.076207    1.688057    0.402456
     23          1           0        2.398622    1.904498   -0.706295
     24          1           0        2.993335    1.621490    0.927909
     25          1           0       -3.705579    0.126003   -0.570897
     26          1           0       -1.012189    1.216312    2.510271
     27          1           0       -2.169608   -0.066839    2.147326
     28          1           0       -0.428114   -0.351034    1.955137
     29          1           0        1.420718    4.112028    0.074509
     30          1           0        3.170850    4.042561    0.375881
     31          1           0        2.009076    3.787376    1.700016
 ---------------------------------------------------------------------
                    Distance matrix (angstroms):
                    1          2          3          4          5
     1  C    0.000000
     2  C    2.786478   0.000000
     3  C    1.396434   2.410858   0.000000
     4  C    1.404764   2.434798   2.435468   0.000000
     5  C    2.411542   1.396236   2.786183   1.403506   0.000000
     6  C    2.416431   1.392705   1.392748   2.813431   2.416121
     7  C    2.531124   3.835509   3.821472   1.518110   2.552334
     8  C    3.395295   4.670690   4.633141   2.576311   3.446270
     9  C    3.311431   5.198761   4.487597   3.120365   4.225490
    10  O    3.841305   5.360743   4.721176   3.760242   4.604655
    11  C    4.480574   6.256390   5.168182   4.786673   5.701579
    12  O    3.660008   4.192729   4.795864   2.409864   2.823814
    13  C    4.119823   4.523755   5.085570   3.120377   3.401635
    14  O    3.490633   5.843935   4.709577   3.616796   4.915143
    15  C    5.829522   7.667371   6.629009   6.025525   6.987757
    16  H    1.088830   3.875068   2.144381   2.170180   3.406751
    17  H    3.873194   1.086731   3.396725   3.416050   2.154212
    18  H    2.155442   3.396178   1.086854   3.417691   3.873026
    19  H    3.403889   2.147920   3.874528   2.164287   1.088472
    20  H    3.401742   2.152893   2.153544   3.900025   3.401065
    21  H    2.642128   4.514838   4.011025   2.124060   3.358342
    22  H    4.334512   5.645352   5.637110   3.492594   4.345209
    23  H    4.061843   6.181827   4.709255   4.651805   5.704222
    24  H    4.819111   6.244233   5.245852   5.174803   5.890183
    25  H    4.330565   5.145361   5.560074   3.215981   3.783461
    26  H    5.020187   5.514220   5.972089   4.149294   4.465347
    27  H    4.632339   4.585587   5.567889   3.405947   3.388341
    28  H    3.755862   3.824084   4.475225   2.897371   2.949350
    29  H    5.886999   7.926884   6.855447   6.021429   7.106116
    30  H    6.501878   8.413568   7.178401   6.867744   7.844384
    31  H    6.403677   7.941786   7.202887   6.404991   7.224716
                    6          7          8          9         10
     6  C    0.000000
     7  C    4.331323   0.000000
     8  C    5.158340   1.540325   0.000000
     9  C    5.307144   2.492683   1.516473   0.000000
    10  O    5.410504   3.513516   2.394508   1.357964   0.000000
    11  C    6.019495   4.691397   3.723100   2.372521   1.435076
    12  O    5.009853   1.434238   2.425351   3.738588   4.711343
    13  C    5.254091   2.573553   1.531412   2.563987   2.681082
    14  O    5.758579   2.939786   2.411380   1.226519   2.288796
    15  C    7.505513   5.632893   4.450545   3.143804   2.420719
    16  H    3.394044   2.740535   3.450900   3.009148   3.695347
    17  H    2.153629   4.705092   5.479563   6.124005   6.198338
    18  H    2.152734   4.685821   5.423658   5.024252   5.190578
    19  H    3.396044   2.768596   3.533009   4.619375   5.015121
    20  H    1.086595   5.417903   6.210015   6.287315   6.274511
    21  H    4.774460   1.098109   2.177107   2.670747   3.903913
    22  H    6.189979   2.150557   1.099385   2.095224   3.060706
    23  H    5.747058   4.666430   4.002429   2.543563   2.098632
    24  H    5.949107   5.328754   4.405413   3.227444   2.043378
    25  H    5.897559   1.953695   2.684045   3.945572   5.052312
    26  H    6.185532   3.513932   2.172308   2.830567   2.645312
    27  H    5.548371   2.800555   2.181104   3.507180   3.771001
    28  H    4.503707   2.914773   2.192393   2.851370   2.618676
    29  H    7.814983   5.395805   4.237308   2.958555   2.714383
    30  H    8.109915   6.579413   5.482989   4.104205   3.371470
    31  H    7.930813   5.954280   4.601550   3.548700   2.656883
                   11         12         13         14         15
    11  C    0.000000
    12  O    5.994387   0.000000
    13  C    4.110062   3.002287   0.000000
    14  O    2.703685   4.213458   3.715265   0.000000
    15  C    1.516907   6.834522   4.849273   3.269558   0.000000
    16  H    4.117612   4.018529   4.476385   2.818369   5.354886
    17  H    7.128927   4.835571   5.102071   6.850373   8.526861
    18  H    5.355569   5.749190   5.971665   5.060910   6.802500
    19  H    6.258385   2.529823   3.212251   5.415538   7.428968
    20  H    6.755337   6.064888   6.224979   6.720360   8.265927
    21  H    4.869941   2.026146   3.513661   2.624531   5.720746
    22  H    4.298297   2.599118   2.107803   2.692808   4.695719
    23  H    1.096060   6.061971   4.675387   2.444094   2.173139
    24  H    1.094901   6.606961   4.487566   3.709372   2.148835
    25  H    6.299009   0.972038   3.458560   4.253423   6.962850
    26  H    3.972735   3.943218   1.096030   3.986143   4.420371
    27  H    5.202560   2.670686   1.094705   4.565755   5.904786
    28  H    3.942329   3.510239   1.094778   4.034489   4.927578
    29  H    2.166000   6.541665   4.894202   2.810345   1.094552
    30  H    2.161895   7.834656   5.899501   4.058363   1.093627
    31  H    2.160057   7.026436   4.695484   3.949853   1.094964
                   16         17         18         19         20
    16  H    0.000000
    17  H    4.961774   0.000000
    18  H    2.462557   4.295054   0.000000
    19  H    4.317179   2.466802   4.961361   0.000000
    20  H    4.288450   2.481284   2.480734   4.290982   0.000000
    21  H    2.464730   5.458395   4.706704   3.705122   5.839031
    22  H    4.257290   6.415671   6.404033   4.269244   7.255694
    23  H    3.506515   7.136220   4.728781   6.400977   6.456104
    24  H    4.623032   7.028144   5.381857   6.470795   6.555567
    25  H    4.489473   5.800835   6.447814   3.486404   6.960815
    26  H    5.257288   6.053689   6.784574   4.261223   7.115850
    27  H    5.107018   5.005381   6.544846   2.858146   6.514146
    28  H    4.276829   4.363585   5.355050   2.928066   5.396253
    29  H    5.296326   8.835031   7.060964   7.505862   8.655351
    30  H    5.957549   9.282483   7.201867   8.361310   8.787380
    31  H    6.067590   8.713430   7.483467   7.535180   8.695146
                   21         22         23         24         25
    21  H    0.000000
    22  H    2.498435   0.000000
    23  H    4.642776   4.615221   0.000000
    24  H    5.638222   5.097135   1.761931   0.000000
    25  H    2.147905   2.458106   6.359454   7.025550   0.000000
    26  H    4.331006   2.407812   4.738515   4.325766   4.235177
    27  H    3.805504   2.476480   5.735682   5.567173   3.128119
    28  H    3.901346   3.047116   4.490109   4.080731   4.165356
    29  H    5.331874   4.267513   2.537546   3.066626   6.525632
    30  H    6.595307   5.751174   2.517688   2.489544   7.970012
    31  H    6.196729   4.772875   3.080148   2.501195   7.156814
                   26         27         28         29         30
    26  H    0.000000
    27  H    1.765736   0.000000
    28  H    1.762354   1.774966   0.000000
    29  H    4.498571   5.886420   5.184001   0.000000
    30  H    5.480978   6.967473   5.894936   1.777248   0.000000
    31  H    4.049065   5.702321   4.809514   1.758931   1.779936
                   31
    31  H    0.000000
 Stoichiometry    C12H16O3
 Framework group  C1[X(C12H16O3)]
 Deg. of freedom    87
 Full point group                 C1      NOp   1
 Largest Abelian subgroup         C1      NOp   1
 Largest concise Abelian subgroup C1      NOp   1
                         Standard orientation:                         
 ---------------------------------------------------------------------
 Center     Atomic      Atomic             Coordinates (Angstroms)
 Number     Number       Type             X           Y           Z
 ---------------------------------------------------------------------
      1          6           0       -1.346292   -1.017445   -1.010059
      2          6           0       -3.302382   -0.792730    0.961660
      3          6           0       -2.129100   -2.123044   -0.671103
      4          6           0       -1.527241    0.216844   -0.364189
      5          6           0       -2.519720    0.312973    0.623522
      6          6           0       -3.105544   -2.010746    0.315656
      7          6           0       -0.649847    1.399995   -0.731604
      8          6           0        0.667228    1.497793    0.061081
      9          6           0        1.589367    0.369871   -0.359802
     10          8           0        2.034401   -0.363818    0.692676
     11          6           0        2.889514   -1.472484    0.377898
     12          8           0       -1.393294    2.614795   -0.562524
     13          6           0        0.470241    1.627274    1.574241
     14          8           0        1.896248    0.165964   -1.529672
     15          6           0        4.333442   -1.013728    0.302927
     16          1           0       -0.594286   -1.127401   -1.789770
     17          1           0       -4.067696   -0.699686    1.727571
     18          1           0       -1.978436   -3.071010   -1.180917
     19          1           0       -2.690344    1.258895    1.134297
     20          1           0       -3.716628   -2.870193    0.577605
     21          1           0       -0.438448    1.332336   -1.807046
     22          1           0        1.179098    2.421328   -0.245053
     23          1           0        2.575975   -1.966930   -0.548689
     24          1           0        2.776444   -2.202717    1.185848
     25          1           0       -0.953497    3.294316   -1.100750
     26          1           0        1.429779    1.811712    2.070780
     27          1           0       -0.190917    2.465175    1.817490
     28          1           0        0.049313    0.717617    2.014564
     29          1           0        4.472048   -0.281246   -0.498512
     30          1           0        5.000650   -1.860932    0.120991
     31          1           0        4.630108   -0.524220    1.236371
 ---------------------------------------------------------------------
 Rotational constants (GHZ):      0.8763084      0.4093899      0.3370360
 Standard basis: 6-31+G(d,p) (6D, 7F)
 There are   365 symmetry adapted basis functions of A   symmetry.
 Integral buffers will be    131072 words long.
 Raffenetti 2 integral format.
 Two-electron integral symmetry is turned on.
   365 basis functions,   592 primitive gaussians,   365 cartesian basis functions
    56 alpha electrons       56 beta electrons
       nuclear repulsion energy      1018.2585092006 Hartrees.
 NAtoms=   31 NActive=   31 NUniq=   31 SFac= 1.00D+00 NAtFMM=   60 NAOKFM=F Big=F
 Nuclear repulsion after empirical dispersion term =     1018.2367379253 Hartrees.
 ------------------------------------------------------------------------------
 Polarizable Continuum Model (PCM)
 =================================
 Model                : C-PCM.
 Atomic radii         : SMD-Coulomb.
 Polarization charges : Total charges.
 Charge compensation  : None.
 Solution method      : Matrix inversion.
 Cavity type          : VdW (van der Waals Surface) (Alpha=1.000).
 Cavity algorithm     : GePol (No added spheres)
                        Default sphere list used, NSphG=   31.
                        Lebedev-Laikov grids with approx.  5.0 points / Ang**2.
                        Smoothing algorithm: Karplus/York (Gamma=1.0000).
                        Polarization charges: spherical gaussians, with
                                              point-specific exponents (IZeta= 3).
                        Self-potential: point-specific (ISelfS= 7).
                        Self-field    : sphere-specific E.n sum rule (ISelfD= 2).
 Solvent              : Chloroform, Eps=   4.711300 Eps(inf)=   2.090627
 ------------------------------------------------------------------------------
 ------------------------------------------------------------------------------
 Atomic radii for non-electrostatic terms: SMD-CDS.
 ------------------------------------------------------------------------------
 Nuclear repulsion after PCM non-electrostatic terms =     1018.2300483379 Hartrees.
 One-electron integrals computed using PRISM.
 NBasis=   365 RedAO= T  NBF=   365
 NBsUse=   365 1.00D-06 NBFU=   365
 Harris functional with IExCor= 4639 diagonalized for initial guess.
 ExpMin= 4.38D-02 ExpMax= 5.48D+03 ExpMxC= 8.25D+02 IAcc=2 IRadAn=         4 AccDes= 0.00D+00
 HarFok:  IExCor= 4639 AccDes= 0.00D+00 IRadAn=         4 IDoV= 1
 ScaDFX=  1.000000  1.000000  1.000000  1.000000
 FoFCou: FMM=F IPFlag=           0 FMFlag=      100000 FMFlg1=           0
         NFxFlg=           0 DoJE=T BraDBF=F KetDBF=T FulRan=T
         Omega=  0.000000  0.000000  1.000000  0.000000  0.000000 ICntrl=     500 IOpCl=  0
         NMat0=    1 NMatS0=    1 NMatT0=    0 NMatD0=    1 NMtDS0=    0 NMtDT0=    0
         I1Cent=           4 NGrid=           0.
 Petite list used in FoFCou.
 Initial guess orbital symmetries:
       Occupied  (A) (A) (A) (A) (A) (A) (A) (A) (A) (A) (A) (A)
                 (A) (A) (A) (A) (A) (A) (A) (A) (A) (A) (A) (A)
                 (A) (A) (A) (A) (A) (A) (A) (A) (A) (A) (A) (A)
                 (A) (A) (A) (A) (A) (A) (A) (A) (A) (A) (A) (A)
                 (A) (A) (A) (A) (A) (A) (A) (A)
       Virtual   (A) (A) (A) (A) (A) (A) (A) (A) (A) (A) (A) (A)
                 (A) (A) (A) (A) (A) (A) (A) (A) (A) (A) (A) (A)
                 (A) (A) (A) (A) (A) (A) (A) (A) (A) (A) (A) (A)
                 (A) (A) (A) (A) (A) (A) (A) (A) (A) (A) (A) (A)
                 (A) (A) (A) (A) (A) (A) (A) (A) (A) (A) (A) (A)
                 (A) (A) (A) (A) (A) (A) (A) (A) (A) (A) (A) (A)
                 (A) (A) (A) (A) (A) (A) (A) (A) (A) (A) (A) (A)
                 (A) (A) (A) (A) (A) (A) (A) (A) (A) (A) (A) (A)
                 (A) (A) (A) (A) (A) (A) (A) (A) (A) (A) (A) (A)
                 (A) (A) (A) (A) (A) (A) (A) (A) (A) (A) (A) (A)
                 (A) (A) (A) (A) (A) (A) (A) (A) (A) (A) (A) (A)
                 (A) (A) (A) (A) (A) (A) (A) (A) (A) (A) (A) (A)
                 (A) (A) (A) (A) (A) (A) (A) (A) (A) (A) (A) (A)
                 (A) (A) (A) (A) (A) (A) (A) (A) (A) (A) (A) (A)
                 (A) (A) (A) (A) (A) (A) (A) (A) (A) (A) (A) (A)
                 (A) (A) (A) (A) (A) (A) (A) (A) (A) (A) (A) (A)
                 (A) (A) (A) (A) (A) (A) (A) (A) (A) (A) (A) (A)
                 (A) (A) (A) (A) (A) (A) (A) (A) (A) (A) (A) (A)
                 (A) (A) (A) (A) (A) (A) (A) (A) (A) (A) (A) (A)
                 (A) (A) (A) (A) (A) (A) (A) (A) (A) (A) (A) (A)
                 (A) (A) (A) (A) (A) (A) (A) (A) (A) (A) (A) (A)
                 (A) (A) (A) (A) (A) (A) (A) (A) (A) (A) (A) (A)
                 (A) (A) (A) (A) (A) (A) (A) (A) (A) (A) (A) (A)
                 (A) (A) (A) (A) (A) (A) (A) (A) (A) (A) (A) (A)
                 (A) (A) (A) (A) (A) (A) (A) (A) (A) (A) (A) (A)
                 (A) (A) (A) (A) (A) (A) (A) (A) (A)
 The electronic state of the initial guess is 1-A.
 Requested convergence on RMS density matrix=1.00D-08 within 128 cycles.
 Requested convergence on MAX density matrix=1.00D-06.
 Requested convergence on             energy=1.00D-06.
 No special actions if energy rises.
 FoFJK:  IHMeth= 1 ICntrl=     0 DoSepK=T KAlg= 1 I1Cent= 0 FoldK=F
 FoFJK:  IHMeth= 1 ICntrl=     0 DoSepK=T KAlg= 1 I1Cent= 0 FoldK=F
 FoFJK:  IHMeth= 1 ICntrl=     0 DoSepK=T KAlg= 1 I1Cent= 0 FoldK=F
 FoFJK:  IHMeth= 1 ICntrl=     0 DoSepK=T KAlg= 1 I1Cent= 0 FoldK=F
 FoFJK:  IHMeth= 1 ICntrl=     0 DoSepK=T KAlg= 1 I1Cent= 0 FoldK=F
 FoFJK:  IHMeth= 1 ICntrl=     0 DoSepK=T KAlg= 1 I1Cent= 0 FoldK=F
 FoFJK:  IHMeth= 1 ICntrl=     0 DoSepK=T KAlg= 1 I1Cent= 0 FoldK=F
 FoFJK:  IHMeth= 1 ICntrl=     0 DoSepK=T KAlg= 1 I1Cent= 0 FoldK=F
 FoFJK:  IHMeth= 1 ICntrl=     0 DoSepK=T KAlg= 1 I1Cent= 0 FoldK=F
 FoFJK:  IHMeth= 1 ICntrl=     0 DoSepK=T KAlg= 1 I1Cent= 0 FoldK=F
 FoFJK:  IHMeth= 1 ICntrl=     0 DoSepK=T KAlg= 1 I1Cent= 0 FoldK=F
 FoFJK:  IHMeth= 1 ICntrl=     0 DoSepK=T KAlg= 1 I1Cent= 0 FoldK=F
 FoFJK:  IHMeth= 1 ICntrl=     0 DoSepK=T KAlg= 1 I1Cent= 0 FoldK=F
 FoFJK:  IHMeth= 1 ICntrl=     0 DoSepK=T KAlg= 1 I1Cent= 0 FoldK=F
 FoFJK:  IHMeth= 1 ICntrl=     0 DoSepK=T KAlg= 1 I1Cent= 0 FoldK=F
 FoFJK:  IHMeth= 1 ICntrl=     0 DoSepK=T KAlg= 1 I1Cent= 0 FoldK=F
 Error on total polarization charges =  0.03875
 SCF Done:  E(RwB97XD) =  -692.444009841     A.U. after   16 cycles
             Convg  =    0.4111D-08             -V/T =  2.0096
 SMD-CDS (non-electrostatic) energy       (kcal/mol) =      -4.20
 (included in total energy above)
 Range of M.O.s used for correlation:     1   365
 NBasis=   365 NAE=    56 NBE=    56 NFC=     0 NFV=     0
 NROrb=    365 NOA=    56 NOB=    56 NVA=   309 NVB=   309

 **** Warning!!: The largest alpha MO coefficient is  0.11700312D+03

 NEqPCM:  Using equilibrium solvation (IEInf=0, Eps=   4.7113, EpsInf=   2.0906)
          Differentiating once with respect to magnetic field using GIAOs.
          Electric field/nuclear overlap derivatives assumed to be zero.
 FoFCou: FMM=F IPFlag=           0 FMFlag=    10101102 FMFlg1=           0
         NFxFlg=    40000000 DoJE=F BraDBF=F KetDBF=T FulRan=T
         Omega=  0.000000  0.000000  1.000000  0.000000  0.000000 ICntrl=    6100 IOpCl=  0
         NMat0=    1 NMatS0=    1 NMatT0=    0 NMatD0=    1 NMtDS0=    0 NMtDT0=    0
         I1Cent=           7 NGrid=        2248.
 Symmetry not used in FoFCou.
 FoFJK:  IHMeth= 1 ICntrl=  6127 DoSepK=T KAlg= 1 I1Cent= 0 FoldK=F
 FoFJK:  IHMeth= 1 ICntrl=     0 DoSepK=T KAlg= 1 I1Cent= 0 FoldK=F
          There are     3 degrees of freedom in the 1st order CPHF.  IDoFFX=0.
      3 vectors produced by pass  0 Test12= 5.77D-13 3.33D-08 XBig12= 1.00D+02 1.99D+00.
 AX will form     3 AO Fock derivatives at one time.
 FoFJK:  IHMeth= 1 ICntrl=     0 DoSepK=T KAlg= 1 I1Cent= 0 FoldK=F
      3 vectors produced by pass  1 Test12= 5.77D-13 3.33D-08 XBig12= 7.05D-01 2.60D-01.
 FoFJK:  IHMeth= 1 ICntrl=     0 DoSepK=T KAlg= 1 I1Cent= 0 FoldK=F
      3 vectors produced by pass  2 Test12= 5.77D-13 3.33D-08 XBig12= 1.48D-02 4.72D-02.
 FoFJK:  IHMeth= 1 ICntrl=     0 DoSepK=T KAlg= 1 I1Cent= 0 FoldK=F
      3 vectors produced by pass  3 Test12= 5.77D-13 3.33D-08 XBig12= 2.96D-04 3.61D-03.
 FoFJK:  IHMeth= 1 ICntrl=     0 DoSepK=T KAlg= 1 I1Cent= 0 FoldK=F
      3 vectors produced by pass  4 Test12= 5.77D-13 3.33D-08 XBig12= 4.26D-06 3.75D-04.
 FoFJK:  IHMeth= 1 ICntrl=     0 DoSepK=T KAlg= 1 I1Cent= 0 FoldK=F
      3 vectors produced by pass  5 Test12= 5.77D-13 3.33D-08 XBig12= 5.90D-08 4.89D-05.
 FoFJK:  IHMeth= 1 ICntrl=     0 DoSepK=T KAlg= 1 I1Cent= 0 FoldK=F
      3 vectors produced by pass  6 Test12= 5.77D-13 3.33D-08 XBig12= 7.08D-10 5.18D-06.
 FoFJK:  IHMeth= 1 ICntrl=     0 DoSepK=T KAlg= 1 I1Cent= 0 FoldK=F
      3 vectors produced by pass  7 Test12= 5.77D-13 3.33D-08 XBig12= 7.52D-12 6.37D-07.
 FoFJK:  IHMeth= 1 ICntrl=     0 DoSepK=T KAlg= 1 I1Cent= 0 FoldK=F
      2 vectors produced by pass  8 Test12= 5.77D-13 3.33D-08 XBig12= 7.68D-14 5.57D-08.
 FoFJK:  IHMeth= 1 ICntrl=     0 DoSepK=T KAlg= 1 I1Cent= 0 FoldK=F
 Inverted reduced A of dimension    26 with in-core refinement.
 Calculating GIAO nuclear magnetic shielding tensors.
 SCF GIAO Magnetic shielding tensor (ppm):
      1  C    Isotropic =    71.6632   Anisotropy =   165.5426
   XX=    72.1151   YX=   -23.4487   ZX=    97.9714
   XY=   -12.4766   YY=    70.2944   ZY=   -29.4569
   XZ=    97.1193   YZ=   -38.4283   ZZ=    72.5800
   Eigenvalues:   -26.6051    59.5698   182.0249
      2  C    Isotropic =    70.6864   Anisotropy =   175.2091
   XX=    72.3664   YX=   -18.3896   ZX=   104.2374
   XY=   -17.0948   YY=    65.5283   ZY=   -27.2379
   XZ=   106.3615   YZ=   -30.3922   ZZ=    74.1647
   Eigenvalues:   -32.6731    57.2399   187.4925
      3  C    Isotropic =    70.5146   Anisotropy =   174.2037
   XX=   114.2432   YX=   -11.9200   ZX=    66.4159
   XY=   -11.0550   YY=    -2.9159   ZY=   -61.2576
   XZ=    65.0122   YZ=   -59.7427   ZZ=   100.2165
   Eigenvalues:   -33.2495    58.1428   186.6504
      4  C    Isotropic =    56.8658   Anisotropy =   178.2958
   XX=    81.1112   YX=   -57.4564   ZX=    70.8142
   XY=   -57.0933   YY=     2.1477   ZY=   -15.3044
   XZ=    80.9033   YZ=   -16.6343   ZZ=    87.3385
   Eigenvalues:   -33.3681    28.2358   175.7297
      5  C    Isotropic =    71.4454   Anisotropy =   184.3810
   XX=   110.5862   YX=   -16.0547   ZX=    74.4208
   XY=    -8.4451   YY=     0.6068   ZY=   -59.0639
   XZ=    71.4544   YZ=   -65.5138   ZZ=   103.1432
   Eigenvalues:   -32.3843    52.3544   194.3660
      6  C    Isotropic =    72.0853   Anisotropy =   175.9472
   XX=    90.3384   YX=   -58.8302   ZX=    73.4855
   XY=   -61.5147   YY=    10.5563   ZY=    -8.0702
   XZ=    74.3951   YZ=    -5.5876   ZZ=   115.3612
   Eigenvalues:   -29.1229    55.9955   189.3834
      7  C    Isotropic =   122.1499   Anisotropy =    37.5723
   XX=   121.0617   YX=   -13.8167   ZX=     2.4571
   XY=   -14.8623   YY=   137.4528   ZY=     5.6181
   XZ=    -1.7843   YZ=    11.9239   ZZ=   107.9352
   Eigenvalues:   104.0744   115.1772   147.1981
      8  C    Isotropic =   146.0578   Anisotropy =    32.4606
   XX=   156.2363   YX=   -13.7321   ZX=    -2.6881
   XY=   -14.4718   YY=   150.0453   ZY=     8.0624
   XZ=     8.7225   YZ=     5.8741   ZZ=   131.8917
   Eigenvalues:   127.1515   143.3236   167.6982
      9  C    Isotropic =    21.4930   Anisotropy =    99.1082
   XX=    41.2445   YX=    62.5364   ZX=    -6.8578
   XY=    61.6769   YY=     0.2075   ZY=    28.9975
   XZ=   -31.7539   YZ=    53.1553   ZZ=    23.0271
   Eigenvalues:   -66.9132    43.8272    87.5651
     10  O    Isotropic =   124.9953   Anisotropy =   180.3321
   XX=   174.5821   YX=   100.0568   ZX=    45.7827
   XY=    72.9069   YY=   130.2250   ZY=   -30.7233
   XZ=   125.7023   YZ=  -128.3936   ZZ=    70.1789
   Eigenvalues:   -49.4222   179.1915   245.2167
     11  C    Isotropic =   137.5139   Anisotropy =    66.0529
   XX=   151.8094   YX=   -26.0319   ZX=   -11.3054
   XY=   -22.6835   YY=   158.8896   ZY=     8.2080
   XZ=    -5.9503   YZ=     6.5885   ZZ=   101.8428
   Eigenvalues:   100.1667   130.8258   181.5492
     12  O    Isotropic =   290.1710   Anisotropy =    91.4687
   XX=   287.7153   YX=    34.8415   ZX=   -10.2044
   XY=     2.7210   YY=   335.3894   ZY=   -30.1254
   XZ=     1.2509   YZ=   -32.1840   ZZ=   247.4084
   Eigenvalues:   237.4500   281.9129   351.1502
     13  C    Isotropic =   186.7313   Anisotropy =     9.0504
   XX=   185.5923   YX=    -1.0535   ZX=    -3.7230
   XY=    -1.7138   YY=   183.2335   ZY=     1.5771
   XZ=    -1.8802   YZ=     0.6904   ZZ=   191.3681
   Eigenvalues:   182.5915   184.8375   192.7649
     14  O    Isotropic =   -39.0958   Anisotropy =   557.8731
   XX=   136.1458   YX=   243.3812   ZX=    43.5404
   XY=   244.0663   YY=    16.7113   ZY=    50.2992
   XZ=    11.5842   YZ=    65.0698   ZZ=  -270.1444
   Eigenvalues:  -282.9450  -167.1619   332.8196
     15  C    Isotropic =   181.5782   Anisotropy =    26.8389
   XX=   199.2745   YX=    -1.5157   ZX=    -2.2636
   XY=     3.6667   YY=   182.5023   ZY=     4.4983
   XZ=    -2.5647   YZ=     4.5534   ZZ=   162.9578
   Eigenvalues:   161.7818   183.4820   199.4709
     16  H    Isotropic =    24.0897   Anisotropy =     8.2236
   XX=    23.5820   YX=     3.3329   ZX=     0.4523
   XY=     3.4505   YY=    26.8729   ZY=     2.3109
   XZ=     0.0217   YZ=     2.3334   ZZ=    21.8140
   Eigenvalues:    20.3480    22.3490    29.5721
     17  H    Isotropic =    23.7066   Anisotropy =     4.8669
   XX=    23.2943   YX=     1.7753   ZX=    -1.7760
   XY=     1.7451   YY=    26.1033   ZY=     0.7304
   XZ=    -1.5975   YZ=     0.7793   ZZ=    21.7223
   Eigenvalues:    20.2019    23.9667    26.9513
     18  H    Isotropic =    23.8911   Anisotropy =     5.0663
   XX=    24.3234   YX=     2.1707   ZX=    -2.2925
   XY=     2.3503   YY=    24.4860   ZY=     0.1139
   XZ=    -2.3672   YZ=     0.1861   ZZ=    22.8639
   Eigenvalues:    20.5281    23.8765    27.2686
     19  H    Isotropic =    23.4235   Anisotropy =     9.7299
   XX=    26.3273   YX=     2.4535   ZX=    -4.4283
   XY=     3.0284   YY=    22.4037   ZY=    -1.3786
   XZ=    -3.6077   YZ=    -1.6178   ZZ=    21.5395
   Eigenvalues:    19.2550    21.1054    29.9101
     20  H    Isotropic =    23.8394   Anisotropy =     3.9872
   XX=    23.6232   YX=     0.4227   ZX=    -2.5587
   XY=     0.3843   YY=    24.5964   ZY=     1.6169
   XZ=    -2.4911   YZ=     1.7823   ZZ=    23.2988
   Eigenvalues:    20.3696    24.6512    26.4976
     21  H    Isotropic =    25.9869   Anisotropy =     5.8628
   XX=    23.2772   YX=    -2.8995   ZX=    -0.9454
   XY=    -1.2292   YY=    26.5980   ZY=     1.9501
   XZ=    -2.5372   YZ=     0.7516   ZZ=    28.0855
   Eigenvalues:    22.1037    25.9616    29.8955
     22  H    Isotropic =    28.6461   Anisotropy =     5.7764
   XX=    28.2957   YX=     3.1040   ZX=    -1.9244
   XY=     1.9499   YY=    29.7804   ZY=    -2.2943
   XZ=    -1.5802   YZ=     0.0792   ZZ=    27.8622
   Eigenvalues:    25.9640    27.4773    32.4970
     23  H    Isotropic =    27.0294   Anisotropy =     5.3683
   XX=    27.7553   YX=    -0.7627   ZX=     0.2049
   XY=    -1.2120   YY=    29.1704   ZY=     4.0002
   XZ=     2.4806   YZ=     1.9783   ZZ=    24.1626
   Eigenvalues:    22.2783    28.2017    30.6083
     24  H    Isotropic =    28.0412   Anisotropy =     7.1734
   XX=    28.3264   YX=    -0.7570   ZX=    -1.3584
   XY=    -0.9442   YY=    30.8453   ZY=    -4.9069
   XZ=    -0.6981   YZ=    -2.9325   ZZ=    24.9519
   Eigenvalues:    22.6943    28.6058    32.8234
     25  H    Isotropic =    29.6458   Anisotropy =    19.4517
   XX=    25.4494   YX=     1.2733   ZX=    -4.6976
   XY=     2.9593   YY=    37.0158   ZY=    -9.0448
   XZ=    -4.0896   YZ=    -7.7762   ZZ=    26.4721
   Eigenvalues:    20.0966    26.2271    42.6135
     26  H    Isotropic =    30.5862   Anisotropy =    10.2778
   XX=    33.1809   YX=     1.6235   ZX=     4.1025
   XY=     0.5895   YY=    27.2787   ZY=     2.9196
   XZ=     4.7109   YZ=     2.6819   ZZ=    31.2991
   Eigenvalues:    25.6217    28.6989    37.4381
     27  H    Isotropic =    30.1473   Anisotropy =     8.8375
   XX=    29.2629   YX=    -3.2566   ZX=    -0.5255
   XY=    -4.1633   YY=    30.8896   ZY=     3.4105
   XZ=    -0.8095   YZ=     4.2783   ZZ=    30.2894
   Eigenvalues:    25.2957    29.1071    36.0390
     28  H    Isotropic =    30.8933   Anisotropy =     5.4225
   XX=    30.6344   YX=     3.8448   ZX=    -0.5850
   XY=     1.4883   YY=    30.3247   ZY=    -3.2915
   XZ=     0.0341   YZ=    -1.4280   ZZ=    31.7207
   Eigenvalues:    27.2173    30.9543    34.5083
     29  H    Isotropic =    30.3130   Anisotropy =     6.5023
   XX=    32.1750   YX=     1.1457   ZX=    -2.1072
   XY=     1.3772   YY=    28.7864   ZY=    -4.3787
   XZ=    -0.6015   YZ=    -3.2945   ZZ=    29.9778
   Eigenvalues:    25.4986    30.7927    34.6479
     30  H    Isotropic =    30.7054   Anisotropy =    11.5966
   XX=    34.5215   YX=    -5.6614   ZX=    -1.2335
   XY=    -4.7608   YY=    30.9823   ZY=     1.1188
   XZ=    -0.8289   YZ=     1.0276   ZZ=    26.6124
   Eigenvalues:    26.3503    27.3294    38.4365
     31  H    Isotropic =    30.5756   Anisotropy =     8.6749
   XX=    31.9256   YX=     1.5183   ZX=     3.8308
   XY=     1.0377   YY=    27.8158   ZY=     3.3150
   XZ=     3.0110   YZ=     2.2420   ZZ=    31.9854
   Eigenvalues:    26.3860    28.9819    36.3589
 End of Minotr Frequency-dependent properties file   721 does not exist.
 End of Minotr Frequency-dependent properties file   722 does not exist.

 **********************************************************************

            Population analysis using the SCF density.

 **********************************************************************

 Orbital symmetries:
       Occupied  (A) (A) (A) (A) (A) (A) (A) (A) (A) (A) (A) (A)
                 (A) (A) (A) (A) (A) (A) (A) (A) (A) (A) (A) (A)
                 (A) (A) (A) (A) (A) (A) (A) (A) (A) (A) (A) (A)
                 (A) (A) (A) (A) (A) (A) (A) (A) (A) (A) (A) (A)
                 (A) (A) (A) (A) (A) (A) (A) (A)
       Virtual   (A) (A) (A) (A) (A) (A) (A) (A) (A) (A) (A) (A)
                 (A) (A) (A) (A) (A) (A) (A) (A) (A) (A) (A) (A)
                 (A) (A) (A) (A) (A) (A) (A) (A) (A) (A) (A) (A)
                 (A) (A) (A) (A) (A) (A) (A) (A) (A) (A) (A) (A)
                 (A) (A) (A) (A) (A) (A) (A) (A) (A) (A) (A) (A)
                 (A) (A) (A) (A) (A) (A) (A) (A) (A) (A) (A) (A)
                 (A) (A) (A) (A) (A) (A) (A) (A) (A) (A) (A) (A)
                 (A) (A) (A) (A) (A) (A) (A) (A) (A) (A) (A) (A)
                 (A) (A) (A) (A) (A) (A) (A) (A) (A) (A) (A) (A)
                 (A) (A) (A) (A) (A) (A) (A) (A) (A) (A) (A) (A)
                 (A) (A) (A) (A) (A) (A) (A) (A) (A) (A) (A) (A)
                 (A) (A) (A) (A) (A) (A) (A) (A) (A) (A) (A) (A)
                 (A) (A) (A) (A) (A) (A) (A) (A) (A) (A) (A) (A)
                 (A) (A) (A) (A) (A) (A) (A) (A) (A) (A) (A) (A)
                 (A) (A) (A) (A) (A) (A) (A) (A) (A) (A) (A) (A)
                 (A) (A) (A) (A) (A) (A) (A) (A) (A) (A) (A) (A)
                 (A) (A) (A) (A) (A) (A) (A) (A) (A) (A) (A) (A)
                 (A) (A) (A) (A) (A) (A) (A) (A) (A) (A) (A) (A)
                 (A) (A) (A) (A) (A) (A) (A) (A) (A) (A) (A) (A)
                 (A) (A) (A) (A) (A) (A) (A) (A) (A) (A) (A) (A)
                 (A) (A) (A) (A) (A) (A) (A) (A) (A) (A) (A) (A)
                 (A) (A) (A) (A) (A) (A) (A) (A) (A) (A) (A) (A)
                 (A) (A) (A) (A) (A) (A) (A) (A) (A) (A) (A) (A)
                 (A) (A) (A) (A) (A) (A) (A) (A) (A) (A) (A) (A)
                 (A) (A) (A) (A) (A) (A) (A) (A) (A) (A) (A) (A)
                 (A) (A) (A) (A) (A) (A) (A) (A) (A)
 The electronic state is 1-A.
 Alpha  occ. eigenvalues --  -19.32934 -19.28294 -19.27391 -10.44160 -10.36206
 Alpha  occ. eigenvalues --  -10.35092 -10.31960 -10.31611 -10.30632 -10.30526
 Alpha  occ. eigenvalues --  -10.30508 -10.30441 -10.30372 -10.28700 -10.28495
 Alpha  occ. eigenvalues --   -1.21090  -1.13048  -1.12381  -0.96136  -0.91186
 Alpha  occ. eigenvalues --   -0.86779  -0.84946  -0.84561  -0.77740  -0.75980
 Alpha  occ. eigenvalues --   -0.71996  -0.69961  -0.67275  -0.64813  -0.60968
 Alpha  occ. eigenvalues --   -0.59939  -0.58988  -0.58036  -0.56978  -0.54720
 Alpha  occ. eigenvalues --   -0.52970  -0.52801  -0.52601  -0.50282  -0.50110
 Alpha  occ. eigenvalues --   -0.48857  -0.47733  -0.46558  -0.46098  -0.45562
 Alpha  occ. eigenvalues --   -0.44561  -0.44208  -0.43402  -0.42014  -0.41816
 Alpha  occ. eigenvalues --   -0.40317  -0.38622  -0.37383  -0.35905  -0.33094
 Alpha  occ. eigenvalues --   -0.32519
 Alpha virt. eigenvalues --    0.05096   0.05307   0.06398   0.06960   0.07727
 Alpha virt. eigenvalues --    0.08290   0.08466   0.09418   0.09879   0.10424
 Alpha virt. eigenvalues --    0.10672   0.10822   0.11946   0.12215   0.12766
 Alpha virt. eigenvalues --    0.13073   0.13686   0.14143   0.14412   0.15641
 Alpha virt. eigenvalues --    0.15873   0.16143   0.17181   0.17766   0.18077
 Alpha virt. eigenvalues --    0.18625   0.19548   0.19961   0.20057   0.20213
 Alpha virt. eigenvalues --    0.20478   0.21110   0.22016   0.22321   0.22966
 Alpha virt. eigenvalues --    0.23114   0.23693   0.24095   0.24462   0.25027
 Alpha virt. eigenvalues --    0.25335   0.25896   0.26274   0.26754   0.26871
 Alpha virt. eigenvalues --    0.27599   0.27675   0.28125   0.28654   0.29094
 Alpha virt. eigenvalues --    0.29690   0.29955   0.30397   0.30651   0.31208
 Alpha virt. eigenvalues --    0.32067   0.32242   0.32464   0.32891   0.33262
 Alpha virt. eigenvalues --    0.33621   0.34311   0.35120   0.35865   0.36144
 Alpha virt. eigenvalues --    0.36830   0.37355   0.38034   0.38411   0.38814
 Alpha virt. eigenvalues --    0.39004   0.39710   0.40107   0.40975   0.41831
 Alpha virt. eigenvalues --    0.42714   0.43023   0.43613   0.44044   0.44443
 Alpha virt. eigenvalues --    0.45202   0.46040   0.46400   0.47542   0.48199
 Alpha virt. eigenvalues --    0.49547   0.50600   0.51361   0.52085   0.55200
 Alpha virt. eigenvalues --    0.56088   0.57510   0.60778   0.66005   0.69857
 Alpha virt. eigenvalues --    0.73488   0.73638   0.76051   0.76476   0.77198
 Alpha virt. eigenvalues --    0.77759   0.78734   0.78894   0.79443   0.81234
 Alpha virt. eigenvalues --    0.81848   0.83738   0.83935   0.84322   0.84644
 Alpha virt. eigenvalues --    0.85733   0.86953   0.88681   0.89355   0.90035
 Alpha virt. eigenvalues --    0.90505   0.91338   0.93245   0.94582   0.96424
 Alpha virt. eigenvalues --    0.98015   0.99299   1.00820   1.02021   1.02877
 Alpha virt. eigenvalues --    1.03369   1.05152   1.06187   1.06902   1.07439
 Alpha virt. eigenvalues --    1.08468   1.09398   1.11216   1.11801   1.12918
 Alpha virt. eigenvalues --    1.13189   1.15213   1.16719   1.17790   1.19018
 Alpha virt. eigenvalues --    1.20981   1.21353   1.21769   1.22476   1.24243
 Alpha virt. eigenvalues --    1.25680   1.27122   1.28757   1.29417   1.31430
 Alpha virt. eigenvalues --    1.33064   1.34545   1.35676   1.36706   1.38369
 Alpha virt. eigenvalues --    1.39832   1.40519   1.42661   1.43377   1.45294
 Alpha virt. eigenvalues --    1.46308   1.46993   1.48217   1.48968   1.49946
 Alpha virt. eigenvalues --    1.51876   1.52045   1.52610   1.54380   1.55716
 Alpha virt. eigenvalues --    1.57275   1.60529   1.62048   1.63133   1.66151
 Alpha virt. eigenvalues --    1.68427   1.71516   1.73393   1.75721   1.77003
 Alpha virt. eigenvalues --    1.78169   1.82670   1.84583   1.85957   1.87459
 Alpha virt. eigenvalues --    1.88466   1.91679   1.92546   1.93910   1.95678
 Alpha virt. eigenvalues --    1.97678   1.98723   1.99560   2.00847   2.01153
 Alpha virt. eigenvalues --    2.01957   2.02595   2.04357   2.05146   2.06265
 Alpha virt. eigenvalues --    2.07659   2.08806   2.10308   2.10442   2.11816
 Alpha virt. eigenvalues --    2.13643   2.14658   2.16122   2.16974   2.18616
 Alpha virt. eigenvalues --    2.19389   2.20255   2.20860   2.21182   2.23404
 Alpha virt. eigenvalues --    2.25624   2.25883   2.28144   2.29375   2.30358
 Alpha virt. eigenvalues --    2.31988   2.36155   2.38247   2.38904   2.40806
 Alpha virt. eigenvalues --    2.41742   2.44195   2.45246   2.47568   2.48217
 Alpha virt. eigenvalues --    2.48459   2.49741   2.51295   2.51554   2.54103
 Alpha virt. eigenvalues --    2.55369   2.56666   2.56949   2.58574   2.62324
 Alpha virt. eigenvalues --    2.63880   2.64097   2.65731   2.68026   2.68966
 Alpha virt. eigenvalues --    2.69317   2.71973   2.73325   2.75875   2.76334
 Alpha virt. eigenvalues --    2.77740   2.78681   2.79137   2.81559   2.82580
 Alpha virt. eigenvalues --    2.83502   2.85023   2.86658   2.88550   2.89183
 Alpha virt. eigenvalues --    2.90692   2.92430   2.94983   2.95422   2.97109
 Alpha virt. eigenvalues --    2.98935   3.00479   3.02647   3.06325   3.08912
 Alpha virt. eigenvalues --    3.13291   3.16144   3.17822   3.19620   3.26651
 Alpha virt. eigenvalues --    3.28688   3.32426   3.36551   3.37466   3.39122
 Alpha virt. eigenvalues --    3.39706   3.43623   3.45387   3.51829   3.52838
 Alpha virt. eigenvalues --    3.54033   3.58553   3.58869   3.61785   3.62921
 Alpha virt. eigenvalues --    3.63479   3.65678   3.65952   3.99799   4.40305
 Alpha virt. eigenvalues --    4.42294   4.44515   4.51317   4.53398   4.57234
 Alpha virt. eigenvalues --    4.59155   4.62705   4.63465   4.70299   4.71927
 Alpha virt. eigenvalues --    4.78215   4.82057   4.94862   5.00736
          Condensed to atoms (all electrons):
              1          2          3          4          5          6
     1  C   16.313459  -0.219597  -0.630197  -3.163487  -8.404479   0.150161
     2  C   -0.219597   6.901344   0.325800   0.205249  -1.018497   0.140478
     3  C   -0.630197   0.325800   6.668171   0.266876  -0.516108   0.169851
     4  C   -3.163487   0.205249   0.266876  13.728608  -2.277020  -0.913558
     5  C   -8.404479  -1.018497  -0.516108  -2.277020  18.172271   0.764091
     6  C    0.150161   0.140478   0.169851  -0.913558   0.764091   5.537608
     7  C    2.039149  -0.566977  -0.414732  -2.380734  -1.004789   0.081810
     8  C    0.254219   0.295688   0.288742   0.186628  -0.563280  -0.112797
     9  C   -1.046136  -0.036998  -0.261930   0.644111   0.875345   0.052791
    10  O    0.117762  -0.001561   0.009223  -0.048360  -0.083786   0.001486
    11  C    0.092338   0.002513   0.014604  -0.039077  -0.042049  -0.004254
    12  O   -0.136740   0.097716  -0.026013   0.042692   0.017142  -0.000683
    13  C    0.122233  -0.071688  -0.006310  -0.190956  -0.074790   0.017542
    14  O    0.057518   0.001110   0.026081  -0.077299  -0.066364  -0.001321
    15  C    0.000455  -0.002150  -0.011104  -0.003613   0.006907   0.001812
    16  H    0.121263   0.002849   0.057830   0.112962   0.022646  -0.005473
    17  H    0.004582   0.268776  -0.004769   0.038701   0.018394   0.001362
    18  H    0.037670  -0.008828   0.245813   0.009187   0.007696   0.035845
    19  H    0.052914  -0.016764  -0.002566   0.088539   0.200777  -0.004019
    20  H   -0.004475   0.027461   0.039542   0.010389  -0.012478   0.265442
    21  H    0.211376   0.013501   0.060019  -0.047994  -0.199118  -0.006388
    22  H    0.002392  -0.002170  -0.001590   0.020740  -0.003964   0.000339
    23  H   -0.003727   0.000324  -0.006041   0.010744   0.003697  -0.000825
    24  H    0.005368  -0.000605  -0.001357  -0.006447  -0.000535   0.000657
    25  H    0.012515  -0.011302   0.001505   0.006862   0.002314   0.000752
    26  H   -0.009254  -0.001015  -0.000785  -0.011519   0.006665   0.000084
    27  H   -0.017611   0.009211  -0.000096  -0.043617   0.071796   0.001771
    28  H    0.036339  -0.012645  -0.003356   0.006326  -0.042127  -0.000132
    29  H    0.000289  -0.000017  -0.000058  -0.000632  -0.000119   0.000007
    30  H   -0.000065  -0.000003  -0.000048  -0.000015   0.000040  -0.000001
    31  H   -0.000031   0.000008  -0.000100   0.000228   0.000210   0.000009
              7          8          9         10         11         12
     1  C    2.039149   0.254219  -1.046136   0.117762   0.092338  -0.136740
     2  C   -0.566977   0.295688  -0.036998  -0.001561   0.002513   0.097716
     3  C   -0.414732   0.288742  -0.261930   0.009223   0.014604  -0.026013
     4  C   -2.380734   0.186628   0.644111  -0.048360  -0.039077   0.042692
     5  C   -1.004789  -0.563280   0.875345  -0.083786  -0.042049   0.017142
     6  C    0.081810  -0.112797   0.052791   0.001486  -0.004254  -0.000683
     7  C    8.767582  -0.917788  -0.271427   0.013118  -0.043351   0.019959
     8  C   -0.917788   8.218004  -1.738379  -0.227585   0.179548   0.030611
     9  C   -0.271427  -1.738379   7.469752   0.312142  -0.303451   0.044859
    10  O    0.013118  -0.227585   0.312142   8.388995   0.033582  -0.004547
    11  C   -0.043351   0.179548  -0.303451   0.033582   5.219510  -0.001453
    12  O    0.019959   0.030611   0.044859  -0.004547  -0.001453   8.362993
    13  C    0.257277   0.076665  -0.276978   0.011649  -0.017772  -0.043921
    14  O    0.029053  -0.159286   0.659885  -0.170326   0.005022  -0.004864
    15  C    0.009654  -0.082854   0.053772  -0.045792   0.195021   0.000004
    16  H   -0.005188   0.007860   0.004125  -0.000642  -0.002656   0.000125
    17  H   -0.000601  -0.000216  -0.000712   0.000000  -0.000004   0.000059
    18  H   -0.001708  -0.001478   0.002340  -0.000070   0.000097   0.000022
    19  H    0.008328  -0.014010  -0.003979  -0.000014  -0.000055   0.000008
    20  H    0.000202   0.000411  -0.000268   0.000005   0.000033   0.000001
    21  H    0.215442   0.185440  -0.138157   0.001215   0.002698  -0.047175
    22  H    0.010702   0.272221   0.045955   0.003463  -0.003314  -0.015313
    23  H   -0.007297   0.015758  -0.010932  -0.036268   0.396626   0.000011
    24  H    0.005137  -0.006626   0.014975  -0.061739   0.407723  -0.000002
    25  H    0.071969  -0.076083   0.014123   0.000112   0.000082   0.232645
    26  H    0.031523  -0.104105   0.013445  -0.001020  -0.003986  -0.000033
    27  H   -0.058830  -0.033122   0.004105   0.000440   0.000133   0.012288
    28  H    0.056194  -0.100881   0.013229  -0.000596  -0.001831  -0.004699
    29  H    0.001938  -0.006636   0.003181  -0.006214  -0.052990  -0.000002
    30  H    0.000152   0.002504   0.004542   0.007150  -0.046546   0.000000
    31  H   -0.001172   0.003176   0.006530  -0.003808  -0.046432   0.000000
             13         14         15         16         17         18
     1  C    0.122233   0.057518   0.000455   0.121263   0.004582   0.037670
     2  C   -0.071688   0.001110  -0.002150   0.002849   0.268776  -0.008828
     3  C   -0.006310   0.026081  -0.011104   0.057830  -0.004769   0.245813
     4  C   -0.190956  -0.077299  -0.003613   0.112962   0.038701   0.009187
     5  C   -0.074790  -0.066364   0.006907   0.022646   0.018394   0.007696
     6  C    0.017542  -0.001321   0.001812  -0.005473   0.001362   0.035845
     7  C    0.257277   0.029053   0.009654  -0.005188  -0.000601  -0.001708
     8  C    0.076665  -0.159286  -0.082854   0.007860  -0.000216  -0.001478
     9  C   -0.276978   0.659885   0.053772   0.004125  -0.000712   0.002340
    10  O    0.011649  -0.170326  -0.045792  -0.000642   0.000000  -0.000070
    11  C   -0.017772   0.005022   0.195021  -0.002656  -0.000004   0.000097
    12  O   -0.043921  -0.004864   0.000004   0.000125   0.000059   0.000022
    13  C    5.543156   0.010947  -0.003682   0.001635   0.000860   0.000007
    14  O    0.010947   8.172019  -0.035741  -0.000879   0.000001  -0.000044
    15  C   -0.003682  -0.035741   5.289447  -0.000038  -0.000002   0.000144
    16  H    0.001635  -0.000879  -0.000038   0.512184   0.000011  -0.004013
    17  H    0.000860   0.000001  -0.000002   0.000011   0.497375  -0.000123
    18  H    0.000007  -0.000044   0.000144  -0.004013  -0.000123   0.498684
    19  H    0.009969   0.000013   0.000011  -0.000112  -0.003986   0.000011
    20  H   -0.000118   0.000001  -0.000001  -0.000125  -0.003827  -0.003891
    21  H   -0.000955   0.015950  -0.000510   0.000813   0.000002  -0.000005
    22  H   -0.028658  -0.010044   0.001087  -0.000016   0.000000   0.000000
    23  H   -0.004026   0.002698  -0.027970  -0.000028   0.000000   0.000000
    24  H    0.003573  -0.000125  -0.028592   0.000001   0.000000   0.000000
    25  H   -0.004742  -0.000041   0.000000  -0.000002   0.000000   0.000000
    26  H    0.441714  -0.000715   0.000617   0.000001   0.000000   0.000000
    27  H    0.414986  -0.000224  -0.000120   0.000000   0.000000   0.000000
    28  H    0.411961  -0.000449  -0.000545  -0.000005  -0.000012   0.000000
    29  H    0.000076   0.001549   0.423524   0.000000   0.000000   0.000000
    30  H    0.000244  -0.000209   0.396442   0.000000   0.000000   0.000000
    31  H   -0.001919  -0.000379   0.407007   0.000000   0.000000   0.000000
             19         20         21         22         23         24
     1  C    0.052914  -0.004475   0.211376   0.002392  -0.003727   0.005368
     2  C   -0.016764   0.027461   0.013501  -0.002170   0.000324  -0.000605
     3  C   -0.002566   0.039542   0.060019  -0.001590  -0.006041  -0.001357
     4  C    0.088539   0.010389  -0.047994   0.020740   0.010744  -0.006447
     5  C    0.200777  -0.012478  -0.199118  -0.003964   0.003697  -0.000535
     6  C   -0.004019   0.265442  -0.006388   0.000339  -0.000825   0.000657
     7  C    0.008328   0.000202   0.215442   0.010702  -0.007297   0.005137
     8  C   -0.014010   0.000411   0.185440   0.272221   0.015758  -0.006626
     9  C   -0.003979  -0.000268  -0.138157   0.045955  -0.010932   0.014975
    10  O   -0.000014   0.000005   0.001215   0.003463  -0.036268  -0.061739
    11  C   -0.000055   0.000033   0.002698  -0.003314   0.396626   0.407723
    12  O    0.000008   0.000001  -0.047175  -0.015313   0.000011  -0.000002
    13  C    0.009969  -0.000118  -0.000955  -0.028658  -0.004026   0.003573
    14  O    0.000013   0.000001   0.015950  -0.010044   0.002698  -0.000125
    15  C    0.000011  -0.000001  -0.000510   0.001087  -0.027970  -0.028592
    16  H   -0.000112  -0.000125   0.000813  -0.000016  -0.000028   0.000001
    17  H   -0.003986  -0.003827   0.000002   0.000000   0.000000   0.000000
    18  H    0.000011  -0.003891  -0.000005   0.000000   0.000000   0.000000
    19  H    0.502576  -0.000119  -0.000023  -0.000018   0.000000   0.000000
    20  H   -0.000119   0.499955   0.000000   0.000000   0.000000   0.000000
    21  H   -0.000023   0.000000   0.577554  -0.005439  -0.000003   0.000000
    22  H   -0.000018   0.000000  -0.005439   0.508798  -0.000016   0.000002
    23  H    0.000000   0.000000  -0.000003  -0.000016   0.521606  -0.031170
    24  H    0.000000   0.000000   0.000000   0.000002  -0.031170   0.529067
    25  H    0.000051   0.000000  -0.008567   0.003430   0.000000   0.000000
    26  H    0.000027   0.000000  -0.000101  -0.003636  -0.000005   0.000010
    27  H   -0.000458   0.000000   0.000024  -0.002440   0.000001  -0.000001
    28  H   -0.000375   0.000000  -0.000127   0.003999  -0.000007   0.000023
    29  H    0.000000   0.000000   0.000000   0.000003  -0.004805   0.003947
    30  H    0.000000   0.000000   0.000000   0.000000  -0.001155  -0.001192
    31  H    0.000000   0.000000   0.000000  -0.000004   0.003785  -0.005024
             25         26         27         28         29         30
     1  C    0.012515  -0.009254  -0.017611   0.036339   0.000289  -0.000065
     2  C   -0.011302  -0.001015   0.009211  -0.012645  -0.000017  -0.000003
     3  C    0.001505  -0.000785  -0.000096  -0.003356  -0.000058  -0.000048
     4  C    0.006862  -0.011519  -0.043617   0.006326  -0.000632  -0.000015
     5  C    0.002314   0.006665   0.071796  -0.042127  -0.000119   0.000040
     6  C    0.000752   0.000084   0.001771  -0.000132   0.000007  -0.000001
     7  C    0.071969   0.031523  -0.058830   0.056194   0.001938   0.000152
     8  C   -0.076083  -0.104105  -0.033122  -0.100881  -0.006636   0.002504
     9  C    0.014123   0.013445   0.004105   0.013229   0.003181   0.004542
    10  O    0.000112  -0.001020   0.000440  -0.000596  -0.006214   0.007150
    11  C    0.000082  -0.003986   0.000133  -0.001831  -0.052990  -0.046546
    12  O    0.232645  -0.000033   0.012288  -0.004699  -0.000002   0.000000
    13  C   -0.004742   0.441714   0.414986   0.411961   0.000076   0.000244
    14  O   -0.000041  -0.000715  -0.000224  -0.000449   0.001549  -0.000209
    15  C    0.000000   0.000617  -0.000120  -0.000545   0.423524   0.396442
    16  H   -0.000002   0.000001   0.000000  -0.000005   0.000000   0.000000
    17  H    0.000000   0.000000   0.000000  -0.000012   0.000000   0.000000
    18  H    0.000000   0.000000   0.000000   0.000000   0.000000   0.000000
    19  H    0.000051   0.000027  -0.000458  -0.000375   0.000000   0.000000
    20  H    0.000000   0.000000   0.000000   0.000000   0.000000   0.000000
    21  H   -0.008567  -0.000101   0.000024  -0.000127   0.000000   0.000000
    22  H    0.003430  -0.003636  -0.002440   0.003999   0.000003   0.000000
    23  H    0.000000  -0.000005   0.000001  -0.000007  -0.004805  -0.001155
    24  H    0.000000   0.000010  -0.000001   0.000023   0.003947  -0.001192
    25  H    0.352871  -0.000008  -0.000349   0.000055   0.000000   0.000000
    26  H   -0.000008   0.519086  -0.025118  -0.024251   0.000000   0.000000
    27  H   -0.000349  -0.025118   0.514386  -0.025228   0.000000   0.000000
    28  H    0.000055  -0.024251  -0.025228   0.506172   0.000000   0.000000
    29  H    0.000000   0.000000   0.000000   0.000000   0.508989  -0.021889
    30  H    0.000000   0.000000   0.000000   0.000000  -0.021889   0.504635
    31  H    0.000000  -0.000002   0.000000  -0.000001  -0.029389  -0.022579
             31
     1  C   -0.000031
     2  C    0.000008
     3  C   -0.000100
     4  C    0.000228
     5  C    0.000210
     6  C    0.000009
     7  C   -0.001172
     8  C    0.003176
     9  C    0.006530
    10  O   -0.003808
    11  C   -0.046432
    12  O    0.000000
    13  C   -0.001919
    14  O   -0.000379
    15  C    0.407007
    16  H    0.000000
    17  H    0.000000
    18  H    0.000000
    19  H    0.000000
    20  H    0.000000
    21  H    0.000000
    22  H   -0.000004
    23  H    0.003785
    24  H   -0.005024
    25  H    0.000000
    26  H   -0.000002
    27  H    0.000000
    28  H   -0.000001
    29  H   -0.029389
    30  H   -0.022579
    31  H    0.515839
 Mulliken atomic charges:
              1
     1  C    0.003798
     2  C   -0.321210
     3  C   -0.286897
     4  C   -0.174515
     5  C    0.139512
     6  C   -0.174446
     7  C    0.055404
     8  C    0.127653
     9  C   -0.149861
    10  O   -0.208012
    11  C    0.059691
    12  O   -0.575692
    13  C   -0.597978
    14  O   -0.453538
    15  C   -0.543191
    16  H    0.174873
    17  H    0.184129
    18  H    0.182647
    19  H    0.183274
    20  H    0.181860
    21  H    0.170527
    22  H    0.203491
    23  H    0.179025
    24  H    0.172932
    25  H    0.401809
    26  H    0.172380
    27  H    0.178073
    28  H    0.182970
    29  H    0.179248
    30  H    0.177995
    31  H    0.174048
 Sum of Mulliken atomic charges =   0.00000
 Mulliken charges with hydrogens summed into heavy atoms:
              1
     1  C    0.178671
     2  C   -0.137081
     3  C   -0.104250
     4  C   -0.174515
     5  C    0.322786
     6  C    0.007414
     7  C    0.225931
     8  C    0.331144
     9  C   -0.149861
    10  O   -0.208012
    11  C    0.411648
    12  O   -0.173883
    13  C   -0.064555
    14  O   -0.453538
    15  C   -0.011899
 Sum of Mulliken charges with hydrogens summed into heavy atoms =   0.00000
 Electronic spatial extent (au):  <R**2>=           3534.2601
 Charge=              0.0000 electrons
 Dipole moment (field-independent basis, Debye):
    X=              1.8778    Y=             -0.3719    Z=              1.2263  Tot=              2.2734
 Quadrupole moment (field-independent basis, Debye-Ang):
   XX=            -88.0911   YY=            -76.8995   ZZ=            -92.5798
   XY=              2.3915   XZ=              1.0408   YZ=             -1.9861
 Traceless Quadrupole moment (field-independent basis, Debye-Ang):
   XX=             -2.2343   YY=              8.9573   ZZ=             -6.7230
   XY=              2.3915   XZ=              1.0408   YZ=             -1.9861
 Octapole moment (field-independent basis, Debye-Ang**2):
  XXX=             44.4839  YYY=             15.4595  ZZZ=              2.0576  XYY=             16.5662
  XXY=            -30.7476  XXZ=             34.2644  XZZ=             -7.4617  YZZ=              8.9013
  YYZ=            -17.5614  XYZ=              0.0206
 Hexadecapole moment (field-independent basis, Debye-Ang**3):
 XXXX=          -2912.8552 YYYY=          -1049.8182 ZZZZ=           -540.8893 XXXY=            -23.3633
 XXXZ=            -60.5444 YYYX=             16.1270 YYYZ=            -51.4503 ZZZX=             13.6154
 ZZZY=            -14.3496 XXYY=           -650.0371 XXZZ=           -599.8933 YYZZ=           -260.4247
 XXYZ=            -14.0649 YYXZ=              7.5936 ZZXY=            -16.6171
 N-N= 1.018230048338D+03 E-N=-3.648548196582D+03  KE= 6.858746322248D+02
 1\1\GINC-COMPUTE-8-6\SP\RwB97XD\6-31+G(d,p)\C12H16O3\ELUCIANO.IQUIR\17
 -May-2022\0\\# wb97xd/6-31+g** scrf=(pcm,solvent=chloroform,smd,dovacu
 um) nmr\\comment\\0,1\C,0,0.214895997,-1.403794248,-1.59236062\C,0,-0.
 245153381,-3.637553685,0.008618296\C,0,1.065909561,-2.508224356,-1.670
 062003\C,0,-0.877154701,-1.398315068,-0.708756331\C,0,-1.096161655,-2.
 533424756,0.087102683\C,0,0.836598132,-3.623835188,-0.868452921\C,0,-1
 .776424112,-0.178207721,-0.623253575\C,0,-1.31722613,0.892913988,0.383
 939184\C,0,-0.054521025,1.55581679,-0.131644648\O,0,0.957879142,1.5302
 2523,0.773041594\C,0,2.200975023,2.110578014,0.351917378\O,0,-3.110298
 923,-0.591762506,-0.296465769\C,0,-1.226463862,0.386956876,1.826503592
 \O,0,0.0200738,2.064084327,-1.245398833\C,0,2.206100322,3.599995623,0.
 639348076\H,0,0.409853151,-0.546172632,-2.234254867\H,0,-0.430925566,-
 4.508850459,0.630963728\H,0,1.9057716,-2.498260368,-2.359832597\H,0,-1
 .94012008,-2.562822727,0.773864307\H,0,1.497069854,-4.484406447,-0.930
 768027\H,0,-1.841581886,0.254607563,-1.630362668\H,0,-2.076206561,1.68
 8057133,0.402456401\H,0,2.398622238,1.904497637,-0.706294747\H,0,2.993
 334998,1.621490146,0.927909385\H,0,-3.705579424,0.126002809,-0.5708967
 88\H,0,-1.012188568,1.2163121,2.5102707\H,0,-2.169608325,-0.06683856,2
 .147326007\H,0,-0.428114418,-0.351034481,1.955136669\H,0,1.420718281,4
 .112028025,0.074509452\H,0,3.170850078,4.042560721,0.375880625\H,0,2.0
 09076441,3.787376221,1.700016318\\Version=EM64L-G09RevC.01\State=1-A\H
 F=-692.4440098\RMSD=4.111e-09\Dipole=0.452222,0.5386973,0.5525488\Quad
 rupole=5.0392435,-0.5395658,-4.4996777,-3.6421682,-1.0964318,2.1339346
 \PG=C01 [X(C12H16O3)]\\@


 THE MOST INCOMPREHENSIBLE THING ABOUT THE WORLD
 IS THAT IT IS COMPREHENSIBLE. -- A. EINSTEIN
 Job cpu time:  0 days  2 hours 27 minutes 23.3 seconds.
 File lengths (MBytes):  RWF=    123 Int=      0 D2E=      0 Chk=      9 Scr=      1
 Normal termination of Gaussian 09 at Tue May 17 22:57:40 2022.
