 Entering Gaussian System, Link 0=g09
 Input=/home/eluciano.iquir/wb9/73b_023.gjc
 Output=/home/eluciano.iquir/wb9/73b_023.log
 Initial command:
 /share/apps/Gaussian09/EM64T.SSE4.2-enabled/g09/l1.exe /tmp/Gau-28915.inp -scrdir=/tmp/
 Entering Link 1 = /share/apps/Gaussian09/EM64T.SSE4.2-enabled/g09/l1.exe PID=     28916.
  
 Copyright (c) 1988,1990,1992,1993,1995,1998,2003,2009,2011,
            Gaussian, Inc.  All Rights Reserved.
  
 This is part of the Gaussian(R) 09 program.  It is based on
 the Gaussian(R) 03 system (copyright 2003, Gaussian, Inc.),
 the Gaussian(R) 98 system (copyright 1998, Gaussian, Inc.),
 the Gaussian(R) 94 system (copyright 1995, Gaussian, Inc.),
 the Gaussian 92(TM) system (copyright 1992, Gaussian, Inc.),
 the Gaussian 90(TM) system (copyright 1990, Gaussian, Inc.),
 the Gaussian 88(TM) system (copyright 1988, Gaussian, Inc.),
 the Gaussian 86(TM) system (copyright 1986, Carnegie Mellon
 University), and the Gaussian 82(TM) system (copyright 1983,
 Carnegie Mellon University). Gaussian is a federally registered
 trademark of Gaussian, Inc.
  
 This software contains proprietary and confidential information,
 including trade secrets, belonging to Gaussian, Inc.
  
 This software is provided under written license and may be
 used, copied, transmitted, or stored only in accord with that
 written license.
  
 The following legend is applicable only to US Government
 contracts under FAR:
  
                    RESTRICTED RIGHTS LEGEND
  
 Use, reproduction and disclosure by the US Government is
 subject to restrictions as set forth in subparagraphs (a)
 and (c) of the Commercial Computer Software - Restricted
 Rights clause in FAR 52.227-19.
  
 Gaussian, Inc.
 340 Quinnipiac St., Bldg. 40, Wallingford CT 06492
  
  
 ---------------------------------------------------------------
 Warning -- This program may not be used in any manner that
 competes with the business of Gaussian, Inc. or will provide
 assistance to any competitor of Gaussian, Inc.  The licensee
 of this program is prohibited from giving any competitor of
 Gaussian, Inc. access to this program.  By using this program,
 the user acknowledges that Gaussian, Inc. is engaged in the
 business of creating and licensing software in the field of
 computational chemistry and represents and warrants to the
 licensee that it is not a competitor of Gaussian, Inc. and that
 it will not use this program in any manner prohibited above.
 ---------------------------------------------------------------
  

 Cite this work as:
 Gaussian 09, Revision C.01,
 M. J. Frisch, G. W. Trucks, H. B. Schlegel, G. E. Scuseria, 
 M. A. Robb, J. R. Cheeseman, G. Scalmani, V. Barone, B. Mennucci, 
 G. A. Petersson, H. Nakatsuji, M. Caricato, X. Li, H. P. Hratchian, 
 A. F. Izmaylov, J. Bloino, G. Zheng, J. L. Sonnenberg, M. Hada, 
 M. Ehara, K. Toyota, R. Fukuda, J. Hasegawa, M. Ishida, T. Nakajima, 
 Y. Honda, O. Kitao, H. Nakai, T. Vreven, J. A. Montgomery, Jr., 
 J. E. Peralta, F. Ogliaro, M. Bearpark, J. J. Heyd, E. Brothers, 
 K. N. Kudin, V. N. Staroverov, T. Keith, R. Kobayashi, J. Normand, 
 K. Raghavachari, A. Rendell, J. C. Burant, S. S. Iyengar, J. Tomasi, 
 M. Cossi, N. Rega, J. M. Millam, M. Klene, J. E. Knox, J. B. Cross, 
 V. Bakken, C. Adamo, J. Jaramillo, R. Gomperts, R. E. Stratmann, 
 O. Yazyev, A. J. Austin, R. Cammi, C. Pomelli, J. W. Ochterski, 
 R. L. Martin, K. Morokuma, V. G. Zakrzewski, G. A. Voth, 
 P. Salvador, J. J. Dannenberg, S. Dapprich, A. D. Daniels, 
 O. Farkas, J. B. Foresman, J. V. Ortiz, J. Cioslowski, 
 and D. J. Fox, Gaussian, Inc., Wallingford CT, 2010.
 
 ******************************************
 Gaussian 09:  EM64L-G09RevC.01 23-Sep-2011
                17-May-2022 
 ******************************************
 %nprocshared=4
 Will use up to    4 processors via shared memory.
 ----------------------------------------------------------------
 # wb97xd/6-31+g** scrf=(pcm,solvent=chloroform,smd,dovacuum) nmr
 ----------------------------------------------------------------
 1/38=1/1;
 2/12=2,17=6,18=5,40=1/2;
 3/5=1,6=6,7=111,11=2,16=1,25=1,30=1,70=32101,72=7,74=-58/1,2,8,3;
 4//1;
 5/5=2,38=5,53=7/2;
 8/6=1,10=90,11=11/1;
 10/13=100,45=16/2;
 6/7=2,8=2,9=2,10=2,28=1/1;
 99/9=1/99;
 -------
 comment
 -------
 Charge =  0 Multiplicity = 1
 Symbolic Z-Matrix:
 6                     0.54995  -1.55882  -0.68121 
 6                     0.47874  -3.47798   1.338 
 6                     1.47064  -2.60896  -0.67984 
 6                    -0.418    -1.45027   0.3307 
 6                    -0.44133  -2.42786   1.33774 
 6                     1.43555  -3.56716   0.33024 
 6                    -1.39698  -0.29121   0.32412 
 6                    -0.9119    0.97813   1.04766 
 6                     0.25102   1.61782   0.31561 
 8                    -0.12268   1.95483  -0.95369 
 6                     0.90777   2.5919   -1.72024 
 8                    -2.64008  -0.71649   0.9 
 6                    -0.57939   0.76188   2.52618 
 8                     1.35207   1.84793   0.79547 
 6                     0.36405   2.85945  -3.10993 
 1                     0.59514  -0.82669  -1.48424 
 1                     0.446    -4.22564   2.12595 
 1                     2.2159   -2.67902  -1.46779 
 1                    -1.18445  -2.37544   2.13133 
 1                     2.15206  -4.38403   0.33151 
 1                    -1.62793  -0.06414  -0.72462 
 1                    -1.72763   1.71492   1.03249 
 1                     1.78175   1.93415  -1.78614 
 1                     1.18996   3.53718  -1.24359 
 1                    -3.31506  -0.06761   0.63995 
 1                    -0.35079   1.71879   3.00934 
 1                    -1.42175   0.31324   3.06208 
 1                     0.2983    0.12089   2.65891 
 1                     0.05656   1.92431  -3.58969 
 1                     1.1162    3.34729  -3.73611 
 1                    -0.5237    3.4986   -3.0602 
 
                          Input orientation:                          
 ---------------------------------------------------------------------
 Center     Atomic      Atomic             Coordinates (Angstroms)
 Number     Number       Type             X           Y           Z
 ---------------------------------------------------------------------
      1          6           0        0.549952   -1.558818   -0.681206
      2          6           0        0.478743   -3.477979    1.338003
      3          6           0        1.470642   -2.608960   -0.679837
      4          6           0       -0.418003   -1.450268    0.330701
      5          6           0       -0.441328   -2.427857    1.337737
      6          6           0        1.435550   -3.567163    0.330240
      7          6           0       -1.396980   -0.291213    0.324117
      8          6           0       -0.911896    0.978133    1.047662
      9          6           0        0.251025    1.617816    0.315610
     10          8           0       -0.122680    1.954830   -0.953691
     11          6           0        0.907768    2.591903   -1.720242
     12          8           0       -2.640082   -0.716491    0.900005
     13          6           0       -0.579393    0.761877    2.526185
     14          8           0        1.352067    1.847930    0.795471
     15          6           0        0.364048    2.859453   -3.109935
     16          1           0        0.595136   -0.826690   -1.484239
     17          1           0        0.445999   -4.225643    2.125952
     18          1           0        2.215898   -2.679018   -1.467787
     19          1           0       -1.184452   -2.375443    2.131332
     20          1           0        2.152060   -4.384032    0.331507
     21          1           0       -1.627929   -0.064144   -0.724623
     22          1           0       -1.727626    1.714923    1.032487
     23          1           0        1.781748    1.934154   -1.786141
     24          1           0        1.189962    3.537183   -1.243589
     25          1           0       -3.315055   -0.067613    0.639949
     26          1           0       -0.350794    1.718791    3.009341
     27          1           0       -1.421748    0.313242    3.062082
     28          1           0        0.298301    0.120893    2.658909
     29          1           0        0.056563    1.924313   -3.589690
     30          1           0        1.116203    3.347292   -3.736110
     31          1           0       -0.523698    3.498600   -3.060198
 ---------------------------------------------------------------------
                    Distance matrix (angstroms):
                    1          2          3          4          5
     1  C    0.000000
     2  C    2.786656   0.000000
     3  C    1.396592   2.410547   0.000000
     4  C    1.404520   2.435246   2.435310   0.000000
     5  C    2.411223   1.396168   2.785504   1.403690   0.000000
     6  C    2.416765   1.392487   1.392709   2.813699   2.415727
     7  C    2.531411   3.834290   3.821405   1.517184   2.550675
     8  C    3.400310   4.677082   4.639825   2.579747   3.450557
     9  C    3.342754   5.202333   4.510434   3.140217   4.229843
    10  O    3.587813   5.926970   4.841678   3.651242   4.955817
    11  C    4.293730   6.810315   5.333690   4.722625   6.030696
    12  O    3.658696   4.188642   4.793265   2.408354   2.820444
    13  C    4.116844   4.528554   5.083676   3.120862   3.406740
    14  O    3.798671   5.424237   4.696219   3.771906   4.668263
    15  C    5.045236   7.743406   6.085513   5.569854   6.956009
    16  H    1.087619   3.874007   2.142443   2.170094   3.406104
    17  H    3.873357   1.086710   3.396470   3.416450   2.154221
    18  H    2.156138   3.395365   1.086821   3.417867   3.872324
    19  H    3.403733   2.147364   3.873851   2.164639   1.088473
    20  H    3.402083   2.152663   2.153608   3.900281   3.400702
    21  H    2.641799   4.510738   4.009893   2.121077   3.353877
    22  H    4.340678   5.650454   5.644195   3.496577   4.348605
    23  H    3.865108   6.383516   4.686212   4.557876   5.807566
    24  H    5.166732   7.508858   6.178323   5.471619   6.701198
    25  H    4.348267   5.148862   5.577023   3.224947   3.783645
    26  H    5.017391   5.521587   5.971357   4.150009   4.471818
    27  H    4.626490   4.577954   5.559419   3.402633   3.383521
    28  H    3.747150   3.837868   4.469196   2.898654   2.964570
    29  H    4.564528   7.324285   5.569330   5.194466   6.593089
    30  H    5.807150   8.528616   6.703982   6.473741   7.843607
    31  H    5.691204   8.307930   6.851700   6.000055   7.380481
                    6          7          8          9         10
     6  C    0.000000
     7  C    4.330717   0.000000
     8  C    5.165743   1.539501   0.000000
     9  C    5.318582   2.521980   1.515744   0.000000
    10  O    5.879537   2.881205   2.362671   1.365415   0.000000
    11  C    6.512843   4.219434   3.684661   2.350500   1.433627
    12  O    5.006170   1.434507   2.424909   3.761516   4.112111
    13  C    5.255735   2.574208   1.530801   2.511745   3.706920
    14  O    5.435683   3.515020   2.438375   1.222912   2.290387
    15  C    7.367788   4.982030   4.738461   3.645379   2.388437
    16  H    3.392465   2.743249   3.455293   3.055074   2.921231
    17  H    2.153460   4.703501   5.485059   6.120569   6.928625
    18  H    2.151893   4.686728   5.430039   5.050150   5.215916
    19  H    3.395370   2.766804   3.534840   4.615577   5.421806
    20  H    1.086583   5.417278   6.217195   6.295742   6.856190
    21  H    4.771664   1.097613   2.177164   2.727919   2.528736
    22  H    6.196714   2.153067   1.099321   2.106751   2.564822
    23  H    5.904524   4.416985   4.024939   2.619263   2.078520
    24  H    7.280727   4.879199   4.026956   2.645123   2.076274
    25  H    5.908554   1.956722   2.652356   3.957625   4.101369
    26  H    6.189501   3.513552   2.170621   2.761987   3.976604
    27  H    5.539372   2.804002   2.181723   3.470330   4.528666
    28  H    4.507526   2.914629   2.189875   2.781019   4.073258
    29  H    6.886491   4.726440   4.830964   3.922133   2.642263
    30  H    8.027881   6.003353   5.710567   4.489550   3.348976
    31  H    8.078287   5.155472   4.835077   3.941271   2.642236
                   11         12         13         14         15
    11  C    0.000000
    12  O    5.513475   0.000000
    13  C    4.857240   3.012719   0.000000
    14  O    2.660773   4.745992   2.811657   0.000000
    15  C    1.516067   6.155630   6.087343   4.153499   0.000000
    16  H    3.440961   4.020373   4.470633   3.594943   4.035336
    17  H    7.841261   4.831251   5.107541   6.283266   8.810210
    18  H    5.436685   5.747912   5.967010   5.134374   6.066354
    19  H    6.624691   2.527280   3.219438   5.104442   7.567883
    20  H    7.377100   6.061243   6.225578   6.300207   8.216360
    21  H    3.804682   2.022233   3.514185   3.853193   4.266744
    22  H    3.910488   2.600366   2.111366   3.091662   4.779614
    23  H    1.095818   5.813250   5.054243   2.618546   2.149065
    24  H    1.095621   6.112117   5.004411   2.652851   2.150511
    25  H    5.520486   0.971731   3.424878   5.047329   6.013746
    26  H    4.971445   3.952308   1.096076   2.796003   6.265592
    27  H    5.787017   2.686869   1.094542   3.897030   6.911298
    28  H    5.065009   3.525486   1.094908   2.750542   6.386204
    29  H    2.159876   5.865416   6.257765   4.573162   1.095080
    30  H    2.162818   7.219250   6.983964   4.779011   1.093536
    31  H    2.160249   6.158675   6.220966   4.594495   1.095023
                   16         17         18         19         20
    16  H    0.000000
    17  H    4.960706   0.000000
    18  H    2.461353   4.294130   0.000000
    19  H    4.317166   2.466098   4.960664   0.000000
    20  H    4.286680   2.481081   2.479638   4.290234   0.000000
    21  H    2.469922   5.453901   4.707957   3.700710   5.836536
    22  H    4.264848   6.419551   6.411666   4.270081   7.262271
    23  H    3.020174   7.418342   4.644480   6.535867   6.673907
    24  H    4.410796   8.495220   6.304282   7.210207   8.133401
    25  H    4.514197   5.800254   6.469423   3.477035   6.972514
    26  H    5.250383   6.062306   6.780362   4.269501   7.118956
    27  H    5.102577   4.996628   6.534967   2.855106   6.503270
    28  H    4.260481   4.381579   5.342874   2.951031   5.398849
    29  H    3.505853   8.404891   5.509615   7.263478   7.717649
    30  H    4.771222   9.600119   6.532306   8.512907   8.797265
    31  H    4.737464   9.354164   6.942918   7.867207   8.988839
                   21         22         23         24         25
    21  H    0.000000
    22  H    2.502490   0.000000
    23  H    4.092177   4.506488   0.000000
    24  H    4.602108   4.124739   1.792840   0.000000
    25  H    2.169900   2.418978   5.989189   6.069387   0.000000
    26  H    4.330407   2.409073   5.252691   4.875233   4.194294
    27  H    3.811045   2.485463   6.032827   5.979434   3.097804
    28  H    3.897807   3.048042   5.024640   5.262660   4.143438
    29  H    3.872994   4.959002   2.495827   3.064333   5.764150
    30  H    5.313870   5.787186   2.498457   2.500832   7.102642
    31  H    4.400838   4.623961   3.063624   2.497636   5.848131
                   26         27         28         29         30
    26  H    0.000000
    27  H    1.767850   0.000000
    28  H    1.759945   1.777108   0.000000
    29  H    6.614786   7.001930   6.508131   0.000000
    30  H    7.092617   7.865244   7.209361   1.780210   0.000000
    31  H    6.327473   6.959548   6.692740   1.759387   1.780176
                   31
    31  H    0.000000
 Stoichiometry    C12H16O3
 Framework group  C1[X(C12H16O3)]
 Deg. of freedom    87
 Full point group                 C1      NOp   1
 Largest Abelian subgroup         C1      NOp   1
 Largest concise Abelian subgroup C1      NOp   1
                         Standard orientation:                         
 ---------------------------------------------------------------------
 Center     Atomic      Atomic             Coordinates (Angstroms)
 Number     Number       Type             X           Y           Z
 ---------------------------------------------------------------------
      1          6           0       -1.005966   -1.377827   -0.391263
      2          6           0       -3.573763   -0.547193    0.302942
      3          6           0       -1.944512   -2.307382    0.062089
      4          6           0       -1.336612   -0.017113   -0.499925
      5          6           0       -2.635661    0.382723   -0.149282
      6          6           0       -3.227324   -1.891624    0.410196
      7          6           0       -0.297726    0.981373   -0.974887
      8          6           0        0.588410    1.579425    0.132886
      9          6           0        1.497685    0.528015    0.737231
     10          8           0        2.304414   -0.004182   -0.227296
     11          6           0        3.221636   -0.995076    0.254491
     12          8           0       -0.950205    2.044933   -1.682644
     13          6           0       -0.192459    2.322228    1.220011
     14          8           0        1.545331    0.226126    1.921337
     15          6           0        4.008441   -1.523706   -0.928703
     16          1           0       -0.012827   -1.729031   -0.661901
     17          1           0       -4.574776   -0.219467    0.570347
     18          1           0       -1.674011   -3.356835    0.143690
     19          1           0       -2.924527    1.429049   -0.230099
     20          1           0       -3.957458   -2.614770    0.763222
     21          1           0        0.323782    0.475022   -1.724615
     22          1           0        1.248151    2.331062   -0.323502
     23          1           0        2.668262   -1.815094    0.725834
     24          1           0        3.904343   -0.541965    0.981807
     25          1           0       -0.269365    2.507661   -2.198979
     26          1           0        0.496903    2.818107    1.913023
     27          1           0       -0.839863    3.092457    0.789154
     28          1           0       -0.809832    1.643100    1.817053
     29          1           0        3.335604   -1.959424   -1.674786
     30          1           0        4.725515   -2.285922   -0.611446
     31          1           0        4.550879   -0.712025   -1.424697
 ---------------------------------------------------------------------
 Rotational constants (GHZ):      0.8357290      0.4071516      0.3419007
 Standard basis: 6-31+G(d,p) (6D, 7F)
 There are   365 symmetry adapted basis functions of A   symmetry.
 Integral buffers will be    131072 words long.
 Raffenetti 2 integral format.
 Two-electron integral symmetry is turned on.
   365 basis functions,   592 primitive gaussians,   365 cartesian basis functions
    56 alpha electrons       56 beta electrons
       nuclear repulsion energy      1015.1629635876 Hartrees.
 NAtoms=   31 NActive=   31 NUniq=   31 SFac= 1.00D+00 NAtFMM=   60 NAOKFM=F Big=F
 Nuclear repulsion after empirical dispersion term =     1015.1413597023 Hartrees.
 ------------------------------------------------------------------------------
 Polarizable Continuum Model (PCM)
 =================================
 Model                : C-PCM.
 Atomic radii         : SMD-Coulomb.
 Polarization charges : Total charges.
 Charge compensation  : None.
 Solution method      : Matrix inversion.
 Cavity type          : VdW (van der Waals Surface) (Alpha=1.000).
 Cavity algorithm     : GePol (No added spheres)
                        Default sphere list used, NSphG=   31.
                        Lebedev-Laikov grids with approx.  5.0 points / Ang**2.
                        Smoothing algorithm: Karplus/York (Gamma=1.0000).
                        Polarization charges: spherical gaussians, with
                                              point-specific exponents (IZeta= 3).
                        Self-potential: point-specific (ISelfS= 7).
                        Self-field    : sphere-specific E.n sum rule (ISelfD= 2).
 Solvent              : Chloroform, Eps=   4.711300 Eps(inf)=   2.090627
 ------------------------------------------------------------------------------
 ------------------------------------------------------------------------------
 Atomic radii for non-electrostatic terms: SMD-CDS.
 ------------------------------------------------------------------------------
 Nuclear repulsion after PCM non-electrostatic terms =     1015.1346669053 Hartrees.
 One-electron integrals computed using PRISM.
 NBasis=   365 RedAO= T  NBF=   365
 NBsUse=   365 1.00D-06 NBFU=   365
 Harris functional with IExCor= 4639 diagonalized for initial guess.
 ExpMin= 4.38D-02 ExpMax= 5.48D+03 ExpMxC= 8.25D+02 IAcc=2 IRadAn=         4 AccDes= 0.00D+00
 HarFok:  IExCor= 4639 AccDes= 0.00D+00 IRadAn=         4 IDoV= 1
 ScaDFX=  1.000000  1.000000  1.000000  1.000000
 FoFCou: FMM=F IPFlag=           0 FMFlag=      100000 FMFlg1=           0
         NFxFlg=           0 DoJE=T BraDBF=F KetDBF=T FulRan=T
         Omega=  0.000000  0.000000  1.000000  0.000000  0.000000 ICntrl=     500 IOpCl=  0
         NMat0=    1 NMatS0=    1 NMatT0=    0 NMatD0=    1 NMtDS0=    0 NMtDT0=    0
         I1Cent=           4 NGrid=           0.
 Petite list used in FoFCou.
 Initial guess orbital symmetries:
       Occupied  (A) (A) (A) (A) (A) (A) (A) (A) (A) (A) (A) (A)
                 (A) (A) (A) (A) (A) (A) (A) (A) (A) (A) (A) (A)
                 (A) (A) (A) (A) (A) (A) (A) (A) (A) (A) (A) (A)
                 (A) (A) (A) (A) (A) (A) (A) (A) (A) (A) (A) (A)
                 (A) (A) (A) (A) (A) (A) (A) (A)
       Virtual   (A) (A) (A) (A) (A) (A) (A) (A) (A) (A) (A) (A)
                 (A) (A) (A) (A) (A) (A) (A) (A) (A) (A) (A) (A)
                 (A) (A) (A) (A) (A) (A) (A) (A) (A) (A) (A) (A)
                 (A) (A) (A) (A) (A) (A) (A) (A) (A) (A) (A) (A)
                 (A) (A) (A) (A) (A) (A) (A) (A) (A) (A) (A) (A)
                 (A) (A) (A) (A) (A) (A) (A) (A) (A) (A) (A) (A)
                 (A) (A) (A) (A) (A) (A) (A) (A) (A) (A) (A) (A)
                 (A) (A) (A) (A) (A) (A) (A) (A) (A) (A) (A) (A)
                 (A) (A) (A) (A) (A) (A) (A) (A) (A) (A) (A) (A)
                 (A) (A) (A) (A) (A) (A) (A) (A) (A) (A) (A) (A)
                 (A) (A) (A) (A) (A) (A) (A) (A) (A) (A) (A) (A)
                 (A) (A) (A) (A) (A) (A) (A) (A) (A) (A) (A) (A)
                 (A) (A) (A) (A) (A) (A) (A) (A) (A) (A) (A) (A)
                 (A) (A) (A) (A) (A) (A) (A) (A) (A) (A) (A) (A)
                 (A) (A) (A) (A) (A) (A) (A) (A) (A) (A) (A) (A)
                 (A) (A) (A) (A) (A) (A) (A) (A) (A) (A) (A) (A)
                 (A) (A) (A) (A) (A) (A) (A) (A) (A) (A) (A) (A)
                 (A) (A) (A) (A) (A) (A) (A) (A) (A) (A) (A) (A)
                 (A) (A) (A) (A) (A) (A) (A) (A) (A) (A) (A) (A)
                 (A) (A) (A) (A) (A) (A) (A) (A) (A) (A) (A) (A)
                 (A) (A) (A) (A) (A) (A) (A) (A) (A) (A) (A) (A)
                 (A) (A) (A) (A) (A) (A) (A) (A) (A) (A) (A) (A)
                 (A) (A) (A) (A) (A) (A) (A) (A) (A) (A) (A) (A)
                 (A) (A) (A) (A) (A) (A) (A) (A) (A) (A) (A) (A)
                 (A) (A) (A) (A) (A) (A) (A) (A) (A) (A) (A) (A)
                 (A) (A) (A) (A) (A) (A) (A) (A) (A)
 The electronic state of the initial guess is 1-A.
 Requested convergence on RMS density matrix=1.00D-08 within 128 cycles.
 Requested convergence on MAX density matrix=1.00D-06.
 Requested convergence on             energy=1.00D-06.
 No special actions if energy rises.
 FoFJK:  IHMeth= 1 ICntrl=     0 DoSepK=T KAlg= 1 I1Cent= 0 FoldK=F
 FoFJK:  IHMeth= 1 ICntrl=     0 DoSepK=T KAlg= 1 I1Cent= 0 FoldK=F
 FoFJK:  IHMeth= 1 ICntrl=     0 DoSepK=T KAlg= 1 I1Cent= 0 FoldK=F
 FoFJK:  IHMeth= 1 ICntrl=     0 DoSepK=T KAlg= 1 I1Cent= 0 FoldK=F
 FoFJK:  IHMeth= 1 ICntrl=     0 DoSepK=T KAlg= 1 I1Cent= 0 FoldK=F
 FoFJK:  IHMeth= 1 ICntrl=     0 DoSepK=T KAlg= 1 I1Cent= 0 FoldK=F
 FoFJK:  IHMeth= 1 ICntrl=     0 DoSepK=T KAlg= 1 I1Cent= 0 FoldK=F
 FoFJK:  IHMeth= 1 ICntrl=     0 DoSepK=T KAlg= 1 I1Cent= 0 FoldK=F
 FoFJK:  IHMeth= 1 ICntrl=     0 DoSepK=T KAlg= 1 I1Cent= 0 FoldK=F
 FoFJK:  IHMeth= 1 ICntrl=     0 DoSepK=T KAlg= 1 I1Cent= 0 FoldK=F
 FoFJK:  IHMeth= 1 ICntrl=     0 DoSepK=T KAlg= 1 I1Cent= 0 FoldK=F
 FoFJK:  IHMeth= 1 ICntrl=     0 DoSepK=T KAlg= 1 I1Cent= 0 FoldK=F
 FoFJK:  IHMeth= 1 ICntrl=     0 DoSepK=T KAlg= 1 I1Cent= 0 FoldK=F
 FoFJK:  IHMeth= 1 ICntrl=     0 DoSepK=T KAlg= 1 I1Cent= 0 FoldK=F
 FoFJK:  IHMeth= 1 ICntrl=     0 DoSepK=T KAlg= 1 I1Cent= 0 FoldK=F
 FoFJK:  IHMeth= 1 ICntrl=     0 DoSepK=T KAlg= 1 I1Cent= 0 FoldK=F
 Error on total polarization charges =  0.03878
 SCF Done:  E(RwB97XD) =  -692.445177146     A.U. after   16 cycles
             Convg  =    0.3497D-08             -V/T =  2.0096
 SMD-CDS (non-electrostatic) energy       (kcal/mol) =      -4.20
 (included in total energy above)
 Range of M.O.s used for correlation:     1   365
 NBasis=   365 NAE=    56 NBE=    56 NFC=     0 NFV=     0
 NROrb=    365 NOA=    56 NOB=    56 NVA=   309 NVB=   309

 **** Warning!!: The largest alpha MO coefficient is  0.10665853D+03

 NEqPCM:  Using equilibrium solvation (IEInf=0, Eps=   4.7113, EpsInf=   2.0906)
          Differentiating once with respect to magnetic field using GIAOs.
          Electric field/nuclear overlap derivatives assumed to be zero.
 FoFCou: FMM=F IPFlag=           0 FMFlag=    10101102 FMFlg1=           0
         NFxFlg=    40000000 DoJE=F BraDBF=F KetDBF=T FulRan=T
         Omega=  0.000000  0.000000  1.000000  0.000000  0.000000 ICntrl=    6100 IOpCl=  0
         NMat0=    1 NMatS0=    1 NMatT0=    0 NMatD0=    1 NMtDS0=    0 NMtDT0=    0
         I1Cent=           7 NGrid=        2287.
 Symmetry not used in FoFCou.
 FoFJK:  IHMeth= 1 ICntrl=  6127 DoSepK=T KAlg= 1 I1Cent= 0 FoldK=F
 FoFJK:  IHMeth= 1 ICntrl=     0 DoSepK=T KAlg= 1 I1Cent= 0 FoldK=F
          There are     3 degrees of freedom in the 1st order CPHF.  IDoFFX=0.
      3 vectors produced by pass  0 Test12= 5.77D-13 3.33D-08 XBig12= 1.30D+02 1.79D+00.
 AX will form     3 AO Fock derivatives at one time.
 FoFJK:  IHMeth= 1 ICntrl=     0 DoSepK=T KAlg= 1 I1Cent= 0 FoldK=F
      3 vectors produced by pass  1 Test12= 5.77D-13 3.33D-08 XBig12= 1.04D+00 2.94D-01.
 FoFJK:  IHMeth= 1 ICntrl=     0 DoSepK=T KAlg= 1 I1Cent= 0 FoldK=F
      3 vectors produced by pass  2 Test12= 5.77D-13 3.33D-08 XBig12= 2.23D-02 5.67D-02.
 FoFJK:  IHMeth= 1 ICntrl=     0 DoSepK=T KAlg= 1 I1Cent= 0 FoldK=F
      3 vectors produced by pass  3 Test12= 5.77D-13 3.33D-08 XBig12= 3.97D-04 3.67D-03.
 FoFJK:  IHMeth= 1 ICntrl=     0 DoSepK=T KAlg= 1 I1Cent= 0 FoldK=F
      3 vectors produced by pass  4 Test12= 5.77D-13 3.33D-08 XBig12= 6.01D-06 5.58D-04.
 FoFJK:  IHMeth= 1 ICntrl=     0 DoSepK=T KAlg= 1 I1Cent= 0 FoldK=F
      3 vectors produced by pass  5 Test12= 5.77D-13 3.33D-08 XBig12= 1.36D-07 1.02D-04.
 FoFJK:  IHMeth= 1 ICntrl=     0 DoSepK=T KAlg= 1 I1Cent= 0 FoldK=F
      3 vectors produced by pass  6 Test12= 5.77D-13 3.33D-08 XBig12= 2.72D-09 1.29D-05.
 FoFJK:  IHMeth= 1 ICntrl=     0 DoSepK=T KAlg= 1 I1Cent= 0 FoldK=F
      3 vectors produced by pass  7 Test12= 5.77D-13 3.33D-08 XBig12= 3.33D-11 9.12D-07.
 FoFJK:  IHMeth= 1 ICntrl=     0 DoSepK=T KAlg= 1 I1Cent= 0 FoldK=F
      1 vectors produced by pass  8 Test12= 5.77D-13 3.33D-08 XBig12= 3.31D-13 8.83D-08.
 FoFJK:  IHMeth= 1 ICntrl=     0 DoSepK=T KAlg= 1 I1Cent= 0 FoldK=F
 Inverted reduced A of dimension    25 with in-core refinement.
 Calculating GIAO nuclear magnetic shielding tensors.
 SCF GIAO Magnetic shielding tensor (ppm):
      1  C    Isotropic =    72.3367   Anisotropy =   164.7780
   XX=    -0.5842   YX=    26.8907   ZX=    55.0520
   XY=    33.1278   YY=    51.9885   ZY=    11.0047
   XZ=    50.0808   YZ=    -1.1756   ZZ=   165.6057
   Eigenvalues:   -25.6317    60.4530   182.1887
      2  C    Isotropic =    70.6778   Anisotropy =   175.9707
   XX=    -6.3271   YX=    30.3938   ZX=    57.6199
   XY=    31.9031   YY=    51.4744   ZY=    12.9692
   XZ=    60.0967   YZ=     9.6858   ZZ=   166.8863
   Eigenvalues:   -32.9038    56.9457   187.9917
      3  C    Isotropic =    70.4959   Anisotropy =   173.8896
   XX=    64.5819   YX=    27.6769   ZX=    35.5853
   XY=    27.6542   YY=   -24.0713   ZY=    24.7209
   XZ=    33.9262   YZ=    26.7103   ZZ=   170.9772
   Eigenvalues:   -33.2128    58.2783   186.4223
      4  C    Isotropic =    57.3236   Anisotropy =   177.5809
   XX=    18.5370   YX=   -24.8682   ZX=    56.1567
   XY=   -21.1740   YY=     3.3585   ZY=    30.3685
   XZ=    64.2969   YZ=    28.8515   ZZ=   150.0752
   Eigenvalues:   -33.9962    30.2561   175.7108
      5  C    Isotropic =    70.9429   Anisotropy =   182.8543
   XX=    55.9427   YX=    28.9051   ZX=    39.0479
   XY=    30.0596   YY=   -21.1573   ZY=    28.9825
   XZ=    34.2039   YZ=    19.7122   ZZ=   178.0432
   Eigenvalues:   -31.8080    51.7909   192.8457
      6  C    Isotropic =    71.6493   Anisotropy =   175.5079
   XX=    30.6741   YX=   -30.9264   ZX=    56.3370
   XY=   -31.6006   YY=    21.1563   ZY=    37.7791
   XZ=    58.0911   YZ=    40.6141   ZZ=   163.1173
   Eigenvalues:   -29.4798    55.7730   188.6545
      7  C    Isotropic =   122.4741   Anisotropy =    37.6763
   XX=   116.4226   YX=   -10.6133   ZX=    12.6776
   XY=   -11.5322   YY=   136.4694   ZY=   -13.9932
   XZ=     8.7437   YZ=    -7.4632   ZZ=   114.5305
   Eigenvalues:   104.7150   115.1157   147.5917
      8  C    Isotropic =   147.1843   Anisotropy =    28.2850
   XX=   149.8407   YX=   -10.7653   ZX=     5.9276
   XY=    -8.2132   YY=   152.2149   ZY=     2.1268
   XZ=    22.2162   YZ=    -7.4041   ZZ=   139.4972
   Eigenvalues:   129.1494   146.3624   166.0410
      9  C    Isotropic =    20.9070   Anisotropy =    95.6959
   XX=     6.2642   YX=    69.1659   ZX=    20.7492
   XY=    63.5049   YY=    25.2444   ZY=    -6.4352
   XZ=    46.3168   YZ=   -27.3370   ZZ=    31.2123
   Eigenvalues:   -65.0947    43.1113    84.7042
     10  O    Isotropic =   130.2476   Anisotropy =   173.3281
   XX=   182.7124   YX=    38.9542   ZX=   -47.9788
   XY=    52.4956   YY=   141.3551   ZY=    62.3177
   XZ=  -149.4479   YZ=   164.6514   ZZ=    66.6754
   Eigenvalues:   -62.2811   207.2243   245.7997
     11  C    Isotropic =   136.2909   Anisotropy =    58.1596
   XX=   141.5168   YX=   -28.8003   ZX=    14.1914
   XY=   -26.8100   YY=   143.1302   ZY=   -15.1977
   XZ=     7.3916   YZ=    -7.9496   ZZ=   124.2257
   Eigenvalues:   114.4867   119.3221   175.0640
     12  O    Isotropic =   287.4471   Anisotropy =    91.2280
   XX=   287.8988   YX=    46.4662   ZX=   -15.3881
   XY=    25.7640   YY=   294.4610   ZY=   -50.0591
   XZ=     6.4893   YZ=   -38.1714   ZZ=   279.9815
   Eigenvalues:   233.6148   280.4607   348.2658
     13  C    Isotropic =   186.6728   Anisotropy =    10.7100
   XX=   188.4118   YX=    -3.3324   ZX=    -4.8138
   XY=    -3.2251   YY=   185.3886   ZY=     4.1294
   XZ=    -2.0326   YZ=     3.5304   ZZ=   186.2180
   Eigenvalues:   181.9444   184.2612   193.8128
     14  O    Isotropic =   -56.1062   Anisotropy =   577.2136
   XX=    43.1676   YX=   251.4742   ZX=    81.5661
   XY=   243.1896   YY=    88.5479   ZY=    40.0413
   XZ=    97.9127   YZ=    53.9953   ZZ=  -300.0341
   Eigenvalues:  -322.8000  -174.2215   328.7029
     15  C    Isotropic =   182.2368   Anisotropy =    23.0687
   XX=   181.6276   YX=   -11.3762   ZX=    -5.3776
   XY=   -10.2983   YY=   177.7999   ZY=     1.2172
   XZ=   -10.3796   YZ=     6.0402   ZZ=   187.2828
   Eigenvalues:   168.3782   180.7162   197.6159
     16  H    Isotropic =    24.1476   Anisotropy =     8.1121
   XX=    24.5519   YX=     2.8170   ZX=    -0.2236
   XY=     2.3828   YY=    28.1977   ZY=     0.0824
   XZ=    -0.8621   YZ=    -0.0427   ZZ=    19.6930
   Eigenvalues:    19.6203    23.2667    29.5557
     17  H    Isotropic =    23.6960   Anisotropy =     4.9343
   XX=    24.4656   YX=     1.0412   ZX=    -1.1697
   XY=     1.1212   YY=    26.0345   ZY=    -1.2346
   XZ=    -1.0595   YZ=    -1.2011   ZZ=    20.5879
   Eigenvalues:    20.1436    23.9589    26.9856
     18  H    Isotropic =    23.8918   Anisotropy =     5.4671
   XX=    26.3163   YX=     1.1726   ZX=    -1.8533
   XY=     1.3674   YY=    24.4731   ZY=    -0.5636
   XZ=    -1.9116   YZ=    -0.6271   ZZ=    20.8861
   Eigenvalues:    20.2881    23.8508    27.5365
     19  H    Isotropic =    23.4169   Anisotropy =     9.8213
   XX=    29.0158   YX=     1.4605   ZX=    -2.3616
   XY=     2.1868   YY=    21.3040   ZY=    -0.7966
   XZ=    -1.9222   YZ=    -1.3191   ZZ=    19.9309
   Eigenvalues:    19.2144    21.0719    29.9644
     20  H    Isotropic =    23.8659   Anisotropy =     4.0106
   XX=    25.3954   YX=    -1.0773   ZX=    -1.2249
   XY=    -0.9902   YY=    25.4638   ZY=    -0.3342
   XZ=    -1.1358   YZ=    -0.1856   ZZ=    20.7386
   Eigenvalues:    20.4067    24.6514    26.5397
     21  H    Isotropic =    25.9060   Anisotropy =     7.1733
   XX=    25.7328   YX=    -4.0578   ZX=    -0.3726
   XY=    -3.9785   YY=    27.1845   ZY=     0.9361
   XZ=    -2.3880   YZ=    -0.8499   ZZ=    24.8006
   Eigenvalues:    21.9840    25.0458    30.6882
     22  H    Isotropic =    28.6527   Anisotropy =     5.7807
   XX=    30.3594   YX=     1.5787   ZX=    -2.9989
   XY=     1.6001   YY=    29.1451   ZY=    -1.8698
   XZ=    -2.2019   YZ=     0.6821   ZZ=    26.4536
   Eigenvalues:    25.1454    28.3062    32.5065
     23  H    Isotropic =    27.4517   Anisotropy =     5.9447
   XX=    26.7971   YX=    -2.0332   ZX=    -1.9866
   XY=    -1.2097   YY=    29.9843   ZY=    -3.0719
   XZ=    -1.8829   YZ=    -2.4495   ZZ=    25.5735
   Eigenvalues:    22.7500    28.1902    31.4148
     24  H    Isotropic =    27.4985   Anisotropy =     7.2430
   XX=    30.1722   YX=    -1.9116   ZX=     3.1378
   XY=    -2.2289   YY=    24.3773   ZY=     1.3790
   XZ=     2.8905   YZ=     2.4271   ZZ=    27.9461
   Eigenvalues:    22.2467    27.9217    32.3272
     25  H    Isotropic =    29.7187   Anisotropy =    18.9277
   XX=    30.2023   YX=     2.9066   ZX=    -5.3525
   XY=     5.0708   YY=    29.1628   ZY=    -9.2253
   XZ=    -5.7114   YZ=    -8.9482   ZZ=    29.7909
   Eigenvalues:    20.2573    26.5616    42.3372
     26  H    Isotropic =    30.7232   Anisotropy =    11.0545
   XX=    29.6367   YX=     2.4206   ZX=     2.6196
   XY=     1.5482   YY=    30.9465   ZY=     5.1506
   XZ=     3.4665   YZ=     5.4465   ZZ=    31.5864
   Eigenvalues:    25.8030    28.2737    38.0929
     27  H    Isotropic =    30.1423   Anisotropy =     8.8980
   XX=    29.2966   YX=    -4.3801   ZX=     1.3530
   XY=    -4.8787   YY=    32.9068   ZY=     0.1432
   XZ=     1.2952   YZ=     1.2568   ZZ=    28.2236
   Eigenvalues:    25.3590    28.9937    36.0744
     28  H    Isotropic =    31.0010   Anisotropy =     6.0340
   XX=    31.2415   YX=     3.4050   ZX=    -3.2544
   XY=     2.6381   YY=    29.3652   ZY=    -1.0825
   XZ=    -1.7861   YZ=     1.6016   ZZ=    32.3961
   Eigenvalues:    26.5912    31.3880    35.0236
     29  H    Isotropic =    30.1822   Anisotropy =     7.3569
   XX=    29.8768   YX=     0.8147   ZX=     1.1145
   XY=     0.6716   YY=    28.9363   ZY=     3.9031
   XZ=     2.1275   YZ=     3.9340   ZZ=    31.7334
   Eigenvalues:    26.1426    29.3173    35.0868
     30  H    Isotropic =    30.3280   Anisotropy =    10.9684
   XX=    32.2592   YX=    -5.7558   ZX=     0.2538
   XY=    -5.6798   YY=    31.5214   ZY=    -0.6710
   XZ=     0.0786   YZ=    -0.3181   ZZ=    27.2033
   Eigenvalues:    26.1041    27.2395    37.6402
     31  H    Isotropic =    30.2614   Anisotropy =     8.6181
   XX=    31.2173   YX=     2.2198   ZX=    -4.0787
   XY=     2.2190   YY=    30.0114   ZY=    -1.6685
   XZ=    -3.8245   YZ=    -2.6315   ZZ=    29.5555
   Eigenvalues:    26.3193    28.4581    36.0068
 End of Minotr Frequency-dependent properties file   721 does not exist.
 End of Minotr Frequency-dependent properties file   722 does not exist.

 **********************************************************************

            Population analysis using the SCF density.

 **********************************************************************

 Orbital symmetries:
       Occupied  (A) (A) (A) (A) (A) (A) (A) (A) (A) (A) (A) (A)
                 (A) (A) (A) (A) (A) (A) (A) (A) (A) (A) (A) (A)
                 (A) (A) (A) (A) (A) (A) (A) (A) (A) (A) (A) (A)
                 (A) (A) (A) (A) (A) (A) (A) (A) (A) (A) (A) (A)
                 (A) (A) (A) (A) (A) (A) (A) (A)
       Virtual   (A) (A) (A) (A) (A) (A) (A) (A) (A) (A) (A) (A)
                 (A) (A) (A) (A) (A) (A) (A) (A) (A) (A) (A) (A)
                 (A) (A) (A) (A) (A) (A) (A) (A) (A) (A) (A) (A)
                 (A) (A) (A) (A) (A) (A) (A) (A) (A) (A) (A) (A)
                 (A) (A) (A) (A) (A) (A) (A) (A) (A) (A) (A) (A)
                 (A) (A) (A) (A) (A) (A) (A) (A) (A) (A) (A) (A)
                 (A) (A) (A) (A) (A) (A) (A) (A) (A) (A) (A) (A)
                 (A) (A) (A) (A) (A) (A) (A) (A) (A) (A) (A) (A)
                 (A) (A) (A) (A) (A) (A) (A) (A) (A) (A) (A) (A)
                 (A) (A) (A) (A) (A) (A) (A) (A) (A) (A) (A) (A)
                 (A) (A) (A) (A) (A) (A) (A) (A) (A) (A) (A) (A)
                 (A) (A) (A) (A) (A) (A) (A) (A) (A) (A) (A) (A)
                 (A) (A) (A) (A) (A) (A) (A) (A) (A) (A) (A) (A)
                 (A) (A) (A) (A) (A) (A) (A) (A) (A) (A) (A) (A)
                 (A) (A) (A) (A) (A) (A) (A) (A) (A) (A) (A) (A)
                 (A) (A) (A) (A) (A) (A) (A) (A) (A) (A) (A) (A)
                 (A) (A) (A) (A) (A) (A) (A) (A) (A) (A) (A) (A)
                 (A) (A) (A) (A) (A) (A) (A) (A) (A) (A) (A) (A)
                 (A) (A) (A) (A) (A) (A) (A) (A) (A) (A) (A) (A)
                 (A) (A) (A) (A) (A) (A) (A) (A) (A) (A) (A) (A)
                 (A) (A) (A) (A) (A) (A) (A) (A) (A) (A) (A) (A)
                 (A) (A) (A) (A) (A) (A) (A) (A) (A) (A) (A) (A)
                 (A) (A) (A) (A) (A) (A) (A) (A) (A) (A) (A) (A)
                 (A) (A) (A) (A) (A) (A) (A) (A) (A) (A) (A) (A)
                 (A) (A) (A) (A) (A) (A) (A) (A) (A) (A) (A) (A)
                 (A) (A) (A) (A) (A) (A) (A) (A) (A)
 The electronic state is 1-A.
 Alpha  occ. eigenvalues --  -19.32850 -19.28349 -19.27795 -10.44072 -10.36323
 Alpha  occ. eigenvalues --  -10.35122 -10.31982 -10.31681 -10.30747 -10.30571
 Alpha  occ. eigenvalues --  -10.30517 -10.30455 -10.30385 -10.28936 -10.28427
 Alpha  occ. eigenvalues --   -1.21138  -1.13075  -1.12608  -0.96185  -0.91290
 Alpha  occ. eigenvalues --   -0.86882  -0.85281  -0.84603  -0.77926  -0.75604
 Alpha  occ. eigenvalues --   -0.70727  -0.69960  -0.67528  -0.65315  -0.61159
 Alpha  occ. eigenvalues --   -0.60330  -0.58903  -0.58796  -0.56698  -0.55962
 Alpha  occ. eigenvalues --   -0.54010  -0.52632  -0.50788  -0.50288  -0.49782
 Alpha  occ. eigenvalues --   -0.49414  -0.48157  -0.46043  -0.45561  -0.44756
 Alpha  occ. eigenvalues --   -0.44285  -0.44039  -0.43808  -0.43362  -0.42162
 Alpha  occ. eigenvalues --   -0.40630  -0.38779  -0.37723  -0.35869  -0.33120
 Alpha  occ. eigenvalues --   -0.32545
 Alpha virt. eigenvalues --    0.05045   0.05297   0.06439   0.07025   0.07788
 Alpha virt. eigenvalues --    0.08157   0.08441   0.09474   0.09713   0.10273
 Alpha virt. eigenvalues --    0.10692   0.11354   0.11667   0.12083   0.12499
 Alpha virt. eigenvalues --    0.13499   0.13822   0.14128   0.14883   0.15232
 Alpha virt. eigenvalues --    0.15731   0.16584   0.16981   0.17671   0.18292
 Alpha virt. eigenvalues --    0.18596   0.19006   0.19883   0.20147   0.20406
 Alpha virt. eigenvalues --    0.20741   0.21111   0.21735   0.22194   0.22850
 Alpha virt. eigenvalues --    0.23401   0.23767   0.24172   0.24733   0.25120
 Alpha virt. eigenvalues --    0.25343   0.25742   0.25987   0.26717   0.27353
 Alpha virt. eigenvalues --    0.27478   0.27702   0.28355   0.28901   0.28958
 Alpha virt. eigenvalues --    0.29644   0.29934   0.30061   0.30635   0.30820
 Alpha virt. eigenvalues --    0.31968   0.32268   0.32917   0.33371   0.33800
 Alpha virt. eigenvalues --    0.34001   0.34550   0.34799   0.35936   0.36044
 Alpha virt. eigenvalues --    0.36659   0.37312   0.37688   0.38222   0.38359
 Alpha virt. eigenvalues --    0.39147   0.39479   0.40614   0.40812   0.41868
 Alpha virt. eigenvalues --    0.42644   0.43020   0.43781   0.43957   0.44624
 Alpha virt. eigenvalues --    0.44995   0.46140   0.46746   0.47460   0.48677
 Alpha virt. eigenvalues --    0.49017   0.50814   0.51474   0.52569   0.53895
 Alpha virt. eigenvalues --    0.55473   0.56186   0.59977   0.66390   0.70056
 Alpha virt. eigenvalues --    0.72857   0.74168   0.75950   0.76179   0.76876
 Alpha virt. eigenvalues --    0.77364   0.78065   0.78939   0.79895   0.80826
 Alpha virt. eigenvalues --    0.82153   0.82597   0.83579   0.84108   0.84745
 Alpha virt. eigenvalues --    0.85162   0.86301   0.87895   0.89080   0.89627
 Alpha virt. eigenvalues --    0.91062   0.91750   0.93203   0.95817   0.97379
 Alpha virt. eigenvalues --    0.98287   0.99226   1.00370   1.01858   1.02692
 Alpha virt. eigenvalues --    1.03282   1.05182   1.05335   1.05747   1.07330
 Alpha virt. eigenvalues --    1.08267   1.09409   1.10661   1.11390   1.12819
 Alpha virt. eigenvalues --    1.13917   1.15222   1.17642   1.19203   1.20093
 Alpha virt. eigenvalues --    1.20945   1.21415   1.21768   1.23354   1.24316
 Alpha virt. eigenvalues --    1.25629   1.27076   1.27955   1.29554   1.30302
 Alpha virt. eigenvalues --    1.32929   1.34618   1.35795   1.36738   1.38068
 Alpha virt. eigenvalues --    1.38346   1.40957   1.42112   1.42778   1.45237
 Alpha virt. eigenvalues --    1.46349   1.46899   1.48179   1.49226   1.49337
 Alpha virt. eigenvalues --    1.50805   1.52022   1.52140   1.53677   1.54444
 Alpha virt. eigenvalues --    1.56447   1.57895   1.60383   1.61877   1.64042
 Alpha virt. eigenvalues --    1.69195   1.71016   1.72556   1.76455   1.78223
 Alpha virt. eigenvalues --    1.79829   1.82835   1.85505   1.87131   1.88309
 Alpha virt. eigenvalues --    1.89096   1.92014   1.92193   1.92707   1.95816
 Alpha virt. eigenvalues --    1.97545   1.99089   1.99720   2.00418   2.01628
 Alpha virt. eigenvalues --    2.02205   2.02931   2.04486   2.05514   2.06450
 Alpha virt. eigenvalues --    2.06936   2.08115   2.09193   2.10263   2.10806
 Alpha virt. eigenvalues --    2.11978   2.13725   2.15479   2.16806   2.18307
 Alpha virt. eigenvalues --    2.19509   2.19863   2.20885   2.20904   2.21345
 Alpha virt. eigenvalues --    2.22373   2.24921   2.26283   2.27414   2.27854
 Alpha virt. eigenvalues --    2.32677   2.36974   2.38326   2.39265   2.41012
 Alpha virt. eigenvalues --    2.41669   2.42056   2.45542   2.46044   2.48358
 Alpha virt. eigenvalues --    2.49489   2.51603   2.51732   2.53368   2.53719
 Alpha virt. eigenvalues --    2.56268   2.56589   2.56955   2.60013   2.62870
 Alpha virt. eigenvalues --    2.63949   2.64563   2.67693   2.68432   2.69133
 Alpha virt. eigenvalues --    2.70468   2.71279   2.73371   2.75198   2.75765
 Alpha virt. eigenvalues --    2.76656   2.78232   2.80145   2.81320   2.82705
 Alpha virt. eigenvalues --    2.84119   2.84477   2.86596   2.87950   2.89451
 Alpha virt. eigenvalues --    2.91524   2.92022   2.95064   2.95319   2.97291
 Alpha virt. eigenvalues --    2.99569   2.99906   3.03138   3.04515   3.10837
 Alpha virt. eigenvalues --    3.13018   3.16714   3.19584   3.20237   3.28503
 Alpha virt. eigenvalues --    3.29383   3.32817   3.36816   3.37423   3.39135
 Alpha virt. eigenvalues --    3.39797   3.44327   3.45387   3.49974   3.52230
 Alpha virt. eigenvalues --    3.54019   3.58101   3.59222   3.61021   3.63023
 Alpha virt. eigenvalues --    3.63615   3.63920   3.64970   3.99826   4.39709
 Alpha virt. eigenvalues --    4.41248   4.43905   4.49751   4.53942   4.56441
 Alpha virt. eigenvalues --    4.59625   4.61903   4.63886   4.70235   4.75762
 Alpha virt. eigenvalues --    4.78365   4.82437   4.93366   4.98996
          Condensed to atoms (all electrons):
              1          2          3          4          5          6
     1  C   16.826061   0.424337  -0.418080  -2.740614  -9.339687  -0.042841
     2  C    0.424337   6.689364   0.039120  -0.072618  -1.136027   0.284066
     3  C   -0.418080   0.039120   6.884466  -0.354553  -0.406414   0.338141
     4  C   -2.740614  -0.072618  -0.354553  13.523141  -1.943641  -0.779742
     5  C   -9.339687  -1.136027  -0.406414  -1.943641  18.658662   0.605207
     6  C   -0.042841   0.284066   0.338141  -0.779742   0.605207   5.463189
     7  C    1.329051  -0.414597  -0.155095  -1.994010  -0.846194   0.020641
     8  C   -0.179477   0.163821   0.164856   0.052701   0.113681  -0.033311
     9  C   -0.552513   0.036433  -0.176851   0.585854   0.314975  -0.008267
    10  O    0.171694   0.004354   0.034984  -0.175749  -0.102364  -0.003262
    11  C    0.113751   0.009858   0.021011  -0.070563  -0.044432  -0.002265
    12  O   -0.114345   0.101404  -0.024129   0.090190  -0.052338  -0.002842
    13  C    0.047429  -0.044680  -0.003523  -0.104717  -0.025791   0.012133
    14  O    0.030500  -0.002429  -0.012852  -0.011606  -0.016353   0.005454
    15  C   -0.009936   0.000656  -0.008153   0.027884   0.003263  -0.001710
    16  H    0.082690   0.002058   0.044927   0.155385   0.035242  -0.012388
    17  H    0.003914   0.271798  -0.004188   0.037139   0.014331   0.004866
    18  H    0.025563  -0.008665   0.254153   0.020756   0.007004   0.028747
    19  H    0.052988  -0.023990  -0.004004   0.080232   0.207450  -0.004186
    20  H   -0.004313   0.035972   0.035372   0.009219  -0.013926   0.263428
    21  H    0.252468   0.010902   0.054856  -0.057016  -0.199673  -0.003180
    22  H    0.006993  -0.001675  -0.001007   0.022428  -0.008046   0.000188
    23  H    0.007121   0.000133   0.002856  -0.005395  -0.001283   0.000766
    24  H   -0.003273   0.000029  -0.000821   0.003200   0.000278  -0.000105
    25  H    0.002317  -0.011940   0.001955  -0.004176   0.012886   0.000640
    26  H   -0.009096  -0.001427  -0.001464  -0.015051   0.010652   0.000292
    27  H   -0.014101   0.009799   0.000648  -0.029481   0.057955   0.001272
    28  H    0.039747  -0.007207  -0.002307   0.017325  -0.050571  -0.000621
    29  H   -0.002180   0.000049  -0.002062   0.004070   0.000087  -0.000252
    30  H   -0.000117   0.000003  -0.000321   0.000595   0.000028  -0.000026
    31  H    0.000605  -0.000006   0.000250  -0.000764  -0.000031   0.000026
              7          8          9         10         11         12
     1  C    1.329051  -0.179477  -0.552513   0.171694   0.113751  -0.114345
     2  C   -0.414597   0.163821   0.036433   0.004354   0.009858   0.101404
     3  C   -0.155095   0.164856  -0.176851   0.034984   0.021011  -0.024129
     4  C   -1.994010   0.052701   0.585854  -0.175749  -0.070563   0.090190
     5  C   -0.846194   0.113681   0.314975  -0.102364  -0.044432  -0.052338
     6  C    0.020641  -0.033311  -0.008267  -0.003262  -0.002265  -0.002842
     7  C    8.460479  -0.527312  -0.481648   0.060199  -0.040097  -0.005268
     8  C   -0.527312   7.581513  -1.150552  -0.364350   0.008856   0.045476
     9  C   -0.481648  -1.150552   6.830841   0.335695  -0.166956   0.062580
    10  O    0.060199  -0.364350   0.335695   8.512753   0.018071  -0.004978
    11  C   -0.040097   0.008856  -0.166956   0.018071   5.373110  -0.000175
    12  O   -0.005268   0.045476   0.062580  -0.004978  -0.000175   8.349426
    13  C    0.131950   0.014759  -0.132045   0.039774  -0.007581  -0.043535
    14  O    0.001697  -0.082522   0.610628  -0.163052  -0.057451  -0.002238
    15  C   -0.021500  -0.061838   0.077046  -0.029490   0.097036   0.000382
    16  H   -0.000469   0.008512   0.005528   0.000990  -0.005295   0.000243
    17  H   -0.001097  -0.000415  -0.000630   0.000001  -0.000007   0.000061
    18  H   -0.001297  -0.000571   0.001584  -0.000041  -0.000451   0.000021
    19  H    0.019860  -0.012365  -0.006450  -0.000010  -0.000050  -0.000513
    20  H    0.000328   0.000199   0.000002   0.000001   0.000035   0.000000
    21  H    0.195276   0.116433  -0.081901   0.016266   0.006139  -0.043131
    22  H   -0.014078   0.308490   0.032946  -0.003093  -0.000502  -0.018299
    23  H   -0.003322  -0.008105  -0.028017  -0.036050   0.404816  -0.000016
    24  H   -0.000320  -0.009517   0.006414  -0.041929   0.399346   0.000009
    25  H    0.086453  -0.068552   0.005292  -0.000576  -0.000578   0.228753
    26  H    0.035342  -0.119694   0.039531  -0.000798   0.000882  -0.000015
    27  H   -0.071913  -0.009829  -0.013756  -0.000020  -0.000278   0.011571
    28  H    0.037893  -0.102374   0.028256   0.000079   0.000907  -0.004452
    29  H    0.000766  -0.005905   0.005336  -0.002224  -0.063926   0.000003
    30  H   -0.000165   0.000484   0.001730   0.007421  -0.061609   0.000000
    31  H   -0.000130  -0.002833  -0.003904  -0.002660  -0.058662   0.000000
             13         14         15         16         17         18
     1  C    0.047429   0.030500  -0.009936   0.082690   0.003914   0.025563
     2  C   -0.044680  -0.002429   0.000656   0.002058   0.271798  -0.008665
     3  C   -0.003523  -0.012852  -0.008153   0.044927  -0.004188   0.254153
     4  C   -0.104717  -0.011606   0.027884   0.155385   0.037139   0.020756
     5  C   -0.025791  -0.016353   0.003263   0.035242   0.014331   0.007004
     6  C    0.012133   0.005454  -0.001710  -0.012388   0.004866   0.028747
     7  C    0.131950   0.001697  -0.021500  -0.000469  -0.001097  -0.001297
     8  C    0.014759  -0.082522  -0.061838   0.008512  -0.000415  -0.000571
     9  C   -0.132045   0.610628   0.077046   0.005528  -0.000630   0.001584
    10  O    0.039774  -0.163052  -0.029490   0.000990   0.000001  -0.000041
    11  C   -0.007581  -0.057451   0.097036  -0.005295  -0.000007  -0.000451
    12  O   -0.043535  -0.002238   0.000382   0.000243   0.000061   0.000021
    13  C    5.462894  -0.002045  -0.002845   0.001202   0.000661   0.000085
    14  O   -0.002045   8.133605   0.009370  -0.000619   0.000002  -0.000066
    15  C   -0.002845   0.009370   5.325071  -0.003783  -0.000001  -0.000134
    16  H    0.001202  -0.000619  -0.003783   0.516233   0.000012  -0.004100
    17  H    0.000661   0.000002  -0.000001   0.000012   0.496713  -0.000123
    18  H    0.000085  -0.000066  -0.000134  -0.004100  -0.000123   0.497603
    19  H    0.010338   0.000015  -0.000005  -0.000115  -0.004000   0.000011
    20  H   -0.000058   0.000002   0.000004  -0.000126  -0.003838  -0.003891
    21  H   -0.004901   0.000219  -0.000375   0.000546   0.000002  -0.000004
    22  H   -0.033832   0.002321  -0.000180  -0.000019   0.000000   0.000000
    23  H    0.001302   0.003504  -0.009551   0.000154   0.000000  -0.000002
    24  H    0.001049   0.001660  -0.025354   0.000006   0.000000   0.000000
    25  H   -0.003442   0.000049   0.000127  -0.000001   0.000000   0.000000
    26  H    0.423900  -0.001818   0.000002   0.000001   0.000000   0.000000
    27  H    0.418710   0.001449  -0.000072   0.000000   0.000000   0.000000
    28  H    0.401622  -0.000839   0.000068  -0.000004  -0.000012  -0.000001
    29  H    0.000011  -0.000183   0.428447   0.000066   0.000000   0.000000
    30  H    0.000045   0.000125   0.418596   0.000000   0.000000   0.000000
    31  H    0.000192  -0.000035   0.431289   0.000003   0.000000   0.000000
             19         20         21         22         23         24
     1  C    0.052988  -0.004313   0.252468   0.006993   0.007121  -0.003273
     2  C   -0.023990   0.035972   0.010902  -0.001675   0.000133   0.000029
     3  C   -0.004004   0.035372   0.054856  -0.001007   0.002856  -0.000821
     4  C    0.080232   0.009219  -0.057016   0.022428  -0.005395   0.003200
     5  C    0.207450  -0.013926  -0.199673  -0.008046  -0.001283   0.000278
     6  C   -0.004186   0.263428  -0.003180   0.000188   0.000766  -0.000105
     7  C    0.019860   0.000328   0.195276  -0.014078  -0.003322  -0.000320
     8  C   -0.012365   0.000199   0.116433   0.308490  -0.008105  -0.009517
     9  C   -0.006450   0.000002  -0.081901   0.032946  -0.028017   0.006414
    10  O   -0.000010   0.000001   0.016266  -0.003093  -0.036050  -0.041929
    11  C   -0.000050   0.000035   0.006139  -0.000502   0.404816   0.399346
    12  O   -0.000513   0.000000  -0.043131  -0.018299  -0.000016   0.000009
    13  C    0.010338  -0.000058  -0.004901  -0.033832   0.001302   0.001049
    14  O    0.000015   0.000002   0.000219   0.002321   0.003504   0.001660
    15  C   -0.000005   0.000004  -0.000375  -0.000180  -0.009551  -0.025354
    16  H   -0.000115  -0.000126   0.000546  -0.000019   0.000154   0.000006
    17  H   -0.004000  -0.003838   0.000002   0.000000   0.000000   0.000000
    18  H    0.000011  -0.003891  -0.000004   0.000000  -0.000002   0.000000
    19  H    0.501656  -0.000118  -0.000031  -0.000018   0.000000   0.000000
    20  H   -0.000118   0.499708   0.000000   0.000000   0.000000   0.000000
    21  H   -0.000031   0.000000   0.583601  -0.005056   0.000053  -0.000015
    22  H   -0.000018   0.000000  -0.005056   0.508487  -0.000020   0.000050
    23  H    0.000000   0.000000   0.000053  -0.000020   0.532529  -0.033597
    24  H    0.000000   0.000000  -0.000015   0.000050  -0.033597   0.528774
    25  H    0.000059   0.000000  -0.008366   0.003770   0.000000   0.000000
    26  H    0.000024   0.000000  -0.000100  -0.003815   0.000001  -0.000002
    27  H   -0.000477   0.000000   0.000035  -0.002279   0.000000   0.000000
    28  H   -0.000331   0.000000  -0.000104   0.003931  -0.000002   0.000001
    29  H    0.000000   0.000000  -0.000034   0.000004  -0.005216   0.004010
    30  H    0.000000   0.000000   0.000000   0.000000  -0.001641  -0.001653
    31  H    0.000000   0.000000   0.000003  -0.000006   0.004023  -0.005065
             25         26         27         28         29         30
     1  C    0.002317  -0.009096  -0.014101   0.039747  -0.002180  -0.000117
     2  C   -0.011940  -0.001427   0.009799  -0.007207   0.000049   0.000003
     3  C    0.001955  -0.001464   0.000648  -0.002307  -0.002062  -0.000321
     4  C   -0.004176  -0.015051  -0.029481   0.017325   0.004070   0.000595
     5  C    0.012886   0.010652   0.057955  -0.050571   0.000087   0.000028
     6  C    0.000640   0.000292   0.001272  -0.000621  -0.000252  -0.000026
     7  C    0.086453   0.035342  -0.071913   0.037893   0.000766  -0.000165
     8  C   -0.068552  -0.119694  -0.009829  -0.102374  -0.005905   0.000484
     9  C    0.005292   0.039531  -0.013756   0.028256   0.005336   0.001730
    10  O   -0.000576  -0.000798  -0.000020   0.000079  -0.002224   0.007421
    11  C   -0.000578   0.000882  -0.000278   0.000907  -0.063926  -0.061609
    12  O    0.228753  -0.000015   0.011571  -0.004452   0.000003   0.000000
    13  C   -0.003442   0.423900   0.418710   0.401622   0.000011   0.000045
    14  O    0.000049  -0.001818   0.001449  -0.000839  -0.000183   0.000125
    15  C    0.000127   0.000002  -0.000072   0.000068   0.428447   0.418596
    16  H   -0.000001   0.000001   0.000000  -0.000004   0.000066   0.000000
    17  H    0.000000   0.000000   0.000000  -0.000012   0.000000   0.000000
    18  H    0.000000   0.000000   0.000000  -0.000001   0.000000   0.000000
    19  H    0.000059   0.000024  -0.000477  -0.000331   0.000000   0.000000
    20  H    0.000000   0.000000   0.000000   0.000000   0.000000   0.000000
    21  H   -0.008366  -0.000100   0.000035  -0.000104  -0.000034   0.000000
    22  H    0.003770  -0.003815  -0.002279   0.003931   0.000004   0.000000
    23  H    0.000000   0.000001   0.000000  -0.000002  -0.005216  -0.001641
    24  H    0.000000  -0.000002   0.000000   0.000001   0.004010  -0.001653
    25  H    0.357707  -0.000007  -0.000344   0.000057   0.000000   0.000000
    26  H   -0.000007   0.518290  -0.025101  -0.023705   0.000000   0.000000
    27  H   -0.000344  -0.025101   0.514061  -0.025122   0.000000   0.000000
    28  H    0.000057  -0.023705  -0.025122   0.503061   0.000000   0.000000
    29  H    0.000000   0.000000   0.000000   0.000000   0.515451  -0.022498
    30  H    0.000000   0.000000   0.000000   0.000000  -0.022498   0.500333
    31  H    0.000000   0.000000   0.000000   0.000000  -0.028662  -0.022574
             31
     1  C    0.000605
     2  C   -0.000006
     3  C    0.000250
     4  C   -0.000764
     5  C   -0.000031
     6  C    0.000026
     7  C   -0.000130
     8  C   -0.002833
     9  C   -0.003904
    10  O   -0.002660
    11  C   -0.058662
    12  O    0.000000
    13  C    0.000192
    14  O   -0.000035
    15  C    0.431289
    16  H    0.000003
    17  H    0.000000
    18  H    0.000000
    19  H    0.000000
    20  H    0.000000
    21  H    0.000003
    22  H   -0.000006
    23  H    0.004023
    24  H   -0.005065
    25  H    0.000000
    26  H    0.000000
    27  H    0.000000
    28  H    0.000000
    29  H   -0.028662
    30  H   -0.022574
    31  H    0.513197
 Mulliken atomic charges:
              1
     1  C    0.013344
     2  C   -0.358893
     3  C   -0.301771
     4  C   -0.270422
     5  C    0.145073
     6  C   -0.134057
     7  C    0.198577
     8  C    0.159743
     9  C   -0.177182
    10  O   -0.271635
    11  C    0.127059
    12  O   -0.573846
    13  C   -0.559059
    14  O   -0.446491
    15  C   -0.644314
    16  H    0.173118
    17  H    0.184810
    18  H    0.183820
    19  H    0.184030
    20  H    0.182001
    21  H    0.167088
    22  H    0.202318
    23  H    0.174962
    24  H    0.176825
    25  H    0.397917
    26  H    0.173175
    27  H    0.177272
    28  H    0.184706
    29  H    0.174841
    30  H    0.181246
    31  H    0.175744
 Sum of Mulliken atomic charges =   0.00000
 Mulliken charges with hydrogens summed into heavy atoms:
              1
     1  C    0.186462
     2  C   -0.174083
     3  C   -0.117951
     4  C   -0.270422
     5  C    0.329103
     6  C    0.047944
     7  C    0.365666
     8  C    0.362061
     9  C   -0.177182
    10  O   -0.271635
    11  C    0.478846
    12  O   -0.175928
    13  C   -0.023906
    14  O   -0.446491
    15  C   -0.112483
 Sum of Mulliken charges with hydrogens summed into heavy atoms =   0.00000
 Electronic spatial extent (au):  <R**2>=           3549.4955
 Charge=              0.0000 electrons
 Dipole moment (field-independent basis, Debye):
    X=              2.6792    Y=             -0.2951    Z=             -2.3129  Tot=              3.5517
 Quadrupole moment (field-independent basis, Debye-Ang):
   XX=            -80.1080   YY=            -78.9506   ZZ=            -98.7687
   XY=              1.0524   XZ=             -9.3953   YZ=             -2.3867
 Traceless Quadrupole moment (field-independent basis, Debye-Ang):
   XX=              5.8344   YY=              6.9918   ZZ=            -12.8263
   XY=              1.0524   XZ=             -9.3953   YZ=             -2.3867
 Octapole moment (field-independent basis, Debye-Ang**2):
  XXX=             30.1717  YYY=              4.5688  ZZZ=            -26.6109  XYY=             17.1419
  XXY=            -18.1392  XXZ=             15.7693  XZZ=             10.5354  YZZ=             13.1907
  YYZ=             -3.0951  XYZ=             -2.3330
 Hexadecapole moment (field-independent basis, Debye-Ang**3):
 XXXX=          -2643.2080 YYYY=          -1155.3045 ZZZZ=           -591.6434 XXXY=            -47.4003
 XXXZ=            -49.2635 YYYX=             28.8566 YYYZ=            -49.3991 ZZZX=            -29.8447
 ZZZY=            -37.9867 XXYY=           -648.0867 XXZZ=           -635.8152 YYZZ=           -284.7217
 XXYZ=            -16.8430 YYXZ=            -23.8196 ZZXY=              3.4481
 N-N= 1.015134666905D+03 E-N=-3.642199373814D+03  KE= 6.858827750017D+02
 1\1\GINC-COMPUTE-8-6\SP\RwB97XD\6-31+G(d,p)\C12H16O3\ELUCIANO.IQUIR\18
 -May-2022\0\\# wb97xd/6-31+g** scrf=(pcm,solvent=chloroform,smd,dovacu
 um) nmr\\comment\\0,1\C,0,0.549951985,-1.558818299,-0.681206283\C,0,0.
 478742953,-3.477978561,1.338003113\C,0,1.470642204,-2.608960312,-0.679
 837115\C,0,-0.418003253,-1.450268116,0.330700644\C,0,-0.441327929,-2.4
 27857357,1.337736693\C,0,1.435549602,-3.567162849,0.330239583\C,0,-1.3
 96979823,-0.291212924,0.324117113\C,0,-0.911895511,0.978132652,1.04766
 2331\C,0,0.251024589,1.617815928,0.315609855\O,0,-0.122679842,1.954829
 704,-0.953691016\C,0,0.907767945,2.591903376,-1.720242193\O,0,-2.64008
 2089,-0.716491421,0.900004594\C,0,-0.579392606,0.761876968,2.526184629
 \O,0,1.352066993,1.847930442,0.795471164\C,0,0.364047693,2.859452925,-
 3.10993451\H,0,0.595136361,-0.826689683,-1.484238851\H,0,0.445999144,-
 4.225643202,2.125951698\H,0,2.215897848,-2.679017686,-1.467786906\H,0,
 -1.18445172,-2.375442856,2.131331534\H,0,2.152059699,-4.384031931,0.33
 1506656\H,0,-1.627929391,-0.064144275,-0.724623448\H,0,-1.727626012,1.
 714923009,1.032487371\H,0,1.781747566,1.934154146,-1.786140863\H,0,1.1
 8996167,3.537183449,-1.243589061\H,0,-3.315055365,-0.067613182,0.63994
 9307\H,0,-0.350794425,1.718791345,3.009341352\H,0,-1.421747629,0.31324
 1586,3.062081634\H,0,0.298301175,0.120892827,2.658909498\H,0,0.0565628
 01,1.924312837,-3.589690472\H,0,1.11620333,3.347291861,-3.736110223\H,
 0,-0.523697963,3.4985996,-3.060197828\\Version=EM64L-G09RevC.01\State=
 1-A\HF=-692.4451771\RMSD=3.497e-09\Dipole=-0.5934441,0.7104754,-1.0467
 247\Quadrupole=-1.9749359,0.7544533,1.2204825,-8.2727213,-4.7472643,-5
 .1948945\PG=C01 [X(C12H16O3)]\\@


 A leading authority is anyone who has guessed right more than once.
 -- Frank A. Clark
 Job cpu time:  0 days  2 hours 36 minutes 47.2 seconds.
 File lengths (MBytes):  RWF=    124 Int=      0 D2E=      0 Chk=      9 Scr=      1
 Normal termination of Gaussian 09 at Wed May 18 00:10:22 2022.
