 Entering Gaussian System, Link 0=g09
 Input=/home/eluciano.iquir/wb9/73b_009.gjc
 Output=/home/eluciano.iquir/wb9/73b_009.log
 Initial command:
 /share/apps/Gaussian09/EM64T.SSE4.2-enabled/g09/l1.exe /tmp/Gau-65373.inp -scrdir=/tmp/
 Entering Link 1 = /share/apps/Gaussian09/EM64T.SSE4.2-enabled/g09/l1.exe PID=     65374.
  
 Copyright (c) 1988,1990,1992,1993,1995,1998,2003,2009,2011,
            Gaussian, Inc.  All Rights Reserved.
  
 This is part of the Gaussian(R) 09 program.  It is based on
 the Gaussian(R) 03 system (copyright 2003, Gaussian, Inc.),
 the Gaussian(R) 98 system (copyright 1998, Gaussian, Inc.),
 the Gaussian(R) 94 system (copyright 1995, Gaussian, Inc.),
 the Gaussian 92(TM) system (copyright 1992, Gaussian, Inc.),
 the Gaussian 90(TM) system (copyright 1990, Gaussian, Inc.),
 the Gaussian 88(TM) system (copyright 1988, Gaussian, Inc.),
 the Gaussian 86(TM) system (copyright 1986, Carnegie Mellon
 University), and the Gaussian 82(TM) system (copyright 1983,
 Carnegie Mellon University). Gaussian is a federally registered
 trademark of Gaussian, Inc.
  
 This software contains proprietary and confidential information,
 including trade secrets, belonging to Gaussian, Inc.
  
 This software is provided under written license and may be
 used, copied, transmitted, or stored only in accord with that
 written license.
  
 The following legend is applicable only to US Government
 contracts under FAR:
  
                    RESTRICTED RIGHTS LEGEND
  
 Use, reproduction and disclosure by the US Government is
 subject to restrictions as set forth in subparagraphs (a)
 and (c) of the Commercial Computer Software - Restricted
 Rights clause in FAR 52.227-19.
  
 Gaussian, Inc.
 340 Quinnipiac St., Bldg. 40, Wallingford CT 06492
  
  
 ---------------------------------------------------------------
 Warning -- This program may not be used in any manner that
 competes with the business of Gaussian, Inc. or will provide
 assistance to any competitor of Gaussian, Inc.  The licensee
 of this program is prohibited from giving any competitor of
 Gaussian, Inc. access to this program.  By using this program,
 the user acknowledges that Gaussian, Inc. is engaged in the
 business of creating and licensing software in the field of
 computational chemistry and represents and warrants to the
 licensee that it is not a competitor of Gaussian, Inc. and that
 it will not use this program in any manner prohibited above.
 ---------------------------------------------------------------
  

 Cite this work as:
 Gaussian 09, Revision C.01,
 M. J. Frisch, G. W. Trucks, H. B. Schlegel, G. E. Scuseria, 
 M. A. Robb, J. R. Cheeseman, G. Scalmani, V. Barone, B. Mennucci, 
 G. A. Petersson, H. Nakatsuji, M. Caricato, X. Li, H. P. Hratchian, 
 A. F. Izmaylov, J. Bloino, G. Zheng, J. L. Sonnenberg, M. Hada, 
 M. Ehara, K. Toyota, R. Fukuda, J. Hasegawa, M. Ishida, T. Nakajima, 
 Y. Honda, O. Kitao, H. Nakai, T. Vreven, J. A. Montgomery, Jr., 
 J. E. Peralta, F. Ogliaro, M. Bearpark, J. J. Heyd, E. Brothers, 
 K. N. Kudin, V. N. Staroverov, T. Keith, R. Kobayashi, J. Normand, 
 K. Raghavachari, A. Rendell, J. C. Burant, S. S. Iyengar, J. Tomasi, 
 M. Cossi, N. Rega, J. M. Millam, M. Klene, J. E. Knox, J. B. Cross, 
 V. Bakken, C. Adamo, J. Jaramillo, R. Gomperts, R. E. Stratmann, 
 O. Yazyev, A. J. Austin, R. Cammi, C. Pomelli, J. W. Ochterski, 
 R. L. Martin, K. Morokuma, V. G. Zakrzewski, G. A. Voth, 
 P. Salvador, J. J. Dannenberg, S. Dapprich, A. D. Daniels, 
 O. Farkas, J. B. Foresman, J. V. Ortiz, J. Cioslowski, 
 and D. J. Fox, Gaussian, Inc., Wallingford CT, 2010.
 
 ******************************************
 Gaussian 09:  EM64L-G09RevC.01 23-Sep-2011
                17-May-2022 
 ******************************************
 %nprocshared=4
 Will use up to    4 processors via shared memory.
 ----------------------------------------------------------------
 # wb97xd/6-31+g** scrf=(pcm,solvent=chloroform,smd,dovacuum) nmr
 ----------------------------------------------------------------
 1/38=1/1;
 2/12=2,17=6,18=5,40=1/2;
 3/5=1,6=6,7=111,11=2,16=1,25=1,30=1,70=32101,72=7,74=-58/1,2,8,3;
 4//1;
 5/5=2,38=5,53=7/2;
 8/6=1,10=90,11=11/1;
 10/13=100,45=16/2;
 6/7=2,8=2,9=2,10=2,28=1/1;
 99/9=1/99;
 -------
 comment
 -------
 Charge =  0 Multiplicity = 1
 Symbolic Z-Matrix:
 6                    -1.50353  -2.63623  -0.03842 
 6                    -3.91121  -1.36047  -0.63244 
 6                    -2.718    -3.26183   0.2509 
 6                    -1.47791  -1.36182  -0.62628 
 6                    -2.69809  -0.73353  -0.92148 
 6                    -3.92068  -2.62338  -0.04458 
 6                    -0.15451  -0.67848  -0.9107 
 6                     0.12761   0.50982   0.03078 
 6                     1.4646    1.12334  -0.33662 
 8                     1.64124   2.30549   0.31828 
 6                     2.86718   3.00046   0.04554 
 8                    -0.20176  -0.22416  -2.26878 
 6                     0.15835   0.09861   1.50381 
 8                     2.26266   0.6324   -1.12575 
 6                     3.96635   2.49917   0.96315 
 1                    -0.57608  -3.15265   0.19845 
 1                    -4.84781  -0.86458  -0.87284 
 1                    -2.72543  -4.24962   0.70418 
 1                    -2.70392   0.24678  -1.39393 
 1                    -4.86538  -3.11252   0.17706 
 1                     0.65247  -1.42065  -0.85273 
 1                    -0.63052   1.28767  -0.12936 
 1                     2.68244   4.06237   0.23787 
 1                     3.15086   2.90867  -1.00911 
 1                     0.72666  -0.08147  -2.53839 
 1                     0.42899   0.94261   2.1476 
 1                    -0.81823  -0.26214   1.84064 
 1                     0.89684  -0.69223   1.67683 
 1                     3.66675   2.59856   2.01164 
 1                     4.89052   3.06211   0.80501 
 1                     4.16956   1.4377    0.78966 
 
                          Input orientation:                          
 ---------------------------------------------------------------------
 Center     Atomic      Atomic             Coordinates (Angstroms)
 Number     Number       Type             X           Y           Z
 ---------------------------------------------------------------------
      1          6           0       -1.503528   -2.636229   -0.038420
      2          6           0       -3.911214   -1.360475   -0.632437
      3          6           0       -2.718001   -3.261834    0.250904
      4          6           0       -1.477915   -1.361816   -0.626283
      5          6           0       -2.698093   -0.733529   -0.921482
      6          6           0       -3.920682   -2.623385   -0.044583
      7          6           0       -0.154508   -0.678478   -0.910696
      8          6           0        0.127610    0.509817    0.030776
      9          6           0        1.464596    1.123340   -0.336621
     10          8           0        1.641241    2.305487    0.318283
     11          6           0        2.867184    3.000455    0.045535
     12          8           0       -0.201755   -0.224158   -2.268779
     13          6           0        0.158350    0.098611    1.503812
     14          8           0        2.262661    0.632399   -1.125752
     15          6           0        3.966345    2.499169    0.963154
     16          1           0       -0.576075   -3.152648    0.198455
     17          1           0       -4.847814   -0.864578   -0.872836
     18          1           0       -2.725427   -4.249616    0.704180
     19          1           0       -2.703923    0.246781   -1.393927
     20          1           0       -4.865377   -3.112518    0.177056
     21          1           0        0.652470   -1.420651   -0.852729
     22          1           0       -0.630520    1.287672   -0.129358
     23          1           0        2.682440    4.062371    0.237875
     24          1           0        3.150863    2.908674   -1.009113
     25          1           0        0.726656   -0.081473   -2.538390
     26          1           0        0.428987    0.942607    2.147598
     27          1           0       -0.818229   -0.262145    1.840637
     28          1           0        0.896836   -0.692228    1.676827
     29          1           0        3.666746    2.598563    2.011643
     30          1           0        4.890520    3.062108    0.805008
     31          1           0        4.169557    1.437705    0.789663
 ---------------------------------------------------------------------
                    Distance matrix (angstroms):
                    1          2          3          4          5
     1  C    0.000000
     2  C    2.788791   0.000000
     3  C    1.396436   2.412305   0.000000
     4  C    1.403698   2.433307   2.432558   0.000000
     5  C    2.413929   1.395804   2.786971   1.403824   0.000000
     6  C    2.417196   1.393056   1.393331   2.810168   2.415622
     7  C    2.532491   3.828235   3.820279   1.516327   2.544203
     8  C    3.544434   4.499994   4.729832   2.551950   3.230682
     9  C    4.799276   5.929264   6.088436   3.862418   4.595433
    10  O    5.868336   6.721078   7.071250   4.906164   5.440814
    11  C    7.133189   8.088512   8.393612   6.193596   6.771268
    12  O    3.533723   4.210571   4.680573   2.370789   2.882077
    13  C    3.552418   4.822224   4.597364   3.057371   3.838460
    14  O    5.103959   6.506276   6.470488   4.268286   5.149424
    15  C    7.569345   8.916204   8.853075   6.861012   7.643097
    16  H    1.087643   3.876263   2.145348   2.168084   3.407250
    17  H    3.875468   1.086704   3.397901   3.415297   2.154261
    18  H    2.155808   3.397024   1.086843   3.415525   3.873808
    19  H    3.404423   2.149579   3.875054   2.163320   1.088231
    20  H    3.402251   2.152989   2.153828   3.896821   3.400514
    21  H    2.605581   4.569393   3.996001   2.143193   3.420984
    22  H    4.020873   4.246025   5.019978   2.825739   2.997929
    23  H    7.903791   8.581431   9.099939   6.890364   7.300336
    24  H    7.304215   8.260777   8.608505   6.309455   6.890835
    25  H    4.213117   5.174779   5.455320   3.186780   3.842977
    26  H    4.617506   5.645363   5.583754   4.079345   4.691196
    27  H    3.104314   4.109620   3.890310   2.780316   3.374225
    28  H    3.533124   5.375555   4.658667   3.375219   4.435812
    29  H    7.637902   8.949336   8.843610   7.007910   7.759977
    30  H    8.606177   9.954698   9.909029   7.885218   8.658792
    31  H    7.033246   8.668969   8.355499   6.460352   7.403167
                    6          7          8          9         10
     6  C    0.000000
     7  C    4.326301   0.000000
     8  C    5.119698   1.542079   0.000000
     9  C    6.566921   2.489499   1.516220   0.000000
    10  O    7.440459   3.693122   2.366044   1.362929   0.000000
    11  C    8.815374   4.855878   3.702534   2.374207   1.435378
    12  O    4.953156   1.432839   2.436217   2.885430   4.060619
    13  C    5.142499   2.555698   1.529663   2.478617   2.911141
    14  O    7.071265   2.758143   2.431260   1.225014   2.295784
    15  C    9.458398   5.530840   4.422978   3.137048   2.420636
    16  H    3.394935   2.743984   3.733221   4.768094   5.892545
    17  H    2.153829   4.697147   5.240260   6.639719   7.319557
    18  H    2.152652   4.687267   5.589768   6.892621   7.885815
    19  H    3.396923   2.754838   3.180652   4.388940   5.103957
    20  H    1.086657   5.412951   6.170303   7.633801   8.468223
    21  H    4.797227   1.097905   2.186954   2.719891   4.029025
    22  H    5.111626   2.168599   1.097935   2.111746   2.529274
    23  H    9.401081   5.642972   4.380717   3.232815   2.043821
    24  H    9.029991   4.878814   3.996991   2.546205   2.098755
    25  H    5.854754   1.944802   2.703534   2.616088   3.833357
    26  H    6.036686   3.510206   2.181529   2.697499   2.583291
    27  H    4.330672   2.860715   2.183147   3.445477   3.867724
    28  H    5.468190   2.792989   2.178555   2.769948   3.374325
    29  H    9.437472   5.820743   4.562036   3.541200   2.656320
    30  H   10.520643   6.510602   5.458840   4.098670   3.371527
    31  H    9.090675   5.105584   4.215948   2.946889   2.714337
                   11         12         13         14         15
    11  C    0.000000
    12  O    5.017227   0.000000
    13  C    4.229072   3.803458   0.000000
    14  O    2.710176   2.848428   3.409936   0.000000
    15  C    1.517059   5.935904   4.533852   3.278857   0.000000
    16  H    7.052666   3.847520   3.579667   4.913097   7.291185
    17  H    8.677735   4.893328   5.624756   7.270747   9.611195
    18  H    9.180122   5.604616   5.278509   7.215521   9.507523
    19  H    6.379028   2.692210   4.075715   4.988744   7.424389
    20  H    9.857902   6.006172   6.108148   8.156631  10.493250
    21  H    5.025736   2.041199   2.847033   2.623409   5.444648
    22  H    3.898479   2.654542   2.168739   3.129326   4.877753
    23  H    1.094893   5.742492   4.866726   3.714889   2.148963
    24  H    1.095983   4.758302   4.813146   2.446209   2.173141
    25  H    4.555964   0.977239   4.085927   2.205554   5.423662
    26  H    3.820761   4.611243   1.095461   3.764760   4.042116
    27  H    5.239200   4.155572   1.094214   4.369389   5.593477
    28  H    4.492137   4.122353   1.095774   3.387413   4.485112
    29  H    2.160185   6.423011   4.337799   3.959862   1.094974
    30  H    2.162057   6.795512   5.627084   4.066567   1.093622
    31  H    2.166124   5.587864   4.288701   2.820210   1.094578
                   16         17         18         19         20
    16  H    0.000000
    17  H    4.962931   0.000000
    18  H    2.465525   4.295345   0.000000
    19  H    4.315035   2.470410   4.961865   0.000000
    20  H    4.289543   2.481092   2.479967   4.292408   0.000000
    21  H    2.369414   5.528358   4.673028   3.786634   5.862551
    22  H    4.452737   4.792757   5.978711   2.642270   6.114702
    23  H    7.916816   9.067151   9.927315   6.799588  10.414042
    24  H    7.217196   8.845046   9.418454   6.443001  10.095635
    25  H    4.315037   5.870438   6.309085   3.631311   6.916048
    26  H    4.645473   6.342994   6.244435   4.779298   6.953946
    27  H    3.333228   4.895245   4.563865   3.778524   5.222216
    28  H    3.226254   6.287408   5.169318   4.824596   6.427302
    29  H    7.373304   9.633863   9.458694   7.596987  10.429731
    30  H    8.299082  10.633400  10.558131   8.392672  11.562779
    31  H    6.628867   9.453962   8.938329   7.309657  10.134586
                   21         22         23         24         25
    21  H    0.000000
    22  H    3.082912   0.000000
    23  H    5.947582   4.336993   0.000000
    24  H    5.000948   4.207192   1.762219   0.000000
    25  H    2.154149   3.085437   5.357628   4.142034   0.000000
    26  H    3.825820   2.534986   4.296280   4.608563   4.805813
    27  H    3.280139   2.513573   5.790075   5.824848   4.647063
    28  H    2.643666   3.084659   5.278747   5.026073   4.262633
    29  H    5.783129   4.976828   2.501569   3.080142   6.043966
    30  H    6.387824   5.873972   2.489535   2.518131   6.196627
    31  H    4.820534   4.889565   3.066735   2.537141   5.023685
                   26         27         28         29         30
    26  H    0.000000
    27  H    1.761023   0.000000
    28  H    1.764425   1.775740   0.000000
    29  H    3.639198   5.322396   4.314373   0.000000
    30  H    5.118605   6.686778   5.550191   1.780018   0.000000
    31  H    4.010109   5.373271   4.004294   1.758876   1.777276
                   31
    31  H    0.000000
 Stoichiometry    C12H16O3
 Framework group  C1[X(C12H16O3)]
 Deg. of freedom    87
 Full point group                 C1      NOp   1
 Largest Abelian subgroup         C1      NOp   1
 Largest concise Abelian subgroup C1      NOp   1
                         Standard orientation:                         
 ---------------------------------------------------------------------
 Center     Atomic      Atomic             Coordinates (Angstroms)
 Number     Number       Type             X           Y           Z
 ---------------------------------------------------------------------
      1          6           0       -2.631998   -0.594515   -1.117617
      2          6           0       -3.822215    0.348764    1.221392
      3          6           0       -3.952479   -0.934941   -0.816830
      4          6           0       -1.888247    0.220354   -0.249751
      5          6           0       -2.501981    0.689236    0.922513
      6          6           0       -4.546207   -0.464745    0.352690
      7          6           0       -0.446044    0.561346   -0.570718
      8          6           0        0.563988   -0.152963    0.349938
      9          6           0        1.968754    0.255626   -0.048322
     10          8           0        2.869835   -0.173452    0.879858
     11          6           0        4.242435    0.163176    0.628940
     12          8           0       -0.311500    1.981243   -0.433542
     13          6           0        0.450867   -1.676685    0.276846
     14          8           0        2.248639    0.897357   -1.053561
     15          6           0        4.882921   -0.886293   -0.259802
     16          1           0       -2.187965   -0.970471   -2.036561
     17          1           0       -4.286139    0.724779    2.129309
     18          1           0       -4.519250   -1.564836   -1.497440
     19          1           0       -1.951678    1.337194    1.601897
     20          1           0       -5.575121   -0.726668    0.584109
     21          1           0       -0.247065    0.324496   -1.624143
     22          1           0        0.417693    0.188357    1.383166
     23          1           0        4.749298    0.183367    1.599235
     24          1           0        4.333911    1.166189    0.196763
     25          1           0        0.492297    2.225927   -0.932577
     26          1           0        1.222242   -2.163129    0.883796
     27          1           0       -0.517497   -2.025866    0.647855
     28          1           0        0.574690   -2.032094   -0.752267
     29          1           0        4.782913   -1.881035    0.186802
     30          1           0        5.944702   -0.671747   -0.410137
     31          1           0        4.392418   -0.925814   -1.237527
 ---------------------------------------------------------------------
 Rotational constants (GHZ):      1.6627597      0.2648874      0.2572019
 Standard basis: 6-31+G(d,p) (6D, 7F)
 There are   365 symmetry adapted basis functions of A   symmetry.
 Integral buffers will be    131072 words long.
 Raffenetti 2 integral format.
 Two-electron integral symmetry is turned on.
   365 basis functions,   592 primitive gaussians,   365 cartesian basis functions
    56 alpha electrons       56 beta electrons
       nuclear repulsion energy       992.2067596976 Hartrees.
 NAtoms=   31 NActive=   31 NUniq=   31 SFac= 1.00D+00 NAtFMM=   60 NAOKFM=F Big=F
 Nuclear repulsion after empirical dispersion term =      992.1861650400 Hartrees.
 ------------------------------------------------------------------------------
 Polarizable Continuum Model (PCM)
 =================================
 Model                : C-PCM.
 Atomic radii         : SMD-Coulomb.
 Polarization charges : Total charges.
 Charge compensation  : None.
 Solution method      : Matrix inversion.
 Cavity type          : VdW (van der Waals Surface) (Alpha=1.000).
 Cavity algorithm     : GePol (No added spheres)
                        Default sphere list used, NSphG=   31.
                        Lebedev-Laikov grids with approx.  5.0 points / Ang**2.
                        Smoothing algorithm: Karplus/York (Gamma=1.0000).
                        Polarization charges: spherical gaussians, with
                                              point-specific exponents (IZeta= 3).
                        Self-potential: point-specific (ISelfS= 7).
                        Self-field    : sphere-specific E.n sum rule (ISelfD= 2).
 Solvent              : Chloroform, Eps=   4.711300 Eps(inf)=   2.090627
 ------------------------------------------------------------------------------
 ------------------------------------------------------------------------------
 Atomic radii for non-electrostatic terms: SMD-CDS.
 ------------------------------------------------------------------------------
 Nuclear repulsion after PCM non-electrostatic terms =      992.1797896807 Hartrees.
 One-electron integrals computed using PRISM.
 NBasis=   365 RedAO= T  NBF=   365
 NBsUse=   365 1.00D-06 NBFU=   365
 Harris functional with IExCor= 4639 diagonalized for initial guess.
 ExpMin= 4.38D-02 ExpMax= 5.48D+03 ExpMxC= 8.25D+02 IAcc=2 IRadAn=         4 AccDes= 0.00D+00
 HarFok:  IExCor= 4639 AccDes= 0.00D+00 IRadAn=         4 IDoV= 1
 ScaDFX=  1.000000  1.000000  1.000000  1.000000
 FoFCou: FMM=F IPFlag=           0 FMFlag=      100000 FMFlg1=           0
         NFxFlg=           0 DoJE=T BraDBF=F KetDBF=T FulRan=T
         Omega=  0.000000  0.000000  1.000000  0.000000  0.000000 ICntrl=     500 IOpCl=  0
         NMat0=    1 NMatS0=    1 NMatT0=    0 NMatD0=    1 NMtDS0=    0 NMtDT0=    0
         I1Cent=           4 NGrid=           0.
 Petite list used in FoFCou.
 Initial guess orbital symmetries:
       Occupied  (A) (A) (A) (A) (A) (A) (A) (A) (A) (A) (A) (A)
                 (A) (A) (A) (A) (A) (A) (A) (A) (A) (A) (A) (A)
                 (A) (A) (A) (A) (A) (A) (A) (A) (A) (A) (A) (A)
                 (A) (A) (A) (A) (A) (A) (A) (A) (A) (A) (A) (A)
                 (A) (A) (A) (A) (A) (A) (A) (A)
       Virtual   (A) (A) (A) (A) (A) (A) (A) (A) (A) (A) (A) (A)
                 (A) (A) (A) (A) (A) (A) (A) (A) (A) (A) (A) (A)
                 (A) (A) (A) (A) (A) (A) (A) (A) (A) (A) (A) (A)
                 (A) (A) (A) (A) (A) (A) (A) (A) (A) (A) (A) (A)
                 (A) (A) (A) (A) (A) (A) (A) (A) (A) (A) (A) (A)
                 (A) (A) (A) (A) (A) (A) (A) (A) (A) (A) (A) (A)
                 (A) (A) (A) (A) (A) (A) (A) (A) (A) (A) (A) (A)
                 (A) (A) (A) (A) (A) (A) (A) (A) (A) (A) (A) (A)
                 (A) (A) (A) (A) (A) (A) (A) (A) (A) (A) (A) (A)
                 (A) (A) (A) (A) (A) (A) (A) (A) (A) (A) (A) (A)
                 (A) (A) (A) (A) (A) (A) (A) (A) (A) (A) (A) (A)
                 (A) (A) (A) (A) (A) (A) (A) (A) (A) (A) (A) (A)
                 (A) (A) (A) (A) (A) (A) (A) (A) (A) (A) (A) (A)
                 (A) (A) (A) (A) (A) (A) (A) (A) (A) (A) (A) (A)
                 (A) (A) (A) (A) (A) (A) (A) (A) (A) (A) (A) (A)
                 (A) (A) (A) (A) (A) (A) (A) (A) (A) (A) (A) (A)
                 (A) (A) (A) (A) (A) (A) (A) (A) (A) (A) (A) (A)
                 (A) (A) (A) (A) (A) (A) (A) (A) (A) (A) (A) (A)
                 (A) (A) (A) (A) (A) (A) (A) (A) (A) (A) (A) (A)
                 (A) (A) (A) (A) (A) (A) (A) (A) (A) (A) (A) (A)
                 (A) (A) (A) (A) (A) (A) (A) (A) (A) (A) (A) (A)
                 (A) (A) (A) (A) (A) (A) (A) (A) (A) (A) (A) (A)
                 (A) (A) (A) (A) (A) (A) (A) (A) (A) (A) (A) (A)
                 (A) (A) (A) (A) (A) (A) (A) (A) (A) (A) (A) (A)
                 (A) (A) (A) (A) (A) (A) (A) (A) (A) (A) (A) (A)
                 (A) (A) (A) (A) (A) (A) (A) (A) (A)
 The electronic state of the initial guess is 1-A.
 Requested convergence on RMS density matrix=1.00D-08 within 128 cycles.
 Requested convergence on MAX density matrix=1.00D-06.
 Requested convergence on             energy=1.00D-06.
 No special actions if energy rises.
 FoFJK:  IHMeth= 1 ICntrl=     0 DoSepK=T KAlg= 1 I1Cent= 0 FoldK=F
 FoFJK:  IHMeth= 1 ICntrl=     0 DoSepK=T KAlg= 1 I1Cent= 0 FoldK=F
 FoFJK:  IHMeth= 1 ICntrl=     0 DoSepK=T KAlg= 1 I1Cent= 0 FoldK=F
 FoFJK:  IHMeth= 1 ICntrl=     0 DoSepK=T KAlg= 1 I1Cent= 0 FoldK=F
 FoFJK:  IHMeth= 1 ICntrl=     0 DoSepK=T KAlg= 1 I1Cent= 0 FoldK=F
 FoFJK:  IHMeth= 1 ICntrl=     0 DoSepK=T KAlg= 1 I1Cent= 0 FoldK=F
 FoFJK:  IHMeth= 1 ICntrl=     0 DoSepK=T KAlg= 1 I1Cent= 0 FoldK=F
 FoFJK:  IHMeth= 1 ICntrl=     0 DoSepK=T KAlg= 1 I1Cent= 0 FoldK=F
 FoFJK:  IHMeth= 1 ICntrl=     0 DoSepK=T KAlg= 1 I1Cent= 0 FoldK=F
 FoFJK:  IHMeth= 1 ICntrl=     0 DoSepK=T KAlg= 1 I1Cent= 0 FoldK=F
 FoFJK:  IHMeth= 1 ICntrl=     0 DoSepK=T KAlg= 1 I1Cent= 0 FoldK=F
 FoFJK:  IHMeth= 1 ICntrl=     0 DoSepK=T KAlg= 1 I1Cent= 0 FoldK=F
 FoFJK:  IHMeth= 1 ICntrl=     0 DoSepK=T KAlg= 1 I1Cent= 0 FoldK=F
 FoFJK:  IHMeth= 1 ICntrl=     0 DoSepK=T KAlg= 1 I1Cent= 0 FoldK=F
 FoFJK:  IHMeth= 1 ICntrl=     0 DoSepK=T KAlg= 1 I1Cent= 0 FoldK=F
 Error on total polarization charges =  0.04035
 SCF Done:  E(RwB97XD) =  -692.447253325     A.U. after   15 cycles
             Convg  =    0.7733D-08             -V/T =  2.0096
 SMD-CDS (non-electrostatic) energy       (kcal/mol) =      -4.00
 (included in total energy above)
 Range of M.O.s used for correlation:     1   365
 NBasis=   365 NAE=    56 NBE=    56 NFC=     0 NFV=     0
 NROrb=    365 NOA=    56 NOB=    56 NVA=   309 NVB=   309

 **** Warning!!: The largest alpha MO coefficient is  0.13954089D+03

 NEqPCM:  Using equilibrium solvation (IEInf=0, Eps=   4.7113, EpsInf=   2.0906)
          Differentiating once with respect to magnetic field using GIAOs.
          Electric field/nuclear overlap derivatives assumed to be zero.
 FoFCou: FMM=F IPFlag=           0 FMFlag=    10101102 FMFlg1=           0
         NFxFlg=    40000000 DoJE=F BraDBF=F KetDBF=T FulRan=T
         Omega=  0.000000  0.000000  1.000000  0.000000  0.000000 ICntrl=    6100 IOpCl=  0
         NMat0=    1 NMatS0=    1 NMatT0=    0 NMatD0=    1 NMtDS0=    0 NMtDT0=    0
         I1Cent=           7 NGrid=        2259.
 Symmetry not used in FoFCou.
 FoFJK:  IHMeth= 1 ICntrl=  6127 DoSepK=T KAlg= 1 I1Cent= 0 FoldK=F
 FoFJK:  IHMeth= 1 ICntrl=     0 DoSepK=T KAlg= 1 I1Cent= 0 FoldK=F
          There are     3 degrees of freedom in the 1st order CPHF.  IDoFFX=0.
      3 vectors produced by pass  0 Test12= 5.77D-13 3.33D-08 XBig12= 1.47D+02 2.25D+00.
 AX will form     3 AO Fock derivatives at one time.
 FoFJK:  IHMeth= 1 ICntrl=     0 DoSepK=T KAlg= 1 I1Cent= 0 FoldK=F
      3 vectors produced by pass  1 Test12= 5.77D-13 3.33D-08 XBig12= 1.25D+00 3.08D-01.
 FoFJK:  IHMeth= 1 ICntrl=     0 DoSepK=T KAlg= 1 I1Cent= 0 FoldK=F
      3 vectors produced by pass  2 Test12= 5.77D-13 3.33D-08 XBig12= 2.48D-02 5.88D-02.
 FoFJK:  IHMeth= 1 ICntrl=     0 DoSepK=T KAlg= 1 I1Cent= 0 FoldK=F
      3 vectors produced by pass  3 Test12= 5.77D-13 3.33D-08 XBig12= 3.74D-04 5.67D-03.
 FoFJK:  IHMeth= 1 ICntrl=     0 DoSepK=T KAlg= 1 I1Cent= 0 FoldK=F
      3 vectors produced by pass  4 Test12= 5.77D-13 3.33D-08 XBig12= 5.23D-06 5.42D-04.
 FoFJK:  IHMeth= 1 ICntrl=     0 DoSepK=T KAlg= 1 I1Cent= 0 FoldK=F
      3 vectors produced by pass  5 Test12= 5.77D-13 3.33D-08 XBig12= 6.93D-08 5.42D-05.
 FoFJK:  IHMeth= 1 ICntrl=     0 DoSepK=T KAlg= 1 I1Cent= 0 FoldK=F
      3 vectors produced by pass  6 Test12= 5.77D-13 3.33D-08 XBig12= 8.07D-10 6.93D-06.
 FoFJK:  IHMeth= 1 ICntrl=     0 DoSepK=T KAlg= 1 I1Cent= 0 FoldK=F
      3 vectors produced by pass  7 Test12= 5.77D-13 3.33D-08 XBig12= 1.00D-11 8.06D-07.
 FoFJK:  IHMeth= 1 ICntrl=     0 DoSepK=T KAlg= 1 I1Cent= 0 FoldK=F
      2 vectors produced by pass  8 Test12= 5.77D-13 3.33D-08 XBig12= 1.26D-13 7.76D-08.
 FoFJK:  IHMeth= 1 ICntrl=     0 DoSepK=T KAlg= 1 I1Cent= 0 FoldK=F
 Inverted reduced A of dimension    26 with in-core refinement.
 Calculating GIAO nuclear magnetic shielding tensors.
 SCF GIAO Magnetic shielding tensor (ppm):
      1  C    Isotropic =    69.0892   Anisotropy =   160.9345
   XX=    57.6381   YX=   -19.8328   ZX=    47.4064
   XY=   -10.4025   YY=   127.8645   ZY=   -72.3252
   XZ=    45.3187   YZ=   -75.3690   ZZ=    21.7649
   Eigenvalues:   -30.4984    61.3871   176.3789
      2  C    Isotropic =    69.6907   Anisotropy =   176.3047
   XX=    54.4474   YX=   -22.2020   ZX=    50.7493
   XY=   -20.3256   YY=   131.3798   ZY=   -77.8610
   XZ=    52.0833   YZ=   -79.5152   ZZ=    23.2447
   Eigenvalues:   -34.0671    55.9120   187.2271
      3  C    Isotropic =    70.8339   Anisotropy =   173.8013
   XX=    46.1434   YX=   -60.7424   ZX=    -8.6291
   XY=   -60.9611   YY=   112.5942   ZY=   -83.3165
   XZ=    -9.6352   YZ=   -83.6014   ZZ=    53.7640
   Eigenvalues:   -31.8796    57.6799   186.7014
      4  C    Isotropic =    54.0359   Anisotropy =   185.6682
   XX=   -15.2004   YX=   -53.0657   ZX=    29.7639
   XY=   -56.0975   YY=   123.8195   ZY=   -58.6029
   XZ=    36.5252   YZ=   -57.9230   ZZ=    53.4885
   Eigenvalues:   -36.3711    20.6641   177.8147
      5  C    Isotropic =    72.6885   Anisotropy =   178.6817
   XX=    47.3058   YX=   -58.7497   ZX=    -1.9576
   XY=   -56.4388   YY=   117.3043   ZY=   -83.1435
   XZ=    -7.3031   YZ=   -89.3616   ZZ=    53.4553
   Eigenvalues:   -27.3447    53.6006   191.8096
      6  C    Isotropic =    71.7674   Anisotropy =   176.3215
   XX=    -7.2788   YX=   -54.7100   ZX=    37.7195
   XY=   -55.1689   YY=   137.4613   ZY=   -49.5707
   XZ=    38.6171   YZ=   -47.9699   ZZ=    85.1198
   Eigenvalues:   -30.1543    56.1415   189.3151
      7  C    Isotropic =   118.7629   Anisotropy =    32.3276
   XX=   113.2673   YX=     2.2410   ZX=     5.9192
   XY=     5.0670   YY=   138.5468   ZY=     5.2562
   XZ=     5.6847   YZ=     6.4547   ZZ=   104.4746
   Eigenvalues:   101.2177   114.7564   140.3147
      8  C    Isotropic =   145.4412   Anisotropy =    36.5505
   XX=   165.6188   YX=   -11.6108   ZX=    11.7299
   XY=    -4.2961   YY=   136.5795   ZY=    -2.9813
   XZ=     5.7709   YZ=     0.6790   ZZ=   134.1253
   Eigenvalues:   131.6151   134.9003   169.8081
      9  C    Isotropic =    16.9237   Anisotropy =   102.7101
   XX=   -47.5858   YX=    -0.9696   ZX=   -27.6128
   XY=    18.9195   YY=    73.2128   ZY=    25.5486
   XZ=   -54.6296   YZ=    26.9238   ZZ=    25.1442
   Eigenvalues:   -68.7147    34.0888    85.3971
     10  O    Isotropic =   130.4443   Anisotropy =   157.0509
   XX=    91.1407   YX=   -50.3972   ZX=    27.2637
   XY=  -131.5641   YY=   166.5907   ZY=    74.1311
   XZ=   153.2110   YZ=    84.5357   ZZ=   133.6015
   Eigenvalues:   -48.0925   204.2805   235.1449
     11  C    Isotropic =   137.3911   Anisotropy =    65.6729
   XX=   177.7628   YX=    14.1335   ZX=   -12.6324
   XY=     8.7546   YY=   119.7865   ZY=    14.4214
   XZ=   -10.3629   YZ=    12.2060   ZZ=   114.6241
   Eigenvalues:   100.2738   130.7265   181.1730
     12  O    Isotropic =   283.7716   Anisotropy =    42.8301
   XX=   294.1038   YX=    19.2189   ZX=   -12.3177
   XY=    14.1304   YY=   295.7282   ZY=     5.1980
   XZ=   -13.8888   YZ=     3.8988   ZZ=   261.4828
   Eigenvalues:   254.2565   284.7333   312.3250
     13  C    Isotropic =   181.6099   Anisotropy =    21.3148
   XX=   181.1417   YX=     0.2570   ZX=     4.2098
   XY=    -0.8470   YY=   195.7026   ZY=     0.0167
   XZ=     6.2451   YZ=     3.5929   ZZ=   167.9854
   Eigenvalues:   166.0519   182.9581   195.8198
     14  O    Isotropic =   -30.8862   Anisotropy =   546.1879
   XX=  -149.3930   YX=   -25.6007   ZX=   -53.6533
   XY=   -37.0418   YY=   164.9821   ZY=   265.6433
   XZ=   -70.6126   YZ=   263.1581   ZZ=  -108.2477
   Eigenvalues:  -280.0709  -145.8268   333.2391
     15  C    Isotropic =   181.4833   Anisotropy =    26.0437
   XX=   188.3445   YX=    -0.3927   ZX=    -8.0683
   XY=    -5.4510   YY=   182.5002   ZY=    13.2231
   XZ=   -11.0223   YZ=    13.5453   ZZ=   173.6052
   Eigenvalues:   162.4202   183.1839   198.8457
     16  H    Isotropic =    23.8571   Anisotropy =     7.9405
   XX=    27.2539   YX=     2.7366   ZX=     2.0120
   XY=     2.7357   YY=    21.3893   ZY=     1.2671
   XZ=     1.7537   YZ=     1.4513   ZZ=    22.9281
   Eigenvalues:    20.1577    22.2629    29.1508
     17  H    Isotropic =    23.6968   Anisotropy =     5.1230
   XX=    26.4208   YX=     1.8876   ZX=    -0.3852
   XY=     1.8444   YY=    21.9437   ZY=     1.6418
   XZ=    -0.2679   YZ=     1.6117   ZZ=    22.7258
   Eigenvalues:    20.1989    23.7794    27.1121
     18  H    Isotropic =    23.8379   Anisotropy =     4.8139
   XX=    26.1546   YX=     0.8795   ZX=    -1.6902
   XY=     1.0691   YY=    21.4317   ZY=     1.3808
   XZ=    -1.6234   YZ=     1.3383   ZZ=    23.9274
   Eigenvalues:    20.3892    24.0774    27.0472
     19  H    Isotropic =    23.4429   Anisotropy =     9.8036
   XX=    26.8672   YX=    -0.6043   ZX=    -4.6059
   XY=     0.2627   YY=    20.1003   ZY=     1.3949
   XZ=    -4.3094   YZ=     1.1354   ZZ=    23.3613
   Eigenvalues:    19.2177    21.1325    29.9787
     20  H    Isotropic =    23.7782   Anisotropy =     4.1358
   XX=    24.1619   YX=     0.9634   ZX=    -0.4717
   XY=     1.0107   YY=    22.1976   ZY=     2.5646
   XZ=    -0.4819   YZ=     2.6284   ZZ=    24.9752
   Eigenvalues:    20.3306    24.4687    26.5354
     21  H    Isotropic =    26.6267   Anisotropy =     4.6295
   XX=    25.4938   YX=     1.4976   ZX=     0.8231
   XY=     2.3425   YY=    26.3588   ZY=     2.4353
   XZ=     0.0667   YZ=     1.1920   ZZ=    28.0275
   Eigenvalues:    23.7841    26.3829    29.7130
     22  H    Isotropic =    28.7337   Anisotropy =     4.0369
   XX=    29.8123   YX=    -0.1159   ZX=    -0.5893
   XY=    -2.9931   YY=    25.9056   ZY=     1.6005
   XZ=     0.8110   YZ=     2.4895   ZZ=    30.4831
   Eigenvalues:    24.6881    30.0879    31.4249
     23  H    Isotropic =    27.7226   Anisotropy =     8.2674
   XX=    29.8172   YX=     0.4979   ZX=     3.2420
   XY=     1.2063   YY=    23.7111   ZY=     3.4918
   XZ=     2.2239   YZ=     2.3890   ZZ=    29.6394
   Eigenvalues:    22.4900    27.4435    33.2342
     24  H    Isotropic =    26.7916   Anisotropy =     6.0355
   XX=    28.6740   YX=     2.6757   ZX=    -1.1315
   XY=     1.3001   YY=    28.9670   ZY=    -0.2094
   XZ=     0.6496   YZ=     0.3598   ZZ=    22.7338
   Eigenvalues:    22.7197    26.8398    30.8152
     25  H    Isotropic =    28.0743   Anisotropy =    18.0433
   XX=    33.6600   YX=     2.6933   ZX=    -8.1981
   XY=     3.8703   YY=    28.1599   ZY=    -4.6230
   XZ=    -8.6982   YZ=    -3.2673   ZZ=    22.4030
   Eigenvalues:    17.4915    26.6283    40.1032
     26  H    Isotropic =    30.4375   Anisotropy =     9.7782
   XX=    32.1494   YX=    -1.5679   ZX=     3.2171
   XY=    -3.6392   YY=    31.6874   ZY=    -3.9585
   XZ=     3.8765   YZ=    -2.4922   ZZ=    27.4758
   Eigenvalues:    25.0516    29.3046    36.9564
     27  H    Isotropic =    31.2032   Anisotropy =     6.7155
   XX=    35.0982   YX=     1.9574   ZX=    -2.2960
   XY=    -0.1460   YY=    32.2314   ZY=    -2.7416
   XZ=     0.5987   YZ=    -2.7771   ZZ=    26.2801
   Eigenvalues:    25.1760    32.7535    35.6802
     28  H    Isotropic =    30.8047   Anisotropy =     8.1262
   XX=    28.5555   YX=    -0.2351   ZX=    -0.4869
   XY=    -1.6758   YY=    32.1414   ZY=     5.0193
   XZ=     0.8146   YZ=     3.4674   ZZ=    31.7172
   Eigenvalues:    27.2165    28.9755    36.2221
     29  H    Isotropic =    30.4231   Anisotropy =     8.0739
   XX=    28.7656   YX=    -1.7517   ZX=    -0.6472
   XY=    -1.8553   YY=    34.9590   ZY=    -2.7100
   XZ=    -0.2772   YZ=    -1.0859   ZZ=    27.5448
   Eigenvalues:    26.6631    28.8005    35.8057
     30  H    Isotropic =    30.5555   Anisotropy =    11.5237
   XX=    37.5443   YX=     0.2501   ZX=    -2.5155
   XY=    -0.7830   YY=    26.9694   ZY=     0.4390
   XZ=    -2.9837   YZ=     0.3218   ZZ=    27.1526
   Eigenvalues:    26.3236    27.1049    38.2379
     31  H    Isotropic =    30.3185   Anisotropy =     6.1409
   XX=    29.8079   YX=    -1.7115   ZX=     1.0063
   XY=    -2.0766   YY=    27.3153   ZY=     2.6576
   XZ=     0.9667   YZ=     1.2073   ZZ=    33.8322
   Eigenvalues:    25.7147    30.8283    34.4124
 End of Minotr Frequency-dependent properties file   721 does not exist.
 End of Minotr Frequency-dependent properties file   722 does not exist.

 **********************************************************************

            Population analysis using the SCF density.

 **********************************************************************

 Orbital symmetries:
       Occupied  (A) (A) (A) (A) (A) (A) (A) (A) (A) (A) (A) (A)
                 (A) (A) (A) (A) (A) (A) (A) (A) (A) (A) (A) (A)
                 (A) (A) (A) (A) (A) (A) (A) (A) (A) (A) (A) (A)
                 (A) (A) (A) (A) (A) (A) (A) (A) (A) (A) (A) (A)
                 (A) (A) (A) (A) (A) (A) (A) (A)
       Virtual   (A) (A) (A) (A) (A) (A) (A) (A) (A) (A) (A) (A)
                 (A) (A) (A) (A) (A) (A) (A) (A) (A) (A) (A) (A)
                 (A) (A) (A) (A) (A) (A) (A) (A) (A) (A) (A) (A)
                 (A) (A) (A) (A) (A) (A) (A) (A) (A) (A) (A) (A)
                 (A) (A) (A) (A) (A) (A) (A) (A) (A) (A) (A) (A)
                 (A) (A) (A) (A) (A) (A) (A) (A) (A) (A) (A) (A)
                 (A) (A) (A) (A) (A) (A) (A) (A) (A) (A) (A) (A)
                 (A) (A) (A) (A) (A) (A) (A) (A) (A) (A) (A) (A)
                 (A) (A) (A) (A) (A) (A) (A) (A) (A) (A) (A) (A)
                 (A) (A) (A) (A) (A) (A) (A) (A) (A) (A) (A) (A)
                 (A) (A) (A) (A) (A) (A) (A) (A) (A) (A) (A) (A)
                 (A) (A) (A) (A) (A) (A) (A) (A) (A) (A) (A) (A)
                 (A) (A) (A) (A) (A) (A) (A) (A) (A) (A) (A) (A)
                 (A) (A) (A) (A) (A) (A) (A) (A) (A) (A) (A) (A)
                 (A) (A) (A) (A) (A) (A) (A) (A) (A) (A) (A) (A)
                 (A) (A) (A) (A) (A) (A) (A) (A) (A) (A) (A) (A)
                 (A) (A) (A) (A) (A) (A) (A) (A) (A) (A) (A) (A)
                 (A) (A) (A) (A) (A) (A) (A) (A) (A) (A) (A) (A)
                 (A) (A) (A) (A) (A) (A) (A) (A) (A) (A) (A) (A)
                 (A) (A) (A) (A) (A) (A) (A) (A) (A) (A) (A) (A)
                 (A) (A) (A) (A) (A) (A) (A) (A) (A) (A) (A) (A)
                 (A) (A) (A) (A) (A) (A) (A) (A) (A) (A) (A) (A)
                 (A) (A) (A) (A) (A) (A) (A) (A) (A) (A) (A) (A)
                 (A) (A) (A) (A) (A) (A) (A) (A) (A) (A) (A) (A)
                 (A) (A) (A) (A) (A) (A) (A) (A) (A) (A) (A) (A)
                 (A) (A) (A) (A) (A) (A) (A) (A) (A)
 The electronic state is 1-A.
 Alpha  occ. eigenvalues --  -19.33073 -19.28285 -19.27584 -10.44535 -10.35670
 Alpha  occ. eigenvalues --  -10.35230 -10.31953 -10.31411 -10.30607 -10.30560
 Alpha  occ. eigenvalues --  -10.30529 -10.30478 -10.30411 -10.29341 -10.28800
 Alpha  occ. eigenvalues --   -1.21378  -1.13492  -1.11979  -0.96094  -0.91438
 Alpha  occ. eigenvalues --   -0.86950  -0.84986  -0.84598  -0.77304  -0.76446
 Alpha  occ. eigenvalues --   -0.71925  -0.70116  -0.67061  -0.64728  -0.61664
 Alpha  occ. eigenvalues --   -0.59758  -0.59488  -0.58473  -0.56385  -0.54473
 Alpha  occ. eigenvalues --   -0.53475  -0.52786  -0.51359  -0.50884  -0.50160
 Alpha  occ. eigenvalues --   -0.49031  -0.48913  -0.46793  -0.46426  -0.45232
 Alpha  occ. eigenvalues --   -0.45055  -0.44094  -0.43389  -0.42213  -0.41946
 Alpha  occ. eigenvalues --   -0.41086  -0.39047  -0.37159  -0.35785  -0.33173
 Alpha  occ. eigenvalues --   -0.32629
 Alpha virt. eigenvalues --    0.05125   0.05459   0.06211   0.07156   0.07873
 Alpha virt. eigenvalues --    0.08146   0.08307   0.09453   0.09655   0.10666
 Alpha virt. eigenvalues --    0.10944   0.11159   0.11372   0.11735   0.12998
 Alpha virt. eigenvalues --    0.13109   0.13489   0.14122   0.14496   0.15248
 Alpha virt. eigenvalues --    0.15982   0.16500   0.16531   0.17193   0.17323
 Alpha virt. eigenvalues --    0.18224   0.19207   0.19687   0.19714   0.20235
 Alpha virt. eigenvalues --    0.20572   0.21029   0.21225   0.21486   0.22336
 Alpha virt. eigenvalues --    0.22872   0.23577   0.23966   0.24367   0.25161
 Alpha virt. eigenvalues --    0.25272   0.26006   0.26293   0.26556   0.27319
 Alpha virt. eigenvalues --    0.27857   0.28112   0.28710   0.29065   0.29526
 Alpha virt. eigenvalues --    0.29762   0.30075   0.30543   0.30701   0.31460
 Alpha virt. eigenvalues --    0.32080   0.32394   0.32534   0.33324   0.33774
 Alpha virt. eigenvalues --    0.34012   0.34472   0.35209   0.35749   0.35983
 Alpha virt. eigenvalues --    0.36610   0.37226   0.37250   0.38093   0.38524
 Alpha virt. eigenvalues --    0.39177   0.39422   0.39657   0.40811   0.41497
 Alpha virt. eigenvalues --    0.42262   0.42392   0.43035   0.44050   0.44325
 Alpha virt. eigenvalues --    0.44934   0.45856   0.46971   0.47369   0.48420
 Alpha virt. eigenvalues --    0.49081   0.49514   0.51676   0.52344   0.53782
 Alpha virt. eigenvalues --    0.54287   0.56171   0.61227   0.66533   0.70167
 Alpha virt. eigenvalues --    0.72572   0.73410   0.75280   0.76084   0.76721
 Alpha virt. eigenvalues --    0.77136   0.77750   0.78264   0.79623   0.80523
 Alpha virt. eigenvalues --    0.81336   0.82302   0.83274   0.83784   0.83989
 Alpha virt. eigenvalues --    0.85095   0.86148   0.87115   0.88624   0.89868
 Alpha virt. eigenvalues --    0.90180   0.90963   0.92000   0.92618   0.95204
 Alpha virt. eigenvalues --    0.97012   0.98564   1.00022   1.00655   1.01782
 Alpha virt. eigenvalues --    1.02395   1.04249   1.06221   1.06840   1.07404
 Alpha virt. eigenvalues --    1.08933   1.09370   1.10991   1.11500   1.11636
 Alpha virt. eigenvalues --    1.14740   1.15374   1.16630   1.17879   1.18870
 Alpha virt. eigenvalues --    1.19781   1.21899   1.22153   1.23366   1.23518
 Alpha virt. eigenvalues --    1.25889   1.26222   1.27057   1.29108   1.30371
 Alpha virt. eigenvalues --    1.31047   1.33448   1.34596   1.35885   1.37994
 Alpha virt. eigenvalues --    1.39298   1.40935   1.41944   1.42302   1.43421
 Alpha virt. eigenvalues --    1.44559   1.46443   1.46993   1.48423   1.49277
 Alpha virt. eigenvalues --    1.49638   1.51238   1.52180   1.54030   1.56052
 Alpha virt. eigenvalues --    1.57015   1.60493   1.61186   1.64448   1.66148
 Alpha virt. eigenvalues --    1.68591   1.70589   1.72593   1.73728   1.75432
 Alpha virt. eigenvalues --    1.77921   1.78967   1.81509   1.85369   1.86589
 Alpha virt. eigenvalues --    1.88873   1.91217   1.93243   1.94350   1.95370
 Alpha virt. eigenvalues --    1.96844   1.96874   1.98978   1.99640   2.00549
 Alpha virt. eigenvalues --    2.01799   2.02450   2.04148   2.04829   2.06501
 Alpha virt. eigenvalues --    2.07174   2.08210   2.09682   2.10098   2.10395
 Alpha virt. eigenvalues --    2.12095   2.13561   2.14229   2.16051   2.18297
 Alpha virt. eigenvalues --    2.19651   2.20321   2.20999   2.21743   2.24251
 Alpha virt. eigenvalues --    2.24891   2.25591   2.26324   2.28900   2.30275
 Alpha virt. eigenvalues --    2.31939   2.36709   2.38613   2.39721   2.41003
 Alpha virt. eigenvalues --    2.42266   2.42882   2.43999   2.46025   2.48319
 Alpha virt. eigenvalues --    2.49225   2.49859   2.50839   2.53503   2.53959
 Alpha virt. eigenvalues --    2.55903   2.56360   2.58113   2.61030   2.62266
 Alpha virt. eigenvalues --    2.63124   2.64271   2.65145   2.67857   2.68812
 Alpha virt. eigenvalues --    2.69527   2.71126   2.72909   2.73333   2.74944
 Alpha virt. eigenvalues --    2.77444   2.78744   2.79685   2.81840   2.83228
 Alpha virt. eigenvalues --    2.83606   2.85112   2.86218   2.87947   2.90119
 Alpha virt. eigenvalues --    2.90245   2.92154   2.93499   2.95606   2.96692
 Alpha virt. eigenvalues --    3.00050   3.01267   3.02719   3.06176   3.09968
 Alpha virt. eigenvalues --    3.13101   3.15587   3.16757   3.18687   3.26998
 Alpha virt. eigenvalues --    3.28520   3.31404   3.36433   3.37193   3.38601
 Alpha virt. eigenvalues --    3.38714   3.43203   3.44983   3.48599   3.51843
 Alpha virt. eigenvalues --    3.54484   3.58772   3.58946   3.60989   3.62606
 Alpha virt. eigenvalues --    3.65162   3.65661   3.67597   3.99953   4.38816
 Alpha virt. eigenvalues --    4.41287   4.42046   4.44896   4.51983   4.55038
 Alpha virt. eigenvalues --    4.57378   4.60313   4.64934   4.65972   4.71265
 Alpha virt. eigenvalues --    4.76940   4.82099   4.93838   4.97658
          Condensed to atoms (all electrons):
              1          2          3          4          5          6
     1  C   15.710867  -0.096411  -1.760076  -5.235586  -6.999574   0.103952
     2  C   -0.096411   6.581910   0.158836   0.154858  -0.902740   0.242824
     3  C   -1.760076   0.158836   6.719202   0.848881   0.461501   0.379854
     4  C   -5.235586   0.154858   0.848881  13.544641   0.709582  -0.568344
     5  C   -6.999574  -0.902740   0.461501   0.709582  15.194688   0.392607
     6  C    0.103952   0.242824   0.379854  -0.568344   0.392607   5.321689
     7  C    4.991311  -0.317005  -0.961603  -4.391094  -3.847256  -0.000137
     8  C   -1.186508   0.148459   0.096159   0.744394   1.227396  -0.032691
     9  C    0.486713  -0.037286  -0.015730  -0.373155  -0.538429  -0.002868
    10  O    0.002615  -0.000939  -0.000466  -0.013207  -0.005970   0.000084
    11  C    0.001555  -0.002386   0.000612   0.000256  -0.003880  -0.000033
    12  O   -0.042805   0.075396  -0.030084   0.117876  -0.070018  -0.004375
    13  C   -0.121373  -0.036551   0.004050   0.160208   0.163207   0.026543
    14  O   -0.027267   0.002285  -0.000536   0.046653   0.031074  -0.000157
    15  C    0.003243  -0.000078   0.000220  -0.004227  -0.004681  -0.000096
    16  H    0.236110   0.003445   0.039415   0.060575  -0.001610  -0.006687
    17  H    0.010246   0.272325  -0.005608   0.028430   0.009154   0.009688
    18  H    0.046941  -0.000623   0.262104   0.009806  -0.007177   0.017456
    19  H    0.041368  -0.057829  -0.006621   0.041282   0.226067  -0.013900
    20  H   -0.007118   0.023664   0.030765   0.004632  -0.008848   0.282222
    21  H    0.125826   0.003105   0.050915  -0.079789  -0.124355  -0.004571
    22  H    0.035503  -0.007337   0.003140  -0.008684  -0.052370  -0.001658
    23  H    0.000052   0.000002   0.000000   0.000459  -0.000137   0.000000
    24  H   -0.000022  -0.000007   0.000003  -0.000505   0.000176   0.000000
    25  H    0.004627  -0.010393   0.003102   0.015585   0.011755   0.000629
    26  H    0.006977  -0.001868  -0.002117  -0.017873  -0.009683   0.000147
    27  H   -0.007926  -0.005606   0.001701   0.038286   0.030927   0.005799
    28  H    0.030565  -0.002350   0.004373  -0.032549  -0.003786   0.001004
    29  H   -0.000030  -0.000002  -0.000001  -0.000207   0.000052   0.000000
    30  H    0.000010   0.000000   0.000000  -0.000003  -0.000010   0.000000
    31  H    0.000059   0.000002   0.000002   0.000496  -0.000012   0.000000
              7          8          9         10         11         12
     1  C    4.991311  -1.186508   0.486713   0.002615   0.001555  -0.042805
     2  C   -0.317005   0.148459  -0.037286  -0.000939  -0.002386   0.075396
     3  C   -0.961603   0.096159  -0.015730  -0.000466   0.000612  -0.030084
     4  C   -4.391094   0.744394  -0.373155  -0.013207   0.000256   0.117876
     5  C   -3.847256   1.227396  -0.538429  -0.005970  -0.003880  -0.070018
     6  C   -0.000137  -0.032691  -0.002868   0.000084  -0.000033  -0.004375
     7  C   12.015971  -2.170003   0.697440   0.137536  -0.000310   0.015993
     8  C   -2.170003   9.377489  -1.249077  -0.337004  -0.106564  -0.051450
     9  C    0.697440  -1.249077   6.044724   0.285859  -0.044102  -0.024697
    10  O    0.137536  -0.337004   0.285859   8.451800   0.050244  -0.006997
    11  C   -0.000310  -0.106564  -0.044102   0.050244   5.129037   0.001750
    12  O    0.015993  -0.051450  -0.024697  -0.006997   0.001750   8.327274
    13  C   -0.271799  -0.518513   0.009210   0.002718   0.019576   0.062007
    14  O   -0.055055   0.064936   0.401760  -0.132735   0.007908   0.006638
    15  C   -0.007780  -0.048221  -0.005019  -0.066626   0.294487   0.000129
    16  H   -0.010964  -0.001786  -0.006592   0.000007  -0.000043  -0.000115
    17  H    0.002790  -0.000573   0.000214   0.000000   0.000000  -0.000031
    18  H   -0.001866  -0.000188   0.000011   0.000000   0.000000   0.000008
    19  H    0.080822  -0.003776   0.016760   0.000038   0.000059   0.000326
    20  H    0.001390  -0.000246  -0.000023   0.000000   0.000000  -0.000001
    21  H    0.297813   0.075936  -0.005249  -0.001230   0.000080  -0.045278
    22  H    0.007467   0.421774  -0.030131  -0.002923  -0.000144  -0.003354
    23  H    0.000356  -0.008792   0.024595  -0.061515   0.419648   0.000025
    24  H   -0.001714   0.005531  -0.003707  -0.033796   0.399742   0.000026
    25  H    0.044003  -0.083977   0.021819   0.000786   0.000845   0.229410
    26  H    0.058618  -0.181068   0.044770   0.007675   0.005569  -0.000621
    27  H   -0.060735  -0.069742  -0.014592  -0.000122   0.000608  -0.000097
    28  H   -0.019835   0.040377  -0.034244  -0.002316  -0.002336   0.000100
    29  H   -0.000296   0.002440   0.006971  -0.003049  -0.043231  -0.000003
    30  H   -0.000071   0.003109   0.005375   0.007385  -0.049800   0.000001
    31  H   -0.000047  -0.005921   0.004169  -0.006534  -0.040636   0.000023
             13         14         15         16         17         18
     1  C   -0.121373  -0.027267   0.003243   0.236110   0.010246   0.046941
     2  C   -0.036551   0.002285  -0.000078   0.003445   0.272325  -0.000623
     3  C    0.004050  -0.000536   0.000220   0.039415  -0.005608   0.262104
     4  C    0.160208   0.046653  -0.004227   0.060575   0.028430   0.009806
     5  C    0.163207   0.031074  -0.004681  -0.001610   0.009154  -0.007177
     6  C    0.026543  -0.000157  -0.000096  -0.006687   0.009688   0.017456
     7  C   -0.271799  -0.055055  -0.007780  -0.010964   0.002790  -0.001866
     8  C   -0.518513   0.064936  -0.048221  -0.001786  -0.000573  -0.000188
     9  C    0.009210   0.401760  -0.005019  -0.006592   0.000214   0.000011
    10  O    0.002718  -0.132735  -0.066626   0.000007   0.000000   0.000000
    11  C    0.019576   0.007908   0.294487  -0.000043   0.000000   0.000000
    12  O    0.062007   0.006638   0.000129  -0.000115  -0.000031   0.000008
    13  C    5.897571  -0.048626   0.006323   0.005402  -0.000060   0.000054
    14  O   -0.048626   8.265457  -0.034462   0.000020   0.000000   0.000000
    15  C    0.006323  -0.034462   5.206825   0.000000   0.000000   0.000000
    16  H    0.005402   0.000020   0.000000   0.509146   0.000011  -0.003927
    17  H   -0.000060   0.000000   0.000000   0.000011   0.497064  -0.000122
    18  H    0.000054   0.000000   0.000000  -0.003927  -0.000122   0.497659
    19  H   -0.005455  -0.000011  -0.000017  -0.000111  -0.004001   0.000011
    20  H   -0.000011   0.000000   0.000000  -0.000121  -0.003838  -0.003885
    21  H   -0.023086  -0.002010   0.000865   0.001932   0.000002  -0.000006
    22  H   -0.053340   0.002797   0.000030  -0.000007   0.000002   0.000000
    23  H    0.002875   0.000084  -0.045913   0.000000   0.000000   0.000000
    24  H   -0.001597   0.001116  -0.032592   0.000000   0.000000   0.000000
    25  H    0.000691   0.011228   0.000275  -0.000003   0.000000   0.000000
    26  H    0.450617  -0.000234  -0.001383   0.000006   0.000000   0.000000
    27  H    0.444445  -0.000230  -0.000421  -0.000128  -0.000002  -0.000005
    28  H    0.372744   0.000898   0.000358  -0.000147   0.000000   0.000000
    29  H   -0.001272  -0.000603   0.402609   0.000000   0.000000   0.000000
    30  H    0.000304  -0.000227   0.397584   0.000000   0.000000   0.000000
    31  H    0.001217   0.001535   0.409105   0.000000   0.000000   0.000000
             19         20         21         22         23         24
     1  C    0.041368  -0.007118   0.125826   0.035503   0.000052  -0.000022
     2  C   -0.057829   0.023664   0.003105  -0.007337   0.000002  -0.000007
     3  C   -0.006621   0.030765   0.050915   0.003140   0.000000   0.000003
     4  C    0.041282   0.004632  -0.079789  -0.008684   0.000459  -0.000505
     5  C    0.226067  -0.008848  -0.124355  -0.052370  -0.000137   0.000176
     6  C   -0.013900   0.282222  -0.004571  -0.001658   0.000000   0.000000
     7  C    0.080822   0.001390   0.297813   0.007467   0.000356  -0.001714
     8  C   -0.003776  -0.000246   0.075936   0.421774  -0.008792   0.005531
     9  C    0.016760  -0.000023  -0.005249  -0.030131   0.024595  -0.003707
    10  O    0.000038   0.000000  -0.001230  -0.002923  -0.061515  -0.033796
    11  C    0.000059   0.000000   0.000080  -0.000144   0.419648   0.399742
    12  O    0.000326  -0.000001  -0.045278  -0.003354   0.000025   0.000026
    13  C   -0.005455  -0.000011  -0.023086  -0.053340   0.002875  -0.001597
    14  O   -0.000011   0.000000  -0.002010   0.002797   0.000084   0.001116
    15  C   -0.000017   0.000000   0.000865   0.000030  -0.045913  -0.032592
    16  H   -0.000111  -0.000121   0.001932  -0.000007   0.000000   0.000000
    17  H   -0.004001  -0.003838   0.000002   0.000002   0.000000   0.000000
    18  H    0.000011  -0.003885  -0.000006   0.000000   0.000000   0.000000
    19  H    0.504820  -0.000117  -0.000036  -0.000126   0.000000   0.000000
    20  H   -0.000117   0.499787   0.000000   0.000000   0.000000   0.000000
    21  H   -0.000036   0.000000   0.568885   0.003097   0.000000   0.000000
    22  H   -0.000126   0.000000   0.003097   0.474775   0.000000   0.000011
    23  H    0.000000   0.000000   0.000000   0.000000   0.526247  -0.031184
    24  H    0.000000   0.000000   0.000000   0.000011  -0.031184   0.520105
    25  H    0.000037   0.000000  -0.008037   0.000004   0.000000  -0.000024
    26  H    0.000003   0.000000  -0.000083  -0.002255  -0.000007  -0.000005
    27  H   -0.000001   0.000000  -0.000021  -0.003913   0.000000   0.000000
    28  H   -0.000001   0.000000   0.001864   0.003536   0.000000   0.000000
    29  H    0.000000   0.000000   0.000000   0.000001  -0.004995   0.003767
    30  H    0.000000   0.000000   0.000000   0.000000  -0.001156  -0.001059
    31  H    0.000000   0.000000  -0.000001  -0.000002   0.003896  -0.004846
             25         26         27         28         29         30
     1  C    0.004627   0.006977  -0.007926   0.030565  -0.000030   0.000010
     2  C   -0.010393  -0.001868  -0.005606  -0.002350  -0.000002   0.000000
     3  C    0.003102  -0.002117   0.001701   0.004373  -0.000001   0.000000
     4  C    0.015585  -0.017873   0.038286  -0.032549  -0.000207  -0.000003
     5  C    0.011755  -0.009683   0.030927  -0.003786   0.000052  -0.000010
     6  C    0.000629   0.000147   0.005799   0.001004   0.000000   0.000000
     7  C    0.044003   0.058618  -0.060735  -0.019835  -0.000296  -0.000071
     8  C   -0.083977  -0.181068  -0.069742   0.040377   0.002440   0.003109
     9  C    0.021819   0.044770  -0.014592  -0.034244   0.006971   0.005375
    10  O    0.000786   0.007675  -0.000122  -0.002316  -0.003049   0.007385
    11  C    0.000845   0.005569   0.000608  -0.002336  -0.043231  -0.049800
    12  O    0.229410  -0.000621  -0.000097   0.000100  -0.000003   0.000001
    13  C    0.000691   0.450617   0.444445   0.372744  -0.001272   0.000304
    14  O    0.011228  -0.000234  -0.000230   0.000898  -0.000603  -0.000227
    15  C    0.000275  -0.001383  -0.000421   0.000358   0.402609   0.397584
    16  H   -0.000003   0.000006  -0.000128  -0.000147   0.000000   0.000000
    17  H    0.000000   0.000000  -0.000002   0.000000   0.000000   0.000000
    18  H    0.000000   0.000000  -0.000005   0.000000   0.000000   0.000000
    19  H    0.000037   0.000003  -0.000001  -0.000001   0.000000   0.000000
    20  H    0.000000   0.000000   0.000000   0.000000   0.000000   0.000000
    21  H   -0.008037  -0.000083  -0.000021   0.001864   0.000000   0.000000
    22  H    0.000004  -0.002255  -0.003913   0.003536   0.000001   0.000000
    23  H    0.000000  -0.000007   0.000000   0.000000  -0.004995  -0.001156
    24  H   -0.000024  -0.000005   0.000000   0.000000   0.003767  -0.001059
    25  H    0.356900   0.000000  -0.000002   0.000022   0.000000   0.000000
    26  H    0.000000   0.507319  -0.023553  -0.025177   0.000009  -0.000001
    27  H   -0.000002  -0.023553   0.499541  -0.024117   0.000001   0.000000
    28  H    0.000022  -0.025177  -0.024117   0.506657  -0.000008   0.000000
    29  H    0.000000   0.000009   0.000001  -0.000008   0.515404  -0.022594
    30  H    0.000000  -0.000001   0.000000   0.000000  -0.022594   0.504725
    31  H    0.000000  -0.000003   0.000000  -0.000017  -0.029142  -0.021795
             31
     1  C    0.000059
     2  C    0.000002
     3  C    0.000002
     4  C    0.000496
     5  C   -0.000012
     6  C    0.000000
     7  C   -0.000047
     8  C   -0.005921
     9  C    0.004169
    10  O   -0.006534
    11  C   -0.040636
    12  O    0.000023
    13  C    0.001217
    14  O    0.001535
    15  C    0.409105
    16  H    0.000000
    17  H    0.000000
    18  H    0.000000
    19  H    0.000000
    20  H    0.000000
    21  H   -0.000001
    22  H   -0.000002
    23  H    0.003896
    24  H   -0.004846
    25  H    0.000000
    26  H   -0.000003
    27  H    0.000000
    28  H   -0.000017
    29  H   -0.029142
    30  H   -0.021795
    31  H    0.509140
 Mulliken atomic charges:
              1
     1  C   -0.353845
     2  C   -0.187700
     3  C   -0.281994
     4  C    0.198324
     5  C    0.122351
     6  C   -0.148983
     7  C   -0.233938
     8  C   -0.151900
     9  C    0.334514
    10  O   -0.271318
    11  C   -0.038511
    12  O   -0.557056
    13  C   -0.548076
    14  O   -0.542237
    15  C   -0.470536
    16  H    0.176171
    17  H    0.184310
    18  H    0.183748
    19  H    0.180407
    20  H    0.181750
    21  H    0.163431
    22  H    0.214108
    23  H    0.175461
    24  H    0.180577
    25  H    0.400721
    26  H    0.184220
    27  H    0.189905
    28  H    0.184385
    29  H    0.174181
    30  H    0.178223
    31  H    0.179309
 Sum of Mulliken atomic charges =   0.00000
 Mulliken charges with hydrogens summed into heavy atoms:
              1
     1  C   -0.177674
     2  C   -0.003390
     3  C   -0.098247
     4  C    0.198324
     5  C    0.302758
     6  C    0.032767
     7  C   -0.070508
     8  C    0.062208
     9  C    0.334514
    10  O   -0.271318
    11  C    0.317528
    12  O   -0.156335
    13  C    0.010434
    14  O   -0.542237
    15  C    0.061177
 Sum of Mulliken charges with hydrogens summed into heavy atoms =   0.00000
 Electronic spatial extent (au):  <R**2>=           4372.8473
 Charge=              0.0000 electrons
 Dipole moment (field-independent basis, Debye):
    X=              1.9721    Y=             -2.8347    Z=              1.0227  Tot=              3.6014
 Quadrupole moment (field-independent basis, Debye-Ang):
   XX=            -73.3767   YY=            -94.2522   ZZ=            -87.7759
   XY=              3.7485   XZ=              2.1638   YZ=              5.0184
 Traceless Quadrupole moment (field-independent basis, Debye-Ang):
   XX=             11.7582   YY=             -9.1173   ZZ=             -2.6409
   XY=              3.7485   XZ=              2.1638   YZ=              5.0184
 Octapole moment (field-independent basis, Debye-Ang**2):
  XXX=             67.1420  YYY=              0.5749  ZZZ=              0.0908  XYY=             21.4754
  XXY=            -16.2165  XXZ=             26.7939  XZZ=             -4.3607  YZZ=              2.7733
  YYZ=             -2.3760  XYZ=             -8.4275
 Hexadecapole moment (field-independent basis, Debye-Ang**3):
 XXXX=          -4198.2725 YYYY=           -597.4061 ZZZZ=           -425.6017 XXXY=             97.7465
 XXXZ=             14.2168 YYYX=             22.0370 YYYZ=            -11.3036 ZZZX=              6.4732
 ZZZY=             13.5125 XXYY=           -925.9011 XXZZ=           -864.3853 YYZZ=           -160.7270
 XXYZ=             58.6661 YYXZ=              8.3174 ZZXY=             -1.7866
 N-N= 9.921797896807D+02 E-N=-3.596200362545D+03  KE= 6.858867527788D+02
 1\1\GINC-COMPUTE-8-6\SP\RwB97XD\6-31+G(d,p)\C12H16O3\ELUCIANO.IQUIR\17
 -May-2022\0\\# wb97xd/6-31+g** scrf=(pcm,solvent=chloroform,smd,dovacu
 um) nmr\\comment\\0,1\C,0,-1.503528076,-2.636229483,-0.038420206\C,0,-
 3.911213633,-1.360474702,-0.63243743\C,0,-2.718000543,-3.261833656,0.2
 50903599\C,0,-1.477914983,-1.361815752,-0.626283161\C,0,-2.698092965,-
 0.733529362,-0.921482124\C,0,-3.920682097,-2.623384584,-0.044583028\C,
 0,-0.154508137,-0.678477898,-0.910695801\C,0,0.127610104,0.509817444,0
 .03077647\C,0,1.464595907,1.123340026,-0.336621345\O,0,1.641240941,2.3
 05486629,0.318283358\C,0,2.867183803,3.000455226,0.045535039\O,0,-0.20
 1755057,-0.224157824,-2.26877852\C,0,0.158350471,0.098610601,1.5038118
 72\O,0,2.262661033,0.632398654,-1.125752381\C,0,3.966345119,2.49916926
 3,0.963153995\H,0,-0.576075248,-3.152647746,0.198454885\H,0,-4.8478144
 02,-0.864578158,-0.872836339\H,0,-2.725427251,-4.249615999,0.704179832
 \H,0,-2.703922587,0.246781285,-1.393926514\H,0,-4.865376974,-3.1125182
 05,0.177055598\H,0,0.652469712,-1.420651445,-0.852728814\H,0,-0.630519
 644,1.287672418,-0.129357808\H,0,2.68243954,4.062370982,0.237874749\H,
 0,3.150862588,2.908674356,-1.009112906\H,0,0.726655928,-0.081472666,-2
 .538390441\H,0,0.428986773,0.942607206,2.147598486\H,0,-0.818229172,-0
 .262144983,1.840636959\H,0,0.896835877,-0.692227773,1.676827016\H,0,3.
 666746195,2.598563183,2.011643332\H,0,4.890520162,3.062108381,0.805008
 234\H,0,4.169556613,1.437704582,0.789663394\\Version=EM64L-G09RevC.01\
 State=1-A\HF=-692.4472533\RMSD=7.733e-09\Dipole=0.4294683,0.5697539,1.
 2241641\Quadrupole=3.2470172,4.969486,-8.2165032,5.3388359,0.551194,-2
 .68448\PG=C01 [X(C12H16O3)]\\@


 CHEMISTRY BEGAN BY SAYING IT WOULD CHANGE THE BASER
 METALS INTO GOLD.  BY NOT DOING THAT IT HAS DONE MUCH
 GREATER THINGS.  --  RALPH WALDO EMERSON
 Job cpu time:  0 days  1 hours 50 minutes 12.1 seconds.
 File lengths (MBytes):  RWF=    123 Int=      0 D2E=      0 Chk=      9 Scr=      1
 Normal termination of Gaussian 09 at Tue May 17 16:59:47 2022.
