 Entering Gaussian System, Link 0=g09
 Input=/home/eluciano.iquir/wb9/73b_004.gjc
 Output=/home/eluciano.iquir/wb9/73b_004.log
 Initial command:
 /share/apps/Gaussian09/EM64T.SSE4.2-enabled/g09/l1.exe /tmp/Gau-19487.inp -scrdir=/tmp/
 Entering Link 1 = /share/apps/Gaussian09/EM64T.SSE4.2-enabled/g09/l1.exe PID=     19488.
  
 Copyright (c) 1988,1990,1992,1993,1995,1998,2003,2009,2011,
            Gaussian, Inc.  All Rights Reserved.
  
 This is part of the Gaussian(R) 09 program.  It is based on
 the Gaussian(R) 03 system (copyright 2003, Gaussian, Inc.),
 the Gaussian(R) 98 system (copyright 1998, Gaussian, Inc.),
 the Gaussian(R) 94 system (copyright 1995, Gaussian, Inc.),
 the Gaussian 92(TM) system (copyright 1992, Gaussian, Inc.),
 the Gaussian 90(TM) system (copyright 1990, Gaussian, Inc.),
 the Gaussian 88(TM) system (copyright 1988, Gaussian, Inc.),
 the Gaussian 86(TM) system (copyright 1986, Carnegie Mellon
 University), and the Gaussian 82(TM) system (copyright 1983,
 Carnegie Mellon University). Gaussian is a federally registered
 trademark of Gaussian, Inc.
  
 This software contains proprietary and confidential information,
 including trade secrets, belonging to Gaussian, Inc.
  
 This software is provided under written license and may be
 used, copied, transmitted, or stored only in accord with that
 written license.
  
 The following legend is applicable only to US Government
 contracts under FAR:
  
                    RESTRICTED RIGHTS LEGEND
  
 Use, reproduction and disclosure by the US Government is
 subject to restrictions as set forth in subparagraphs (a)
 and (c) of the Commercial Computer Software - Restricted
 Rights clause in FAR 52.227-19.
  
 Gaussian, Inc.
 340 Quinnipiac St., Bldg. 40, Wallingford CT 06492
  
  
 ---------------------------------------------------------------
 Warning -- This program may not be used in any manner that
 competes with the business of Gaussian, Inc. or will provide
 assistance to any competitor of Gaussian, Inc.  The licensee
 of this program is prohibited from giving any competitor of
 Gaussian, Inc. access to this program.  By using this program,
 the user acknowledges that Gaussian, Inc. is engaged in the
 business of creating and licensing software in the field of
 computational chemistry and represents and warrants to the
 licensee that it is not a competitor of Gaussian, Inc. and that
 it will not use this program in any manner prohibited above.
 ---------------------------------------------------------------
  

 Cite this work as:
 Gaussian 09, Revision C.01,
 M. J. Frisch, G. W. Trucks, H. B. Schlegel, G. E. Scuseria, 
 M. A. Robb, J. R. Cheeseman, G. Scalmani, V. Barone, B. Mennucci, 
 G. A. Petersson, H. Nakatsuji, M. Caricato, X. Li, H. P. Hratchian, 
 A. F. Izmaylov, J. Bloino, G. Zheng, J. L. Sonnenberg, M. Hada, 
 M. Ehara, K. Toyota, R. Fukuda, J. Hasegawa, M. Ishida, T. Nakajima, 
 Y. Honda, O. Kitao, H. Nakai, T. Vreven, J. A. Montgomery, Jr., 
 J. E. Peralta, F. Ogliaro, M. Bearpark, J. J. Heyd, E. Brothers, 
 K. N. Kudin, V. N. Staroverov, T. Keith, R. Kobayashi, J. Normand, 
 K. Raghavachari, A. Rendell, J. C. Burant, S. S. Iyengar, J. Tomasi, 
 M. Cossi, N. Rega, J. M. Millam, M. Klene, J. E. Knox, J. B. Cross, 
 V. Bakken, C. Adamo, J. Jaramillo, R. Gomperts, R. E. Stratmann, 
 O. Yazyev, A. J. Austin, R. Cammi, C. Pomelli, J. W. Ochterski, 
 R. L. Martin, K. Morokuma, V. G. Zakrzewski, G. A. Voth, 
 P. Salvador, J. J. Dannenberg, S. Dapprich, A. D. Daniels, 
 O. Farkas, J. B. Foresman, J. V. Ortiz, J. Cioslowski, 
 and D. J. Fox, Gaussian, Inc., Wallingford CT, 2010.
 
 ******************************************
 Gaussian 09:  EM64L-G09RevC.01 23-Sep-2011
                17-May-2022 
 ******************************************
 %nprocshared=4
 Will use up to    4 processors via shared memory.
 ----------------------------------------------------------------
 # wb97xd/6-31+g** scrf=(pcm,solvent=chloroform,smd,dovacuum) nmr
 ----------------------------------------------------------------
 1/38=1/1;
 2/12=2,17=6,18=5,40=1/2;
 3/5=1,6=6,7=111,11=2,16=1,25=1,30=1,70=32101,72=7,74=-58/1,2,8,3;
 4//1;
 5/5=2,38=5,53=7/2;
 8/6=1,10=90,11=11/1;
 10/13=100,45=16/2;
 6/7=2,8=2,9=2,10=2,28=1/1;
 99/9=1/99;
 -------
 comment
 -------
 Charge =  0 Multiplicity = 1
 Symbolic Z-Matrix:
 6                    -1.79226  -2.23441   1.11177 
 6                    -3.97202  -0.53625   0.72657 
 6                    -2.99715  -2.47984   1.77277 
 6                    -1.66351  -1.13489   0.25039 
 6                    -2.7686   -0.28853   0.06506 
 6                    -4.0856   -1.63132   1.58027 
 6                    -0.34948  -0.87182  -0.46035 
 6                     0.35273   0.41846  -0.014 
 6                     1.7205    0.45205  -0.66107 
 8                     1.89325   1.61519  -1.35001 
 6                     3.15622   1.76726  -2.01292 
 8                    -0.62506  -0.7882   -1.86526 
 6                     0.5532    0.52622   1.49726 
 8                     2.56571  -0.4259   -0.5367 
 6                     4.17413   2.37251  -1.06467 
 1                    -0.95348  -2.90761   1.27791 
 1                    -4.82104   0.12546   0.57519 
 1                    -3.0864   -3.33381   2.43961 
 1                    -2.69541   0.56873  -0.60197 
 1                    -5.02291  -1.82374   2.0959 
 1                     0.31331  -1.73618  -0.33002 
 1                    -0.21643   1.29023  -0.36243 
 1                     2.99419   2.44304  -2.85905 
 1                     3.50808   0.81457  -2.42518 
 1                    -1.29791  -1.46389  -2.06371 
 1                     1.17301   1.39522   1.74585 
 1                    -0.40109   0.64243   2.02014 
 1                     1.0574   -0.36063   1.89735 
 1                     3.80856   3.32403  -0.66474 
 1                     5.12508   2.54651  -1.57598 
 1                     4.35297   1.71511  -0.20799 
 
                          Input orientation:                          
 ---------------------------------------------------------------------
 Center     Atomic      Atomic             Coordinates (Angstroms)
 Number     Number       Type             X           Y           Z
 ---------------------------------------------------------------------
      1          6           0       -1.792260   -2.234409    1.111774
      2          6           0       -3.972020   -0.536252    0.726571
      3          6           0       -2.997149   -2.479844    1.772768
      4          6           0       -1.663509   -1.134887    0.250392
      5          6           0       -2.768600   -0.288533    0.065063
      6          6           0       -4.085603   -1.631321    1.580271
      7          6           0       -0.349478   -0.871819   -0.460347
      8          6           0        0.352729    0.418460   -0.013998
      9          6           0        1.720497    0.452046   -0.661075
     10          8           0        1.893249    1.615193   -1.350010
     11          6           0        3.156218    1.767260   -2.012917
     12          8           0       -0.625065   -0.788202   -1.865255
     13          6           0        0.553205    0.526223    1.497263
     14          8           0        2.565714   -0.425903   -0.536704
     15          6           0        4.174126    2.372514   -1.064674
     16          1           0       -0.953476   -2.907611    1.277906
     17          1           0       -4.821043    0.125456    0.575186
     18          1           0       -3.086397   -3.333810    2.439607
     19          1           0       -2.695413    0.568729   -0.601970
     20          1           0       -5.022911   -1.823739    2.095899
     21          1           0        0.313310   -1.736179   -0.330022
     22          1           0       -0.216428    1.290235   -0.362426
     23          1           0        2.994187    2.443037   -2.859046
     24          1           0        3.508080    0.814575   -2.425179
     25          1           0       -1.297909   -1.463893   -2.063708
     26          1           0        1.173013    1.395225    1.745853
     27          1           0       -0.401087    0.642434    2.020141
     28          1           0        1.057400   -0.360629    1.897346
     29          1           0        3.808564    3.324026   -0.664744
     30          1           0        5.125082    2.546509   -1.575982
     31          1           0        4.352973    1.715110   -0.207985
 ---------------------------------------------------------------------
                    Distance matrix (angstroms):
                    1          2          3          4          5
     1  C    0.000000
     2  C    2.789888   0.000000
     3  C    1.396034   2.412976   0.000000
     4  C    1.402678   2.431941   2.430048   0.000000
     5  C    2.415632   1.395413   2.787532   1.404239   0.000000
     6  C    2.417153   1.393155   1.393477   2.807412   2.415250
     7  C    2.531765   3.826773   3.818731   1.516915   2.543311
     8  C    3.592499   4.490364   4.776440   2.558906   3.201372
     9  C    4.764398   5.941973   6.064301   3.847158   4.607355
    10  O    5.870501   6.583486   7.101905   4.772290   5.230625
    11  C    7.089745   7.976387   8.380527   6.064222   6.606645
    12  O    3.509496   4.240655   4.660864   2.382125   2.927549
    13  C    3.642925   4.711739   4.660189   3.037729   3.708020
    14  O    4.998010   6.659580   6.363787   4.359874   5.369907
    15  C    7.845917   8.833412   9.111730   6.936082   7.520566
    16  H    1.088283   3.878006   2.145803   2.168521   3.409580
    17  H    3.876909   1.087021   3.398291   3.415257   2.155026
    18  H    2.155601   3.397816   1.087151   3.413581   3.874683
    19  H    3.407372   2.148424   3.876109   2.166484   1.088663
    20  H    3.402096   2.153382   2.153740   3.894354   3.400451
    21  H    2.600083   4.573868   3.991729   2.146217   3.427819
    22  H    4.132750   4.315836   5.148297   2.889776   3.031310
    23  H    7.781772   8.382175   9.032417   6.645621   7.015811
    24  H    7.063988   8.228618   8.413914   6.140391   6.842138
    25  H    3.304809   3.974550   4.317189   2.365791   2.841842
    26  H    4.729602   5.589356   5.692726   4.084571   4.603955
    27  H    3.322156   3.976706   4.068090   2.807951   3.208449
    28  H    3.499820   5.166878   4.576676   3.273420   4.242727
    29  H    8.088353   8.796306   9.270605   7.117792   7.539383
    30  H    8.827843   9.877370  10.121709   7.935571   8.546385
    31  H    7.423231   8.674534   8.691681   6.673129   7.403104
                    6          7          8          9         10
     6  C    0.000000
     7  C    4.324303   0.000000
     8  C    5.142186   1.535298   0.000000
     9  C    6.563143   2.465300   1.513481   0.000000
    10  O    7.407635   3.465047   2.364382   1.362860   0.000000
    11  C    8.769568   4.654580   3.697904   2.370350   1.434455
    12  O    4.955585   1.434123   2.416457   2.913747   3.519046
    13  C    5.116681   2.569357   1.528305   2.454893   3.329946
    14  O    7.083405   2.950087   2.425587   1.225012   2.297770
    15  C    9.552462   5.599455   4.418747   3.141876   2.420196
    16  H    3.395668   2.744228   3.799728   4.711377   5.955295
    17  H    2.153447   4.696997   5.215449   6.665339   7.141947
    18  H    2.152984   4.686348   5.650424   6.859531   7.978139
    19  H    3.396325   2.756565   3.107968   4.417847   4.765550
    20  H    1.086942   5.411240   6.194886   7.632407   8.457765
    21  H    4.796942   1.096991   2.178048   2.622613   3.842951
    22  H    5.223033   2.168356   1.097877   2.131532   2.351947
    23  H    9.296846   5.284139   4.378414   3.227601   2.043179
    24  H    8.926928   4.645992   3.990857   2.537507   2.098727
    25  H    4.591062   1.954697   3.235609   3.840439   4.491505
    26  H    6.069632   3.510667   2.173479   2.642466   3.186141
    27  H    4.351908   2.906622   2.180855   3.424367   4.191439
    28  H    5.307134   2.792729   2.181003   2.765077   3.892022
    29  H    9.587149   5.910686   4.561643   3.550818   2.656715
    30  H   10.594947   6.549841   5.453782   4.100613   3.370929
    31  H    9.252353   5.372982   4.209619   2.954751   2.713752
                   11         12         13         14         15
    11  C    0.000000
    12  O    4.566212   0.000000
    13  C    4.542820   3.797705   0.000000
    14  O    2.708849   3.475252   3.015586   0.000000
    15  C    1.517113   5.802007   4.804516   3.270608   0.000000
    16  H    7.040847   3.805157   3.756252   4.672942   7.723969
    17  H    8.545788   4.939308   5.467484   7.490292   9.415491
    18  H    9.209567   5.574057   5.388374   7.018597   9.877110
    19  H    6.137495   2.779117   3.868089   5.354719   7.117465
    20  H    9.832384   6.008671   6.080604   8.153022  10.591658
    21  H    4.815428   2.033753   2.918045   2.613975   5.685681
    22  H    3.785025   2.597187   2.152787   3.273502   4.576182
    23  H    1.094926   4.952525   5.348832   3.715868   2.148720
    24  H    1.096073   4.468254   4.919348   2.448096   2.172962
    25  H    5.502924   0.973992   4.479699   4.282142   6.757162
    26  H    4.266130   4.586996   1.095957   3.235149   4.226208
    27  H    5.494107   4.146468   1.094340   4.059644   5.782891
    28  H    4.921697   4.143751   1.095804   2.864240   5.094861
    29  H    2.160242   6.165121   4.806177   3.952599   1.094968
    30  H    2.162075   6.653432   5.867576   4.057794   1.093631
    31  H    2.166269   5.813259   4.331231   2.808254   1.094569
                   16         17         18         19         20
    16  H    0.000000
    17  H    4.965017   0.000000
    18  H    2.465876   4.295531   0.000000
    19  H    4.318938   2.469917   4.963252   0.000000
    20  H    4.290010   2.480459   2.479624   4.291811   0.000000
    21  H    2.358481   5.535944   4.667041   3.799865   5.862423
    22  H    4.566820   4.841313   6.121267   2.592937   6.232373
    23  H    7.831210   8.845505   9.920745   6.401483  10.345565
    24  H    6.890064   8.879829   9.184898   6.470538  10.008928
    25  H    3.656411   4.679986   5.193758   2.867272   5.595306
    26  H    4.822377   6.237906   6.402159   4.600009   6.990974
    27  H    3.668633   4.678800   4.816364   3.484944   5.239179
    28  H    3.303702   6.044872   5.128831   4.603683   6.257020
    29  H    8.079865   9.286463  10.074933   7.063804  10.588464
    30  H    8.651068  10.460135  10.868831   8.125298  11.643175
    31  H    7.192763   9.343604   9.372597   7.151865  10.282924
                   21         22         23         24         25
    21  H    0.000000
    22  H    3.072597   0.000000
    23  H    5.572155   4.227306   0.000000
    24  H    4.593754   4.284058   1.761878   0.000000
    25  H    2.382401   3.413089   5.858221   5.331003   0.000000
    26  H    3.854093   2.527134   5.061589   4.815309   5.365888
    27  H    3.419274   2.475959   6.211000   5.922169   4.681744
    28  H    2.721576   3.074826   5.851064   5.105992   4.738630
    29  H    6.159100   4.519764   2.500862   3.080060   7.138440
    30  H    6.561020   5.619846   2.489513   2.517028   7.587885
    31  H    5.314619   4.591710   3.066643   2.537865   6.744052
                   26         27         28         29         30
    26  H    0.000000
    27  H    1.766272   0.000000
    28  H    1.766165   1.774373   0.000000
    29  H    4.059235   5.667514   5.264018   0.000000
    30  H    5.289508   6.862663   6.087815   1.779917   0.000000
    31  H    3.745926   5.358757   4.427405   1.758869   1.777298
                   31
    31  H    0.000000
 Stoichiometry    C12H16O3
 Framework group  C1[X(C12H16O3)]
 Deg. of freedom    87
 Full point group                 C1      NOp   1
 Largest Abelian subgroup         C1      NOp   1
 Largest concise Abelian subgroup C1      NOp   1
                         Standard orientation:                         
 ---------------------------------------------------------------------
 Center     Atomic      Atomic             Coordinates (Angstroms)
 Number     Number       Type             X           Y           Z
 ---------------------------------------------------------------------
      1          6           0       -2.695985    0.862653    0.855104
      2          6           0       -3.732232   -0.888806   -1.053314
      3          6           0       -4.033200    0.961127    0.466430
      4          6           0       -1.860646   -0.113480    0.292186
      5          6           0       -2.395162   -0.988984   -0.666810
      6          6           0       -4.550369    0.086268   -0.486952
      7          6           0       -0.407365   -0.210970    0.715864
      8          6           0        0.590838    0.133785   -0.398530
      9          6           0        1.974754    0.176363    0.212690
     10          8           0        2.820559   -0.649944   -0.464965
     11          6           0        4.169147   -0.699198    0.021395
     12          8           0       -0.171312   -1.557139    1.150395
     13          6           0        0.337177    1.486122   -1.063779
     14          8           0        2.293007    0.893269    1.153655
     15          6           0        4.996040    0.399130   -0.620130
     16          1           0       -2.311012    1.557259    1.599200
     17          1           0       -4.135322   -1.572229   -1.796325
     18          1           0       -4.672123    1.722160    0.907456
     19          1           0       -1.768532   -1.758177   -1.114990
     20          1           0       -5.591679    0.164495   -0.788608
     21          1           0       -0.241197    0.426657    1.592911
     22          1           0        0.575568   -0.650975   -1.166157
     23          1           0        4.574936   -1.676740   -0.258977
     24          1           0        4.201545   -0.639438    1.115358
     25          1           0       -0.965745   -1.842479    1.636314
     26          1           0        1.151145    1.738791   -1.752791
     27          1           0       -0.592472    1.479867   -1.641094
     28          1           0        0.274605    2.290388   -0.322142
     29          1           0        4.955280    0.323077   -1.711693
     30          1           0        6.040004    0.335602   -0.300550
     31          1           0        4.608984    1.388194   -0.355513
 ---------------------------------------------------------------------
 Rotational constants (GHZ):      1.6944730      0.2633837      0.2587819
 Standard basis: 6-31+G(d,p) (6D, 7F)
 There are   365 symmetry adapted basis functions of A   symmetry.
 Integral buffers will be    131072 words long.
 Raffenetti 2 integral format.
 Two-electron integral symmetry is turned on.
   365 basis functions,   592 primitive gaussians,   365 cartesian basis functions
    56 alpha electrons       56 beta electrons
       nuclear repulsion energy       990.8558566605 Hartrees.
 NAtoms=   31 NActive=   31 NUniq=   31 SFac= 1.00D+00 NAtFMM=   60 NAOKFM=F Big=F
 Nuclear repulsion after empirical dispersion term =      990.8352021666 Hartrees.
 ------------------------------------------------------------------------------
 Polarizable Continuum Model (PCM)
 =================================
 Model                : C-PCM.
 Atomic radii         : SMD-Coulomb.
 Polarization charges : Total charges.
 Charge compensation  : None.
 Solution method      : Matrix inversion.
 Cavity type          : VdW (van der Waals Surface) (Alpha=1.000).
 Cavity algorithm     : GePol (No added spheres)
                        Default sphere list used, NSphG=   31.
                        Lebedev-Laikov grids with approx.  5.0 points / Ang**2.
                        Smoothing algorithm: Karplus/York (Gamma=1.0000).
                        Polarization charges: spherical gaussians, with
                                              point-specific exponents (IZeta= 3).
                        Self-potential: point-specific (ISelfS= 7).
                        Self-field    : sphere-specific E.n sum rule (ISelfD= 2).
 Solvent              : Chloroform, Eps=   4.711300 Eps(inf)=   2.090627
 ------------------------------------------------------------------------------
 ------------------------------------------------------------------------------
 Atomic radii for non-electrostatic terms: SMD-CDS.
 ------------------------------------------------------------------------------
 Nuclear repulsion after PCM non-electrostatic terms =      990.8288199057 Hartrees.
 One-electron integrals computed using PRISM.
 NBasis=   365 RedAO= T  NBF=   365
 NBsUse=   365 1.00D-06 NBFU=   365
 Harris functional with IExCor= 4639 diagonalized for initial guess.
 ExpMin= 4.38D-02 ExpMax= 5.48D+03 ExpMxC= 8.25D+02 IAcc=2 IRadAn=         4 AccDes= 0.00D+00
 HarFok:  IExCor= 4639 AccDes= 0.00D+00 IRadAn=         4 IDoV= 1
 ScaDFX=  1.000000  1.000000  1.000000  1.000000
 FoFCou: FMM=F IPFlag=           0 FMFlag=      100000 FMFlg1=           0
         NFxFlg=           0 DoJE=T BraDBF=F KetDBF=T FulRan=T
         Omega=  0.000000  0.000000  1.000000  0.000000  0.000000 ICntrl=     500 IOpCl=  0
         NMat0=    1 NMatS0=    1 NMatT0=    0 NMatD0=    1 NMtDS0=    0 NMtDT0=    0
         I1Cent=           4 NGrid=           0.
 Petite list used in FoFCou.
 Initial guess orbital symmetries:
       Occupied  (A) (A) (A) (A) (A) (A) (A) (A) (A) (A) (A) (A)
                 (A) (A) (A) (A) (A) (A) (A) (A) (A) (A) (A) (A)
                 (A) (A) (A) (A) (A) (A) (A) (A) (A) (A) (A) (A)
                 (A) (A) (A) (A) (A) (A) (A) (A) (A) (A) (A) (A)
                 (A) (A) (A) (A) (A) (A) (A) (A)
       Virtual   (A) (A) (A) (A) (A) (A) (A) (A) (A) (A) (A) (A)
                 (A) (A) (A) (A) (A) (A) (A) (A) (A) (A) (A) (A)
                 (A) (A) (A) (A) (A) (A) (A) (A) (A) (A) (A) (A)
                 (A) (A) (A) (A) (A) (A) (A) (A) (A) (A) (A) (A)
                 (A) (A) (A) (A) (A) (A) (A) (A) (A) (A) (A) (A)
                 (A) (A) (A) (A) (A) (A) (A) (A) (A) (A) (A) (A)
                 (A) (A) (A) (A) (A) (A) (A) (A) (A) (A) (A) (A)
                 (A) (A) (A) (A) (A) (A) (A) (A) (A) (A) (A) (A)
                 (A) (A) (A) (A) (A) (A) (A) (A) (A) (A) (A) (A)
                 (A) (A) (A) (A) (A) (A) (A) (A) (A) (A) (A) (A)
                 (A) (A) (A) (A) (A) (A) (A) (A) (A) (A) (A) (A)
                 (A) (A) (A) (A) (A) (A) (A) (A) (A) (A) (A) (A)
                 (A) (A) (A) (A) (A) (A) (A) (A) (A) (A) (A) (A)
                 (A) (A) (A) (A) (A) (A) (A) (A) (A) (A) (A) (A)
                 (A) (A) (A) (A) (A) (A) (A) (A) (A) (A) (A) (A)
                 (A) (A) (A) (A) (A) (A) (A) (A) (A) (A) (A) (A)
                 (A) (A) (A) (A) (A) (A) (A) (A) (A) (A) (A) (A)
                 (A) (A) (A) (A) (A) (A) (A) (A) (A) (A) (A) (A)
                 (A) (A) (A) (A) (A) (A) (A) (A) (A) (A) (A) (A)
                 (A) (A) (A) (A) (A) (A) (A) (A) (A) (A) (A) (A)
                 (A) (A) (A) (A) (A) (A) (A) (A) (A) (A) (A) (A)
                 (A) (A) (A) (A) (A) (A) (A) (A) (A) (A) (A) (A)
                 (A) (A) (A) (A) (A) (A) (A) (A) (A) (A) (A) (A)
                 (A) (A) (A) (A) (A) (A) (A) (A) (A) (A) (A) (A)
                 (A) (A) (A) (A) (A) (A) (A) (A) (A) (A) (A) (A)
                 (A) (A) (A) (A) (A) (A) (A) (A) (A)
 The electronic state of the initial guess is 1-A.
 Requested convergence on RMS density matrix=1.00D-08 within 128 cycles.
 Requested convergence on MAX density matrix=1.00D-06.
 Requested convergence on             energy=1.00D-06.
 No special actions if energy rises.
 FoFJK:  IHMeth= 1 ICntrl=     0 DoSepK=T KAlg= 1 I1Cent= 0 FoldK=F
 FoFJK:  IHMeth= 1 ICntrl=     0 DoSepK=T KAlg= 1 I1Cent= 0 FoldK=F
 FoFJK:  IHMeth= 1 ICntrl=     0 DoSepK=T KAlg= 1 I1Cent= 0 FoldK=F
 FoFJK:  IHMeth= 1 ICntrl=     0 DoSepK=T KAlg= 1 I1Cent= 0 FoldK=F
 FoFJK:  IHMeth= 1 ICntrl=     0 DoSepK=T KAlg= 1 I1Cent= 0 FoldK=F
 FoFJK:  IHMeth= 1 ICntrl=     0 DoSepK=T KAlg= 1 I1Cent= 0 FoldK=F
 FoFJK:  IHMeth= 1 ICntrl=     0 DoSepK=T KAlg= 1 I1Cent= 0 FoldK=F
 FoFJK:  IHMeth= 1 ICntrl=     0 DoSepK=T KAlg= 1 I1Cent= 0 FoldK=F
 FoFJK:  IHMeth= 1 ICntrl=     0 DoSepK=T KAlg= 1 I1Cent= 0 FoldK=F
 FoFJK:  IHMeth= 1 ICntrl=     0 DoSepK=T KAlg= 1 I1Cent= 0 FoldK=F
 FoFJK:  IHMeth= 1 ICntrl=     0 DoSepK=T KAlg= 1 I1Cent= 0 FoldK=F
 FoFJK:  IHMeth= 1 ICntrl=     0 DoSepK=T KAlg= 1 I1Cent= 0 FoldK=F
 FoFJK:  IHMeth= 1 ICntrl=     0 DoSepK=T KAlg= 1 I1Cent= 0 FoldK=F
 FoFJK:  IHMeth= 1 ICntrl=     0 DoSepK=T KAlg= 1 I1Cent= 0 FoldK=F
 FoFJK:  IHMeth= 1 ICntrl=     0 DoSepK=T KAlg= 1 I1Cent= 0 FoldK=F
 FoFJK:  IHMeth= 1 ICntrl=     0 DoSepK=T KAlg= 1 I1Cent= 0 FoldK=F
 Error on total polarization charges =  0.04016
 SCF Done:  E(RwB97XD) =  -692.445151701     A.U. after   16 cycles
             Convg  =    0.2967D-08             -V/T =  2.0095
 SMD-CDS (non-electrostatic) energy       (kcal/mol) =      -4.00
 (included in total energy above)
 Range of M.O.s used for correlation:     1   365
 NBasis=   365 NAE=    56 NBE=    56 NFC=     0 NFV=     0
 NROrb=    365 NOA=    56 NOB=    56 NVA=   309 NVB=   309

 **** Warning!!: The largest alpha MO coefficient is  0.13329242D+03

 NEqPCM:  Using equilibrium solvation (IEInf=0, Eps=   4.7113, EpsInf=   2.0906)
          Differentiating once with respect to magnetic field using GIAOs.
          Electric field/nuclear overlap derivatives assumed to be zero.
 FoFCou: FMM=F IPFlag=           0 FMFlag=    10101102 FMFlg1=           0
         NFxFlg=    40000000 DoJE=F BraDBF=F KetDBF=T FulRan=T
         Omega=  0.000000  0.000000  1.000000  0.000000  0.000000 ICntrl=    6100 IOpCl=  0
         NMat0=    1 NMatS0=    1 NMatT0=    0 NMatD0=    1 NMtDS0=    0 NMtDT0=    0
         I1Cent=           7 NGrid=        2280.
 Symmetry not used in FoFCou.
 FoFJK:  IHMeth= 1 ICntrl=  6127 DoSepK=T KAlg= 1 I1Cent= 0 FoldK=F
 FoFJK:  IHMeth= 1 ICntrl=     0 DoSepK=T KAlg= 1 I1Cent= 0 FoldK=F
          There are     3 degrees of freedom in the 1st order CPHF.  IDoFFX=0.
      3 vectors produced by pass  0 Test12= 5.77D-13 3.33D-08 XBig12= 1.43D+02 2.58D+00.
 AX will form     3 AO Fock derivatives at one time.
 FoFJK:  IHMeth= 1 ICntrl=     0 DoSepK=T KAlg= 1 I1Cent= 0 FoldK=F
      3 vectors produced by pass  1 Test12= 5.77D-13 3.33D-08 XBig12= 1.23D+00 2.16D-01.
 FoFJK:  IHMeth= 1 ICntrl=     0 DoSepK=T KAlg= 1 I1Cent= 0 FoldK=F
      3 vectors produced by pass  2 Test12= 5.77D-13 3.33D-08 XBig12= 2.14D-02 4.63D-02.
 FoFJK:  IHMeth= 1 ICntrl=     0 DoSepK=T KAlg= 1 I1Cent= 0 FoldK=F
      3 vectors produced by pass  3 Test12= 5.77D-13 3.33D-08 XBig12= 3.88D-04 5.83D-03.
 FoFJK:  IHMeth= 1 ICntrl=     0 DoSepK=T KAlg= 1 I1Cent= 0 FoldK=F
      3 vectors produced by pass  4 Test12= 5.77D-13 3.33D-08 XBig12= 5.68D-06 4.46D-04.
 FoFJK:  IHMeth= 1 ICntrl=     0 DoSepK=T KAlg= 1 I1Cent= 0 FoldK=F
      3 vectors produced by pass  5 Test12= 5.77D-13 3.33D-08 XBig12= 7.66D-08 5.82D-05.
 FoFJK:  IHMeth= 1 ICntrl=     0 DoSepK=T KAlg= 1 I1Cent= 0 FoldK=F
      3 vectors produced by pass  6 Test12= 5.77D-13 3.33D-08 XBig12= 1.02D-09 8.78D-06.
 FoFJK:  IHMeth= 1 ICntrl=     0 DoSepK=T KAlg= 1 I1Cent= 0 FoldK=F
      3 vectors produced by pass  7 Test12= 5.77D-13 3.33D-08 XBig12= 1.38D-11 1.08D-06.
 FoFJK:  IHMeth= 1 ICntrl=     0 DoSepK=T KAlg= 1 I1Cent= 0 FoldK=F
      3 vectors produced by pass  8 Test12= 5.77D-13 3.33D-08 XBig12= 1.53D-13 7.28D-08.
 FoFJK:  IHMeth= 1 ICntrl=     0 DoSepK=T KAlg= 1 I1Cent= 0 FoldK=F
 Inverted reduced A of dimension    27 with in-core refinement.
 Calculating GIAO nuclear magnetic shielding tensors.
 SCF GIAO Magnetic shielding tensor (ppm):
      1  C    Isotropic =    70.1231   Anisotropy =   161.9018
   XX=    56.6092   YX=    -0.1771   ZX=   -44.1991
   XY=    -7.5453   YY=    72.0076   ZY=   -95.1669
   XZ=   -35.1942   YZ=   -95.2604   ZZ=    81.7524
   Eigenvalues:   -29.4478    61.7594   178.0576
      2  C    Isotropic =    68.7971   Anisotropy =   176.2662
   XX=    53.3634   YX=     3.7367   ZX=   -45.1176
   XY=     1.5405   YY=    73.4495   ZY=   -98.5613
   XZ=   -47.0635   YZ=  -101.9672   ZZ=    79.5784
   Eigenvalues:   -34.8545    54.9378   186.3079
      3  C    Isotropic =    69.8196   Anisotropy =   173.2852
   XX=    34.0462   YX=    57.7036   ZX=    -4.1483
   XY=    58.4612   YY=    65.0889   ZY=   -84.6005
   XZ=    -2.6815   YZ=   -84.1378   ZZ=   110.3237
   Eigenvalues:   -32.2758    56.3916   185.3431
      4  C    Isotropic =    52.6680   Anisotropy =   185.8172
   XX=   -19.4874   YX=    31.0629   ZX=   -34.7650
   XY=    30.0751   YY=    87.6799   ZY=   -73.5245
   XZ=   -42.0660   YZ=   -77.7273   ZZ=    89.8113
   Eigenvalues:   -32.2076    13.6654   176.5461
      5  C    Isotropic =    74.0833   Anisotropy =   183.1422
   XX=    35.5532   YX=    55.7280   ZX=    -8.3498
   XY=    52.0491   YY=    69.9361   ZY=   -90.2564
   XZ=    -1.8616   YZ=   -91.4929   ZZ=   116.7606
   Eigenvalues:   -27.8230    53.8949   196.1781
      6  C    Isotropic =    71.8555   Anisotropy =   178.9104
   XX=   -14.1177   YX=    28.9913   ZX=   -47.0332
   XY=    31.4963   YY=   109.3253   ZY=   -60.8345
   XZ=   -51.3198   YZ=   -59.7660   ZZ=   120.3590
   Eigenvalues:   -31.0649    55.5023   191.1291
      7  C    Isotropic =   117.2316   Anisotropy =    27.2435
   XX=   110.8255   YX=    -4.8360   ZX=    -2.7100
   XY=    -7.5392   YY=   132.8180   ZY=    -4.8328
   XZ=    -1.5485   YZ=    -6.7536   ZZ=   108.0514
   Eigenvalues:   104.5305   111.7704   135.3939
      8  C    Isotropic =   147.8626   Anisotropy =    25.6593
   XX=   164.2837   YX=     5.1015   ZX=    -0.3658
   XY=     3.3828   YY=   138.5882   ZY=     1.8603
   XZ=    -0.8218   YZ=     2.1935   ZZ=   140.7160
   Eigenvalues:   136.7875   141.8315   164.9688
      9  C    Isotropic =    16.7871   Anisotropy =   100.9273
   XX=   -40.6508   YX=    42.5548   ZX=     4.4489
   XY=    61.1902   YY=    36.7016   ZY=   -32.7328
   XZ=    27.6698   YZ=   -34.0819   ZZ=    54.3106
   Eigenvalues:   -73.6103    39.8997    84.0720
     10  O    Isotropic =   125.0206   Anisotropy =   146.6790
   XX=   104.7175   YX=     1.4495   ZX=   -65.8398
   XY=   -90.6758   YY=   172.7662   ZY=   -78.6668
   XZ=  -168.7264   YZ=   -44.0234   ZZ=    97.5780
   Eigenvalues:   -42.4464   194.7016   222.8065
     11  C    Isotropic =   137.5879   Anisotropy =    65.6505
   XX=   177.0953   YX=     0.2016   ZX=    19.6874
   XY=     0.6149   YY=   122.3430   ZY=   -12.0871
   XZ=    13.8194   YZ=   -13.5768   ZZ=   113.3254
   Eigenvalues:   101.5696   129.8393   181.3549
     12  O    Isotropic =   264.5364   Anisotropy =    47.4397
   XX=   287.3844   YX=     6.4379   ZX=    -7.9982
   XY=     2.3136   YY=   266.8126   ZY=   -31.1059
   XZ=    -1.4068   YZ=   -40.9766   ZZ=   239.4123
   Eigenvalues:   214.5285   282.9178   296.1629
     13  C    Isotropic =   180.9290   Anisotropy =    21.1477
   XX=   178.1404   YX=    -1.0073   ZX=     1.9577
   XY=    -0.0581   YY=   189.6125   ZY=   -11.8558
   XZ=     4.7894   YZ=    -8.3557   ZZ=   175.0340
   Eigenvalues:   169.0134   178.7461   195.0274
     14  O    Isotropic =   -23.0686   Anisotropy =   552.2875
   XX=  -136.7177   YX=    89.5558   ZX=   -71.8027
   XY=   111.2000   YY=    67.5276   ZY=  -290.3901
   XZ=   -42.2902   YZ=  -275.2761   ZZ=    -0.0158
   Eigenvalues:  -256.9477  -157.3812   345.1230
     15  C    Isotropic =   181.5170   Anisotropy =    25.7600
   XX=   190.8244   YX=     7.5378   ZX=     1.5231
   XY=    12.2938   YY=   180.0083   ZY=   -12.6576
   XZ=    -1.5889   YZ=   -12.1093   ZZ=   173.7183
   Eigenvalues:   162.6666   183.1941   198.6903
     16  H    Isotropic =    23.7041   Anisotropy =     7.8155
   XX=    27.5166   YX=    -2.8069   ZX=    -0.9385
   XY=    -2.6520   YY=    21.8358   ZY=     1.6038
   XZ=    -0.7677   YZ=     1.8776   ZZ=    21.7600
   Eigenvalues:    19.7762    22.4217    28.9145
     17  H    Isotropic =    23.7265   Anisotropy =     5.0225
   XX=    26.6880   YX=    -1.2712   ZX=     0.9365
   XY=    -1.2208   YY=    22.7420   ZY=     1.4271
   XZ=     0.6517   YZ=     1.5185   ZZ=    21.7493
   Eigenvalues:    20.3885    23.7161    27.0748
     18  H    Isotropic =    23.8452   Anisotropy =     4.6873
   XX=    26.1329   YX=    -0.0610   ZX=     1.6185
   XY=    -0.1094   YY=    22.4787   ZY=     1.9365
   XZ=     1.7330   YZ=     1.9263   ZZ=    22.9241
   Eigenvalues:    20.4948    24.0708    26.9701
     19  H    Isotropic =    23.3533   Anisotropy =     9.8100
   XX=    26.5178   YX=     2.4445   ZX=     4.1697
   XY=     1.8966   YY=    21.7666   ZY=     2.6915
   XZ=     3.5541   YZ=     2.3219   ZZ=    21.7754
   Eigenvalues:    18.9252    21.2414    29.8933
     20  H    Isotropic =    23.6474   Anisotropy =     4.3124
   XX=    24.3207   YX=    -0.7733   ZX=     0.4954
   XY=    -0.7418   YY=    23.7381   ZY=     3.1159
   XZ=     0.4308   YZ=     3.1819   ZZ=    22.8832
   Eigenvalues:    19.9676    24.4521    26.5223
     21  H    Isotropic =    26.6274   Anisotropy =     4.3658
   XX=    25.9220   YX=    -1.6032   ZX=    -0.1853
   XY=    -0.1597   YY=    27.6881   ZY=     2.7316
   XZ=    -0.0372   YZ=     1.8332   ZZ=    26.2721
   Eigenvalues:    24.4512    25.8931    29.5380
     22  H    Isotropic =    28.5316   Anisotropy =     4.3751
   XX=    29.6811   YX=    -0.5808   ZX=     0.4807
   XY=    -0.0228   YY=    28.5275   ZY=     2.5122
   XZ=    -1.9192   YZ=     3.8195   ZZ=    27.3863
   Eigenvalues:    24.7138    29.4327    31.4483
     23  H    Isotropic =    27.7080   Anisotropy =     7.9428
   XX=    29.3185   YX=    -2.9175   ZX=    -0.4247
   XY=    -2.0203   YY=    31.3329   ZY=     0.3549
   XZ=     0.6977   YZ=    -0.9940   ZZ=    22.4727
   Eigenvalues:    22.4608    27.6601    33.0032
     24  H    Isotropic =    26.8443   Anisotropy =     5.8007
   XX=    28.4472   YX=    -0.2189   ZX=     2.4624
   XY=    -1.3625   YY=    23.6501   ZY=    -2.5021
   XZ=     0.8476   YZ=    -1.7211   ZZ=    28.4356
   Eigenvalues:    22.8469    26.9746    30.7114
     25  H    Isotropic =    29.9091   Anisotropy =    14.9892
   XX=    32.2909   YX=     3.9114   ZX=    -6.7177
   XY=     2.6786   YY=    29.7901   ZY=    -6.5407
   XZ=    -3.9213   YZ=    -6.0755   ZZ=    27.6462
   Eigenvalues:    21.8371    27.9883    39.9019
     26  H    Isotropic =    30.7267   Anisotropy =     9.9906
   XX=    31.6307   YX=     0.9364   ZX=    -3.5326
   XY=     2.2626   YY=    29.2988   ZY=    -4.6279
   XZ=    -4.2703   YZ=    -3.5370   ZZ=    31.2507
   Eigenvalues:    25.7408    29.0523    37.3871
     27  H    Isotropic =    31.3421   Anisotropy =     6.6848
   XX=    34.2409   YX=     0.0693   ZX=     3.6990
   XY=     1.4737   YY=    28.5904   ZY=    -3.4551
   XZ=     1.2712   YZ=    -3.1838   ZZ=    31.1948
   Eigenvalues:    25.8134    32.4141    35.7986
     28  H    Isotropic =    30.7373   Anisotropy =     7.9229
   XX=    28.1883   YX=    -0.8847   ZX=    -0.0762
   XY=     0.4308   YY=    35.2391   ZY=     3.4170
   XZ=    -1.4475   YZ=     1.2460   ZZ=    28.7846
   Eigenvalues:    27.4392    28.7536    36.0193
     29  H    Isotropic =    30.4357   Anisotropy =     8.3546
   XX=    29.0058   YX=     0.9656   ZX=    -2.2331
   XY=     0.9373   YY=    27.0344   ZY=    -1.3531
   XZ=    -2.0536   YZ=     0.2287   ZZ=    35.2667
   Eigenvalues:    26.6386    28.6629    36.0054
     30  H    Isotropic =    30.6007   Anisotropy =    11.4251
   XX=    37.9003   YX=     0.9760   ZX=     1.6497
   XY=     1.8287   YY=    26.9001   ZY=    -0.1108
   XZ=     0.9247   YZ=    -0.1942   ZZ=    27.0018
   Eigenvalues:    26.4753    27.1094    38.2175
     31  H    Isotropic =    30.2745   Anisotropy =     6.1803
   XX=    29.9982   YX=     0.0616   ZX=    -1.7676
   XY=     0.4269   YY=    34.2942   ZY=     1.5690
   XZ=    -2.2601   YZ=     0.2084   ZZ=    26.5311
   Eigenvalues:    25.5132    30.9156    34.3947
 End of Minotr Frequency-dependent properties file   721 does not exist.
 End of Minotr Frequency-dependent properties file   722 does not exist.

 **********************************************************************

            Population analysis using the SCF density.

 **********************************************************************

 Orbital symmetries:
       Occupied  (A) (A) (A) (A) (A) (A) (A) (A) (A) (A) (A) (A)
                 (A) (A) (A) (A) (A) (A) (A) (A) (A) (A) (A) (A)
                 (A) (A) (A) (A) (A) (A) (A) (A) (A) (A) (A) (A)
                 (A) (A) (A) (A) (A) (A) (A) (A) (A) (A) (A) (A)
                 (A) (A) (A) (A) (A) (A) (A) (A)
       Virtual   (A) (A) (A) (A) (A) (A) (A) (A) (A) (A) (A) (A)
                 (A) (A) (A) (A) (A) (A) (A) (A) (A) (A) (A) (A)
                 (A) (A) (A) (A) (A) (A) (A) (A) (A) (A) (A) (A)
                 (A) (A) (A) (A) (A) (A) (A) (A) (A) (A) (A) (A)
                 (A) (A) (A) (A) (A) (A) (A) (A) (A) (A) (A) (A)
                 (A) (A) (A) (A) (A) (A) (A) (A) (A) (A) (A) (A)
                 (A) (A) (A) (A) (A) (A) (A) (A) (A) (A) (A) (A)
                 (A) (A) (A) (A) (A) (A) (A) (A) (A) (A) (A) (A)
                 (A) (A) (A) (A) (A) (A) (A) (A) (A) (A) (A) (A)
                 (A) (A) (A) (A) (A) (A) (A) (A) (A) (A) (A) (A)
                 (A) (A) (A) (A) (A) (A) (A) (A) (A) (A) (A) (A)
                 (A) (A) (A) (A) (A) (A) (A) (A) (A) (A) (A) (A)
                 (A) (A) (A) (A) (A) (A) (A) (A) (A) (A) (A) (A)
                 (A) (A) (A) (A) (A) (A) (A) (A) (A) (A) (A) (A)
                 (A) (A) (A) (A) (A) (A) (A) (A) (A) (A) (A) (A)
                 (A) (A) (A) (A) (A) (A) (A) (A) (A) (A) (A) (A)
                 (A) (A) (A) (A) (A) (A) (A) (A) (A) (A) (A) (A)
                 (A) (A) (A) (A) (A) (A) (A) (A) (A) (A) (A) (A)
                 (A) (A) (A) (A) (A) (A) (A) (A) (A) (A) (A) (A)
                 (A) (A) (A) (A) (A) (A) (A) (A) (A) (A) (A) (A)
                 (A) (A) (A) (A) (A) (A) (A) (A) (A) (A) (A) (A)
                 (A) (A) (A) (A) (A) (A) (A) (A) (A) (A) (A) (A)
                 (A) (A) (A) (A) (A) (A) (A) (A) (A) (A) (A) (A)
                 (A) (A) (A) (A) (A) (A) (A) (A) (A) (A) (A) (A)
                 (A) (A) (A) (A) (A) (A) (A) (A) (A) (A) (A) (A)
                 (A) (A) (A) (A) (A) (A) (A) (A) (A)
 The electronic state is 1-A.
 Alpha  occ. eigenvalues --  -19.32734 -19.28136 -19.27415 -10.43845 -10.35948
 Alpha  occ. eigenvalues --  -10.34853 -10.31884 -10.31591 -10.30879 -10.30878
 Alpha  occ. eigenvalues --  -10.30821 -10.30786 -10.30697 -10.29341 -10.28558
 Alpha  occ. eigenvalues --   -1.20797  -1.13007  -1.12295  -0.96347  -0.91461
 Alpha  occ. eigenvalues --   -0.86765  -0.85103  -0.84881  -0.77909  -0.76259
 Alpha  occ. eigenvalues --   -0.71447  -0.70275  -0.67405  -0.64179  -0.61739
 Alpha  occ. eigenvalues --   -0.61078  -0.58338  -0.57601  -0.56251  -0.55246
 Alpha  occ. eigenvalues --   -0.53354  -0.52880  -0.52260  -0.50687  -0.50052
 Alpha  occ. eigenvalues --   -0.48824  -0.48225  -0.46855  -0.46188  -0.45276
 Alpha  occ. eigenvalues --   -0.45008  -0.44004  -0.43610  -0.42511  -0.41819
 Alpha  occ. eigenvalues --   -0.40313  -0.38635  -0.36923  -0.36569  -0.33500
 Alpha  occ. eigenvalues --   -0.32600
 Alpha virt. eigenvalues --    0.04566   0.05181   0.06805   0.07345   0.07926
 Alpha virt. eigenvalues --    0.08239   0.08596   0.09412   0.09860   0.10211
 Alpha virt. eigenvalues --    0.10596   0.11000   0.11777   0.12096   0.12848
 Alpha virt. eigenvalues --    0.13325   0.13738   0.13999   0.14706   0.15004
 Alpha virt. eigenvalues --    0.15602   0.16146   0.16643   0.17404   0.17596
 Alpha virt. eigenvalues --    0.17926   0.18903   0.19031   0.19320   0.20633
 Alpha virt. eigenvalues --    0.20656   0.20846   0.21298   0.21831   0.22189
 Alpha virt. eigenvalues --    0.23055   0.23289   0.23837   0.24444   0.25253
 Alpha virt. eigenvalues --    0.25465   0.25798   0.26175   0.26481   0.26909
 Alpha virt. eigenvalues --    0.27356   0.27708   0.28381   0.28894   0.29390
 Alpha virt. eigenvalues --    0.29523   0.30062   0.30713   0.30827   0.31254
 Alpha virt. eigenvalues --    0.31823   0.32236   0.32815   0.33320   0.33710
 Alpha virt. eigenvalues --    0.33993   0.34736   0.35007   0.35756   0.36343
 Alpha virt. eigenvalues --    0.36717   0.36856   0.38224   0.38428   0.38698
 Alpha virt. eigenvalues --    0.39374   0.40220   0.40739   0.40877   0.41853
 Alpha virt. eigenvalues --    0.42425   0.42922   0.43165   0.43971   0.44666
 Alpha virt. eigenvalues --    0.45195   0.46287   0.47447   0.48566   0.48795
 Alpha virt. eigenvalues --    0.49299   0.50209   0.50703   0.52521   0.53694
 Alpha virt. eigenvalues --    0.53749   0.57268   0.61825   0.66363   0.70155
 Alpha virt. eigenvalues --    0.73028   0.73518   0.75213   0.76103   0.76413
 Alpha virt. eigenvalues --    0.76920   0.77631   0.78806   0.79127   0.79792
 Alpha virt. eigenvalues --    0.81176   0.82312   0.83094   0.83646   0.84228
 Alpha virt. eigenvalues --    0.84808   0.85145   0.87114   0.88381   0.88888
 Alpha virt. eigenvalues --    0.90447   0.90848   0.92047   0.92541   0.94299
 Alpha virt. eigenvalues --    0.95411   0.97692   0.99211   1.00541   1.01114
 Alpha virt. eigenvalues --    1.02284   1.04371   1.05831   1.06442   1.07189
 Alpha virt. eigenvalues --    1.09237   1.09727   1.10816   1.11052   1.12443
 Alpha virt. eigenvalues --    1.14923   1.15933   1.16363   1.17778   1.18999
 Alpha virt. eigenvalues --    1.19990   1.21357   1.21949   1.22929   1.25164
 Alpha virt. eigenvalues --    1.26240   1.27076   1.28251   1.29159   1.30024
 Alpha virt. eigenvalues --    1.33204   1.33501   1.34514   1.35488   1.37042
 Alpha virt. eigenvalues --    1.39468   1.41043   1.41897   1.43543   1.45236
 Alpha virt. eigenvalues --    1.46290   1.46730   1.47623   1.48762   1.50082
 Alpha virt. eigenvalues --    1.50489   1.52333   1.54112   1.54649   1.56599
 Alpha virt. eigenvalues --    1.56678   1.59919   1.62262   1.63427   1.65200
 Alpha virt. eigenvalues --    1.68973   1.69835   1.69985   1.74137   1.75164
 Alpha virt. eigenvalues --    1.76767   1.79280   1.82386   1.86456   1.87543
 Alpha virt. eigenvalues --    1.89159   1.91381   1.93154   1.94292   1.95351
 Alpha virt. eigenvalues --    1.96703   1.97465   1.99007   1.99605   2.01000
 Alpha virt. eigenvalues --    2.01277   2.03153   2.04418   2.05337   2.06409
 Alpha virt. eigenvalues --    2.06551   2.07849   2.09324   2.10258   2.11564
 Alpha virt. eigenvalues --    2.12834   2.13741   2.14895   2.16047   2.18465
 Alpha virt. eigenvalues --    2.20226   2.20670   2.21812   2.22247   2.24401
 Alpha virt. eigenvalues --    2.24426   2.26079   2.27929   2.29584   2.30933
 Alpha virt. eigenvalues --    2.32257   2.35707   2.37395   2.38195   2.39162
 Alpha virt. eigenvalues --    2.42023   2.42912   2.44161   2.45755   2.47875
 Alpha virt. eigenvalues --    2.48325   2.49307   2.50394   2.51241   2.54060
 Alpha virt. eigenvalues --    2.55874   2.56731   2.57178   2.58273   2.60712
 Alpha virt. eigenvalues --    2.61464   2.64355   2.64774   2.66078   2.68704
 Alpha virt. eigenvalues --    2.69267   2.71526   2.73133   2.73710   2.75407
 Alpha virt. eigenvalues --    2.77428   2.78826   2.80299   2.80944   2.83706
 Alpha virt. eigenvalues --    2.85138   2.86124   2.86624   2.87388   2.89908
 Alpha virt. eigenvalues --    2.90743   2.91423   2.94807   2.96599   2.96948
 Alpha virt. eigenvalues --    2.98557   2.99961   3.02304   3.05943   3.08048
 Alpha virt. eigenvalues --    3.12815   3.15008   3.16341   3.20052   3.25611
 Alpha virt. eigenvalues --    3.28504   3.30133   3.36600   3.36910   3.38204
 Alpha virt. eigenvalues --    3.38766   3.43169   3.44783   3.48824   3.51925
 Alpha virt. eigenvalues --    3.53995   3.57759   3.59417   3.60791   3.62031
 Alpha virt. eigenvalues --    3.64981   3.66097   3.68675   3.99691   4.40331
 Alpha virt. eigenvalues --    4.41163   4.44088   4.47644   4.51646   4.54991
 Alpha virt. eigenvalues --    4.57827   4.59780   4.64033   4.67703   4.70495
 Alpha virt. eigenvalues --    4.75507   4.82464   4.94230   4.98598
          Condensed to atoms (all electrons):
              1          2          3          4          5          6
     1  C   16.054504  -0.800399  -1.287043  -6.413462  -6.530504   0.208627
     2  C   -0.800399   7.713226   0.298798   0.838231  -1.050366   0.431008
     3  C   -1.287043   0.298798   6.657281   0.811620   0.064971   0.445541
     4  C   -6.413462   0.838231   0.811620  18.718164   0.146257  -1.015666
     5  C   -6.530504  -1.050366   0.064971   0.146257  15.541597   0.345332
     6  C    0.208627   0.431008   0.445541  -1.015666   0.345332   5.520578
     7  C    5.508514  -1.690888  -1.136219  -8.483098  -3.293865  -0.036194
     8  C   -1.504844   0.276533   0.118471   2.243596   1.173824  -0.066196
     9  C    0.516970  -0.112659  -0.117730  -1.498458  -0.495661   0.005073
    10  O   -0.001526  -0.002124  -0.000289  -0.012049  -0.002816  -0.000162
    11  C   -0.003610  -0.002158   0.000994   0.013303   0.005127  -0.000003
    12  O   -0.072804   0.091266   0.018667   0.297739  -0.003198   0.004042
    13  C    0.099726  -0.008982  -0.014126   0.098764  -0.001168   0.036654
    14  O   -0.004237   0.000166  -0.003932  -0.027699  -0.002751  -0.000350
    15  C   -0.001405   0.001487  -0.000597  -0.005274   0.002009  -0.000023
    16  H    0.227043   0.009849   0.042693   0.072433  -0.001870  -0.009782
    17  H    0.008000   0.277155  -0.002679   0.046074   0.006903  -0.005289
    18  H    0.031556   0.002779   0.277615   0.012049  -0.009556   0.015431
    19  H    0.038683  -0.052014  -0.002932   0.067542   0.201955  -0.018388
    20  H   -0.004813   0.018908   0.027482   0.004007  -0.003773   0.282932
    21  H    0.163758   0.007713   0.051226   0.050773  -0.079237   0.002283
    22  H    0.037748  -0.007107   0.004169   0.049302  -0.077108  -0.002551
    23  H    0.000059   0.000006  -0.000005  -0.000598  -0.000318   0.000000
    24  H    0.000083  -0.000004   0.000017  -0.000053   0.000129  -0.000001
    25  H   -0.027576   0.006019   0.003104   0.090975  -0.069271  -0.007035
    26  H    0.007532  -0.003016  -0.001485  -0.027473  -0.009082   0.000185
    27  H   -0.001895   0.005843  -0.001237   0.044715   0.025989   0.005286
    28  H    0.018747  -0.000532   0.003006  -0.021489  -0.010352  -0.000075
    29  H    0.000000   0.000001   0.000002  -0.000111   0.000072   0.000000
    30  H    0.000006   0.000000   0.000000  -0.000013  -0.000010   0.000000
    31  H   -0.000018   0.000002  -0.000008  -0.000134  -0.000027   0.000000
              7          8          9         10         11         12
     1  C    5.508514  -1.504844   0.516970  -0.001526  -0.003610  -0.072804
     2  C   -1.690888   0.276533  -0.112659  -0.002124  -0.002158   0.091266
     3  C   -1.136219   0.118471  -0.117730  -0.000289   0.000994   0.018667
     4  C   -8.483098   2.243596  -1.498458  -0.012049   0.013303   0.297739
     5  C   -3.293865   1.173824  -0.495661  -0.002816   0.005127  -0.003198
     6  C   -0.036194  -0.066196   0.005073  -0.000162  -0.000003   0.004042
     7  C   17.441106  -3.777890   1.902547  -0.038511   0.020178  -0.215919
     8  C   -3.777890   9.598375  -2.133656  -0.104128  -0.028479  -0.143852
     9  C    1.902547  -2.133656   7.469711   0.272129  -0.106816   0.025493
    10  O   -0.038511  -0.104128   0.272129   8.393460   0.079087   0.003475
    11  C    0.020178  -0.028479  -0.106816   0.079087   5.133466  -0.001063
    12  O   -0.215919  -0.143852   0.025493   0.003475  -0.001063   8.303466
    13  C   -0.277492  -0.194408  -0.048618  -0.034875  -0.009874   0.051162
    14  O   -0.011895   0.037338   0.491882  -0.156154   0.016446  -0.003283
    15  C   -0.028753  -0.011633   0.011253  -0.055048   0.248193  -0.000138
    16  H   -0.024745   0.005298  -0.007349   0.000000  -0.000052   0.000001
    17  H   -0.003826   0.000109   0.000043   0.000000  -0.000001   0.000082
    18  H   -0.002781  -0.000293   0.000112   0.000000   0.000000   0.000012
    19  H    0.070296  -0.003816   0.022916  -0.000032   0.000039   0.000904
    20  H    0.002399  -0.000295  -0.000035   0.000000   0.000000  -0.000007
    21  H    0.074958   0.119179  -0.079754  -0.000261  -0.000374  -0.044191
    22  H   -0.032200   0.431715  -0.068129  -0.005118   0.000993   0.000917
    23  H    0.001644  -0.021065   0.034723  -0.062064   0.419810   0.000019
    24  H   -0.000374   0.017620  -0.014147  -0.035210   0.399412  -0.000011
    25  H    0.018478   0.007273   0.000415  -0.000023   0.000291   0.227993
    26  H    0.067872  -0.194453   0.077995   0.004904   0.001512  -0.000569
    27  H   -0.060892  -0.067644  -0.023793  -0.000078   0.000255  -0.000329
    28  H   -0.001025   0.002684  -0.035178  -0.000185  -0.000105   0.000366
    29  H   -0.000494   0.007185   0.003685  -0.003683  -0.045445   0.000003
    30  H    0.000358   0.002275   0.005073   0.007131  -0.048578   0.000000
    31  H    0.000006  -0.009498   0.010576  -0.006702  -0.044096   0.000006
             13         14         15         16         17         18
     1  C    0.099726  -0.004237  -0.001405   0.227043   0.008000   0.031556
     2  C   -0.008982   0.000166   0.001487   0.009849   0.277155   0.002779
     3  C   -0.014126  -0.003932  -0.000597   0.042693  -0.002679   0.277615
     4  C    0.098764  -0.027699  -0.005274   0.072433   0.046074   0.012049
     5  C   -0.001168  -0.002751   0.002009  -0.001870   0.006903  -0.009556
     6  C    0.036654  -0.000350  -0.000023  -0.009782  -0.005289   0.015431
     7  C   -0.277492  -0.011895  -0.028753  -0.024745  -0.003826  -0.002781
     8  C   -0.194408   0.037338  -0.011633   0.005298   0.000109  -0.000293
     9  C   -0.048618   0.491882   0.011253  -0.007349   0.000043   0.000112
    10  O   -0.034875  -0.156154  -0.055048   0.000000   0.000000   0.000000
    11  C   -0.009874   0.016446   0.248193  -0.000052  -0.000001   0.000000
    12  O    0.051162  -0.003283  -0.000138   0.000001   0.000082   0.000012
    13  C    5.677159  -0.023829  -0.000219   0.003903   0.000306  -0.000014
    14  O   -0.023829   8.191870  -0.035765   0.000025   0.000000   0.000000
    15  C   -0.000219  -0.035765   5.231806   0.000001   0.000000   0.000000
    16  H    0.003903   0.000025   0.000001   0.503792   0.000011  -0.003893
    17  H    0.000306   0.000000   0.000000   0.000011   0.494939  -0.000122
    18  H   -0.000014   0.000000   0.000000  -0.003893  -0.000122   0.495177
    19  H   -0.006536  -0.000036  -0.000020  -0.000107  -0.003975   0.000011
    20  H   -0.000046   0.000000   0.000000  -0.000120  -0.003821  -0.003857
    21  H   -0.015114  -0.002106   0.000078   0.002228   0.000002  -0.000002
    22  H   -0.031291   0.005441  -0.000440  -0.000008   0.000001   0.000000
    23  H    0.000258  -0.000080  -0.041031   0.000000   0.000000   0.000000
    24  H   -0.003263   0.001409  -0.032334   0.000000   0.000000   0.000000
    25  H   -0.003156  -0.000095   0.000027   0.000102  -0.000003   0.000000
    26  H    0.433675  -0.000828   0.000282   0.000003   0.000000   0.000000
    27  H    0.434422   0.000681  -0.000161  -0.000041  -0.000004  -0.000002
    28  H    0.396369   0.000984  -0.000512  -0.000086   0.000000   0.000000
    29  H   -0.002233  -0.000471   0.404782   0.000000   0.000000   0.000000
    30  H   -0.000031  -0.000192   0.397427   0.000000   0.000000   0.000000
    31  H   -0.000356   0.001155   0.413068   0.000000   0.000000   0.000000
             19         20         21         22         23         24
     1  C    0.038683  -0.004813   0.163758   0.037748   0.000059   0.000083
     2  C   -0.052014   0.018908   0.007713  -0.007107   0.000006  -0.000004
     3  C   -0.002932   0.027482   0.051226   0.004169  -0.000005   0.000017
     4  C    0.067542   0.004007   0.050773   0.049302  -0.000598  -0.000053
     5  C    0.201955  -0.003773  -0.079237  -0.077108  -0.000318   0.000129
     6  C   -0.018388   0.282932   0.002283  -0.002551   0.000000  -0.000001
     7  C    0.070296   0.002399   0.074958  -0.032200   0.001644  -0.000374
     8  C   -0.003816  -0.000295   0.119179   0.431715  -0.021065   0.017620
     9  C    0.022916  -0.000035  -0.079754  -0.068129   0.034723  -0.014147
    10  O   -0.000032   0.000000  -0.000261  -0.005118  -0.062064  -0.035210
    11  C    0.000039   0.000000  -0.000374   0.000993   0.419810   0.399412
    12  O    0.000904  -0.000007  -0.044191   0.000917   0.000019  -0.000011
    13  C   -0.006536  -0.000046  -0.015114  -0.031291   0.000258  -0.003263
    14  O   -0.000036   0.000000  -0.002106   0.005441  -0.000080   0.001409
    15  C   -0.000020   0.000000   0.000078  -0.000440  -0.041031  -0.032334
    16  H   -0.000107  -0.000120   0.002228  -0.000008   0.000000   0.000000
    17  H   -0.003975  -0.003821   0.000002   0.000001   0.000000   0.000000
    18  H    0.000011  -0.003857  -0.000002   0.000000   0.000000   0.000000
    19  H    0.502407  -0.000117  -0.000087  -0.000480   0.000000   0.000000
    20  H   -0.000117   0.497597   0.000000   0.000000   0.000000   0.000000
    21  H   -0.000087   0.000000   0.583169   0.003478   0.000000  -0.000005
    22  H   -0.000480   0.000000   0.003478   0.492246  -0.000037  -0.000008
    23  H    0.000000   0.000000   0.000000  -0.000037   0.529247  -0.031338
    24  H    0.000000   0.000000  -0.000005  -0.000008  -0.031338   0.520232
    25  H   -0.000292   0.000000  -0.003886  -0.000030   0.000000   0.000000
    26  H    0.000006   0.000000  -0.000085  -0.002409   0.000002   0.000000
    27  H   -0.000045   0.000000  -0.000022  -0.003521   0.000000   0.000000
    28  H   -0.000002   0.000000   0.001920   0.003700   0.000000   0.000000
    29  H    0.000000   0.000000   0.000000  -0.000003  -0.005076   0.003783
    30  H    0.000000   0.000000   0.000000   0.000000  -0.001187  -0.001030
    31  H    0.000000   0.000000   0.000000  -0.000005   0.003904  -0.004846
             25         26         27         28         29         30
     1  C   -0.027576   0.007532  -0.001895   0.018747   0.000000   0.000006
     2  C    0.006019  -0.003016   0.005843  -0.000532   0.000001   0.000000
     3  C    0.003104  -0.001485  -0.001237   0.003006   0.000002   0.000000
     4  C    0.090975  -0.027473   0.044715  -0.021489  -0.000111  -0.000013
     5  C   -0.069271  -0.009082   0.025989  -0.010352   0.000072  -0.000010
     6  C   -0.007035   0.000185   0.005286  -0.000075   0.000000   0.000000
     7  C    0.018478   0.067872  -0.060892  -0.001025  -0.000494   0.000358
     8  C    0.007273  -0.194453  -0.067644   0.002684   0.007185   0.002275
     9  C    0.000415   0.077995  -0.023793  -0.035178   0.003685   0.005073
    10  O   -0.000023   0.004904  -0.000078  -0.000185  -0.003683   0.007131
    11  C    0.000291   0.001512   0.000255  -0.000105  -0.045445  -0.048578
    12  O    0.227993  -0.000569  -0.000329   0.000366   0.000003   0.000000
    13  C   -0.003156   0.433675   0.434422   0.396369  -0.002233  -0.000031
    14  O   -0.000095  -0.000828   0.000681   0.000984  -0.000471  -0.000192
    15  C    0.000027   0.000282  -0.000161  -0.000512   0.404782   0.397427
    16  H    0.000102   0.000003  -0.000041  -0.000086   0.000000   0.000000
    17  H   -0.000003   0.000000  -0.000004   0.000000   0.000000   0.000000
    18  H    0.000000   0.000000  -0.000002   0.000000   0.000000   0.000000
    19  H   -0.000292   0.000006  -0.000045  -0.000002   0.000000   0.000000
    20  H    0.000000   0.000000   0.000000   0.000000   0.000000   0.000000
    21  H   -0.003886  -0.000085  -0.000022   0.001920   0.000000   0.000000
    22  H   -0.000030  -0.002409  -0.003521   0.003700  -0.000003   0.000000
    23  H    0.000000   0.000002   0.000000   0.000000  -0.005076  -0.001187
    24  H    0.000000   0.000000   0.000000   0.000000   0.003783  -0.001030
    25  H    0.356092   0.000002  -0.000002  -0.000003   0.000000   0.000000
    26  H    0.000002   0.514259  -0.023707  -0.024802  -0.000018   0.000000
    27  H   -0.000002  -0.023707   0.504575  -0.024138   0.000000   0.000000
    28  H   -0.000003  -0.024802  -0.024138   0.501957   0.000000   0.000000
    29  H    0.000000  -0.000018   0.000000   0.000000   0.517035  -0.022601
    30  H    0.000000   0.000000   0.000000   0.000000  -0.022601   0.506406
    31  H    0.000000   0.000011   0.000000  -0.000001  -0.029293  -0.021981
             31
     1  C   -0.000018
     2  C    0.000002
     3  C   -0.000008
     4  C   -0.000134
     5  C   -0.000027
     6  C    0.000000
     7  C    0.000006
     8  C   -0.009498
     9  C    0.010576
    10  O   -0.006702
    11  C   -0.044096
    12  O    0.000006
    13  C   -0.000356
    14  O    0.001155
    15  C    0.413068
    16  H    0.000000
    17  H    0.000000
    18  H    0.000000
    19  H    0.000000
    20  H    0.000000
    21  H    0.000000
    22  H   -0.000005
    23  H    0.003904
    24  H   -0.004846
    25  H    0.000000
    26  H    0.000011
    27  H    0.000000
    28  H   -0.000001
    29  H   -0.029293
    30  H   -0.021981
    31  H    0.508634
 Mulliken atomic charges:
              1
     1  C   -0.267422
     2  C   -0.248741
     3  C   -0.257373
     4  C   -0.099968
     5  C    0.126767
     6  C   -0.141258
     7  C    0.008703
     8  C    0.220677
     9  C   -0.108612
    10  O   -0.239147
    11  C   -0.048452
    12  O   -0.540251
    13  C   -0.556767
    14  O   -0.473691
    15  C   -0.497062
    16  H    0.180672
    17  H    0.186094
    18  H    0.185779
    19  H    0.184120
    20  H    0.183557
    21  H    0.164361
    22  H    0.200732
    23  H    0.173128
    24  H    0.179940
    25  H    0.400600
    26  H    0.179687
    27  H    0.185744
    28  H    0.188751
    29  H    0.172879
    30  H    0.176948
    31  H    0.179602
 Sum of Mulliken atomic charges =   0.00000
 Mulliken charges with hydrogens summed into heavy atoms:
              1
     1  C   -0.086750
     2  C   -0.062647
     3  C   -0.071594
     4  C   -0.099968
     5  C    0.310887
     6  C    0.042299
     7  C    0.173065
     8  C    0.421409
     9  C   -0.108612
    10  O   -0.239147
    11  C    0.304617
    12  O   -0.139650
    13  C   -0.002586
    14  O   -0.473691
    15  C    0.032368
 Sum of Mulliken charges with hydrogens summed into heavy atoms =   0.00000
 Electronic spatial extent (au):  <R**2>=           4370.0448
 Charge=              0.0000 electrons
 Dipole moment (field-independent basis, Debye):
    X=             -1.6054    Y=             -0.1294    Z=             -1.6763  Tot=              2.3247
 Quadrupole moment (field-independent basis, Debye-Ang):
   XX=            -72.3774   YY=            -90.6262   ZZ=            -89.9336
   XY=             -3.4087   XZ=             -4.6041   YZ=              0.3089
 Traceless Quadrupole moment (field-independent basis, Debye-Ang):
   XX=             11.9350   YY=             -6.3138   ZZ=             -5.6212
   XY=             -3.4087   XZ=             -4.6041   YZ=              0.3089
 Octapole moment (field-independent basis, Debye-Ang**2):
  XXX=             48.7801  YYY=             -5.3691  ZZZ=              4.8625  XYY=             -2.4154
  XXY=            -13.6441  XXZ=            -15.0022  XZZ=             -3.8335  YZZ=             -8.4019
  YYZ=              0.8449  XYZ=            -17.5315
 Hexadecapole moment (field-independent basis, Debye-Ang**3):
 XXXX=          -4218.6271 YYYY=           -547.5819 ZZZZ=           -455.1684 XXXY=           -135.0737
 XXXZ=             58.5378 YYYX=             -3.8973 YYYZ=              3.9779 ZZZX=            -16.2235
 ZZZY=             -5.4325 XXYY=           -887.3521 XXZZ=           -901.4818 YYZZ=           -152.3062
 XXYZ=             27.4095 YYXZ=            -18.7505 ZZXY=              8.2752
 N-N= 9.908288199057D+02 E-N=-3.593620108744D+03  KE= 6.858991009753D+02
 1\1\GINC-COMPUTE-8-12\SP\RwB97XD\6-31+G(d,p)\C12H16O3\ELUCIANO.IQUIR\1
 8-May-2022\0\\# wb97xd/6-31+g** scrf=(pcm,solvent=chloroform,smd,dovac
 uum) nmr\\comment\\0,1\C,0,-1.79225965,-2.234409156,1.111773612\C,0,-3
 .97202034,-0.536251715,0.726570887\C,0,-2.997148934,-2.479844276,1.772
 767821\C,0,-1.663508899,-1.134886735,0.250392096\C,0,-2.768599841,-0.2
 88533107,0.065063299\C,0,-4.085602728,-1.631321011,1.58027116\C,0,-0.3
 49477821,-0.871819368,-0.460346582\C,0,0.352728697,0.418459533,-0.0139
 98137\C,0,1.720496859,0.452045602,-0.661074984\O,0,1.89324861,1.615192
 931,-1.350009976\C,0,3.156218066,1.76725991,-2.012917021\O,0,-0.625064
 903,-0.788201698,-1.865255305\C,0,0.553204965,0.526223458,1.497263494\
 O,0,2.565714077,-0.425902968,-0.536703933\C,0,4.174125603,2.372513602,
 -1.064674013\H,0,-0.9534759,-2.907611255,1.277906408\H,0,-4.821043117,
 0.125456335,0.57518618\H,0,-3.086396698,-3.333810487,2.439606818\H,0,-
 2.695413454,0.568728777,-0.601969863\H,0,-5.022910538,-1.823738831,2.0
 95898746\H,0,0.313310275,-1.73617904,-0.330021537\H,0,-0.216427665,1.2
 9023485,-0.362425819\H,0,2.994187235,2.44303686,-2.859045832\H,0,3.508
 079577,0.814574644,-2.425178761\H,0,-1.297908655,-1.463892705,-2.06370
 7591\H,0,1.173012609,1.395224715,1.745852752\H,0,-0.401087326,0.642434
 431,2.020141402\H,0,1.057400408,-0.360628854,1.897345717\H,0,3.8085641
 95,3.324026111,-0.664744321\H,0,5.125081916,2.546508996,-1.575981567\H
 ,0,4.352973379,1.715110451,-0.207985145\\Version=EM64L-G09RevC.01\Stat
 e=1-A\HF=-692.4451517\RMSD=2.967e-09\Dipole=-0.7417357,0.3236649,0.426
 0765\Quadrupole=1.7979548,1.1934702,-2.991425,6.8672244,-3.6530241,-3.
 1630466\PG=C01 [X(C12H16O3)]\\@


 LET US LEARN TO DREAM, GENTLEMEN, THEN PERHAPS WE SHALL
 DISCOVER THE TRUTH;  BUT LET US BEWARE OF PUBLISHING
 OUR DREAMS ABROAD BEFORE THEY HAVE BEEN SCRUTINIZED
 BY OUR VIGILANT INTELLECT ... LET US ALWAYS ALLOW
 THE FRUIT TO HANG UNTIL IT IS RIPE.  UNRIPE FRUIT
 BRINGS EVEN THE GROWER BUT LITTLE PROFIT; IT DAMAGES
 THE HEALTH OF THOSE WHO CONSUME IT; IT ENDANGERS
 PARTICULARLY THE YOUTH WHO CANNOT YET DISTINGUISH
 BETWEEN RIPE AND UNRIPE FRUIT.

                                  -- KEKULE, 1890
 Job cpu time:  0 days  2 hours  3 minutes 41.3 seconds.
 File lengths (MBytes):  RWF=    124 Int=      0 D2E=      0 Chk=      9 Scr=      1
 Normal termination of Gaussian 09 at Wed May 18 00:04:31 2022.
