 Entering Gaussian System, Link 0=g09
 Input=/home/eluciano.iquir/wb9/73b_006.gjc
 Output=/home/eluciano.iquir/wb9/73b_006.log
 Initial command:
 /share/apps/Gaussian09/EM64T.SSE4.2-enabled/g09/l1.exe /tmp/Gau-58805.inp -scrdir=/tmp/
 Entering Link 1 = /share/apps/Gaussian09/EM64T.SSE4.2-enabled/g09/l1.exe PID=     58806.
  
 Copyright (c) 1988,1990,1992,1993,1995,1998,2003,2009,2011,
            Gaussian, Inc.  All Rights Reserved.
  
 This is part of the Gaussian(R) 09 program.  It is based on
 the Gaussian(R) 03 system (copyright 2003, Gaussian, Inc.),
 the Gaussian(R) 98 system (copyright 1998, Gaussian, Inc.),
 the Gaussian(R) 94 system (copyright 1995, Gaussian, Inc.),
 the Gaussian 92(TM) system (copyright 1992, Gaussian, Inc.),
 the Gaussian 90(TM) system (copyright 1990, Gaussian, Inc.),
 the Gaussian 88(TM) system (copyright 1988, Gaussian, Inc.),
 the Gaussian 86(TM) system (copyright 1986, Carnegie Mellon
 University), and the Gaussian 82(TM) system (copyright 1983,
 Carnegie Mellon University). Gaussian is a federally registered
 trademark of Gaussian, Inc.
  
 This software contains proprietary and confidential information,
 including trade secrets, belonging to Gaussian, Inc.
  
 This software is provided under written license and may be
 used, copied, transmitted, or stored only in accord with that
 written license.
  
 The following legend is applicable only to US Government
 contracts under FAR:
  
                    RESTRICTED RIGHTS LEGEND
  
 Use, reproduction and disclosure by the US Government is
 subject to restrictions as set forth in subparagraphs (a)
 and (c) of the Commercial Computer Software - Restricted
 Rights clause in FAR 52.227-19.
  
 Gaussian, Inc.
 340 Quinnipiac St., Bldg. 40, Wallingford CT 06492
  
  
 ---------------------------------------------------------------
 Warning -- This program may not be used in any manner that
 competes with the business of Gaussian, Inc. or will provide
 assistance to any competitor of Gaussian, Inc.  The licensee
 of this program is prohibited from giving any competitor of
 Gaussian, Inc. access to this program.  By using this program,
 the user acknowledges that Gaussian, Inc. is engaged in the
 business of creating and licensing software in the field of
 computational chemistry and represents and warrants to the
 licensee that it is not a competitor of Gaussian, Inc. and that
 it will not use this program in any manner prohibited above.
 ---------------------------------------------------------------
  

 Cite this work as:
 Gaussian 09, Revision C.01,
 M. J. Frisch, G. W. Trucks, H. B. Schlegel, G. E. Scuseria, 
 M. A. Robb, J. R. Cheeseman, G. Scalmani, V. Barone, B. Mennucci, 
 G. A. Petersson, H. Nakatsuji, M. Caricato, X. Li, H. P. Hratchian, 
 A. F. Izmaylov, J. Bloino, G. Zheng, J. L. Sonnenberg, M. Hada, 
 M. Ehara, K. Toyota, R. Fukuda, J. Hasegawa, M. Ishida, T. Nakajima, 
 Y. Honda, O. Kitao, H. Nakai, T. Vreven, J. A. Montgomery, Jr., 
 J. E. Peralta, F. Ogliaro, M. Bearpark, J. J. Heyd, E. Brothers, 
 K. N. Kudin, V. N. Staroverov, T. Keith, R. Kobayashi, J. Normand, 
 K. Raghavachari, A. Rendell, J. C. Burant, S. S. Iyengar, J. Tomasi, 
 M. Cossi, N. Rega, J. M. Millam, M. Klene, J. E. Knox, J. B. Cross, 
 V. Bakken, C. Adamo, J. Jaramillo, R. Gomperts, R. E. Stratmann, 
 O. Yazyev, A. J. Austin, R. Cammi, C. Pomelli, J. W. Ochterski, 
 R. L. Martin, K. Morokuma, V. G. Zakrzewski, G. A. Voth, 
 P. Salvador, J. J. Dannenberg, S. Dapprich, A. D. Daniels, 
 O. Farkas, J. B. Foresman, J. V. Ortiz, J. Cioslowski, 
 and D. J. Fox, Gaussian, Inc., Wallingford CT, 2010.
 
 ******************************************
 Gaussian 09:  EM64L-G09RevC.01 23-Sep-2011
                17-May-2022 
 ******************************************
 %nprocshared=4
 Will use up to    4 processors via shared memory.
 ----------------------------------------------------------------
 # wb97xd/6-31+g** scrf=(pcm,solvent=chloroform,smd,dovacuum) nmr
 ----------------------------------------------------------------
 1/38=1/1;
 2/12=2,17=6,18=5,40=1/2;
 3/5=1,6=6,7=111,11=2,16=1,25=1,30=1,70=32101,72=7,74=-58/1,2,8,3;
 4//1;
 5/5=2,38=5,53=7/2;
 8/6=1,10=90,11=11/1;
 10/13=100,45=16/2;
 6/7=2,8=2,9=2,10=2,28=1/1;
 99/9=1/99;
 -------
 comment
 -------
 Charge =  0 Multiplicity = 1
 Symbolic Z-Matrix:
 6                    -1.32454  -2.87787  -0.11614 
 6                    -3.69594  -1.63918  -0.90321 
 6                    -2.54891  -3.52053   0.07864 
 6                    -1.27098  -1.60471  -0.70482 
 6                    -2.47296  -0.99519  -1.09783 
 6                    -3.73358  -2.90059  -0.31328 
 6                     0.06071  -0.90267  -0.88632 
 6                     0.2501    0.29292   0.06915 
 6                     1.60372   0.92359  -0.19301 
 8                     1.71755   2.10601   0.47499 
 6                     2.96203   2.78604   0.2699 
 8                     0.11465  -0.45377  -2.24597 
 6                     0.16663  -0.11221   1.5418 
 8                     2.46571   0.44881  -0.92289 
 6                     2.9391    4.06835   1.07845 
 1                    -0.41135  -3.38002   0.19515 
 1                    -4.61768  -1.15773  -1.21869 
 1                    -2.57786  -4.50717   0.53354 
 1                    -2.45562  -0.01629  -1.5729 
 1                    -4.68567  -3.40301  -0.16516 
 1                     0.87138  -1.63244  -0.76122 
 1                    -0.50283   1.05982  -0.15542 
 1                     3.08355   3.02061  -0.79348 
 1                     3.78969   2.15137   0.60572 
 1                     1.05902  -0.29513  -2.44102 
 1                     0.3721    0.738     2.20131 
 1                    -0.82904  -0.48544   1.79997 
 1                     0.89937  -0.89189   1.77817 
 1                     2.10347   4.70457   0.76854 
 1                     3.87212   4.62497   0.95394 
 1                     2.79609   3.85077   2.14209 
 
                          Input orientation:                          
 ---------------------------------------------------------------------
 Center     Atomic      Atomic             Coordinates (Angstroms)
 Number     Number       Type             X           Y           Z
 ---------------------------------------------------------------------
      1          6           0       -1.324539   -2.877871   -0.116136
      2          6           0       -3.695941   -1.639179   -0.903210
      3          6           0       -2.548910   -3.520534    0.078644
      4          6           0       -1.270977   -1.604706   -0.704819
      5          6           0       -2.472964   -0.995193   -1.097829
      6          6           0       -3.733580   -2.900593   -0.313279
      7          6           0        0.060714   -0.902671   -0.886324
      8          6           0        0.250101    0.292921    0.069147
      9          6           0        1.603718    0.923588   -0.193014
     10          8           0        1.717549    2.106013    0.474989
     11          6           0        2.962031    2.786044    0.269895
     12          8           0        0.114647   -0.453769   -2.245970
     13          6           0        0.166630   -0.112206    1.541804
     14          8           0        2.465708    0.448815   -0.922885
     15          6           0        2.939097    4.068354    1.078453
     16          1           0       -0.411354   -3.380020    0.195148
     17          1           0       -4.617684   -1.157732   -1.218689
     18          1           0       -2.577865   -4.507174    0.533544
     19          1           0       -2.455621   -0.016291   -1.572904
     20          1           0       -4.685666   -3.403006   -0.165163
     21          1           0        0.871378   -1.632440   -0.761220
     22          1           0       -0.502832    1.059822   -0.155424
     23          1           0        3.083550    3.020613   -0.793485
     24          1           0        3.789691    2.151367    0.605723
     25          1           0        1.059021   -0.295128   -2.441022
     26          1           0        0.372098    0.737999    2.201314
     27          1           0       -0.829044   -0.485442    1.799965
     28          1           0        0.899372   -0.891895    1.778170
     29          1           0        2.103466    4.704574    0.768543
     30          1           0        3.872117    4.624972    0.953938
     31          1           0        2.796088    3.850770    2.142092
 ---------------------------------------------------------------------
                    Distance matrix (angstroms):
                    1          2          3          4          5
     1  C    0.000000
     2  C    2.788797   0.000000
     3  C    1.396438   2.412305   0.000000
     4  C    1.403697   2.433310   2.432555   0.000000
     5  C    2.413934   1.395803   2.786970   1.403829   0.000000
     6  C    2.417200   1.393055   1.393331   2.810167   2.415620
     7  C    2.532496   3.828209   3.820276   1.516311   2.544174
     8  C    3.545102   4.499970   4.730433   2.552193   3.230503
     9  C    4.799135   5.929463   6.088377   3.862394   4.595622
    10  O    5.868802   6.725457   7.072326   4.908429   5.445331
    11  C    7.113624   8.080060   8.377349   6.176335   6.760739
    12  O    3.533231   4.210556   4.680108   2.370603   2.882204
    13  C    3.552641   4.819668   4.596923   3.056401   3.835986
    14  O    5.107216   6.505845   6.473421   4.269346   5.148421
    15  C    8.237456   8.973664   9.418549   7.286178   7.724385
    16  H    1.087639   3.876265   2.145335   2.168093   3.407260
    17  H    3.875475   1.086705   3.397901   3.415303   2.154263
    18  H    2.155814   3.397021   1.086844   3.415525   3.873808
    19  H    3.404432   2.149569   3.875052   2.163334   1.088231
    20  H    3.402256   2.152988   2.153829   3.896821   3.400511
    21  H    2.605625   4.569530   3.996078   2.143276   3.421112
    22  H    4.022708   4.247321   5.022040   2.826941   2.998772
    23  H    7.394739   8.227223   8.675933   6.353215   6.862519
    24  H    7.208999   8.525244   8.522097   6.437077   7.212750
    25  H    4.213908   5.175036   5.456109   3.187207   3.843069
    26  H    4.617756   5.642516   5.583290   4.078428   4.688569
    27  H    3.104944   4.105772   3.890073   2.778849   3.370390
    28  H    3.532462   5.372629   4.657123   3.373982   4.433361
    29  H    8.368235   8.756202   9.474860   7.305113   7.544164
    30  H    9.189285   9.998204  10.408890   8.246925   8.721012
    31  H    8.206935   9.031049   9.336110   7.376187   7.857694
                    6          7          8          9         10
     6  C    0.000000
     7  C    4.326285   0.000000
     8  C    5.120009   1.542152   0.000000
     9  C    6.567006   2.489329   1.516162   0.000000
    10  O    7.443270   3.694652   2.367576   1.362834   0.000000
    11  C    8.803927   4.833333   3.689245   2.351179   1.432913
    12  O    4.952887   1.432850   2.436321   2.886013   4.065144
    13  C    5.140824   2.555751   1.529646   2.479452   2.909285
    14  O    7.072575   2.758957   2.432559   1.225213   2.293491
    15  C    9.748218   6.070958   4.743764   3.645466   2.388960
    16  H    3.394927   2.744028   3.734152   4.767832   5.891273
    17  H    2.153827   4.697120   5.240061   6.640010   7.325008
    18  H    2.152647   4.687277   5.590524   6.892509   7.885953
    19  H    3.396915   2.754814   3.180074   4.389271   5.110126
    20  H    1.086658   5.412936   6.170622   7.633907   8.471142
    21  H    4.797342   1.097902   2.186894   2.718908   4.027437
    22  H    5.113466   2.168682   1.097943   2.111285   2.534172
    23  H    9.042374   4.953616   4.026521   2.635903   2.076410
    24  H    9.108592   5.045653   4.033662   2.631330   2.076757
    25  H    5.855319   1.944945   2.702055   2.614480   3.834353
    26  H    6.034825   3.510309   2.181540   2.698914   2.581066
    27  H    4.328403   2.860403   2.183149   3.446108   3.867343
    28  H    5.465645   2.793384   2.178555   2.770856   3.369740
    29  H    9.647798   6.192949   4.835991   3.933218   2.643412
    30  H   10.774348   6.961910   5.715638   4.490142   3.349135
    31  H    9.708054   6.264885   4.841224   3.929741   2.643228
                   11         12         13         14         15
    11  C    0.000000
    12  O    4.993352   0.000000
    13  C    4.222780   3.803499   0.000000
    14  O    2.670525   2.844767   3.416898   0.000000
    15  C    1.516116   6.283224   5.037692   4.162994   0.000000
    16  H    7.028916   3.846905   3.581363   4.918074   8.214866
    17  H    8.673023   4.893447   5.621664   7.269314   9.470680
    18  H    9.162477   5.604053   5.278692   7.219462  10.211438
    19  H    6.371808   2.692709   4.072690   4.985812   7.267531
    20  H    9.847887   6.005894   6.106381   8.157991  10.747317
    21  H    4.995702   2.041174   2.848105   2.626718   6.337106
    22  H    3.894357   2.653794   2.168505   3.126428   4.735039
    23  H    1.095704   4.795355   4.876120   2.648135   2.150065
    24  H    1.095727   5.331494   4.373394   2.643531   2.149842
    25  H    4.523731   0.977269   4.085674   2.199309   5.912814
    26  H    3.825261   4.611391   1.095453   3.771929   4.352191
    27  H    5.236028   4.154654   1.094221   4.375173   5.954539
    28  H    4.478469   4.123282   1.095762   3.398030   5.408710
    29  H    2.160218   6.296920   5.248870   4.593870   1.095035
    30  H    2.162828   7.081779   6.042936   4.789649   1.093551
    31  H    2.160162   6.706286   4.793701   4.590919   1.095044
                   16         17         18         19         20
    16  H    0.000000
    17  H    4.962933   0.000000
    18  H    2.465513   4.295340   0.000000
    19  H    4.315055   2.470399   4.961863   0.000000
    20  H    4.289533   2.481087   2.479961   4.292397   0.000000
    21  H    2.369404   5.528510   4.673091   3.786778   5.862672
    22  H    4.454600   4.793754   5.980960   2.642092   6.116619
    23  H    7.359338   8.772022   9.512108   6.364958  10.100415
    24  H    6.957987   9.217513   9.213421   6.960537  10.162529
    25  H    4.316011   5.870534   6.310016   3.630990   6.916637
    26  H    4.647212   6.339412   6.244643   4.775947   6.951915
    27  H    3.335938   4.890607   4.564703   3.773870   5.219908
    28  H    3.227186   6.284087   5.168222   4.822070   6.424553
    29  H    8.486092   9.137263  10.335685   6.968086  10.615883
    30  H    9.110641  10.499366  11.188167   8.244181  11.787131
    31  H    8.146324   9.557403  10.065884   7.505718  10.673207
                   21         22         23         24         25
    21  H    0.000000
    22  H    3.082810   0.000000
    23  H    5.152247   4.136902   0.000000
    24  H    4.970139   4.494059   1.792207   0.000000
    25  H    2.155307   3.082083   4.219862   4.767027   0.000000
    26  H    3.826861   2.534421   4.640164   4.027835   4.805258
    27  H    3.281266   2.513524   5.858908   5.450843   4.646180
    28  H    2.645315   3.084504   5.166407   4.357753   4.264177
    29  H    6.634453   4.575011   2.497243   3.064104   6.032346
    30  H    7.148525   5.751622   2.499858   2.499354   6.606561
    31  H    6.496101   4.893960   3.064214   2.497128   6.419565
                   26         27         28         29         30
    26  H    0.000000
    27  H    1.760861   0.000000
    28  H    1.764546   1.775698   0.000000
    29  H    4.558968   6.049770   5.812887   0.000000
    30  H    5.377233   6.995214   6.320790   1.780122   0.000000
    31  H    3.945704   5.662276   5.120824   1.759359   1.780151
                   31
    31  H    0.000000
 Stoichiometry    C12H16O3
 Framework group  C1[X(C12H16O3)]
 Deg. of freedom    87
 Full point group                 C1      NOp   1
 Largest Abelian subgroup         C1      NOp   1
 Largest concise Abelian subgroup C1      NOp   1
                         Standard orientation:                         
 ---------------------------------------------------------------------
 Center     Atomic      Atomic             Coordinates (Angstroms)
 Number     Number       Type             X           Y           Z
 ---------------------------------------------------------------------
      1          6           0       -2.771660    0.075850   -1.163270
      2          6           0       -3.713228   -0.453473    1.407849
      3          6           0       -4.065202   -0.416687   -0.978356
      4          6           0       -1.930623    0.307120   -0.063481
      5          6           0       -2.419753    0.038054    1.224576
      6          6           0       -4.534639   -0.682527    0.306296
      7          6           0       -0.517841    0.815147   -0.275984
      8          6           0        0.558493   -0.252333    0.007252
      9          6           0        1.927861    0.353333   -0.230963
     10          8           0        2.905450   -0.485189    0.214591
     11          6           0        4.237799    0.015180    0.048112
     12          8           0       -0.339126    1.933027    0.602346
     13          6           0        0.402781   -1.492778   -0.874148
     14          8           0        2.127245    1.453600   -0.731768
     15          6           0        5.203714   -1.025905    0.578923
     16          1           0       -2.425361    0.278574   -2.174180
     17          1           0       -4.080407   -0.650734    2.411441
     18          1           0       -4.708147   -0.589864   -1.837345
     19          1           0       -1.792937    0.226510    2.093961
     20          1           0       -5.542766   -1.061904    0.449748
     21          1           0       -0.424524    1.198989   -1.300360
     22          1           0        0.519668   -0.534486    1.067610
     23          1           0        4.354167    0.948968    0.609419
     24          1           0        4.434816    0.195278   -1.014605
     25          1           0        0.421201    2.435352    0.249320
     26          1           0        1.216335   -2.206588   -0.704964
     27          1           0       -0.534017   -2.018502   -0.665955
     28          1           0        0.419833   -1.225830   -1.936760
     29          1           0        5.005271   -1.232495    1.635825
     30          1           0        6.238416   -0.688199    0.473100
     31          1           0        5.083692   -1.972462    0.041573
 ---------------------------------------------------------------------
 Rotational constants (GHZ):      1.5975024      0.2574423      0.2505428
 Standard basis: 6-31+G(d,p) (6D, 7F)
 There are   365 symmetry adapted basis functions of A   symmetry.
 Integral buffers will be    131072 words long.
 Raffenetti 2 integral format.
 Two-electron integral symmetry is turned on.
   365 basis functions,   592 primitive gaussians,   365 cartesian basis functions
    56 alpha electrons       56 beta electrons
       nuclear repulsion energy       986.3090655819 Hartrees.
 NAtoms=   31 NActive=   31 NUniq=   31 SFac= 1.00D+00 NAtFMM=   60 NAOKFM=F Big=F
 Nuclear repulsion after empirical dispersion term =      986.2889463021 Hartrees.
 ------------------------------------------------------------------------------
 Polarizable Continuum Model (PCM)
 =================================
 Model                : C-PCM.
 Atomic radii         : SMD-Coulomb.
 Polarization charges : Total charges.
 Charge compensation  : None.
 Solution method      : Matrix inversion.
 Cavity type          : VdW (van der Waals Surface) (Alpha=1.000).
 Cavity algorithm     : GePol (No added spheres)
                        Default sphere list used, NSphG=   31.
                        Lebedev-Laikov grids with approx.  5.0 points / Ang**2.
                        Smoothing algorithm: Karplus/York (Gamma=1.0000).
                        Polarization charges: spherical gaussians, with
                                              point-specific exponents (IZeta= 3).
                        Self-potential: point-specific (ISelfS= 7).
                        Self-field    : sphere-specific E.n sum rule (ISelfD= 2).
 Solvent              : Chloroform, Eps=   4.711300 Eps(inf)=   2.090627
 ------------------------------------------------------------------------------
 ------------------------------------------------------------------------------
 Atomic radii for non-electrostatic terms: SMD-CDS.
 ------------------------------------------------------------------------------
 Nuclear repulsion after PCM non-electrostatic terms =      986.2824239877 Hartrees.
 One-electron integrals computed using PRISM.
 NBasis=   365 RedAO= T  NBF=   365
 NBsUse=   365 1.00D-06 NBFU=   365
 Harris functional with IExCor= 4639 diagonalized for initial guess.
 ExpMin= 4.38D-02 ExpMax= 5.48D+03 ExpMxC= 8.25D+02 IAcc=2 IRadAn=         4 AccDes= 0.00D+00
 HarFok:  IExCor= 4639 AccDes= 0.00D+00 IRadAn=         4 IDoV= 1
 ScaDFX=  1.000000  1.000000  1.000000  1.000000
 FoFCou: FMM=F IPFlag=           0 FMFlag=      100000 FMFlg1=           0
         NFxFlg=           0 DoJE=T BraDBF=F KetDBF=T FulRan=T
         Omega=  0.000000  0.000000  1.000000  0.000000  0.000000 ICntrl=     500 IOpCl=  0
         NMat0=    1 NMatS0=    1 NMatT0=    0 NMatD0=    1 NMtDS0=    0 NMtDT0=    0
         I1Cent=           4 NGrid=           0.
 Petite list used in FoFCou.
 Initial guess orbital symmetries:
       Occupied  (A) (A) (A) (A) (A) (A) (A) (A) (A) (A) (A) (A)
                 (A) (A) (A) (A) (A) (A) (A) (A) (A) (A) (A) (A)
                 (A) (A) (A) (A) (A) (A) (A) (A) (A) (A) (A) (A)
                 (A) (A) (A) (A) (A) (A) (A) (A) (A) (A) (A) (A)
                 (A) (A) (A) (A) (A) (A) (A) (A)
       Virtual   (A) (A) (A) (A) (A) (A) (A) (A) (A) (A) (A) (A)
                 (A) (A) (A) (A) (A) (A) (A) (A) (A) (A) (A) (A)
                 (A) (A) (A) (A) (A) (A) (A) (A) (A) (A) (A) (A)
                 (A) (A) (A) (A) (A) (A) (A) (A) (A) (A) (A) (A)
                 (A) (A) (A) (A) (A) (A) (A) (A) (A) (A) (A) (A)
                 (A) (A) (A) (A) (A) (A) (A) (A) (A) (A) (A) (A)
                 (A) (A) (A) (A) (A) (A) (A) (A) (A) (A) (A) (A)
                 (A) (A) (A) (A) (A) (A) (A) (A) (A) (A) (A) (A)
                 (A) (A) (A) (A) (A) (A) (A) (A) (A) (A) (A) (A)
                 (A) (A) (A) (A) (A) (A) (A) (A) (A) (A) (A) (A)
                 (A) (A) (A) (A) (A) (A) (A) (A) (A) (A) (A) (A)
                 (A) (A) (A) (A) (A) (A) (A) (A) (A) (A) (A) (A)
                 (A) (A) (A) (A) (A) (A) (A) (A) (A) (A) (A) (A)
                 (A) (A) (A) (A) (A) (A) (A) (A) (A) (A) (A) (A)
                 (A) (A) (A) (A) (A) (A) (A) (A) (A) (A) (A) (A)
                 (A) (A) (A) (A) (A) (A) (A) (A) (A) (A) (A) (A)
                 (A) (A) (A) (A) (A) (A) (A) (A) (A) (A) (A) (A)
                 (A) (A) (A) (A) (A) (A) (A) (A) (A) (A) (A) (A)
                 (A) (A) (A) (A) (A) (A) (A) (A) (A) (A) (A) (A)
                 (A) (A) (A) (A) (A) (A) (A) (A) (A) (A) (A) (A)
                 (A) (A) (A) (A) (A) (A) (A) (A) (A) (A) (A) (A)
                 (A) (A) (A) (A) (A) (A) (A) (A) (A) (A) (A) (A)
                 (A) (A) (A) (A) (A) (A) (A) (A) (A) (A) (A) (A)
                 (A) (A) (A) (A) (A) (A) (A) (A) (A) (A) (A) (A)
                 (A) (A) (A) (A) (A) (A) (A) (A) (A) (A) (A) (A)
                 (A) (A) (A) (A) (A) (A) (A) (A) (A)
 The electronic state of the initial guess is 1-A.
 Requested convergence on RMS density matrix=1.00D-08 within 128 cycles.
 Requested convergence on MAX density matrix=1.00D-06.
 Requested convergence on             energy=1.00D-06.
 No special actions if energy rises.
 FoFJK:  IHMeth= 1 ICntrl=     0 DoSepK=T KAlg= 1 I1Cent= 0 FoldK=F
 FoFJK:  IHMeth= 1 ICntrl=     0 DoSepK=T KAlg= 1 I1Cent= 0 FoldK=F
 FoFJK:  IHMeth= 1 ICntrl=     0 DoSepK=T KAlg= 1 I1Cent= 0 FoldK=F
 FoFJK:  IHMeth= 1 ICntrl=     0 DoSepK=T KAlg= 1 I1Cent= 0 FoldK=F
 FoFJK:  IHMeth= 1 ICntrl=     0 DoSepK=T KAlg= 1 I1Cent= 0 FoldK=F
 FoFJK:  IHMeth= 1 ICntrl=     0 DoSepK=T KAlg= 1 I1Cent= 0 FoldK=F
 FoFJK:  IHMeth= 1 ICntrl=     0 DoSepK=T KAlg= 1 I1Cent= 0 FoldK=F
 FoFJK:  IHMeth= 1 ICntrl=     0 DoSepK=T KAlg= 1 I1Cent= 0 FoldK=F
 FoFJK:  IHMeth= 1 ICntrl=     0 DoSepK=T KAlg= 1 I1Cent= 0 FoldK=F
 FoFJK:  IHMeth= 1 ICntrl=     0 DoSepK=T KAlg= 1 I1Cent= 0 FoldK=F
 FoFJK:  IHMeth= 1 ICntrl=     0 DoSepK=T KAlg= 1 I1Cent= 0 FoldK=F
 FoFJK:  IHMeth= 1 ICntrl=     0 DoSepK=T KAlg= 1 I1Cent= 0 FoldK=F
 FoFJK:  IHMeth= 1 ICntrl=     0 DoSepK=T KAlg= 1 I1Cent= 0 FoldK=F
 FoFJK:  IHMeth= 1 ICntrl=     0 DoSepK=T KAlg= 1 I1Cent= 0 FoldK=F
 FoFJK:  IHMeth= 1 ICntrl=     0 DoSepK=T KAlg= 1 I1Cent= 0 FoldK=F
 Error on total polarization charges =  0.04097
 SCF Done:  E(RwB97XD) =  -692.447771246     A.U. after   15 cycles
             Convg  =    0.8376D-08             -V/T =  2.0096
 SMD-CDS (non-electrostatic) energy       (kcal/mol) =      -4.09
 (included in total energy above)
 Range of M.O.s used for correlation:     1   365
 NBasis=   365 NAE=    56 NBE=    56 NFC=     0 NFV=     0
 NROrb=    365 NOA=    56 NOB=    56 NVA=   309 NVB=   309

 **** Warning!!: The largest alpha MO coefficient is  0.14192643D+03

 NEqPCM:  Using equilibrium solvation (IEInf=0, Eps=   4.7113, EpsInf=   2.0906)
          Differentiating once with respect to magnetic field using GIAOs.
          Electric field/nuclear overlap derivatives assumed to be zero.
 FoFCou: FMM=F IPFlag=           0 FMFlag=    10101102 FMFlg1=           0
         NFxFlg=    40000000 DoJE=F BraDBF=F KetDBF=T FulRan=T
         Omega=  0.000000  0.000000  1.000000  0.000000  0.000000 ICntrl=    6100 IOpCl=  0
         NMat0=    1 NMatS0=    1 NMatT0=    0 NMatD0=    1 NMtDS0=    0 NMtDT0=    0
         I1Cent=           7 NGrid=        2294.
 Symmetry not used in FoFCou.
 FoFJK:  IHMeth= 1 ICntrl=  6127 DoSepK=T KAlg= 1 I1Cent= 0 FoldK=F
 FoFJK:  IHMeth= 1 ICntrl=     0 DoSepK=T KAlg= 1 I1Cent= 0 FoldK=F
          There are     3 degrees of freedom in the 1st order CPHF.  IDoFFX=0.
      3 vectors produced by pass  0 Test12= 5.77D-13 3.33D-08 XBig12= 1.71D+02 3.01D+00.
 AX will form     3 AO Fock derivatives at one time.
 FoFJK:  IHMeth= 1 ICntrl=     0 DoSepK=T KAlg= 1 I1Cent= 0 FoldK=F
      3 vectors produced by pass  1 Test12= 5.77D-13 3.33D-08 XBig12= 1.47D+00 3.31D-01.
 FoFJK:  IHMeth= 1 ICntrl=     0 DoSepK=T KAlg= 1 I1Cent= 0 FoldK=F
      3 vectors produced by pass  2 Test12= 5.77D-13 3.33D-08 XBig12= 3.16D-02 6.07D-02.
 FoFJK:  IHMeth= 1 ICntrl=     0 DoSepK=T KAlg= 1 I1Cent= 0 FoldK=F
      3 vectors produced by pass  3 Test12= 5.77D-13 3.33D-08 XBig12= 4.69D-04 4.73D-03.
 FoFJK:  IHMeth= 1 ICntrl=     0 DoSepK=T KAlg= 1 I1Cent= 0 FoldK=F
      3 vectors produced by pass  4 Test12= 5.77D-13 3.33D-08 XBig12= 6.44D-06 5.02D-04.
 FoFJK:  IHMeth= 1 ICntrl=     0 DoSepK=T KAlg= 1 I1Cent= 0 FoldK=F
      3 vectors produced by pass  5 Test12= 5.77D-13 3.33D-08 XBig12= 8.47D-08 4.86D-05.
 FoFJK:  IHMeth= 1 ICntrl=     0 DoSepK=T KAlg= 1 I1Cent= 0 FoldK=F
      3 vectors produced by pass  6 Test12= 5.77D-13 3.33D-08 XBig12= 8.97D-10 7.39D-06.
 FoFJK:  IHMeth= 1 ICntrl=     0 DoSepK=T KAlg= 1 I1Cent= 0 FoldK=F
      3 vectors produced by pass  7 Test12= 5.77D-13 3.33D-08 XBig12= 1.03D-11 7.29D-07.
 FoFJK:  IHMeth= 1 ICntrl=     0 DoSepK=T KAlg= 1 I1Cent= 0 FoldK=F
      3 vectors produced by pass  8 Test12= 5.77D-13 3.33D-08 XBig12= 1.27D-13 8.99D-08.
 FoFJK:  IHMeth= 1 ICntrl=     0 DoSepK=T KAlg= 1 I1Cent= 0 FoldK=F
 Inverted reduced A of dimension    27 with in-core refinement.
 Calculating GIAO nuclear magnetic shielding tensors.
 SCF GIAO Magnetic shielding tensor (ppm):
      1  C    Isotropic =    69.7170   Anisotropy =   161.9615
   XX=    64.9316   YX=   -44.3604   ZX=    22.0715
   XY=   -34.6287   YY=   162.6050   ZY=    24.2184
   XZ=    24.5290   YZ=    23.0671   ZZ=   -18.3857
   Eigenvalues:   -30.3618    61.8215   177.6914
      2  C    Isotropic =    69.6395   Anisotropy =   176.7708
   XX=    62.6387   YX=   -48.4117   ZX=    22.6657
   XY=   -47.6195   YY=   168.0436   ZY=    24.0302
   XZ=    24.4119   YZ=    22.3618   ZZ=   -21.7637
   Eigenvalues:   -34.2855    55.7173   187.4867
      3  C    Isotropic =    70.3987   Anisotropy =   172.5672
   XX=    41.0815   YX=   -50.6860   ZX=   -44.9765
   XY=   -49.1168   YY=   167.2130   ZY=    -2.0939
   XZ=   -45.2101   YZ=    -3.3681   ZZ=     2.9016
   Eigenvalues:   -31.8307    57.5833   185.4435
      4  C    Isotropic =    54.2103   Anisotropy =   185.4817
   XX=   -10.2904   YX=   -64.9354   ZX=    -1.5901
   XY=   -71.1402   YY=   151.8327   ZY=    15.0851
   XZ=     2.4900   YZ=    15.1788   ZZ=    21.0887
   Eigenvalues:   -35.6215    20.3878   177.8648
      5  C    Isotropic =    72.6582   Anisotropy =   180.3049
   XX=    42.8287   YX=   -53.3087   ZX=   -39.7343
   XY=   -49.0439   YY=   174.7931   ZY=    -1.7932
   XZ=   -41.3427   YZ=    -4.7781   ZZ=     0.3529
   Eigenvalues:   -28.8107    53.9239   192.8615
      6  C    Isotropic =    71.8922   Anisotropy =   176.5251
   XX=    -1.4163   YX=   -70.9935   ZX=     6.8587
   XY=   -73.0488   YY=   161.9007   ZY=    10.2358
   XZ=     7.1639   YZ=    11.6971   ZZ=    55.1921
   Eigenvalues:   -29.9229    56.0238   189.5756
      7  C    Isotropic =   118.4221   Anisotropy =    32.0821
   XX=   114.4075   YX=     0.6377   ZX=     6.4630
   XY=     2.7244   YY=   122.2953   ZY=    17.1824
   XZ=     7.6048   YZ=    18.5404   ZZ=   118.5635
   Eigenvalues:   101.1090   114.3471   139.8102
      8  C    Isotropic =   145.4918   Anisotropy =    36.0163
   XX=   166.5358   YX=   -14.7969   ZX=     0.1181
   XY=    -5.2720   YY=   135.4917   ZY=     1.1850
   XZ=     0.2861   YZ=     3.3574   ZZ=   134.4478
   Eigenvalues:   131.0553   135.9174   169.5026
      9  C    Isotropic =    16.4101   Anisotropy =   102.4541
   XX=   -53.9007   YX=    13.9464   ZX=   -12.4621
   XY=    43.0567   YY=    32.5411   ZY=    28.1285
   XZ=   -25.8133   YZ=    25.8584   ZZ=    70.5898
   Eigenvalues:   -67.5200    32.0374    84.7128
     10  O    Isotropic =   131.0419   Anisotropy =   172.4052
   XX=   123.9463   YX=   -71.7766   ZX=    31.6422
   XY=  -202.9172   YY=    75.1329   ZY=    43.5961
   XZ=    83.0213   YZ=    45.1325   ZZ=   194.0465
   Eigenvalues:   -59.7843   206.9313   245.9787
     11  C    Isotropic =   136.5263   Anisotropy =    58.8121
   XX=   169.7476   YX=    21.3681   ZX=    -6.9681
   XY=    11.9913   YY=   124.1107   ZY=    -4.0939
   XZ=    -2.4943   YZ=    -3.5977   ZZ=   115.7206
   Eigenvalues:   114.1340   119.7105   175.7344
     12  O    Isotropic =   283.2848   Anisotropy =    42.9019
   XX=   291.1578   YX=    24.5838   ZX=    -1.8286
   XY=    22.1184   YY=   282.7167   ZY=    15.6348
   XZ=    -6.7156   YZ=    14.0207   ZZ=   275.9799
   Eigenvalues:   253.8946   284.0737   311.8861
     13  C    Isotropic =   181.4688   Anisotropy =    21.9614
   XX=   182.1847   YX=    -0.9122   ZX=     3.4778
   XY=    -3.3339   YY=   186.1706   ZY=    12.2156
   XZ=     4.7395   YZ=    15.9606   ZZ=   176.0510
   Eigenvalues:   164.9244   183.3722   196.1097
     14  O    Isotropic =   -38.3933   Anisotropy =   545.3149
   XX=  -164.4934   YX=    13.8045   ZX=   -22.9608
   XY=    30.0680   YY=  -179.1258   ZY=   229.7087
   XZ=   -47.8068   YZ=   208.8324   ZZ=   228.4392
   Eigenvalues:  -284.5330  -155.7969   325.1500
     15  C    Isotropic =   182.5777   Anisotropy =    23.1239
   XX=   191.1383   YX=    -3.5235   ZX=     2.8673
   XY=   -10.3797   YY=   184.2546   ZY=    -8.1227
   XZ=     5.9263   YZ=    -7.6789   ZZ=   172.3403
   Eigenvalues:   168.3666   181.3729   197.9937
     16  H    Isotropic =    23.7929   Anisotropy =     8.0144
   XX=    27.6307   YX=     1.4307   ZX=     2.7782
   XY=     1.6252   YY=    20.5034   ZY=    -0.3420
   XZ=     2.6964   YZ=    -0.1295   ZZ=    23.2446
   Eigenvalues:    19.9393    22.3036    29.1359
     17  H    Isotropic =    23.6706   Anisotropy =     5.0289
   XX=    26.3656   YX=     2.0090   ZX=     0.4495
   XY=     1.7905   YY=    20.8373   ZY=     0.0788
   XZ=     0.4596   YZ=     0.1385   ZZ=    23.8088
   Eigenvalues:    20.2471    23.7414    27.0231
     18  H    Isotropic =    23.8765   Anisotropy =     4.6805
   XX=    25.8459   YX=     1.7216   ZX=    -0.9875
   XY=     1.8508   YY=    21.2136   ZY=    -0.8230
   XZ=    -0.8580   YZ=    -0.8207   ZZ=    24.5701
   Eigenvalues:    20.5443    24.0884    26.9969
     19  H    Isotropic =    23.3952   Anisotropy =     9.8150
   XX=    25.9098   YX=     2.1922   ZX=    -4.3289
   XY=     2.4941   YY=    19.9431   ZY=    -1.1424
   XZ=    -3.7642   YZ=    -1.4462   ZZ=    24.3325
   Eigenvalues:    19.1295    21.1175    29.9385
     20  H    Isotropic =    23.7588   Anisotropy =     4.1397
   XX=    24.1697   YX=     1.1622   ZX=     0.3512
   XY=     1.1876   YY=    20.6515   ZY=    -0.3420
   XZ=     0.4003   YZ=    -0.3005   ZZ=    26.4551
   Eigenvalues:    20.2671    24.4906    26.5186
     21  H    Isotropic =    26.6772   Anisotropy =     4.8277
   XX=    25.6333   YX=     0.7804   ZX=     1.9330
   XY=     2.0258   YY=    25.3762   ZY=     0.4976
   XZ=     1.8039   YZ=    -0.7874   ZZ=    29.0222
   Eigenvalues:    23.7069    26.4291    29.8957
     22  H    Isotropic =    28.7392   Anisotropy =     3.8553
   XX=    29.9095   YX=     0.1875   ZX=    -0.2106
   XY=    -3.1375   YY=    25.2284   ZY=    -1.3156
   XZ=    -0.6815   YZ=    -0.8831   ZZ=    31.0798
   Eigenvalues:    24.5878    30.3204    31.3094
     23  H    Isotropic =    27.4514   Anisotropy =     6.3133
   XX=    29.4907   YX=     1.9261   ZX=     2.2727
   XY=     0.3917   YY=    29.5413   ZY=     1.8054
   XZ=     2.2686   YZ=     1.7492   ZZ=    23.3221
   Eigenvalues:    22.3203    28.3736    31.6602
     24  H    Isotropic =    27.4618   Anisotropy =     6.4764
   XX=    29.9508   YX=     0.1101   ZX=    -2.6856
   XY=    -1.0109   YY=    24.0766   ZY=    -3.1291
   XZ=    -1.6805   YZ=    -2.9219   ZZ=    28.3580
   Eigenvalues:    22.2420    28.3640    31.7794
     25  H    Isotropic =    28.0051   Anisotropy =    18.0717
   XX=    32.0659   YX=     6.9785   ZX=    -6.3732
   XY=     8.1143   YY=    30.4461   ZY=    -0.6444
   XZ=    -6.1232   YZ=     0.8178   ZZ=    21.5033
   Eigenvalues:    17.5659    26.3965    40.0529
     26  H    Isotropic =    30.4338   Anisotropy =     9.8173
   XX=    32.5757   YX=    -3.1447   ZX=     1.5437
   XY=    -5.2814   YY=    32.9473   ZY=     0.5681
   XZ=     0.9830   YZ=     1.8072   ZZ=    25.7785
   Eigenvalues:    24.9436    29.3792    36.9787
     27  H    Isotropic =    31.2040   Anisotropy =     6.5754
   XX=    34.8599   YX=     2.9750   ZX=    -1.7035
   XY=    -0.2568   YY=    33.0276   ZY=     1.6527
   XZ=    -0.3541   YZ=     1.3398   ZZ=    25.7244
   Eigenvalues:    25.2584    32.7660    35.5876
     28  H    Isotropic =    30.8231   Anisotropy =     8.4245
   XX=    28.3779   YX=     0.0508   ZX=     0.1108
   XY=    -1.6691   YY=    28.1341   ZY=     2.9114
   XZ=     0.4741   YZ=     1.0859   ZZ=    35.9573
   Eigenvalues:    27.0864    28.9434    36.4394
     29  H    Isotropic =    30.2920   Anisotropy =     8.4431
   XX=    28.5569   YX=    -1.4383   ZX=     0.9074
   XY=    -0.9019   YY=    27.5170   ZY=    -3.1281
   XZ=     0.6847   YZ=    -2.4450   ZZ=    34.8020
   Eigenvalues:    26.2400    28.7152    35.9207
     30  H    Isotropic =    30.3530   Anisotropy =    10.9090
   XX=    37.5563   YX=     1.1287   ZX=     0.1077
   XY=     0.5450   YY=    27.2322   ZY=    -0.5827
   XZ=     0.2906   YZ=    -0.5851   ZZ=    26.2707
   Eigenvalues:    25.9695    27.4639    37.6257
     31  H    Isotropic =    30.3086   Anisotropy =     8.1717
   XX=    28.7550   YX=    -1.9613   ZX=     0.6242
   XY=    -1.6148   YY=    34.2891   ZY=     3.2779
   XZ=     0.2244   YZ=     2.5718   ZZ=    27.8817
   Eigenvalues:    26.2630    28.9064    35.7564
 End of Minotr Frequency-dependent properties file   721 does not exist.
 End of Minotr Frequency-dependent properties file   722 does not exist.

 **********************************************************************

            Population analysis using the SCF density.

 **********************************************************************

 Orbital symmetries:
       Occupied  (A) (A) (A) (A) (A) (A) (A) (A) (A) (A) (A) (A)
                 (A) (A) (A) (A) (A) (A) (A) (A) (A) (A) (A) (A)
                 (A) (A) (A) (A) (A) (A) (A) (A) (A) (A) (A) (A)
                 (A) (A) (A) (A) (A) (A) (A) (A) (A) (A) (A) (A)
                 (A) (A) (A) (A) (A) (A) (A) (A)
       Virtual   (A) (A) (A) (A) (A) (A) (A) (A) (A) (A) (A) (A)
                 (A) (A) (A) (A) (A) (A) (A) (A) (A) (A) (A) (A)
                 (A) (A) (A) (A) (A) (A) (A) (A) (A) (A) (A) (A)
                 (A) (A) (A) (A) (A) (A) (A) (A) (A) (A) (A) (A)
                 (A) (A) (A) (A) (A) (A) (A) (A) (A) (A) (A) (A)
                 (A) (A) (A) (A) (A) (A) (A) (A) (A) (A) (A) (A)
                 (A) (A) (A) (A) (A) (A) (A) (A) (A) (A) (A) (A)
                 (A) (A) (A) (A) (A) (A) (A) (A) (A) (A) (A) (A)
                 (A) (A) (A) (A) (A) (A) (A) (A) (A) (A) (A) (A)
                 (A) (A) (A) (A) (A) (A) (A) (A) (A) (A) (A) (A)
                 (A) (A) (A) (A) (A) (A) (A) (A) (A) (A) (A) (A)
                 (A) (A) (A) (A) (A) (A) (A) (A) (A) (A) (A) (A)
                 (A) (A) (A) (A) (A) (A) (A) (A) (A) (A) (A) (A)
                 (A) (A) (A) (A) (A) (A) (A) (A) (A) (A) (A) (A)
                 (A) (A) (A) (A) (A) (A) (A) (A) (A) (A) (A) (A)
                 (A) (A) (A) (A) (A) (A) (A) (A) (A) (A) (A) (A)
                 (A) (A) (A) (A) (A) (A) (A) (A) (A) (A) (A) (A)
                 (A) (A) (A) (A) (A) (A) (A) (A) (A) (A) (A) (A)
                 (A) (A) (A) (A) (A) (A) (A) (A) (A) (A) (A) (A)
                 (A) (A) (A) (A) (A) (A) (A) (A) (A) (A) (A) (A)
                 (A) (A) (A) (A) (A) (A) (A) (A) (A) (A) (A) (A)
                 (A) (A) (A) (A) (A) (A) (A) (A) (A) (A) (A) (A)
                 (A) (A) (A) (A) (A) (A) (A) (A) (A) (A) (A) (A)
                 (A) (A) (A) (A) (A) (A) (A) (A) (A) (A) (A) (A)
                 (A) (A) (A) (A) (A) (A) (A) (A) (A) (A) (A) (A)
                 (A) (A) (A) (A) (A) (A) (A) (A) (A)
 The electronic state is 1-A.
 Alpha  occ. eigenvalues --  -19.33130 -19.28360 -19.27563 -10.44477 -10.35664
 Alpha  occ. eigenvalues --  -10.35232 -10.31957 -10.31407 -10.30604 -10.30558
 Alpha  occ. eigenvalues --  -10.30526 -10.30477 -10.30409 -10.29335 -10.28947
 Alpha  occ. eigenvalues --   -1.21521  -1.13535  -1.11975  -0.96091  -0.91467
 Alpha  occ. eigenvalues --   -0.87150  -0.85081  -0.84597  -0.77303  -0.75948
 Alpha  occ. eigenvalues --   -0.71252  -0.70097  -0.67286  -0.65605  -0.61647
 Alpha  occ. eigenvalues --   -0.59733  -0.59157  -0.58385  -0.57659  -0.54203
 Alpha  occ. eigenvalues --   -0.53478  -0.52908  -0.51072  -0.50687  -0.50160
 Alpha  occ. eigenvalues --   -0.49330  -0.47668  -0.47552  -0.46073  -0.45427
 Alpha  occ. eigenvalues --   -0.44395  -0.43845  -0.43417  -0.43283  -0.42210
 Alpha  occ. eigenvalues --   -0.41100  -0.39086  -0.37161  -0.35769  -0.33172
 Alpha  occ. eigenvalues --   -0.32630
 Alpha virt. eigenvalues --    0.05120   0.05458   0.06146   0.07311   0.07921
 Alpha virt. eigenvalues --    0.08248   0.08502   0.09494   0.09912   0.10263
 Alpha virt. eigenvalues --    0.10843   0.11092   0.11571   0.12134   0.12626
 Alpha virt. eigenvalues --    0.12895   0.13603   0.13817   0.14721   0.14912
 Alpha virt. eigenvalues --    0.16002   0.16377   0.16792   0.17369   0.18320
 Alpha virt. eigenvalues --    0.18702   0.19047   0.19371   0.19611   0.20118
 Alpha virt. eigenvalues --    0.20650   0.21166   0.21522   0.22468   0.22721
 Alpha virt. eigenvalues --    0.22932   0.23129   0.23819   0.24450   0.25155
 Alpha virt. eigenvalues --    0.25731   0.25975   0.26182   0.27200   0.27395
 Alpha virt. eigenvalues --    0.27594   0.28168   0.28542   0.29192   0.29382
 Alpha virt. eigenvalues --    0.29588   0.30018   0.30340   0.31194   0.31565
 Alpha virt. eigenvalues --    0.31901   0.32063   0.32233   0.32896   0.33015
 Alpha virt. eigenvalues --    0.33775   0.34433   0.34782   0.35055   0.35730
 Alpha virt. eigenvalues --    0.36130   0.36741   0.37445   0.37959   0.38194
 Alpha virt. eigenvalues --    0.39015   0.39385   0.39984   0.40976   0.41115
 Alpha virt. eigenvalues --    0.41671   0.42268   0.43151   0.43329   0.43842
 Alpha virt. eigenvalues --    0.45387   0.45699   0.46673   0.47276   0.48244
 Alpha virt. eigenvalues --    0.48702   0.49264   0.50593   0.52498   0.54002
 Alpha virt. eigenvalues --    0.54538   0.56403   0.60069   0.66551   0.70135
 Alpha virt. eigenvalues --    0.72993   0.74104   0.75424   0.75742   0.76428
 Alpha virt. eigenvalues --    0.76836   0.77810   0.78106   0.79499   0.80686
 Alpha virt. eigenvalues --    0.81525   0.82649   0.83616   0.83735   0.84331
 Alpha virt. eigenvalues --    0.85112   0.86113   0.87007   0.88373   0.89646
 Alpha virt. eigenvalues --    0.89878   0.91063   0.91704   0.92438   0.95451
 Alpha virt. eigenvalues --    0.97450   0.99933   1.00321   1.00677   1.01779
 Alpha virt. eigenvalues --    1.01905   1.02589   1.05424   1.06783   1.07291
 Alpha virt. eigenvalues --    1.08603   1.09613   1.09980   1.11135   1.11947
 Alpha virt. eigenvalues --    1.13856   1.14687   1.17297   1.18670   1.19645
 Alpha virt. eigenvalues --    1.19810   1.21325   1.22230   1.22539   1.23518
 Alpha virt. eigenvalues --    1.25574   1.26476   1.26897   1.27675   1.29470
 Alpha virt. eigenvalues --    1.31199   1.32711   1.34170   1.35618   1.36987
 Alpha virt. eigenvalues --    1.38689   1.39580   1.41693   1.42933   1.43241
 Alpha virt. eigenvalues --    1.44401   1.46679   1.48094   1.48802   1.49367
 Alpha virt. eigenvalues --    1.50241   1.51198   1.52878   1.53893   1.55579
 Alpha virt. eigenvalues --    1.56974   1.57645   1.60448   1.63724   1.65463
 Alpha virt. eigenvalues --    1.67206   1.67927   1.74642   1.74849   1.76350
 Alpha virt. eigenvalues --    1.77744   1.81139   1.82445   1.84391   1.85681
 Alpha virt. eigenvalues --    1.87885   1.91274   1.92177   1.94932   1.95522
 Alpha virt. eigenvalues --    1.96557   1.98148   1.99021   2.00062   2.01704
 Alpha virt. eigenvalues --    2.01963   2.02803   2.04326   2.04822   2.06308
 Alpha virt. eigenvalues --    2.06831   2.08061   2.08361   2.09634   2.10389
 Alpha virt. eigenvalues --    2.11949   2.13586   2.13701   2.16220   2.16981
 Alpha virt. eigenvalues --    2.18540   2.19598   2.20160   2.20903   2.21470
 Alpha virt. eigenvalues --    2.23807   2.24445   2.25808   2.27323   2.30029
 Alpha virt. eigenvalues --    2.30380   2.36483   2.38590   2.39326   2.40788
 Alpha virt. eigenvalues --    2.42320   2.42810   2.43575   2.46190   2.48313
 Alpha virt. eigenvalues --    2.49260   2.50651   2.52248   2.52937   2.54497
 Alpha virt. eigenvalues --    2.56332   2.57266   2.59167   2.61704   2.62282
 Alpha virt. eigenvalues --    2.63161   2.64429   2.66573   2.68254   2.68710
 Alpha virt. eigenvalues --    2.69147   2.70946   2.72392   2.73667   2.74398
 Alpha virt. eigenvalues --    2.76753   2.79092   2.81241   2.81978   2.83356
 Alpha virt. eigenvalues --    2.83546   2.84263   2.86685   2.87951   2.88002
 Alpha virt. eigenvalues --    2.90429   2.92811   2.93750   2.95614   2.98902
 Alpha virt. eigenvalues --    2.99661   3.00691   3.03149   3.06342   3.08970
 Alpha virt. eigenvalues --    3.14960   3.16070   3.16758   3.18702   3.28382
 Alpha virt. eigenvalues --    3.28660   3.30894   3.36074   3.37205   3.38556
 Alpha virt. eigenvalues --    3.38734   3.43792   3.44972   3.48541   3.49426
 Alpha virt. eigenvalues --    3.54344   3.58467   3.59515   3.60983   3.62582
 Alpha virt. eigenvalues --    3.63420   3.65284   3.67637   3.99960   4.38896
 Alpha virt. eigenvalues --    4.41326   4.42467   4.46065   4.52518   4.54525
 Alpha virt. eigenvalues --    4.57788   4.60225   4.65577   4.65937   4.70767
 Alpha virt. eigenvalues --    4.77585   4.79821   4.93341   4.97628
          Condensed to atoms (all electrons):
              1          2          3          4          5          6
     1  C   15.441754  -0.221777  -1.700442  -5.014880  -6.800431   0.101127
     2  C   -0.221777   6.504774   0.148627   0.088741  -0.630841   0.281199
     3  C   -1.700442   0.148627   6.772157   0.789098   0.394534   0.395645
     4  C   -5.014880   0.088741   0.789098  13.523585   0.675720  -0.596235
     5  C   -6.800431  -0.630841   0.394534   0.675720  14.847771   0.356454
     6  C    0.101127   0.281199   0.395645  -0.596235   0.356454   5.345581
     7  C    4.956191  -0.327639  -0.959961  -4.376907  -3.860339  -0.003905
     8  C   -1.373555   0.181584   0.110038   0.765249   1.404006  -0.039499
     9  C    0.625173  -0.059447  -0.013147  -0.407960  -0.694085  -0.000813
    10  O    0.003149  -0.000174  -0.000811  -0.011527  -0.006413   0.000143
    11  C    0.014210  -0.003116   0.001117  -0.006437  -0.023194  -0.000262
    12  O   -0.046441   0.069589  -0.029807   0.120969  -0.064068  -0.005080
    13  C   -0.139672  -0.036673   0.006779   0.154510   0.163815   0.022914
    14  O   -0.028025   0.002048  -0.001147   0.042739   0.031872  -0.000166
    15  C    0.001557   0.000190  -0.000013   0.002466  -0.002247   0.000000
    16  H    0.237479   0.002266   0.031729   0.062724   0.001952  -0.006912
    17  H    0.010306   0.274349  -0.005387   0.028686   0.006713   0.009823
    18  H    0.049467  -0.000064   0.261382   0.009545  -0.008280   0.016777
    19  H    0.043405  -0.038363  -0.006370   0.041934   0.208835  -0.012859
    20  H   -0.006702   0.022250   0.029800   0.004786  -0.006978   0.281948
    21  H    0.115804   0.000096   0.056389  -0.065765  -0.123677  -0.004548
    22  H    0.035273  -0.008136   0.003371  -0.003368  -0.052040  -0.001698
    23  H    0.000081  -0.000023   0.000000   0.001164  -0.000350   0.000000
    24  H   -0.000257   0.000019  -0.000006  -0.000238   0.000286  -0.000001
    25  H    0.005781  -0.010014   0.002767   0.011688   0.011139   0.000647
    26  H    0.007868  -0.001277  -0.002266  -0.019951  -0.009522   0.000163
    27  H   -0.006874  -0.005884   0.002243   0.043625   0.028720   0.005675
    28  H    0.030488  -0.002277   0.004265  -0.029577  -0.003838   0.001006
    29  H   -0.000007   0.000007   0.000000   0.000040   0.000034   0.000000
    30  H    0.000000   0.000000   0.000000   0.000014  -0.000003   0.000000
    31  H    0.000006  -0.000002  -0.000001   0.000040  -0.000024   0.000000
              7          8          9         10         11         12
     1  C    4.956191  -1.373555   0.625173   0.003149   0.014210  -0.046441
     2  C   -0.327639   0.181584  -0.059447  -0.000174  -0.003116   0.069589
     3  C   -0.959961   0.110038  -0.013147  -0.000811   0.001117  -0.029807
     4  C   -4.376907   0.765249  -0.407960  -0.011527  -0.006437   0.120969
     5  C   -3.860339   1.404006  -0.694085  -0.006413  -0.023194  -0.064068
     6  C   -0.003905  -0.039499  -0.000813   0.000143  -0.000262  -0.005080
     7  C   12.075472  -2.416494   0.888461   0.157399  -0.004049   0.016757
     8  C   -2.416494  10.123921  -1.747144  -0.409184  -0.194120  -0.073215
     9  C    0.888461  -1.747144   6.460884   0.317887  -0.058742  -0.000627
    10  O    0.157399  -0.409184   0.317887   8.514850  -0.031950  -0.007352
    11  C   -0.004049  -0.194120  -0.058742  -0.031950   5.392455   0.004603
    12  O    0.016757  -0.073215  -0.000627  -0.007352   0.004603   8.324424
    13  C   -0.252406  -0.501976   0.007211   0.007198   0.049275   0.060129
    14  O   -0.066226   0.140113   0.356453  -0.131924  -0.063241   0.005570
    15  C    0.005604  -0.032465   0.033727  -0.013951   0.120813  -0.000162
    16  H   -0.011610   0.005258  -0.012097   0.000009  -0.000142  -0.000092
    17  H    0.002529  -0.000666   0.000297   0.000000   0.000000  -0.000031
    18  H   -0.002157  -0.000219   0.000051   0.000000   0.000000   0.000008
    19  H    0.076014  -0.010074   0.022993   0.000005   0.000045   0.000651
    20  H    0.001563  -0.000254  -0.000047   0.000000   0.000000  -0.000001
    21  H    0.287628   0.051519   0.020925  -0.001429   0.003302  -0.046238
    22  H    0.002635   0.405668  -0.008912  -0.004107   0.001097  -0.003436
    23  H    0.003166  -0.018668   0.000918  -0.041948   0.402878  -0.000046
    24  H    0.001520  -0.015952  -0.002777  -0.042263   0.401059   0.000003
    25  H    0.045936  -0.075769   0.016059   0.000777  -0.000511   0.229954
    26  H    0.057475  -0.184170   0.053993   0.007341   0.004142  -0.000585
    27  H   -0.060174  -0.070789  -0.016609   0.000090  -0.000016  -0.000145
    28  H   -0.024946   0.035878  -0.024564  -0.002487  -0.002591   0.000104
    29  H    0.000183  -0.005071   0.004553  -0.003734  -0.061822   0.000004
    30  H    0.000048  -0.000047   0.002703   0.006707  -0.056619   0.000000
    31  H    0.000490  -0.006438   0.002844  -0.002915  -0.061837  -0.000002
             13         14         15         16         17         18
     1  C   -0.139672  -0.028025   0.001557   0.237479   0.010306   0.049467
     2  C   -0.036673   0.002048   0.000190   0.002266   0.274349  -0.000064
     3  C    0.006779  -0.001147  -0.000013   0.031729  -0.005387   0.261382
     4  C    0.154510   0.042739   0.002466   0.062724   0.028686   0.009545
     5  C    0.163815   0.031872  -0.002247   0.001952   0.006713  -0.008280
     6  C    0.022914  -0.000166   0.000000  -0.006912   0.009823   0.016777
     7  C   -0.252406  -0.066226   0.005604  -0.011610   0.002529  -0.002157
     8  C   -0.501976   0.140113  -0.032465   0.005258  -0.000666  -0.000219
     9  C    0.007211   0.356453   0.033727  -0.012097   0.000297   0.000051
    10  O    0.007198  -0.131924  -0.013951   0.000009   0.000000   0.000000
    11  C    0.049275  -0.063241   0.120813  -0.000142   0.000000   0.000000
    12  O    0.060129   0.005570  -0.000162  -0.000092  -0.000031   0.000008
    13  C    5.855966  -0.049003  -0.010648   0.006521  -0.000093   0.000010
    14  O   -0.049003   8.269654   0.012851   0.000040   0.000000   0.000000
    15  C   -0.010648   0.012851   5.314223  -0.000005   0.000000   0.000000
    16  H    0.006521   0.000040  -0.000005   0.509270   0.000011  -0.003915
    17  H   -0.000093   0.000000   0.000000   0.000011   0.497005  -0.000122
    18  H    0.000010   0.000000   0.000000  -0.003915  -0.000122   0.497469
    19  H   -0.006935  -0.000040   0.000039  -0.000111  -0.004009   0.000011
    20  H    0.000015   0.000000   0.000000  -0.000121  -0.003836  -0.003880
    21  H   -0.023343  -0.002351   0.000200   0.001903   0.000002  -0.000006
    22  H   -0.058652   0.002347   0.000442  -0.000008   0.000002   0.000000
    23  H    0.001067   0.003677  -0.020310   0.000000   0.000000   0.000000
    24  H   -0.001283   0.001967  -0.010825   0.000000   0.000000   0.000000
    25  H    0.000997   0.011240  -0.000336  -0.000003   0.000000   0.000000
    26  H    0.444133  -0.000313   0.001970   0.000006   0.000000   0.000000
    27  H    0.442858  -0.000206  -0.000060  -0.000133  -0.000002  -0.000005
    28  H    0.370476   0.000700   0.000439  -0.000161   0.000000   0.000000
    29  H    0.000002  -0.000133   0.428781   0.000000   0.000000   0.000000
    30  H    0.000004   0.000118   0.414027   0.000000   0.000000   0.000000
    31  H    0.000502  -0.000076   0.430581   0.000000   0.000000   0.000000
             19         20         21         22         23         24
     1  C    0.043405  -0.006702   0.115804   0.035273   0.000081  -0.000257
     2  C   -0.038363   0.022250   0.000096  -0.008136  -0.000023   0.000019
     3  C   -0.006370   0.029800   0.056389   0.003371   0.000000  -0.000006
     4  C    0.041934   0.004786  -0.065765  -0.003368   0.001164  -0.000238
     5  C    0.208835  -0.006978  -0.123677  -0.052040  -0.000350   0.000286
     6  C   -0.012859   0.281948  -0.004548  -0.001698   0.000000  -0.000001
     7  C    0.076014   0.001563   0.287628   0.002635   0.003166   0.001520
     8  C   -0.010074  -0.000254   0.051519   0.405668  -0.018668  -0.015952
     9  C    0.022993  -0.000047   0.020925  -0.008912   0.000918  -0.002777
    10  O    0.000005   0.000000  -0.001429  -0.004107  -0.041948  -0.042263
    11  C    0.000045   0.000000   0.003302   0.001097   0.402878   0.401059
    12  O    0.000651  -0.000001  -0.046238  -0.003436  -0.000046   0.000003
    13  C   -0.006935   0.000015  -0.023343  -0.058652   0.001067  -0.001283
    14  O   -0.000040   0.000000  -0.002351   0.002347   0.003677   0.001967
    15  C    0.000039   0.000000   0.000200   0.000442  -0.020310  -0.010825
    16  H   -0.000111  -0.000121   0.001903  -0.000008   0.000000   0.000000
    17  H   -0.004009  -0.003836   0.000002   0.000002   0.000000   0.000000
    18  H    0.000011  -0.003880  -0.000006   0.000000   0.000000   0.000000
    19  H    0.504804  -0.000118  -0.000027  -0.000077   0.000000   0.000000
    20  H   -0.000118   0.499763   0.000000   0.000000   0.000000   0.000000
    21  H   -0.000027   0.000000   0.569012   0.003113   0.000000  -0.000003
    22  H   -0.000077   0.000000   0.003113   0.474816   0.000042  -0.000019
    23  H    0.000000   0.000000   0.000000   0.000042   0.528357  -0.033792
    24  H    0.000000   0.000000  -0.000003  -0.000019  -0.033792   0.530023
    25  H    0.000029   0.000000  -0.007911   0.000009  -0.000009   0.000002
    26  H    0.000004   0.000000  -0.000076  -0.002236  -0.000008   0.000039
    27  H    0.000000   0.000000  -0.000033  -0.003899   0.000000  -0.000001
    28  H   -0.000001   0.000000   0.001926   0.003544   0.000001  -0.000006
    29  H    0.000000   0.000000   0.000000  -0.000007  -0.005136   0.003984
    30  H    0.000000   0.000000   0.000000   0.000000  -0.001668  -0.001697
    31  H    0.000000   0.000000   0.000000   0.000003   0.003976  -0.005175
             25         26         27         28         29         30
     1  C    0.005781   0.007868  -0.006874   0.030488  -0.000007   0.000000
     2  C   -0.010014  -0.001277  -0.005884  -0.002277   0.000007   0.000000
     3  C    0.002767  -0.002266   0.002243   0.004265   0.000000   0.000000
     4  C    0.011688  -0.019951   0.043625  -0.029577   0.000040   0.000014
     5  C    0.011139  -0.009522   0.028720  -0.003838   0.000034  -0.000003
     6  C    0.000647   0.000163   0.005675   0.001006   0.000000   0.000000
     7  C    0.045936   0.057475  -0.060174  -0.024946   0.000183   0.000048
     8  C   -0.075769  -0.184170  -0.070789   0.035878  -0.005071  -0.000047
     9  C    0.016059   0.053993  -0.016609  -0.024564   0.004553   0.002703
    10  O    0.000777   0.007341   0.000090  -0.002487  -0.003734   0.006707
    11  C   -0.000511   0.004142  -0.000016  -0.002591  -0.061822  -0.056619
    12  O    0.229954  -0.000585  -0.000145   0.000104   0.000004   0.000000
    13  C    0.000997   0.444133   0.442858   0.370476   0.000002   0.000004
    14  O    0.011240  -0.000313  -0.000206   0.000700  -0.000133   0.000118
    15  C   -0.000336   0.001970  -0.000060   0.000439   0.428781   0.414027
    16  H   -0.000003   0.000006  -0.000133  -0.000161   0.000000   0.000000
    17  H    0.000000   0.000000  -0.000002   0.000000   0.000000   0.000000
    18  H    0.000000   0.000000  -0.000005   0.000000   0.000000   0.000000
    19  H    0.000029   0.000004   0.000000  -0.000001   0.000000   0.000000
    20  H    0.000000   0.000000   0.000000   0.000000   0.000000   0.000000
    21  H   -0.007911  -0.000076  -0.000033   0.001926   0.000000   0.000000
    22  H    0.000009  -0.002236  -0.003899   0.003544  -0.000007   0.000000
    23  H   -0.000009  -0.000008   0.000000   0.000001  -0.005136  -0.001668
    24  H    0.000002   0.000039  -0.000001  -0.000006   0.003984  -0.001697
    25  H    0.356520  -0.000001  -0.000002   0.000022   0.000000   0.000000
    26  H   -0.000001   0.508402  -0.023561  -0.025199   0.000002   0.000000
    27  H   -0.000002  -0.023561   0.499427  -0.023946   0.000000   0.000000
    28  H    0.000022  -0.025199  -0.023946   0.506060   0.000000   0.000000
    29  H    0.000000   0.000002   0.000000   0.000000   0.512830  -0.022488
    30  H    0.000000   0.000000   0.000000   0.000000  -0.022488   0.499580
    31  H    0.000000  -0.000014   0.000000   0.000000  -0.028480  -0.022601
             31
     1  C    0.000006
     2  C   -0.000002
     3  C   -0.000001
     4  C    0.000040
     5  C   -0.000024
     6  C    0.000000
     7  C    0.000490
     8  C   -0.006438
     9  C    0.002844
    10  O   -0.002915
    11  C   -0.061837
    12  O   -0.000002
    13  C    0.000502
    14  O   -0.000076
    15  C    0.430581
    16  H    0.000000
    17  H    0.000000
    18  H    0.000000
    19  H    0.000000
    20  H    0.000000
    21  H    0.000000
    22  H    0.000003
    23  H    0.003976
    24  H   -0.005175
    25  H    0.000000
    26  H   -0.000014
    27  H    0.000000
    28  H    0.000000
    29  H   -0.028480
    30  H   -0.022601
    31  H    0.512899
 Mulliken atomic charges:
              1
     1  C   -0.340056
     2  C   -0.230031
     3  C   -0.290581
     4  C    0.165522
     5  C    0.154479
     6  C   -0.147126
     7  C   -0.212256
     8  C   -0.047466
     9  C    0.231841
    10  O   -0.303387
    11  C    0.173656
    12  O   -0.555437
    13  C   -0.513699
    14  O   -0.538538
    15  C   -0.676891
    16  H    0.176141
    17  H    0.184425
    18  H    0.183929
    19  H    0.180214
    20  H    0.181811
    21  H    0.163585
    22  H    0.214232
    23  H    0.176631
    24  H    0.175392
    25  H    0.400987
    26  H    0.183640
    27  H    0.189699
    28  H    0.184682
    29  H    0.176457
    30  H    0.181923
    31  H    0.176222
 Sum of Mulliken atomic charges =   0.00000
 Mulliken charges with hydrogens summed into heavy atoms:
              1
     1  C   -0.163915
     2  C   -0.045606
     3  C   -0.106651
     4  C    0.165522
     5  C    0.334693
     6  C    0.034684
     7  C   -0.048671
     8  C    0.166766
     9  C    0.231841
    10  O   -0.303387
    11  C    0.525680
    12  O   -0.154450
    13  C    0.044322
    14  O   -0.538538
    15  C   -0.142289
 Sum of Mulliken charges with hydrogens summed into heavy atoms =   0.00000
 Electronic spatial extent (au):  <R**2>=           4499.9260
 Charge=              0.0000 electrons
 Dipole moment (field-independent basis, Debye):
    X=              2.0005    Y=             -2.9383    Z=             -0.7277  Tot=              3.6284
 Quadrupole moment (field-independent basis, Debye-Ang):
   XX=            -72.9616   YY=            -97.2383   ZZ=            -85.2985
   XY=              2.5386   XZ=              3.1262   YZ=             -0.5916
 Traceless Quadrupole moment (field-independent basis, Debye-Ang):
   XX=             12.2046   YY=            -12.0722   ZZ=             -0.1324
   XY=              2.5386   XZ=              3.1262   YZ=             -0.5916
 Octapole moment (field-independent basis, Debye-Ang**2):
  XXX=             71.7269  YYY=              6.1611  ZZZ=              0.4606  XYY=             18.9652
  XXY=            -25.9850  XXZ=              5.1757  XZZ=             -6.2316  YZZ=             -2.5090
  YYZ=             -2.1101  XYZ=             11.4698
 Hexadecapole moment (field-independent basis, Debye-Ang**3):
 XXXX=          -4331.9048 YYYY=           -576.6562 ZZZZ=           -437.1526 XXXY=            104.1429
 XXXZ=             18.5364 YYYX=             -1.6167 YYYZ=             -0.4341 ZZZX=             -3.4345
 ZZZY=             -7.6890 XXYY=           -991.8274 XXZZ=           -857.5098 YYZZ=           -189.1251
 XXYZ=              7.4472 YYXZ=             12.7675 ZZXY=              6.0985
 N-N= 9.862824239877D+02 E-N=-3.584379430987D+03  KE= 6.858948880146D+02
 1\1\GINC-COMPUTE-8-6\SP\RwB97XD\6-31+G(d,p)\C12H16O3\ELUCIANO.IQUIR\17
 -May-2022\0\\# wb97xd/6-31+g** scrf=(pcm,solvent=chloroform,smd,dovacu
 um) nmr\\comment\\0,1\C,0,-1.324539474,-2.877871417,-0.116135987\C,0,-
 3.695940789,-1.639178903,-0.903210205\C,0,-2.548910047,-3.520534307,0.
 07864353\C,0,-1.270976675,-1.604706441,-0.704818859\C,0,-2.472963736,-
 0.995193405,-1.097828828\C,0,-3.733579671,-2.900592747,-0.313278527\C,
 0,0.060714395,-0.902671216,-0.886324427\C,0,0.250100998,0.29292072,0.0
 69146507\C,0,1.603717862,0.923587622,-0.193013765\O,0,1.717548681,2.10
 6013442,0.474988848\C,0,2.962030713,2.786044469,0.269895416\O,0,0.1146
 47031,-0.453768887,-2.245970156\C,0,0.166630226,-0.112205627,1.5418044
 52\O,0,2.465707739,0.448814599,-0.922885017\C,0,2.939097457,4.06835355
 7,1.078453337\H,0,-0.411354235,-3.380019733,0.195148234\H,0,-4.6176838
 33,-1.15773165,-1.218688585\H,0,-2.57786461,-4.507173597,0.533544008\H
 ,0,-2.455620702,-0.01629143,-1.572903522\H,0,-4.685666168,-3.403005884
 ,-0.165163143\H,0,0.871377505,-1.632440197,-0.761219573\H,0,-0.5028319
 7,1.059822139,-0.15542411\H,0,3.08354999,3.020612963,-0.793484774\H,0,
 3.789690623,2.151366669,0.605723054\H,0,1.059021249,-0.295128363,-2.44
 1022065\H,0,0.37209828,0.737998664,2.201314402\H,0,-0.829044274,-0.485
 442463,1.79996541\H,0,0.899372481,-0.891894623,1.778170382\H,0,2.10346
 5915,4.704574234,0.768543402\H,0,3.872117196,4.624971712,0.953937994\H
 ,0,2.796087823,3.850770108,2.142092439\\Version=EM64L-G09RevC.01\State
 =1-A\HF=-692.4477712\RMSD=8.376e-09\Dipole=0.2784045,0.6292131,1.25075
 1\Quadrupole=2.5667696,5.4028264,-7.9695961,5.5639288,1.7229937,-2.652
 4615\PG=C01 [X(C12H16O3)]\\@


 IT IS UNWORTHY OF EXCELLENT MEN TO LOSE HOURS LIKE SLAVES IN THE LABOR
 OF CALCULATION WHICH COULD BE SAFELY RELEGATED TO ANYONE ELSE
 IF A MACHINE WERE USED.
    -- G.W. VON LEIBNIZ
 Job cpu time:  0 days  2 hours  5 minutes 17.5 seconds.
 File lengths (MBytes):  RWF=    124 Int=      0 D2E=      0 Chk=      9 Scr=      1
 Normal termination of Gaussian 09 at Tue May 17 15:26:56 2022.
