 Entering Gaussian System, Link 0=g09
 Input=/home/eluciano.iquir/wb9/73b_040.gjc
 Output=/home/eluciano.iquir/wb9/73b_040.log
 Initial command:
 /share/apps/Gaussian09/EM64T.SSE4.2-enabled/g09/l1.exe /tmp/Gau-3152.inp -scrdir=/tmp/
 Entering Link 1 = /share/apps/Gaussian09/EM64T.SSE4.2-enabled/g09/l1.exe PID=      3153.
  
 Copyright (c) 1988,1990,1992,1993,1995,1998,2003,2009,2011,
            Gaussian, Inc.  All Rights Reserved.
  
 This is part of the Gaussian(R) 09 program.  It is based on
 the Gaussian(R) 03 system (copyright 2003, Gaussian, Inc.),
 the Gaussian(R) 98 system (copyright 1998, Gaussian, Inc.),
 the Gaussian(R) 94 system (copyright 1995, Gaussian, Inc.),
 the Gaussian 92(TM) system (copyright 1992, Gaussian, Inc.),
 the Gaussian 90(TM) system (copyright 1990, Gaussian, Inc.),
 the Gaussian 88(TM) system (copyright 1988, Gaussian, Inc.),
 the Gaussian 86(TM) system (copyright 1986, Carnegie Mellon
 University), and the Gaussian 82(TM) system (copyright 1983,
 Carnegie Mellon University). Gaussian is a federally registered
 trademark of Gaussian, Inc.
  
 This software contains proprietary and confidential information,
 including trade secrets, belonging to Gaussian, Inc.
  
 This software is provided under written license and may be
 used, copied, transmitted, or stored only in accord with that
 written license.
  
 The following legend is applicable only to US Government
 contracts under FAR:
  
                    RESTRICTED RIGHTS LEGEND
  
 Use, reproduction and disclosure by the US Government is
 subject to restrictions as set forth in subparagraphs (a)
 and (c) of the Commercial Computer Software - Restricted
 Rights clause in FAR 52.227-19.
  
 Gaussian, Inc.
 340 Quinnipiac St., Bldg. 40, Wallingford CT 06492
  
  
 ---------------------------------------------------------------
 Warning -- This program may not be used in any manner that
 competes with the business of Gaussian, Inc. or will provide
 assistance to any competitor of Gaussian, Inc.  The licensee
 of this program is prohibited from giving any competitor of
 Gaussian, Inc. access to this program.  By using this program,
 the user acknowledges that Gaussian, Inc. is engaged in the
 business of creating and licensing software in the field of
 computational chemistry and represents and warrants to the
 licensee that it is not a competitor of Gaussian, Inc. and that
 it will not use this program in any manner prohibited above.
 ---------------------------------------------------------------
  

 Cite this work as:
 Gaussian 09, Revision C.01,
 M. J. Frisch, G. W. Trucks, H. B. Schlegel, G. E. Scuseria, 
 M. A. Robb, J. R. Cheeseman, G. Scalmani, V. Barone, B. Mennucci, 
 G. A. Petersson, H. Nakatsuji, M. Caricato, X. Li, H. P. Hratchian, 
 A. F. Izmaylov, J. Bloino, G. Zheng, J. L. Sonnenberg, M. Hada, 
 M. Ehara, K. Toyota, R. Fukuda, J. Hasegawa, M. Ishida, T. Nakajima, 
 Y. Honda, O. Kitao, H. Nakai, T. Vreven, J. A. Montgomery, Jr., 
 J. E. Peralta, F. Ogliaro, M. Bearpark, J. J. Heyd, E. Brothers, 
 K. N. Kudin, V. N. Staroverov, T. Keith, R. Kobayashi, J. Normand, 
 K. Raghavachari, A. Rendell, J. C. Burant, S. S. Iyengar, J. Tomasi, 
 M. Cossi, N. Rega, J. M. Millam, M. Klene, J. E. Knox, J. B. Cross, 
 V. Bakken, C. Adamo, J. Jaramillo, R. Gomperts, R. E. Stratmann, 
 O. Yazyev, A. J. Austin, R. Cammi, C. Pomelli, J. W. Ochterski, 
 R. L. Martin, K. Morokuma, V. G. Zakrzewski, G. A. Voth, 
 P. Salvador, J. J. Dannenberg, S. Dapprich, A. D. Daniels, 
 O. Farkas, J. B. Foresman, J. V. Ortiz, J. Cioslowski, 
 and D. J. Fox, Gaussian, Inc., Wallingford CT, 2010.
 
 ******************************************
 Gaussian 09:  EM64L-G09RevC.01 23-Sep-2011
                17-May-2022 
 ******************************************
 %nprocshared=4
 Will use up to    4 processors via shared memory.
 ----------------------------------------------------------------
 # wb97xd/6-31+g** scrf=(pcm,solvent=chloroform,smd,dovacuum) nmr
 ----------------------------------------------------------------
 1/38=1/1;
 2/12=2,17=6,18=5,40=1/2;
 3/5=1,6=6,7=111,11=2,16=1,25=1,30=1,70=32101,72=7,74=-58/1,2,8,3;
 4//1;
 5/5=2,38=5,53=7/2;
 8/6=1,10=90,11=11/1;
 10/13=100,45=16/2;
 6/7=2,8=2,9=2,10=2,28=1/1;
 99/9=1/99;
 -------
 comment
 -------
 Charge =  0 Multiplicity = 1
 Symbolic Z-Matrix:
 6                    -2.43514  -0.39394  -1.61632 
 6                    -0.16341  -0.38113  -3.23296 
 6                    -2.53077  -0.01238  -2.95588 
 6                    -1.20202  -0.78079  -1.06942 
 6                    -0.06585  -0.76356  -1.89425 
 6                    -1.3958   -0.00748  -3.76357 
 6                    -1.1145   -1.17843   0.39176 
 6                    -0.88294  -0.00603   1.35751 
 6                     0.30458   0.85387   0.97912 
 8                     1.47945   0.1757    1.06985 
 6                     2.66213   0.9165    0.73975 
 8                    -0.1681   -2.23009   0.58487 
 6                    -0.75539  -0.45569   2.81276 
 8                     0.2018    2.03398   0.66312 
 6                     3.17788   1.64925   1.96376 
 1                    -3.33303  -0.38326  -1.00182 
 1                     0.72438  -0.36818  -3.85998 
 1                    -3.49097   0.2869   -3.36839 
 1                     0.90858  -1.04023  -1.49511 
 1                    -1.47042   0.2947   -4.8049 
 1                    -2.07771  -1.63357   0.65942 
 1                    -1.75763   0.65701   1.29402 
 1                     2.4828    1.60395  -0.09486 
 1                     3.40984   0.19114   0.40267 
 1                    -0.24733  -2.82922  -0.17801 
 1                    -0.63057   0.40877   3.47435 
 1                    -1.65208  -0.99772   3.13047 
 1                     0.10964  -1.10954   2.96659 
 1                     2.44662   2.38125   2.32084 
 1                     4.11256   2.1705    1.73864 
 1                     3.35341   0.94773   2.78597 
 
                          Input orientation:                          
 ---------------------------------------------------------------------
 Center     Atomic      Atomic             Coordinates (Angstroms)
 Number     Number       Type             X           Y           Z
 ---------------------------------------------------------------------
      1          6           0       -2.435137   -0.393941   -1.616320
      2          6           0       -0.163409   -0.381132   -3.232958
      3          6           0       -2.530772   -0.012384   -2.955875
      4          6           0       -1.202025   -0.780792   -1.069419
      5          6           0       -0.065848   -0.763563   -1.894253
      6          6           0       -1.395797   -0.007484   -3.763570
      7          6           0       -1.114499   -1.178430    0.391760
      8          6           0       -0.882943   -0.006028    1.357515
      9          6           0        0.304580    0.853873    0.979122
     10          8           0        1.479452    0.175700    1.069854
     11          6           0        2.662130    0.916500    0.739752
     12          8           0       -0.168100   -2.230093    0.584872
     13          6           0       -0.755385   -0.455686    2.812759
     14          8           0        0.201796    2.033977    0.663123
     15          6           0        3.177879    1.649252    1.963757
     16          1           0       -3.333031   -0.383261   -1.001820
     17          1           0        0.724378   -0.368177   -3.859982
     18          1           0       -3.490971    0.286897   -3.368386
     19          1           0        0.908577   -1.040228   -1.495112
     20          1           0       -1.470424    0.294695   -4.804904
     21          1           0       -2.077713   -1.633567    0.659425
     22          1           0       -1.757630    0.657006    1.294017
     23          1           0        2.482804    1.603951   -0.094864
     24          1           0        3.409837    0.191142    0.402667
     25          1           0       -0.247327   -2.829219   -0.178009
     26          1           0       -0.630568    0.408769    3.474345
     27          1           0       -1.652082   -0.997721    3.130470
     28          1           0        0.109643   -1.109537    2.966589
     29          1           0        2.446619    2.381248    2.320838
     30          1           0        4.112560    2.170498    1.738642
     31          1           0        3.353405    0.947733    2.785967
 ---------------------------------------------------------------------
                    Distance matrix (angstroms):
                    1          2          3          4          5
     1  C    0.000000
     2  C    2.788266   0.000000
     3  C    1.396116   2.411878   0.000000
     4  C    1.403324   2.432972   2.432023   0.000000
     5  C    2.414000   1.395673   2.786962   1.404117   0.000000
     6  C    2.416663   1.392817   1.393041   2.809627   2.415526
     7  C    2.528219   3.831297   3.817349   1.516845   2.549047
     8  C    3.376903   4.661639   4.617436   2.567505   3.437368
     9  C    3.974846   4.414280   4.926847   3.022996   3.318072
    10  O    4.781633   4.639315   5.685399   3.561135   3.472189
    11  C    5.766321   5.044794   6.441018   4.591905   4.147585
    12  O    3.654607   4.241994   4.799723   2.430258   2.882226
    13  C    4.737311   6.075088   6.051913   3.921286   4.767202
    14  O    4.247830   4.598432   4.975105   3.591008   3.799742
    15  C    6.964017   6.503270   7.717027   5.855666   5.588174
    16  H    1.088090   3.876143   2.144645   2.168822   3.408160
    17  H    3.875205   1.086965   3.397057   3.415922   2.155198
    18  H    2.155937   3.396656   1.087069   3.415331   3.874016
    19  H    3.407756   2.145617   3.875488   2.168678   1.088743
    20  H    3.401758   2.153147   2.153495   3.896480   3.400681
    21  H    2.615996   4.514842   3.987968   2.117299   3.365379
    22  H    3.167580   4.910476   4.371203   2.821664   3.878815
    23  H    5.522005   4.559675   5.994486   4.496079   3.916447
    24  H    6.211469   5.129656   6.827303   4.937709   4.274073
    25  H    3.575727   3.915723   4.567846   2.429426   2.691721
    26  H    5.460374   6.769794   6.718324   4.731534   5.524049
    27  H    4.848684   6.564263   6.227887   4.229501   5.274354
    28  H    5.290656   6.248162   6.576558   4.256514   4.876298
    29  H    6.858165   6.729610   7.638560   5.899571   5.828321
    30  H    7.791306   7.036444   8.422430   6.696278   6.266238
    31  H    7.395095   7.096572   8.277325   6.213191   6.043533
                    6          7          8          9         10
     6  C    0.000000
     7  C    4.326316   0.000000
     8  C    5.146701   1.536499   0.000000
     9  C    5.111394   2.547358   1.514206   0.000000
    10  O    5.626953   3.003674   2.386772   1.359586   0.000000
    11  C    6.131919   4.332754   3.714866   2.370499   1.434043
    12  O    5.035493   1.427921   2.460577   3.144790   2.955922
    13  C    6.622622   2.551972   1.528463   2.490120   2.903595
    14  O    5.129861   3.482216   2.412562   1.225995   2.291512
    15  C    7.514357   5.375079   4.426935   3.139743   2.419726
    16  H    3.394312   2.737927   3.422236   4.322828   5.269180
    17  H    2.152797   4.702690   5.471463   5.008649   5.016893
    18  H    2.152345   4.683322   5.405715   5.799008   6.664491
    19  H    3.394496   2.769878   3.523719   3.173999   2.895415
    20  H    1.086856   5.413141   6.197659   6.076041   6.574854
    21  H    4.761517   1.098442   2.136279   3.459029   4.011897
    22  H    5.113869   2.143947   1.099419   2.095381   3.280335
    23  H    5.576708   4.573734   4.003709   2.541796   2.098377
    24  H    6.363263   4.727099   4.402110   3.227095   2.042490
    25  H    4.705042   1.949802   3.276011   3.899836   3.683540
    26  H    7.290149   3.500817   2.171801   2.701622   3.207504
    27  H    6.969508   2.796817   2.172188   3.447495   3.928048
    28  H    6.983976   2.851844   2.189082   2.800537   2.669423
    29  H    7.582231   5.392051   4.208688   2.953203   2.713819
    30  H    8.084549   6.352288   5.462378   4.100133   3.370424
    31  H    8.146398   5.496814   4.571300   3.545256   2.655708
                   11         12         13         14         15
    11  C    0.000000
    12  O    4.235001   0.000000
    13  C    4.226069   2.908075   0.000000
    14  O    2.703307   4.280799   3.425719   0.000000
    15  C    1.516941   5.305301   4.541160   3.270586   0.000000
    16  H    6.376865   3.993140   4.604402   4.594570   7.437588
    17  H    5.153914   4.901018   6.835410   5.148001   6.633673
    18  H    7.425218   5.744995   6.800104   5.739502   8.646463
    19  H    3.449399   2.627042   4.654913   3.822075   4.934249
    20  H    6.943188   6.092642   7.687857   5.976683   8.322038
    21  H    5.382880   2.002004   2.787975   4.318223   6.332411
    22  H    4.461930   3.371176   2.132875   2.476576   5.078617
    23  H    1.096053   4.710545   4.814795   2.441816   2.173270
    24  H    1.094914   4.324027   4.855513   3.708829   2.148695
    25  H    4.830904   0.973251   3.851815   4.955793   6.031244
    26  H    4.310180   3.940371   1.095699   3.352179   4.280765
    27  H    5.290765   3.193902   1.094900   4.326182   5.629939
    28  H    3.947001   2.646764   1.095198   3.898222   4.246253
    29  H    2.166048   5.578064   4.306159   2.812089   1.094562
    30  H    2.161953   6.246634   5.634489   4.058258   1.093619
    31  H    2.160054   5.229187   4.341942   3.952092   1.094974
                   16         17         18         19         20
    16  H    0.000000
    17  H    4.963053   0.000000
    18  H    2.464689   4.294177   0.000000
    19  H    4.320438   2.465399   4.962503   0.000000
    20  H    4.288634   2.479805   2.479164   4.289101   0.000000
    21  H    2.428749   5.466074   4.680677   3.729880   5.826310
    22  H    2.972358   5.811632   4.987931   4.215270   6.116420
    23  H    6.212529   4.599724   6.938052   3.380913   6.287022
    24  H    6.911498   5.068995   7.864552   3.372557   7.137680
    25  H    4.022803   4.534078   5.514518   2.504269   5.715152
    26  H    5.288353   7.498792   7.417529   5.400377   8.322520
    27  H    4.503218   7.410149   6.875092   5.287229   8.041983
    28  H    5.303560   6.894171   7.419324   4.533198   8.053855
    29  H    7.217127   6.980543   8.485786   5.351033   8.394827
    30  H    8.334786   7.019205   9.351117   5.570587   8.803769
    31  H    7.799186   7.267189   9.228123   5.315714   9.017600
                   21         22         23         24         25
    21  H    0.000000
    22  H    2.398308   0.000000
    23  H    5.643473   4.561466   0.000000
    24  H    5.788669   5.264432   1.761522   0.000000
    25  H    2.341195   4.074510   5.207065   4.778558   0.000000
    26  H    3.766847   2.466926   4.884752   5.080102   4.896032
    27  H    2.586798   2.474231   5.853952   5.871740   4.034075
    28  H    3.222133   3.066738   4.729420   4.376842   3.601837
    29  H    6.272847   4.658656   2.537936   3.066551   6.375778
    30  H    7.345413   6.078444   2.517702   2.489277   6.905022
    31  H    6.378270   5.332271   3.080220   2.501146   6.001316
                   26         27         28         29         30
    26  H    0.000000
    27  H    1.771991   0.000000
    28  H    1.763798   1.772860   0.000000
    29  H    3.832797   5.373293   4.250180   0.000000
    30  H    5.349170   6.723533   5.318819   1.777282   0.000000
    31  H    4.078773   5.381299   3.845384   1.758855   1.779989
                   31
    31  H    0.000000
 Stoichiometry    C12H16O3
 Framework group  C1[X(C12H16O3)]
 Deg. of freedom    87
 Full point group                 C1      NOp   1
 Largest Abelian subgroup         C1      NOp   1
 Largest concise Abelian subgroup C1      NOp   1
                         Standard orientation:                         
 ---------------------------------------------------------------------
 Center     Atomic      Atomic             Coordinates (Angstroms)
 Number     Number       Type             X           Y           Z
 ---------------------------------------------------------------------
      1          6           0       -2.600958    0.760662   -0.653732
      2          6           0       -2.530994   -1.695646    0.663874
      3          6           0       -3.616762   -0.174461   -0.860677
      4          6           0       -1.539616    0.481577    0.220902
      5          6           0       -1.514921   -0.761879    0.872633
      6          6           0       -3.582148   -1.400970   -0.201100
      7          6           0       -0.437263    1.503855    0.422364
      8          6           0        0.712780    1.407820   -0.592035
      9          6           0        1.303567    0.017450   -0.695288
     10          8           0        1.910086   -0.369838    0.458236
     11          6           0        2.509165   -1.672717    0.448885
     12          8           0        0.032294    1.497887    1.770859
     13          6           0        1.822313    2.424667   -0.325284
     14          8           0        1.260005   -0.652972   -1.720813
     15          6           0        3.928822   -1.590834   -0.079301
     16          1           0       -2.644192    1.709271   -1.184967
     17          1           0       -2.498170   -2.656308    1.171362
     18          1           0       -4.433229    0.051938   -1.541738
     19          1           0       -0.695526   -1.016014    1.542981
     20          1           0       -4.370731   -2.130287   -0.366900
     21          1           0       -0.893064    2.496081    0.302750
     22          1           0        0.299636    1.625905   -1.587261
     23          1           0        1.906494   -2.385262   -0.125919
     24          1           0        2.521699   -2.026093    1.485131
     25          1           0       -0.742658    1.356738    2.342473
     26          1           0        2.604043    2.352404   -1.089636
     27          1           0        1.425073    3.444801   -0.343545
     28          1           0        2.302321    2.263933    0.645909
     29          1           0        3.942982   -1.238821   -1.115618
     30          1           0        4.415868   -2.569054   -0.035993
     31          1           0        4.516460   -0.876983    0.507271
 ---------------------------------------------------------------------
 Rotational constants (GHZ):      0.9340192      0.4076443      0.3494493
 Standard basis: 6-31+G(d,p) (6D, 7F)
 There are   365 symmetry adapted basis functions of A   symmetry.
 Integral buffers will be    131072 words long.
 Raffenetti 2 integral format.
 Two-electron integral symmetry is turned on.
   365 basis functions,   592 primitive gaussians,   365 cartesian basis functions
    56 alpha electrons       56 beta electrons
       nuclear repulsion energy      1024.3650254191 Hartrees.
 NAtoms=   31 NActive=   31 NUniq=   31 SFac= 1.00D+00 NAtFMM=   60 NAOKFM=F Big=F
 Nuclear repulsion after empirical dispersion term =     1024.3434427531 Hartrees.
 ------------------------------------------------------------------------------
 Polarizable Continuum Model (PCM)
 =================================
 Model                : C-PCM.
 Atomic radii         : SMD-Coulomb.
 Polarization charges : Total charges.
 Charge compensation  : None.
 Solution method      : Matrix inversion.
 Cavity type          : VdW (van der Waals Surface) (Alpha=1.000).
 Cavity algorithm     : GePol (No added spheres)
                        Default sphere list used, NSphG=   31.
                        Lebedev-Laikov grids with approx.  5.0 points / Ang**2.
                        Smoothing algorithm: Karplus/York (Gamma=1.0000).
                        Polarization charges: spherical gaussians, with
                                              point-specific exponents (IZeta= 3).
                        Self-potential: point-specific (ISelfS= 7).
                        Self-field    : sphere-specific E.n sum rule (ISelfD= 2).
 Solvent              : Chloroform, Eps=   4.711300 Eps(inf)=   2.090627
 ------------------------------------------------------------------------------
 ------------------------------------------------------------------------------
 Atomic radii for non-electrostatic terms: SMD-CDS.
 ------------------------------------------------------------------------------
 Nuclear repulsion after PCM non-electrostatic terms =     1024.3365826738 Hartrees.
 One-electron integrals computed using PRISM.
 NBasis=   365 RedAO= T  NBF=   365
 NBsUse=   365 1.00D-06 NBFU=   365
 Harris functional with IExCor= 4639 diagonalized for initial guess.
 ExpMin= 4.38D-02 ExpMax= 5.48D+03 ExpMxC= 8.25D+02 IAcc=2 IRadAn=         4 AccDes= 0.00D+00
 HarFok:  IExCor= 4639 AccDes= 0.00D+00 IRadAn=         4 IDoV= 1
 ScaDFX=  1.000000  1.000000  1.000000  1.000000
 FoFCou: FMM=F IPFlag=           0 FMFlag=      100000 FMFlg1=           0
         NFxFlg=           0 DoJE=T BraDBF=F KetDBF=T FulRan=T
         Omega=  0.000000  0.000000  1.000000  0.000000  0.000000 ICntrl=     500 IOpCl=  0
         NMat0=    1 NMatS0=    1 NMatT0=    0 NMatD0=    1 NMtDS0=    0 NMtDT0=    0
         I1Cent=           4 NGrid=           0.
 Petite list used in FoFCou.
 Initial guess orbital symmetries:
       Occupied  (A) (A) (A) (A) (A) (A) (A) (A) (A) (A) (A) (A)
                 (A) (A) (A) (A) (A) (A) (A) (A) (A) (A) (A) (A)
                 (A) (A) (A) (A) (A) (A) (A) (A) (A) (A) (A) (A)
                 (A) (A) (A) (A) (A) (A) (A) (A) (A) (A) (A) (A)
                 (A) (A) (A) (A) (A) (A) (A) (A)
       Virtual   (A) (A) (A) (A) (A) (A) (A) (A) (A) (A) (A) (A)
                 (A) (A) (A) (A) (A) (A) (A) (A) (A) (A) (A) (A)
                 (A) (A) (A) (A) (A) (A) (A) (A) (A) (A) (A) (A)
                 (A) (A) (A) (A) (A) (A) (A) (A) (A) (A) (A) (A)
                 (A) (A) (A) (A) (A) (A) (A) (A) (A) (A) (A) (A)
                 (A) (A) (A) (A) (A) (A) (A) (A) (A) (A) (A) (A)
                 (A) (A) (A) (A) (A) (A) (A) (A) (A) (A) (A) (A)
                 (A) (A) (A) (A) (A) (A) (A) (A) (A) (A) (A) (A)
                 (A) (A) (A) (A) (A) (A) (A) (A) (A) (A) (A) (A)
                 (A) (A) (A) (A) (A) (A) (A) (A) (A) (A) (A) (A)
                 (A) (A) (A) (A) (A) (A) (A) (A) (A) (A) (A) (A)
                 (A) (A) (A) (A) (A) (A) (A) (A) (A) (A) (A) (A)
                 (A) (A) (A) (A) (A) (A) (A) (A) (A) (A) (A) (A)
                 (A) (A) (A) (A) (A) (A) (A) (A) (A) (A) (A) (A)
                 (A) (A) (A) (A) (A) (A) (A) (A) (A) (A) (A) (A)
                 (A) (A) (A) (A) (A) (A) (A) (A) (A) (A) (A) (A)
                 (A) (A) (A) (A) (A) (A) (A) (A) (A) (A) (A) (A)
                 (A) (A) (A) (A) (A) (A) (A) (A) (A) (A) (A) (A)
                 (A) (A) (A) (A) (A) (A) (A) (A) (A) (A) (A) (A)
                 (A) (A) (A) (A) (A) (A) (A) (A) (A) (A) (A) (A)
                 (A) (A) (A) (A) (A) (A) (A) (A) (A) (A) (A) (A)
                 (A) (A) (A) (A) (A) (A) (A) (A) (A) (A) (A) (A)
                 (A) (A) (A) (A) (A) (A) (A) (A) (A) (A) (A) (A)
                 (A) (A) (A) (A) (A) (A) (A) (A) (A) (A) (A) (A)
                 (A) (A) (A) (A) (A) (A) (A) (A) (A) (A) (A) (A)
                 (A) (A) (A) (A) (A) (A) (A) (A) (A)
 The electronic state of the initial guess is 1-A.
 Requested convergence on RMS density matrix=1.00D-08 within 128 cycles.
 Requested convergence on MAX density matrix=1.00D-06.
 Requested convergence on             energy=1.00D-06.
 No special actions if energy rises.
 FoFJK:  IHMeth= 1 ICntrl=     0 DoSepK=T KAlg= 1 I1Cent= 0 FoldK=F
 FoFJK:  IHMeth= 1 ICntrl=     0 DoSepK=T KAlg= 1 I1Cent= 0 FoldK=F
 FoFJK:  IHMeth= 1 ICntrl=     0 DoSepK=T KAlg= 1 I1Cent= 0 FoldK=F
 FoFJK:  IHMeth= 1 ICntrl=     0 DoSepK=T KAlg= 1 I1Cent= 0 FoldK=F
 FoFJK:  IHMeth= 1 ICntrl=     0 DoSepK=T KAlg= 1 I1Cent= 0 FoldK=F
 FoFJK:  IHMeth= 1 ICntrl=     0 DoSepK=T KAlg= 1 I1Cent= 0 FoldK=F
 FoFJK:  IHMeth= 1 ICntrl=     0 DoSepK=T KAlg= 1 I1Cent= 0 FoldK=F
 FoFJK:  IHMeth= 1 ICntrl=     0 DoSepK=T KAlg= 1 I1Cent= 0 FoldK=F
 FoFJK:  IHMeth= 1 ICntrl=     0 DoSepK=T KAlg= 1 I1Cent= 0 FoldK=F
 FoFJK:  IHMeth= 1 ICntrl=     0 DoSepK=T KAlg= 1 I1Cent= 0 FoldK=F
 FoFJK:  IHMeth= 1 ICntrl=     0 DoSepK=T KAlg= 1 I1Cent= 0 FoldK=F
 FoFJK:  IHMeth= 1 ICntrl=     0 DoSepK=T KAlg= 1 I1Cent= 0 FoldK=F
 FoFJK:  IHMeth= 1 ICntrl=     0 DoSepK=T KAlg= 1 I1Cent= 0 FoldK=F
 FoFJK:  IHMeth= 1 ICntrl=     0 DoSepK=T KAlg= 1 I1Cent= 0 FoldK=F
 FoFJK:  IHMeth= 1 ICntrl=     0 DoSepK=T KAlg= 1 I1Cent= 0 FoldK=F
 FoFJK:  IHMeth= 1 ICntrl=     0 DoSepK=T KAlg= 1 I1Cent= 0 FoldK=F
 Error on total polarization charges =  0.04041
 SCF Done:  E(RwB97XD) =  -692.442155782     A.U. after   16 cycles
             Convg  =    0.3752D-08             -V/T =  2.0095
 SMD-CDS (non-electrostatic) energy       (kcal/mol) =      -4.30
 (included in total energy above)
 Range of M.O.s used for correlation:     1   365
 NBasis=   365 NAE=    56 NBE=    56 NFC=     0 NFV=     0
 NROrb=    365 NOA=    56 NOB=    56 NVA=   309 NVB=   309

 **** Warning!!: The largest alpha MO coefficient is  0.13241669D+03

 NEqPCM:  Using equilibrium solvation (IEInf=0, Eps=   4.7113, EpsInf=   2.0906)
          Differentiating once with respect to magnetic field using GIAOs.
          Electric field/nuclear overlap derivatives assumed to be zero.
 FoFCou: FMM=F IPFlag=           0 FMFlag=    10101102 FMFlg1=           0
         NFxFlg=    40000000 DoJE=F BraDBF=F KetDBF=T FulRan=T
         Omega=  0.000000  0.000000  1.000000  0.000000  0.000000 ICntrl=    6100 IOpCl=  0
         NMat0=    1 NMatS0=    1 NMatT0=    0 NMatD0=    1 NMtDS0=    0 NMtDT0=    0
         I1Cent=           7 NGrid=        2263.
 Symmetry not used in FoFCou.
 FoFJK:  IHMeth= 1 ICntrl=  6127 DoSepK=T KAlg= 1 I1Cent= 0 FoldK=F
 FoFJK:  IHMeth= 1 ICntrl=     0 DoSepK=T KAlg= 1 I1Cent= 0 FoldK=F
          There are     3 degrees of freedom in the 1st order CPHF.  IDoFFX=0.
      3 vectors produced by pass  0 Test12= 5.77D-13 3.33D-08 XBig12= 1.38D+02 2.33D+00.
 AX will form     3 AO Fock derivatives at one time.
 FoFJK:  IHMeth= 1 ICntrl=     0 DoSepK=T KAlg= 1 I1Cent= 0 FoldK=F
      3 vectors produced by pass  1 Test12= 5.77D-13 3.33D-08 XBig12= 1.05D+00 2.59D-01.
 FoFJK:  IHMeth= 1 ICntrl=     0 DoSepK=T KAlg= 1 I1Cent= 0 FoldK=F
      3 vectors produced by pass  2 Test12= 5.77D-13 3.33D-08 XBig12= 1.69D-02 5.18D-02.
 FoFJK:  IHMeth= 1 ICntrl=     0 DoSepK=T KAlg= 1 I1Cent= 0 FoldK=F
      3 vectors produced by pass  3 Test12= 5.77D-13 3.33D-08 XBig12= 3.11D-04 4.73D-03.
 FoFJK:  IHMeth= 1 ICntrl=     0 DoSepK=T KAlg= 1 I1Cent= 0 FoldK=F
      3 vectors produced by pass  4 Test12= 5.77D-13 3.33D-08 XBig12= 5.61D-06 6.37D-04.
 FoFJK:  IHMeth= 1 ICntrl=     0 DoSepK=T KAlg= 1 I1Cent= 0 FoldK=F
      3 vectors produced by pass  5 Test12= 5.77D-13 3.33D-08 XBig12= 1.04D-07 8.02D-05.
 FoFJK:  IHMeth= 1 ICntrl=     0 DoSepK=T KAlg= 1 I1Cent= 0 FoldK=F
      3 vectors produced by pass  6 Test12= 5.77D-13 3.33D-08 XBig12= 1.77D-09 7.78D-06.
 FoFJK:  IHMeth= 1 ICntrl=     0 DoSepK=T KAlg= 1 I1Cent= 0 FoldK=F
      3 vectors produced by pass  7 Test12= 5.77D-13 3.33D-08 XBig12= 1.74D-11 8.48D-07.
 FoFJK:  IHMeth= 1 ICntrl=     0 DoSepK=T KAlg= 1 I1Cent= 0 FoldK=F
      2 vectors produced by pass  8 Test12= 5.77D-13 3.33D-08 XBig12= 1.99D-13 8.17D-08.
 FoFJK:  IHMeth= 1 ICntrl=     0 DoSepK=T KAlg= 1 I1Cent= 0 FoldK=F
 Inverted reduced A of dimension    26 with in-core refinement.
 Calculating GIAO nuclear magnetic shielding tensors.
 SCF GIAO Magnetic shielding tensor (ppm):
      1  C    Isotropic =    70.9695   Anisotropy =   163.8223
   XX=    86.1815   YX=   -22.5272   ZX=   -53.2365
   XY=   -18.9796   YY=    15.5031   ZY=    74.3186
   XZ=   -38.7162   YZ=    77.8962   ZZ=   111.2240
   Eigenvalues:   -26.7090    59.4332   180.1844
      2  C    Isotropic =    69.6617   Anisotropy =   177.9097
   XX=    90.6878   YX=   -20.7887   ZX=   -56.0159
   XY=   -23.7576   YY=     3.9301   ZY=    77.2433
   XZ=   -52.2798   YZ=    75.3623   ZZ=   114.3674
   Eigenvalues:   -35.2513    55.9683   188.2682
      3  C    Isotropic =    70.3422   Anisotropy =   175.3178
   XX=    42.6725   YX=   -14.3404   ZX=   -91.2585
   XY=   -12.8553   YY=    73.4396   ZY=    50.5610
   XZ=   -95.3135   YZ=    52.0820   ZZ=    94.9144
   Eigenvalues:   -32.4269    56.2327   187.2207
      4  C    Isotropic =    51.7635   Anisotropy =   183.2824
   XX=    26.7347   YX=   -48.6126   ZX=   -71.4417
   XY=   -52.1108   YY=    13.0702   ZY=    44.3836
   XZ=   -62.3769   YZ=    36.8086   ZZ=   115.4856
   Eigenvalues:   -32.9056    14.2444   173.9518
      5  C    Isotropic =    74.1928   Anisotropy =   179.1417
   XX=    45.0527   YX=   -18.2222   ZX=   -94.0268
   XY=    -8.2826   YY=    73.7487   ZY=    55.9909
   XZ=   -84.5305   YZ=    59.1663   ZZ=   103.7770
   Eigenvalues:   -25.8527    54.8105   193.6206
      6  C    Isotropic =    71.5672   Anisotropy =   176.9449
   XX=    49.6877   YX=   -66.9157   ZX=   -61.2358
   XY=   -71.9464   YY=    35.3113   ZY=    30.2840
   XZ=   -66.7377   YZ=    27.1452   ZZ=   129.7026
   Eigenvalues:   -30.8824    56.0536   189.5305
      7  C    Isotropic =   121.3481   Anisotropy =    35.5783
   XX=   120.4529   YX=     0.5040   ZX=    20.9717
   XY=     2.8793   YY=   108.9063   ZY=    -0.1711
   XZ=    10.8441   YZ=    -5.8254   ZZ=   134.6851
   Eigenvalues:   106.3722   112.6051   145.0669
      8  C    Isotropic =   145.8314   Anisotropy =    20.4844
   XX=   146.5921   YX=    -6.4645   ZX=     3.7872
   XY=   -14.1209   YY=   150.6859   ZY=    -3.0989
   XZ=    -3.0414   YZ=    -3.0276   ZZ=   140.2162
   Eigenvalues:   137.1510   140.8556   159.4876
      9  C    Isotropic =    20.4453   Anisotropy =   104.1697
   XX=    49.3474   YX=    61.5512   ZX=   -30.0905
   XY=    45.3240   YY=     9.2944   ZY=    23.4400
   XZ=   -56.3395   YZ=    49.5744   ZZ=     2.6942
   Eigenvalues:   -69.7411    41.1853    89.8918
     10  O    Isotropic =   130.6818   Anisotropy =   172.8020
   XX=   224.6853   YX=    45.3638   ZX=   -27.8098
   XY=    63.5947   YY=    25.9865   ZY=   -43.5504
   XZ=    39.1788   YZ=  -167.0712   ZZ=   141.3735
   Eigenvalues:   -45.6336   191.7959   245.8831
     11  C    Isotropic =   138.0624   Anisotropy =    65.1925
   XX=   139.8518   YX=   -27.1594   ZX=   -10.9758
   XY=   -21.8655   YY=   166.9693   ZY=    -8.3653
   XZ=    -9.2575   YZ=    -9.7846   ZZ=   107.3662
   Eigenvalues:   100.2255   132.4377   181.5241
     12  O    Isotropic =   290.6576   Anisotropy =    75.3204
   XX=   297.2937   YX=    26.3159   ZX=   -33.5620
   XY=    31.2003   YY=   259.2963   ZY=     4.0638
   XZ=   -25.5965   YZ=    -1.8306   ZZ=   315.3828
   Eigenvalues:   240.4190   290.6826   340.8712
     13  C    Isotropic =   180.5674   Anisotropy =    25.8337
   XX=   184.4932   YX=    10.5940   ZX=    -0.6448
   XY=     9.7111   YY=   190.0298   ZY=     0.7095
   XZ=     2.7930   YZ=    -1.3488   ZZ=   167.1792
   Eigenvalues:   167.0607   176.8517   197.7899
     14  O    Isotropic =   -51.3275   Anisotropy =   530.6637
   XX=   171.0616   YX=   166.5546   ZX=  -137.9284
   XY=   153.4497   YY=   -72.1437   ZY=   -61.9700
   XZ=  -174.3561   YZ=   -73.3518   ZZ=  -252.9004
   Eigenvalues:  -305.3649  -151.0659   302.4483
     15  C    Isotropic =   181.5628   Anisotropy =    26.7647
   XX=   195.5597   YX=    -6.1298   ZX=    -8.6974
   XY=    -1.8133   YY=   183.4524   ZY=    -2.5705
   XZ=   -11.8744   YZ=    -1.4958   ZZ=   165.6764
   Eigenvalues:   162.0180   183.2646   199.4060
     16  H    Isotropic =    23.8253   Anisotropy =     8.0586
   XX=    27.7064   YX=     1.1134   ZX=     3.5593
   XY=     1.3554   YY=    22.3633   ZY=    -0.2793
   XZ=     2.7936   YZ=    -0.0952   ZZ=    21.4061
   Eigenvalues:    19.9030    22.3751    29.1977
     17  H    Isotropic =    23.7926   Anisotropy =     5.6756
   XX=    25.8239   YX=     2.2963   ZX=     1.9538
   XY=     2.1395   YY=    23.3873   ZY=    -0.7210
   XZ=     2.1942   YZ=    -0.4872   ZZ=    22.1665
   Eigenvalues:    20.3791    23.4224    27.5763
     18  H    Isotropic =    23.7636   Anisotropy =     4.6583
   XX=    24.2327   YX=     1.9252   ZX=     1.2602
   XY=     1.9272   YY=    25.4222   ZY=    -1.3447
   XZ=     1.3323   YZ=    -1.4028   ZZ=    21.6359
   Eigenvalues:    20.2631    24.1585    26.8691
     19  H    Isotropic =    23.5566   Anisotropy =     8.9055
   XX=    23.9467   YX=     4.0509   ZX=    -1.7305
   XY=     3.5307   YY=    26.1936   ZY=    -1.7589
   XZ=    -0.5729   YZ=    -1.6428   ZZ=    20.5295
   Eigenvalues:    20.0518    21.1244    29.4936
     20  H    Isotropic =    23.8031   Anisotropy =     4.2864
   XX=    24.3102   YX=     0.3338   ZX=     2.2185
   XY=     0.0974   YY=    24.3325   ZY=    -2.2268
   XZ=     2.0344   YZ=    -2.4287   ZZ=    22.7667
   Eigenvalues:    20.2137    24.5349    26.6608
     21  H    Isotropic =    26.5541   Anisotropy =     7.7145
   XX=    26.6748   YX=    -3.8775   ZX=     2.6179
   XY=    -2.3562   YY=    27.4077   ZY=    -0.8330
   XZ=     3.8391   YZ=    -1.3304   ZZ=    25.5800
   Eigenvalues:    22.4607    25.5046    31.6971
     22  H    Isotropic =    28.7156   Anisotropy =     5.3006
   XX=    28.5444   YX=     1.5727   ZX=     3.1029
   XY=    -0.5275   YY=    26.3206   ZY=    -1.5753
   XZ=     0.3530   YZ=    -0.8578   ZZ=    31.2818
   Eigenvalues:    25.7042    28.1933    32.2493
     23  H    Isotropic =    26.9893   Anisotropy =     5.4698
   XX=    28.1174   YX=     0.0291   ZX=     0.5452
   XY=     0.3966   YY=    30.5926   ZY=     1.1094
   XZ=    -0.1664   YZ=    -0.2237   ZZ=    22.2578
   Eigenvalues:    22.2289    28.1030    30.6358
     24  H    Isotropic =    27.6402   Anisotropy =     7.2837
   XX=    26.6098   YX=    -1.7037   ZX=    -1.5927
   XY=    -2.3571   YY=    27.8318   ZY=    -5.3718
   XZ=    -1.8943   YZ=    -3.2811   ZZ=    28.4789
   Eigenvalues:    22.1961    28.2284    32.4959
     25  H    Isotropic =    29.9924   Anisotropy =    15.6001
   XX=    31.8817   YX=     1.1419   ZX=    -7.0625
   XY=     3.6040   YY=    22.9417   ZY=    -0.5246
   XZ=    -5.9887   YZ=     0.1897   ZZ=    35.1539
   Eigenvalues:    22.1310    27.4537    40.3925
     26  H    Isotropic =    30.3664   Anisotropy =     9.6166
   XX=    32.9178   YX=     2.3479   ZX=    -4.7727
   XY=     2.1233   YY=    28.8360   ZY=    -0.9632
   XZ=    -4.3069   YZ=    -1.2359   ZZ=    29.3454
   Eigenvalues:    26.1925    28.1292    36.7774
     27  H    Isotropic =    30.3259   Anisotropy =    10.6262
   XX=    27.7751   YX=     0.4512   ZX=     0.2272
   XY=    -0.6920   YY=    37.3189   ZY=    -0.7855
   XZ=    -0.2427   YZ=    -1.2475   ZZ=    25.8837
   Eigenvalues:    25.7939    27.7738    37.4100
     28  H    Isotropic =    29.6725   Anisotropy =     6.2406
   XX=    30.0894   YX=     1.6960   ZX=     3.9047
   XY=     1.6727   YY=    28.2804   ZY=     0.0896
   XZ=     2.8076   YZ=    -1.2706   ZZ=    30.6476
   Eigenvalues:    25.8605    29.3240    33.8329
     29  H    Isotropic =    30.3682   Anisotropy =     6.6782
   XX=    31.2073   YX=    -1.2253   ZX=    -2.4775
   XY=    -0.9676   YY=    26.6229   ZY=    -2.2501
   XZ=    -1.9917   YZ=    -1.3773   ZZ=    33.2743
   Eigenvalues:    25.6507    30.6335    34.8203
     30  H    Isotropic =    30.6695   Anisotropy =    11.7053
   XX=    32.1818   YX=    -5.9416   ZX=    -0.1742
   XY=    -5.1496   YY=    33.5454   ZY=     0.0573
   XZ=    -0.8814   YZ=     0.3972   ZZ=    26.2815
   Eigenvalues:    26.2036    27.3320    38.4731
     31  H    Isotropic =    30.4283   Anisotropy =     8.2217
   XX=    33.7534   YX=     2.5811   ZX=     3.1504
   XY=     1.8784   YY=    29.4453   ZY=     2.6656
   XZ=     1.5949   YZ=     1.7379   ZZ=    28.0863
   Eigenvalues:    26.3953    28.9803    35.9095
 End of Minotr Frequency-dependent properties file   721 does not exist.
 End of Minotr Frequency-dependent properties file   722 does not exist.

 **********************************************************************

            Population analysis using the SCF density.

 **********************************************************************

 Orbital symmetries:
       Occupied  (A) (A) (A) (A) (A) (A) (A) (A) (A) (A) (A) (A)
                 (A) (A) (A) (A) (A) (A) (A) (A) (A) (A) (A) (A)
                 (A) (A) (A) (A) (A) (A) (A) (A) (A) (A) (A) (A)
                 (A) (A) (A) (A) (A) (A) (A) (A) (A) (A) (A) (A)
                 (A) (A) (A) (A) (A) (A) (A) (A)
       Virtual   (A) (A) (A) (A) (A) (A) (A) (A) (A) (A) (A) (A)
                 (A) (A) (A) (A) (A) (A) (A) (A) (A) (A) (A) (A)
                 (A) (A) (A) (A) (A) (A) (A) (A) (A) (A) (A) (A)
                 (A) (A) (A) (A) (A) (A) (A) (A) (A) (A) (A) (A)
                 (A) (A) (A) (A) (A) (A) (A) (A) (A) (A) (A) (A)
                 (A) (A) (A) (A) (A) (A) (A) (A) (A) (A) (A) (A)
                 (A) (A) (A) (A) (A) (A) (A) (A) (A) (A) (A) (A)
                 (A) (A) (A) (A) (A) (A) (A) (A) (A) (A) (A) (A)
                 (A) (A) (A) (A) (A) (A) (A) (A) (A) (A) (A) (A)
                 (A) (A) (A) (A) (A) (A) (A) (A) (A) (A) (A) (A)
                 (A) (A) (A) (A) (A) (A) (A) (A) (A) (A) (A) (A)
                 (A) (A) (A) (A) (A) (A) (A) (A) (A) (A) (A) (A)
                 (A) (A) (A) (A) (A) (A) (A) (A) (A) (A) (A) (A)
                 (A) (A) (A) (A) (A) (A) (A) (A) (A) (A) (A) (A)
                 (A) (A) (A) (A) (A) (A) (A) (A) (A) (A) (A) (A)
                 (A) (A) (A) (A) (A) (A) (A) (A) (A) (A) (A) (A)
                 (A) (A) (A) (A) (A) (A) (A) (A) (A) (A) (A) (A)
                 (A) (A) (A) (A) (A) (A) (A) (A) (A) (A) (A) (A)
                 (A) (A) (A) (A) (A) (A) (A) (A) (A) (A) (A) (A)
                 (A) (A) (A) (A) (A) (A) (A) (A) (A) (A) (A) (A)
                 (A) (A) (A) (A) (A) (A) (A) (A) (A) (A) (A) (A)
                 (A) (A) (A) (A) (A) (A) (A) (A) (A) (A) (A) (A)
                 (A) (A) (A) (A) (A) (A) (A) (A) (A) (A) (A) (A)
                 (A) (A) (A) (A) (A) (A) (A) (A) (A) (A) (A) (A)
                 (A) (A) (A) (A) (A) (A) (A) (A) (A) (A) (A) (A)
                 (A) (A) (A) (A) (A) (A) (A) (A) (A)
 The electronic state is 1-A.
 Alpha  occ. eigenvalues --  -19.32370 -19.27947 -19.27162 -10.43663 -10.36156
 Alpha  occ. eigenvalues --  -10.34827 -10.31970 -10.31713 -10.30874 -10.30796
 Alpha  occ. eigenvalues --  -10.30764 -10.30733 -10.30587 -10.28971 -10.28513
 Alpha  occ. eigenvalues --   -1.20645  -1.12905  -1.12020  -0.96324  -0.91367
 Alpha  occ. eigenvalues --   -0.86580  -0.85266  -0.84840  -0.77724  -0.75851
 Alpha  occ. eigenvalues --   -0.71287  -0.70191  -0.68341  -0.64533  -0.62175
 Alpha  occ. eigenvalues --   -0.60202  -0.57875  -0.56969  -0.55950  -0.55278
 Alpha  occ. eigenvalues --   -0.53435  -0.52348  -0.52269  -0.50576  -0.50095
 Alpha  occ. eigenvalues --   -0.48453  -0.48343  -0.47082  -0.46008  -0.45480
 Alpha  occ. eigenvalues --   -0.44897  -0.44527  -0.43098  -0.42385  -0.41576
 Alpha  occ. eigenvalues --   -0.40326  -0.38539  -0.36952  -0.35632  -0.33405
 Alpha  occ. eigenvalues --   -0.32392
 Alpha virt. eigenvalues --    0.04909   0.05031   0.06497   0.07327   0.07588
 Alpha virt. eigenvalues --    0.08138   0.08657   0.09564   0.09762   0.10160
 Alpha virt. eigenvalues --    0.10567   0.11280   0.11510   0.12522   0.13071
 Alpha virt. eigenvalues --    0.13326   0.13821   0.14244   0.14628   0.15220
 Alpha virt. eigenvalues --    0.15432   0.16430   0.16939   0.17325   0.17708
 Alpha virt. eigenvalues --    0.18573   0.19020   0.19237   0.19682   0.20623
 Alpha virt. eigenvalues --    0.20977   0.21643   0.22202   0.22654   0.23132
 Alpha virt. eigenvalues --    0.23688   0.23700   0.24041   0.24568   0.24710
 Alpha virt. eigenvalues --    0.25181   0.26158   0.26321   0.26617   0.26710
 Alpha virt. eigenvalues --    0.27239   0.27882   0.28552   0.28855   0.29155
 Alpha virt. eigenvalues --    0.29741   0.30463   0.30609   0.30827   0.30974
 Alpha virt. eigenvalues --    0.31668   0.32011   0.32081   0.32654   0.33130
 Alpha virt. eigenvalues --    0.34104   0.34555   0.35151   0.35219   0.35924
 Alpha virt. eigenvalues --    0.36801   0.37510   0.38321   0.38506   0.39434
 Alpha virt. eigenvalues --    0.39589   0.40489   0.40982   0.41558   0.41847
 Alpha virt. eigenvalues --    0.42120   0.43274   0.43623   0.44225   0.45260
 Alpha virt. eigenvalues --    0.45519   0.46326   0.47485   0.47859   0.48555
 Alpha virt. eigenvalues --    0.49218   0.50281   0.51513   0.52355   0.54500
 Alpha virt. eigenvalues --    0.55888   0.58658   0.61373   0.66278   0.70198
 Alpha virt. eigenvalues --    0.73249   0.74684   0.75175   0.76618   0.77480
 Alpha virt. eigenvalues --    0.77632   0.78150   0.79641   0.80455   0.80928
 Alpha virt. eigenvalues --    0.81883   0.82722   0.83329   0.83657   0.84421
 Alpha virt. eigenvalues --    0.85463   0.85986   0.86988   0.88619   0.90060
 Alpha virt. eigenvalues --    0.90780   0.92070   0.93932   0.95052   0.97505
 Alpha virt. eigenvalues --    0.98691   0.99172   0.99925   1.01368   1.02966
 Alpha virt. eigenvalues --    1.03099   1.04149   1.05488   1.05810   1.07390
 Alpha virt. eigenvalues --    1.08537   1.09574   1.10040   1.12243   1.12390
 Alpha virt. eigenvalues --    1.13182   1.14264   1.16810   1.17892   1.19193
 Alpha virt. eigenvalues --    1.20418   1.20611   1.22252   1.23370   1.24085
 Alpha virt. eigenvalues --    1.26314   1.27809   1.28298   1.29269   1.29777
 Alpha virt. eigenvalues --    1.32082   1.32997   1.34969   1.35652   1.37900
 Alpha virt. eigenvalues --    1.41591   1.42547   1.43120   1.45829   1.46914
 Alpha virt. eigenvalues --    1.47066   1.48242   1.49197   1.49746   1.50811
 Alpha virt. eigenvalues --    1.51720   1.53031   1.53063   1.54827   1.56264
 Alpha virt. eigenvalues --    1.58627   1.60969   1.61878   1.64134   1.64289
 Alpha virt. eigenvalues --    1.67716   1.71086   1.72481   1.77399   1.77784
 Alpha virt. eigenvalues --    1.79531   1.81960   1.84149   1.86075   1.88869
 Alpha virt. eigenvalues --    1.90611   1.91878   1.93241   1.95215   1.95753
 Alpha virt. eigenvalues --    1.96257   1.97899   1.98505   2.01182   2.01669
 Alpha virt. eigenvalues --    2.01787   2.03734   2.04475   2.05819   2.07105
 Alpha virt. eigenvalues --    2.07880   2.09039   2.10277   2.10846   2.11786
 Alpha virt. eigenvalues --    2.12807   2.14702   2.15793   2.17579   2.18743
 Alpha virt. eigenvalues --    2.19363   2.20738   2.21719   2.22001   2.24276
 Alpha virt. eigenvalues --    2.25335   2.26808   2.28352   2.30058   2.31802
 Alpha virt. eigenvalues --    2.33696   2.34984   2.37156   2.38956   2.39467
 Alpha virt. eigenvalues --    2.42431   2.43261   2.45348   2.48141   2.48300
 Alpha virt. eigenvalues --    2.49160   2.50837   2.51525   2.53004   2.55199
 Alpha virt. eigenvalues --    2.56024   2.57022   2.57641   2.57990   2.60014
 Alpha virt. eigenvalues --    2.61903   2.63576   2.65106   2.68003   2.68525
 Alpha virt. eigenvalues --    2.69194   2.69797   2.72890   2.73148   2.74027
 Alpha virt. eigenvalues --    2.76521   2.79443   2.79625   2.81905   2.82536
 Alpha virt. eigenvalues --    2.83677   2.85830   2.86142   2.88082   2.89032
 Alpha virt. eigenvalues --    2.90492   2.92446   2.94608   2.96728   2.97502
 Alpha virt. eigenvalues --    2.99150   3.01302   3.02230   3.07510   3.10926
 Alpha virt. eigenvalues --    3.13339   3.14571   3.17056   3.17985   3.25318
 Alpha virt. eigenvalues --    3.28119   3.30931   3.37023   3.37302   3.38753
 Alpha virt. eigenvalues --    3.38952   3.43753   3.45214   3.50682   3.52103
 Alpha virt. eigenvalues --    3.53969   3.58114   3.59220   3.60063   3.62753
 Alpha virt. eigenvalues --    3.65154   3.66609   3.68628   3.99525   4.41419
 Alpha virt. eigenvalues --    4.42166   4.42904   4.51788   4.53518   4.55449
 Alpha virt. eigenvalues --    4.58207   4.61918   4.64828   4.65595   4.71072
 Alpha virt. eigenvalues --    4.81527   4.87706   4.97183   4.98582
          Condensed to atoms (all electrons):
              1          2          3          4          5          6
     1  C   17.094261  -0.765453  -0.638295  -5.771526  -8.447458   0.548595
     2  C   -0.765453   7.505305   0.161695  -0.710478   0.162853   0.783991
     3  C   -0.638295   0.161695   6.337979  -0.041887   0.140355   0.428846
     4  C   -5.771526  -0.710478  -0.041887  16.512834   0.867597  -1.011843
     5  C   -8.447458   0.162853   0.140355   0.867597  16.884496  -0.292656
     6  C    0.548595   0.783991   0.428846  -1.011843  -0.292656   5.540157
     7  C    4.339192  -1.464598  -0.526219  -4.505363  -4.260384  -0.154920
     8  C   -0.713336   0.342332   0.058372   0.924541   1.098495  -0.002522
     9  C   -0.020462  -0.185622   0.012455   0.032041  -0.328942  -0.001713
    10  O   -0.056326  -0.016414  -0.002634  -0.092925   0.133637   0.001624
    11  C   -0.036322   0.012262   0.007675  -0.027002   0.119388   0.001935
    12  O   -0.121393   0.145534   0.004940   0.082195   0.235805   0.012328
    13  C    0.077462  -0.037698  -0.017237  -0.266618  -0.212781  -0.010138
    14  O   -0.062418   0.035682   0.005906   0.088725  -0.003932  -0.000073
    15  C   -0.011728   0.010507  -0.000099  -0.017783   0.040598   0.003184
    16  H    0.143952   0.008188   0.067659   0.091769   0.018814  -0.012671
    17  H    0.010674   0.247008  -0.009773   0.026848   0.033633   0.021717
    18  H    0.018553  -0.002933   0.273750   0.018691   0.001505   0.021769
    19  H    0.052602  -0.076604  -0.003953   0.135101   0.224396  -0.006598
    20  H   -0.011266   0.037506   0.031379   0.012381  -0.010058   0.264256
    21  H    0.094467   0.020470   0.047996   0.111354  -0.005506   0.004450
    22  H   -0.014932  -0.001932  -0.006150   0.012641   0.006039   0.000039
    23  H   -0.001210   0.003105   0.000510  -0.002520   0.005043  -0.000077
    24  H   -0.000820   0.001703  -0.000121  -0.005684   0.003254   0.000392
    25  H    0.078026  -0.010965  -0.002017  -0.031241  -0.092362   0.000959
    26  H    0.002812  -0.000514   0.000067  -0.013420  -0.005886   0.000013
    27  H    0.014736   0.000225   0.000958  -0.005593  -0.007884   0.000018
    28  H    0.000346   0.000246  -0.000070   0.004543  -0.000670  -0.000028
    29  H   -0.000010   0.000083  -0.000005  -0.000307  -0.000268   0.000000
    30  H   -0.000112   0.000243   0.000003  -0.000507   0.000527   0.000010
    31  H    0.000018  -0.000055  -0.000001   0.000097   0.000442   0.000007
              7          8          9         10         11         12
     1  C    4.339192  -0.713336  -0.020462  -0.056326  -0.036322  -0.121393
     2  C   -1.464598   0.342332  -0.185622  -0.016414   0.012262   0.145534
     3  C   -0.526219   0.058372   0.012455  -0.002634   0.007675   0.004940
     4  C   -4.505363   0.924541   0.032041  -0.092925  -0.027002   0.082195
     5  C   -4.260384   1.098495  -0.328942   0.133637   0.119388   0.235805
     6  C   -0.154920  -0.002522  -0.001713   0.001624   0.001935   0.012328
     7  C   13.820611  -2.811413   0.916172   0.073513  -0.143379  -0.197397
     8  C   -2.811413   9.836493  -1.935181  -0.513250   0.079257  -0.073874
     9  C    0.916172  -1.935181   6.839396   0.453121  -0.225682  -0.088343
    10  O    0.073513  -0.513250   0.453121   8.410114   0.061592   0.002481
    11  C   -0.143379   0.079257  -0.225682   0.061592   5.256797   0.012750
    12  O   -0.197397  -0.073874  -0.088343   0.002481   0.012750   8.344956
    13  C    0.670163  -0.620205  -0.090170   0.034136  -0.023603   0.009230
    14  O   -0.095597  -0.069272   0.676430  -0.164436   0.005173   0.004468
    15  C   -0.033284  -0.062081   0.026207  -0.031161   0.182189   0.001812
    16  H   -0.024320   0.017803  -0.000375  -0.000017   0.000036   0.000459
    17  H   -0.004188  -0.001618   0.002683  -0.000080  -0.000141   0.000111
    18  H   -0.004313  -0.000758   0.000553   0.000001   0.000009   0.000019
    19  H   -0.007666  -0.016586   0.013971  -0.001333   0.000046   0.005871
    20  H    0.002558   0.000016  -0.000259   0.000002  -0.000020  -0.000006
    21  H   -0.009766   0.099893  -0.017179  -0.000587   0.001048  -0.054760
    22  H    0.008529   0.320721  -0.047964   0.011829   0.003528   0.007411
    23  H   -0.007807   0.015908  -0.012419  -0.035638   0.386100  -0.000135
    24  H    0.002858  -0.005309   0.009087  -0.060995   0.398814   0.000029
    25  H    0.055275   0.043979  -0.011397  -0.002060  -0.000057   0.227540
    26  H    0.055600  -0.145200   0.041208  -0.004059  -0.004487  -0.000409
    27  H    0.000401  -0.051492  -0.021825  -0.000114   0.000383  -0.000812
    28  H   -0.009299  -0.066526  -0.029000   0.006891   0.004791   0.003878
    29  H    0.000999  -0.009273   0.004583  -0.005731  -0.063862  -0.000006
    30  H   -0.000390   0.003451   0.003181   0.006934  -0.052897   0.000004
    31  H   -0.001125   0.006687   0.005460  -0.005368  -0.053414  -0.000054
             13         14         15         16         17         18
     1  C    0.077462  -0.062418  -0.011728   0.143952   0.010674   0.018553
     2  C   -0.037698   0.035682   0.010507   0.008188   0.247008  -0.002933
     3  C   -0.017237   0.005906  -0.000099   0.067659  -0.009773   0.273750
     4  C   -0.266618   0.088725  -0.017783   0.091769   0.026848   0.018691
     5  C   -0.212781  -0.003932   0.040598   0.018814   0.033633   0.001505
     6  C   -0.010138  -0.000073   0.003184  -0.012671   0.021717   0.021769
     7  C    0.670163  -0.095597  -0.033284  -0.024320  -0.004188  -0.004313
     8  C   -0.620205  -0.069272  -0.062081   0.017803  -0.001618  -0.000758
     9  C   -0.090170   0.676430   0.026207  -0.000375   0.002683   0.000553
    10  O    0.034136  -0.164436  -0.031161  -0.000017  -0.000080   0.000001
    11  C   -0.023603   0.005173   0.182189   0.000036  -0.000141   0.000009
    12  O    0.009230   0.004468   0.001812   0.000459   0.000111   0.000019
    13  C    5.963690  -0.042015   0.004715   0.006004  -0.000036  -0.000010
    14  O   -0.042015   8.122393  -0.048782  -0.000104  -0.000075  -0.000009
    15  C    0.004715  -0.048782   5.319674  -0.000016   0.000069   0.000000
    16  H    0.006004  -0.000104  -0.000016   0.508722   0.000011  -0.003967
    17  H   -0.000036  -0.000075   0.000069   0.000011   0.497693  -0.000122
    18  H   -0.000010  -0.000009   0.000000  -0.003967  -0.000122   0.495252
    19  H   -0.001934  -0.000436   0.001335  -0.000114  -0.003865   0.000011
    20  H   -0.000004   0.000006  -0.000002  -0.000119  -0.003913  -0.003860
    21  H   -0.052365   0.000387  -0.000012   0.001793   0.000002  -0.000001
    22  H   -0.002235  -0.003865  -0.000916  -0.000086   0.000000   0.000001
    23  H   -0.000253   0.001492  -0.019477   0.000000  -0.000003   0.000000
    24  H    0.003454   0.000294  -0.016653   0.000000   0.000001   0.000000
    25  H   -0.003340  -0.000004   0.000056   0.000031   0.000001   0.000000
    26  H    0.432187  -0.000418   0.001402   0.000001   0.000000   0.000000
    27  H    0.429464   0.000117  -0.000563   0.000000   0.000000   0.000000
    28  H    0.445341   0.000197  -0.001963   0.000000   0.000000   0.000000
    29  H    0.002150   0.001414   0.434815   0.000000   0.000000   0.000000
    30  H    0.000092  -0.000100   0.403103   0.000000   0.000000   0.000000
    31  H   -0.002013  -0.000425   0.412517   0.000000   0.000000   0.000000
             19         20         21         22         23         24
     1  C    0.052602  -0.011266   0.094467  -0.014932  -0.001210  -0.000820
     2  C   -0.076604   0.037506   0.020470  -0.001932   0.003105   0.001703
     3  C   -0.003953   0.031379   0.047996  -0.006150   0.000510  -0.000121
     4  C    0.135101   0.012381   0.111354   0.012641  -0.002520  -0.005684
     5  C    0.224396  -0.010058  -0.005506   0.006039   0.005043   0.003254
     6  C   -0.006598   0.264256   0.004450   0.000039  -0.000077   0.000392
     7  C   -0.007666   0.002558  -0.009766   0.008529  -0.007807   0.002858
     8  C   -0.016586   0.000016   0.099893   0.320721   0.015908  -0.005309
     9  C    0.013971  -0.000259  -0.017179  -0.047964  -0.012419   0.009087
    10  O   -0.001333   0.000002  -0.000587   0.011829  -0.035638  -0.060995
    11  C    0.000046  -0.000020   0.001048   0.003528   0.386100   0.398814
    12  O    0.005871  -0.000006  -0.054760   0.007411  -0.000135   0.000029
    13  C   -0.001934  -0.000004  -0.052365  -0.002235  -0.000253   0.003454
    14  O   -0.000436   0.000006   0.000387  -0.003865   0.001492   0.000294
    15  C    0.001335  -0.000002  -0.000012  -0.000916  -0.019477  -0.016653
    16  H   -0.000114  -0.000119   0.001793  -0.000086   0.000000   0.000000
    17  H   -0.003865  -0.003913   0.000002   0.000000  -0.000003   0.000001
    18  H    0.000011  -0.003860  -0.000001   0.000001   0.000000   0.000000
    19  H    0.504851  -0.000124  -0.000021  -0.000001  -0.000031  -0.000023
    20  H   -0.000124   0.498381   0.000000   0.000000   0.000000   0.000000
    21  H   -0.000021   0.000000   0.615379  -0.003686   0.000000   0.000000
    22  H   -0.000001   0.000000  -0.003686   0.511669  -0.000004   0.000002
    23  H   -0.000031   0.000000   0.000000  -0.000004   0.524139  -0.031721
    24  H   -0.000023   0.000000   0.000000   0.000002  -0.031721   0.533256
    25  H   -0.000958   0.000000  -0.004240  -0.000156   0.000000  -0.000001
    26  H    0.000001   0.000000  -0.000025  -0.003681  -0.000002   0.000000
    27  H    0.000000   0.000000   0.003775  -0.003470   0.000000   0.000000
    28  H   -0.000002   0.000000  -0.000004   0.003917  -0.000006  -0.000006
    29  H    0.000000   0.000000   0.000000   0.000003  -0.004861   0.003960
    30  H    0.000000   0.000000   0.000000   0.000000  -0.001055  -0.001191
    31  H    0.000000   0.000000   0.000000   0.000000   0.003812  -0.005168
             25         26         27         28         29         30
     1  C    0.078026   0.002812   0.014736   0.000346  -0.000010  -0.000112
     2  C   -0.010965  -0.000514   0.000225   0.000246   0.000083   0.000243
     3  C   -0.002017   0.000067   0.000958  -0.000070  -0.000005   0.000003
     4  C   -0.031241  -0.013420  -0.005593   0.004543  -0.000307  -0.000507
     5  C   -0.092362  -0.005886  -0.007884  -0.000670  -0.000268   0.000527
     6  C    0.000959   0.000013   0.000018  -0.000028   0.000000   0.000010
     7  C    0.055275   0.055600   0.000401  -0.009299   0.000999  -0.000390
     8  C    0.043979  -0.145200  -0.051492  -0.066526  -0.009273   0.003451
     9  C   -0.011397   0.041208  -0.021825  -0.029000   0.004583   0.003181
    10  O   -0.002060  -0.004059  -0.000114   0.006891  -0.005731   0.006934
    11  C   -0.000057  -0.004487   0.000383   0.004791  -0.063862  -0.052897
    12  O    0.227540  -0.000409  -0.000812   0.003878  -0.000006   0.000004
    13  C   -0.003340   0.432187   0.429464   0.445341   0.002150   0.000092
    14  O   -0.000004  -0.000418   0.000117   0.000197   0.001414  -0.000100
    15  C    0.000056   0.001402  -0.000563  -0.001963   0.434815   0.403103
    16  H    0.000031   0.000001   0.000000   0.000000   0.000000   0.000000
    17  H    0.000001   0.000000   0.000000   0.000000   0.000000   0.000000
    18  H    0.000000   0.000000   0.000000   0.000000   0.000000   0.000000
    19  H   -0.000958   0.000001   0.000000  -0.000002   0.000000   0.000000
    20  H    0.000000   0.000000   0.000000   0.000000   0.000000   0.000000
    21  H   -0.004240  -0.000025   0.003775  -0.000004   0.000000   0.000000
    22  H   -0.000156  -0.003681  -0.003470   0.003917   0.000003   0.000000
    23  H    0.000000  -0.000002   0.000000  -0.000006  -0.004861  -0.001055
    24  H   -0.000001   0.000000   0.000000  -0.000006   0.003960  -0.001191
    25  H    0.359359  -0.000001  -0.000039  -0.000061   0.000000   0.000000
    26  H   -0.000001   0.516754  -0.023272  -0.026005  -0.000021   0.000000
    27  H   -0.000039  -0.023272   0.514031  -0.023813   0.000000   0.000000
    28  H   -0.000061  -0.026005  -0.023813   0.496457   0.000001  -0.000001
    29  H    0.000000  -0.000021   0.000000   0.000001   0.508643  -0.022207
    30  H    0.000000   0.000000   0.000000  -0.000001  -0.022207   0.507470
    31  H    0.000000  -0.000018   0.000001  -0.000010  -0.029450  -0.022754
             31
     1  C    0.000018
     2  C   -0.000055
     3  C   -0.000001
     4  C    0.000097
     5  C    0.000442
     6  C    0.000007
     7  C   -0.001125
     8  C    0.006687
     9  C    0.005460
    10  O   -0.005368
    11  C   -0.053414
    12  O   -0.000054
    13  C   -0.002013
    14  O   -0.000425
    15  C    0.412517
    16  H    0.000000
    17  H    0.000000
    18  H    0.000000
    19  H    0.000000
    20  H    0.000000
    21  H    0.000000
    22  H    0.000000
    23  H    0.003812
    24  H   -0.005168
    25  H    0.000000
    26  H   -0.000018
    27  H    0.000001
    28  H   -0.000010
    29  H   -0.029450
    30  H   -0.022754
    31  H    0.516796
 Mulliken atomic charges:
              1
     1  C    0.197372
     2  C   -0.205673
     3  C   -0.332088
     4  C   -0.416661
     5  C   -0.308088
     6  C   -0.141052
     7  C    0.315556
     8  C    0.249951
     9  C   -0.020013
    10  O   -0.202746
    11  C    0.097091
    12  O   -0.564633
    13  C   -0.695433
    14  O   -0.450721
    15  C   -0.597662
    16  H    0.176547
    17  H    0.183361
    18  H    0.185858
    19  H    0.182062
    20  H    0.183146
    21  H    0.147138
    22  H    0.202748
    23  H    0.177111
    24  H    0.170590
    25  H    0.393675
    26  H    0.177375
    27  H    0.174768
    28  H    0.190855
    29  H    0.179350
    30  H    0.176198
    31  H    0.174019
 Sum of Mulliken atomic charges =   0.00000
 Mulliken charges with hydrogens summed into heavy atoms:
              1
     1  C    0.373920
     2  C   -0.022312
     3  C   -0.146229
     4  C   -0.416661
     5  C   -0.126026
     6  C    0.042094
     7  C    0.462694
     8  C    0.452698
     9  C   -0.020013
    10  O   -0.202746
    11  C    0.444792
    12  O   -0.170959
    13  C   -0.152435
    14  O   -0.450721
    15  C   -0.068095
 Sum of Mulliken charges with hydrogens summed into heavy atoms =   0.00000
 Electronic spatial extent (au):  <R**2>=           3465.1101
 Charge=              0.0000 electrons
 Dipole moment (field-independent basis, Debye):
    X=             -1.2400    Y=              0.3668    Z=              1.5301  Tot=              2.0033
 Quadrupole moment (field-independent basis, Debye-Ang):
   XX=            -79.7818   YY=            -80.7231   ZZ=            -94.9080
   XY=             -2.8252   XZ=              2.7172   YZ=             -9.0866
 Traceless Quadrupole moment (field-independent basis, Debye-Ang):
   XX=              5.3558   YY=              4.4146   ZZ=             -9.7704
   XY=             -2.8252   XZ=              2.7172   YZ=             -9.0866
 Octapole moment (field-independent basis, Debye-Ang**2):
  XXX=             17.7917  YYY=             -6.2301  ZZZ=             23.2089  XYY=              2.8451
  XXY=            -18.9980  XXZ=            -12.4827  XZZ=             -8.3051  YZZ=              6.3926
  YYZ=              2.6435  XYZ=             -7.2803
 Hexadecapole moment (field-independent basis, Debye-Ang**3):
 XXXX=          -2876.1408 YYYY=          -1083.5580 ZZZZ=           -515.5582 XXXY=              5.9362
 XXXZ=            100.1727 YYYX=            -17.9752 YYYZ=            -26.2764 ZZZX=             -0.1553
 ZZZY=             -4.8708 XXYY=           -619.3683 XXZZ=           -587.6126 YYZZ=           -277.9926
 XXYZ=            -15.9088 YYXZ=             -5.0210 ZZXY=            -17.4793
 N-N= 1.024336582674D+03 E-N=-3.660823131106D+03  KE= 6.859027525047D+02
 1\1\GINC-COMPUTE-9-6\SP\RwB97XD\6-31+G(d,p)\C12H16O3\ELUCIANO.IQUIR\17
 -May-2022\0\\# wb97xd/6-31+g** scrf=(pcm,solvent=chloroform,smd,dovacu
 um) nmr\\comment\\0,1\C,0,-2.435136529,-0.393941174,-1.616319811\C,0,-
 0.163409386,-0.3811316,-3.232958476\C,0,-2.530771596,-0.012384383,-2.9
 55875295\C,0,-1.202024883,-0.780791948,-1.069418827\C,0,-0.065848417,-
 0.76356339,-1.894253261\C,0,-1.395796695,-0.007483728,-3.763570448\C,0
 ,-1.114498968,-1.178429977,0.391759829\C,0,-0.882942583,-0.00602789,1.
 357514795\C,0,0.304579588,0.853873409,0.979121859\O,0,1.479451588,0.17
 5700431,1.069853508\C,0,2.662129902,0.916499953,0.739752057\O,0,-0.168
 100298,-2.230092782,0.58487247\C,0,-0.755385195,-0.455685735,2.8127591
 12\O,0,0.20179598,2.033976992,0.663122916\C,0,3.177879189,1.649252259,
 1.963756583\H,0,-3.333031267,-0.383261069,-1.001819746\H,0,0.724378159
 ,-0.368176583,-3.859982082\H,0,-3.49097143,0.286896948,-3.368386118\H,
 0,0.908576951,-1.040227979,-1.495112407\H,0,-1.470424168,0.294695435,-
 4.804903922\H,0,-2.077712806,-1.633566585,0.65942484\H,0,-1.757629624,
 0.657005512,1.294016849\H,0,2.482804056,1.603951433,-0.094864134\H,0,3
 .409837428,0.191141631,0.402667493\H,0,-0.247326839,-2.829218861,-0.17
 8009261\H,0,-0.63056784,0.408768694,3.47434539\H,0,-1.652081862,-0.997
 720519,3.130469993\H,0,0.109642969,-1.109537366,2.966589251\H,0,2.4466
 18773,2.381248022,2.320838152\H,0,4.112560468,2.170497825,1.738641645\
 H,0,3.353405333,0.947733024,2.785967046\\Version=EM64L-G09RevC.01\Stat
 e=1-A\HF=-692.4421558\RMSD=3.752e-09\Dipole=-0.0797367,-0.6925226,-0.3
 677562\Quadrupole=7.9816509,-10.1592064,2.1775554,2.463935,-0.688914,1
 .2063512\PG=C01 [X(C12H16O3)]\\@


 AN AIRPLANE IS A COLLECTION OF SPARE PARTS
 FLYING IN CLOSE FORMATION.
 Job cpu time:  0 days  0 hours 25 minutes 54.1 seconds.
 File lengths (MBytes):  RWF=    123 Int=      0 D2E=      0 Chk=      9 Scr=      1
 Normal termination of Gaussian 09 at Tue May 17 17:09:21 2022.
