 Entering Gaussian System, Link 0=g09
 Input=/home/eluciano.iquir/wb9/73b_003.gjc
 Output=/home/eluciano.iquir/wb9/73b_003.log
 Initial command:
 /share/apps/Gaussian09/EM64T.SSE4.2-enabled/g09/l1.exe /tmp/Gau-17341.inp -scrdir=/tmp/
 Entering Link 1 = /share/apps/Gaussian09/EM64T.SSE4.2-enabled/g09/l1.exe PID=     17342.
  
 Copyright (c) 1988,1990,1992,1993,1995,1998,2003,2009,2011,
            Gaussian, Inc.  All Rights Reserved.
  
 This is part of the Gaussian(R) 09 program.  It is based on
 the Gaussian(R) 03 system (copyright 2003, Gaussian, Inc.),
 the Gaussian(R) 98 system (copyright 1998, Gaussian, Inc.),
 the Gaussian(R) 94 system (copyright 1995, Gaussian, Inc.),
 the Gaussian 92(TM) system (copyright 1992, Gaussian, Inc.),
 the Gaussian 90(TM) system (copyright 1990, Gaussian, Inc.),
 the Gaussian 88(TM) system (copyright 1988, Gaussian, Inc.),
 the Gaussian 86(TM) system (copyright 1986, Carnegie Mellon
 University), and the Gaussian 82(TM) system (copyright 1983,
 Carnegie Mellon University). Gaussian is a federally registered
 trademark of Gaussian, Inc.
  
 This software contains proprietary and confidential information,
 including trade secrets, belonging to Gaussian, Inc.
  
 This software is provided under written license and may be
 used, copied, transmitted, or stored only in accord with that
 written license.
  
 The following legend is applicable only to US Government
 contracts under FAR:
  
                    RESTRICTED RIGHTS LEGEND
  
 Use, reproduction and disclosure by the US Government is
 subject to restrictions as set forth in subparagraphs (a)
 and (c) of the Commercial Computer Software - Restricted
 Rights clause in FAR 52.227-19.
  
 Gaussian, Inc.
 340 Quinnipiac St., Bldg. 40, Wallingford CT 06492
  
  
 ---------------------------------------------------------------
 Warning -- This program may not be used in any manner that
 competes with the business of Gaussian, Inc. or will provide
 assistance to any competitor of Gaussian, Inc.  The licensee
 of this program is prohibited from giving any competitor of
 Gaussian, Inc. access to this program.  By using this program,
 the user acknowledges that Gaussian, Inc. is engaged in the
 business of creating and licensing software in the field of
 computational chemistry and represents and warrants to the
 licensee that it is not a competitor of Gaussian, Inc. and that
 it will not use this program in any manner prohibited above.
 ---------------------------------------------------------------
  

 Cite this work as:
 Gaussian 09, Revision C.01,
 M. J. Frisch, G. W. Trucks, H. B. Schlegel, G. E. Scuseria, 
 M. A. Robb, J. R. Cheeseman, G. Scalmani, V. Barone, B. Mennucci, 
 G. A. Petersson, H. Nakatsuji, M. Caricato, X. Li, H. P. Hratchian, 
 A. F. Izmaylov, J. Bloino, G. Zheng, J. L. Sonnenberg, M. Hada, 
 M. Ehara, K. Toyota, R. Fukuda, J. Hasegawa, M. Ishida, T. Nakajima, 
 Y. Honda, O. Kitao, H. Nakai, T. Vreven, J. A. Montgomery, Jr., 
 J. E. Peralta, F. Ogliaro, M. Bearpark, J. J. Heyd, E. Brothers, 
 K. N. Kudin, V. N. Staroverov, T. Keith, R. Kobayashi, J. Normand, 
 K. Raghavachari, A. Rendell, J. C. Burant, S. S. Iyengar, J. Tomasi, 
 M. Cossi, N. Rega, J. M. Millam, M. Klene, J. E. Knox, J. B. Cross, 
 V. Bakken, C. Adamo, J. Jaramillo, R. Gomperts, R. E. Stratmann, 
 O. Yazyev, A. J. Austin, R. Cammi, C. Pomelli, J. W. Ochterski, 
 R. L. Martin, K. Morokuma, V. G. Zakrzewski, G. A. Voth, 
 P. Salvador, J. J. Dannenberg, S. Dapprich, A. D. Daniels, 
 O. Farkas, J. B. Foresman, J. V. Ortiz, J. Cioslowski, 
 and D. J. Fox, Gaussian, Inc., Wallingford CT, 2010.
 
 ******************************************
 Gaussian 09:  EM64L-G09RevC.01 23-Sep-2011
                17-May-2022 
 ******************************************
 %nprocshared=4
 Will use up to    4 processors via shared memory.
 ----------------------------------------------------------------
 # wb97xd/6-31+g** scrf=(pcm,solvent=chloroform,smd,dovacuum) nmr
 ----------------------------------------------------------------
 1/38=1/1;
 2/12=2,17=6,18=5,40=1/2;
 3/5=1,6=6,7=111,11=2,16=1,25=1,30=1,70=32101,72=7,74=-58/1,2,8,3;
 4//1;
 5/5=2,38=5,53=7/2;
 8/6=1,10=90,11=11/1;
 10/13=100,45=16/2;
 6/7=2,8=2,9=2,10=2,28=1/1;
 99/9=1/99;
 -------
 comment
 -------
 Charge =  0 Multiplicity = 1
 Symbolic Z-Matrix:
 6                    -0.44557  -2.83807  -0.83897 
 6                    -3.11013  -2.48018  -0.09361 
 6                    -1.30331  -3.93632  -0.75505 
 6                    -0.91118  -1.54696  -0.54963 
 6                    -2.25465  -1.38087  -0.17632 
 6                    -2.63407  -3.75719  -0.38254 
 6                     0.02799  -0.35912  -0.63821 
 6                     0.31209   0.3122    0.71294 
 6                     1.39104   1.35073   0.49493 
 8                     0.95561   2.58112   0.88656 
 6                     1.88726   3.65814   0.71442 
 8                    -0.56922   0.60229  -1.51892 
 6                     0.80354  -0.65037   1.79356 
 8                     2.50898   1.10375   0.0591 
 6                     1.79058   4.21376  -0.69412 
 1                     0.59078  -2.99984  -1.12908 
 1                    -4.14838  -2.33966   0.19607 
 1                    -0.93242  -4.93325  -0.97972 
 1                    -2.64133  -0.38836   0.04863 
 1                    -3.30046  -4.61342  -0.31744 
 1                     0.96441  -0.67106  -1.11706 
 1                    -0.59111   0.82133   1.0739 
 1                     2.9095    3.34298   0.95305 
 1                     1.61438   4.43536   1.43576 
 1                    -0.99155   0.10322  -2.24086 
 1                     1.11776  -0.10161   2.68864 
 1                     0.01662  -1.34859   2.09499 
 1                     1.66454  -1.23335   1.44774 
 1                     2.05988   3.45492  -1.4356 
 1                     2.45433   5.07404  -0.81808 
 1                     0.76411   4.52439  -0.91509 
 
                          Input orientation:                          
 ---------------------------------------------------------------------
 Center     Atomic      Atomic             Coordinates (Angstroms)
 Number     Number       Type             X           Y           Z
 ---------------------------------------------------------------------
      1          6           0       -0.445572   -2.838068   -0.838969
      2          6           0       -3.110132   -2.480177   -0.093605
      3          6           0       -1.303308   -3.936317   -0.755052
      4          6           0       -0.911176   -1.546959   -0.549631
      5          6           0       -2.254654   -1.380868   -0.176317
      6          6           0       -2.634071   -3.757190   -0.382538
      7          6           0        0.027988   -0.359120   -0.638210
      8          6           0        0.312089    0.312198    0.712938
      9          6           0        1.391035    1.350727    0.494934
     10          8           0        0.955610    2.581123    0.886563
     11          6           0        1.887263    3.658138    0.714417
     12          8           0       -0.569217    0.602287   -1.518915
     13          6           0        0.803544   -0.650371    1.793561
     14          8           0        2.508984    1.103749    0.059100
     15          6           0        1.790575    4.213756   -0.694122
     16          1           0        0.590777   -2.999843   -1.129083
     17          1           0       -4.148382   -2.339657    0.196066
     18          1           0       -0.932423   -4.933248   -0.979719
     19          1           0       -2.641335   -0.388360    0.048635
     20          1           0       -3.300462   -4.613421   -0.317441
     21          1           0        0.964413   -0.671060   -1.117058
     22          1           0       -0.591109    0.821328    1.073903
     23          1           0        2.909501    3.342981    0.953048
     24          1           0        1.614376    4.435359    1.435757
     25          1           0       -0.991547    0.103216   -2.240863
     26          1           0        1.117758   -0.101614    2.688640
     27          1           0        0.016616   -1.348590    2.094990
     28          1           0        1.664543   -1.233349    1.447739
     29          1           0        2.059881    3.454923   -1.435595
     30          1           0        2.454328    5.074042   -0.818083
     31          1           0        0.764106    4.524387   -0.915092
 ---------------------------------------------------------------------
                    Distance matrix (angstroms):
                    1          2          3          4          5
     1  C    0.000000
     2  C    2.789898   0.000000
     3  C    1.396031   2.412980   0.000000
     4  C    1.402663   2.431926   2.430020   0.000000
     5  C    2.415640   1.395408   2.787528   1.404238   0.000000
     6  C    2.417155   1.393155   1.393478   2.807384   2.415241
     7  C    2.531748   3.826653   3.818683   1.516851   2.543181
     8  C    3.592581   4.489929   4.776440   2.558696   3.200846
     9  C    4.764287   5.939925   6.064222   3.845501   4.604698
    10  O    5.857338   6.565649   7.090461   4.752748   5.208924
    11  C    7.075014   7.956492   8.367487   6.043353   6.583348
    12  O    3.509083   4.241385   4.660612   2.382375   2.928511
    13  C    3.643697   4.714493   4.661727   3.038863   3.710340
    14  O    5.007380   6.666506   6.371710   4.369703   5.377824
    15  C    7.399295   8.317830   8.717770   6.364446   6.923281
    16  H    1.088282   3.878014   2.145796   2.168524   3.409592
    17  H    3.876920   1.087022   3.398293   3.415251   2.155029
    18  H    2.155600   3.397819   1.087153   3.413558   3.874680
    19  H    3.407387   2.148418   3.876110   2.166501   1.088668
    20  H    3.402097   2.153383   2.153740   3.894327   3.400445
    21  H    2.600253   4.574087   3.991930   2.146393   3.428004
    22  H    4.131760   4.313756   5.146600   2.889134   3.029868
    23  H    7.257631   8.440417   8.582164   6.384915   7.089338
    24  H    7.894334   8.513786   9.132222   6.790310   7.169147
    25  H    3.303717   3.971528   4.315397   2.364276   2.839066
    26  H    4.730350   5.592272   5.694342   4.085584   4.606261
    27  H    3.322691   3.980828   4.069554   2.809656   3.212249
    28  H    3.500963   5.169898   4.578915   3.274472   4.244929
    29  H    6.799632   7.984696   8.148902   5.884805   6.601960
    30  H    8.426823   9.410329   9.762703   7.432115   8.015749
    31  H    7.461559   8.046643   8.711103   6.308833   6.673136
                    6          7          8          9         10
     6  C    0.000000
     7  C    4.324211   0.000000
     8  C    5.141969   1.535247   0.000000
     9  C    6.562183   2.462822   1.513339   0.000000
    10  O    7.393960   3.439542   2.364802   1.362661   0.000000
    11  C    8.754020   4.628701   3.698174   2.370350   1.434424
    12  O    4.955807   1.434085   2.417028   2.908322   3.468028
    13  C    5.119075   2.569013   1.528337   2.456822   3.359810
    14  O    7.090471   2.963371   2.424955   1.225054   2.297890
    15  C    9.121982   4.901126   4.403169   3.125767   2.420996
    16  H    3.395665   2.744286   3.800043   4.712251   5.945008
    17  H    2.153444   4.696872   5.214910   6.662837   7.123313
    18  H    2.152984   4.686327   5.650540   6.860131   7.969533
    19  H    3.396319   2.756428   3.107216   4.414025   4.738984
    20  H    1.086943   5.411150   6.194669   7.631589   8.445427
    21  H    4.797166   1.097038   2.177431   2.620715   3.819852
    22  H    5.220895   2.169809   1.097850   2.131751   2.350386
    23  H    9.106449   4.953865   3.998731   2.546504   2.098223
    24  H    9.406027   5.459395   4.383934   3.232643   2.042982
    25  H    4.588462   1.954918   3.235442   3.836349   4.439847
    26  H    6.072199   3.510248   2.173417   2.645056   3.235870
    27  H    4.354956   2.906813   2.180730   3.425714   4.217185
    28  H    5.310157   2.791733   2.181234   2.767687   3.920167
    29  H    8.669295   4.394466   4.188997   2.932906   2.715761
    30  H   10.201576   5.953044   5.441357   4.088726   3.371441
    31  H    8.967482   4.946430   4.538429   3.528928   2.656861
                   11         12         13         14         15
    11  C    0.000000
    12  O    4.512238   0.000000
    13  C    4.571898   3.798174   0.000000
    14  O    2.709406   3.495271   2.998970   0.000000
    15  C    1.517248   4.392221   5.551804   3.279572   0.000000
    16  H    7.029089   3.804326   3.755947   4.683030   7.325621
    17  H    8.524743   4.940306   5.470580   7.496421   8.888806
    18  H    9.199600   5.573581   5.389592   7.026220   9.547982
    19  H    6.109469   2.780696   3.870479   5.362115   6.432184
    20  H    9.818142   6.008898   6.083170   8.159502  10.197039
    21  H    4.790398   2.033451   2.915134   2.630398   4.972207
    22  H    3.784052   2.602147   2.151479   3.274166   4.506318
    23  H    1.096012   5.071832   4.592208   2.444118   2.173342
    24  H    1.094929   5.309482   5.162376   3.714179   2.148614
    25  H    5.445980   0.973984   4.479601   4.306346   5.198957
    26  H    4.315719   4.587471   1.095916   3.209812   5.524327
    27  H    5.520201   4.148425   1.094360   4.046073   6.470376
    28  H    4.951163   4.142497   1.095799   2.846652   5.854435
    29  H    2.166482   3.880287   5.372082   2.822025   1.094594
    30  H    2.162152   5.443306   6.504973   4.066406   1.093629
    31  H    2.160363   4.186313   5.840931   3.961617   1.094969
                   16         17         18         19         20
    16  H    0.000000
    17  H    4.965027   0.000000
    18  H    2.465867   4.295530   0.000000
    19  H    4.318959   2.469916   4.963255   0.000000
    20  H    4.290004   2.480456   2.479618   4.291806   0.000000
    21  H    2.358597   5.536170   4.667236   3.800023   5.862657
    22  H    4.566328   4.839072   6.119559   2.591900   6.230002
    23  H    7.067048   9.092805   9.326947   6.749270  10.172616
    24  H    7.931481   8.980370  10.004574   6.580535  10.445561
    25  H    3.656334   4.676735   5.192297   2.864480   5.592611
    26  H    4.822080   6.241314   6.403498   4.602460   6.993825
    27  H    3.667552   4.683517   4.817082   3.489171   5.242323
    28  H    3.303556   6.048198   5.130890   4.605658   6.260353
    29  H    6.626931   8.647658   8.917573   6.251015   9.750985
    30  H    8.291994   9.979339  10.566080   7.520293  11.278971
    31  H    7.529268   8.513654   9.608811   6.054823  10.018854
                   21         22         23         24         25
    21  H    0.000000
    22  H    3.073626   0.000000
    23  H    4.917442   4.315971   0.000000
    24  H    5.745853   4.249273   1.761717   0.000000
    25  H    2.385000   3.415218   5.992940   6.251067   0.000000
    26  H    3.851119   2.525752   4.252982   4.732913   5.365737
    27  H    3.416813   2.473962   5.628823   6.036678   4.682280
    28  H    2.717450   3.073990   4.768379   5.668943   4.737827
    29  H    4.280800   4.501239   2.537716   3.066658   4.603652
    30  H    5.942678   5.562362   2.518067   2.488620   6.213491
    31  H    5.203228   4.416487   3.080323   2.501475   4.938293
                   26         27         28         29         30
    26  H    0.000000
    27  H    1.766319   0.000000
    28  H    1.766249   1.774226   0.000000
    29  H    5.526831   6.301880   5.518134   0.000000
    30  H    6.393038   7.461811   6.748399   1.777205   0.000000
    31  H    5.874678   6.641625   6.288504   1.758894   1.779995
                   31
    31  H    0.000000
 Stoichiometry    C12H16O3
 Framework group  C1[X(C12H16O3)]
 Deg. of freedom    87
 Full point group                 C1      NOp   1
 Largest Abelian subgroup         C1      NOp   1
 Largest concise Abelian subgroup C1      NOp   1
                         Standard orientation:                         
 ---------------------------------------------------------------------
 Center     Atomic      Atomic             Coordinates (Angstroms)
 Number     Number       Type             X           Y           Z
 ---------------------------------------------------------------------
      1          6           0        2.652460    0.576659   -1.063799
      2          6           0        3.663932   -0.944345    1.044992
      3          6           0        4.022873    0.571694   -0.797631
      4          6           0        1.771268   -0.179162   -0.276590
      5          6           0        2.293680   -0.940697    0.781254
      6          6           0        4.527682   -0.187977    0.255863
      7          6           0        0.282896   -0.164884   -0.568795
      8          6           0       -0.562547    0.483235    0.536714
      9          6           0       -1.984629    0.587201    0.029694
     10          8           0       -2.839658   -0.060978    0.869714
     11          6           0       -4.222142   -0.047268    0.487455
     12          8           0       -0.139284   -1.524613   -0.740556
     13          6           0       -0.103297    1.887706    0.927050
     14          8           0       -2.315171    1.200467   -0.977979
     15          6           0       -4.510235   -1.183817   -0.475510
     16          1           0        2.278245    1.178798   -1.889480
     17          1           0        4.057221   -1.537949    1.866318
     18          1           0        4.697492    1.162174   -1.412548
     19          1           0        1.631003   -1.539472    1.403770
     20          1           0        5.594922   -0.190482    0.461872
     21          1           0        0.105975    0.333175   -1.530111
     22          1           0       -0.559141   -0.153659    1.430934
     23          1           0       -4.508843    0.921729    0.063089
     24          1           0       -4.808216   -0.183041    1.402307
     25          1           0        0.572309   -1.985181   -1.220303
     26          1           0       -0.817217    2.351988    1.616828
     27          1           0        0.870142    1.865653    1.426605
     28          1           0       -0.023503    2.540060    0.050214
     29          1           0       -3.936002   -1.070702   -1.400494
     30          1           0       -5.573975   -1.218804   -0.727021
     31          1           0       -4.219162   -2.143354   -0.035596
 ---------------------------------------------------------------------
 Rotational constants (GHZ):      1.5710963      0.2761821      0.2669286
 Standard basis: 6-31+G(d,p) (6D, 7F)
 There are   365 symmetry adapted basis functions of A   symmetry.
 Integral buffers will be    131072 words long.
 Raffenetti 2 integral format.
 Two-electron integral symmetry is turned on.
   365 basis functions,   592 primitive gaussians,   365 cartesian basis functions
    56 alpha electrons       56 beta electrons
       nuclear repulsion energy       994.5279223564 Hartrees.
 NAtoms=   31 NActive=   31 NUniq=   31 SFac= 1.00D+00 NAtFMM=   60 NAOKFM=F Big=F
 Nuclear repulsion after empirical dispersion term =      994.5071916521 Hartrees.
 ------------------------------------------------------------------------------
 Polarizable Continuum Model (PCM)
 =================================
 Model                : C-PCM.
 Atomic radii         : SMD-Coulomb.
 Polarization charges : Total charges.
 Charge compensation  : None.
 Solution method      : Matrix inversion.
 Cavity type          : VdW (van der Waals Surface) (Alpha=1.000).
 Cavity algorithm     : GePol (No added spheres)
                        Default sphere list used, NSphG=   31.
                        Lebedev-Laikov grids with approx.  5.0 points / Ang**2.
                        Smoothing algorithm: Karplus/York (Gamma=1.0000).
                        Polarization charges: spherical gaussians, with
                                              point-specific exponents (IZeta= 3).
                        Self-potential: point-specific (ISelfS= 7).
                        Self-field    : sphere-specific E.n sum rule (ISelfD= 2).
 Solvent              : Chloroform, Eps=   4.711300 Eps(inf)=   2.090627
 ------------------------------------------------------------------------------
 ------------------------------------------------------------------------------
 Atomic radii for non-electrostatic terms: SMD-CDS.
 ------------------------------------------------------------------------------
 Nuclear repulsion after PCM non-electrostatic terms =      994.5007809153 Hartrees.
 One-electron integrals computed using PRISM.
 NBasis=   365 RedAO= T  NBF=   365
 NBsUse=   365 1.00D-06 NBFU=   365
 Harris functional with IExCor= 4639 diagonalized for initial guess.
 ExpMin= 4.38D-02 ExpMax= 5.48D+03 ExpMxC= 8.25D+02 IAcc=2 IRadAn=         4 AccDes= 0.00D+00
 HarFok:  IExCor= 4639 AccDes= 0.00D+00 IRadAn=         4 IDoV= 1
 ScaDFX=  1.000000  1.000000  1.000000  1.000000
 FoFCou: FMM=F IPFlag=           0 FMFlag=      100000 FMFlg1=           0
         NFxFlg=           0 DoJE=T BraDBF=F KetDBF=T FulRan=T
         Omega=  0.000000  0.000000  1.000000  0.000000  0.000000 ICntrl=     500 IOpCl=  0
         NMat0=    1 NMatS0=    1 NMatT0=    0 NMatD0=    1 NMtDS0=    0 NMtDT0=    0
         I1Cent=           4 NGrid=           0.
 Petite list used in FoFCou.
 Initial guess orbital symmetries:
       Occupied  (A) (A) (A) (A) (A) (A) (A) (A) (A) (A) (A) (A)
                 (A) (A) (A) (A) (A) (A) (A) (A) (A) (A) (A) (A)
                 (A) (A) (A) (A) (A) (A) (A) (A) (A) (A) (A) (A)
                 (A) (A) (A) (A) (A) (A) (A) (A) (A) (A) (A) (A)
                 (A) (A) (A) (A) (A) (A) (A) (A)
       Virtual   (A) (A) (A) (A) (A) (A) (A) (A) (A) (A) (A) (A)
                 (A) (A) (A) (A) (A) (A) (A) (A) (A) (A) (A) (A)
                 (A) (A) (A) (A) (A) (A) (A) (A) (A) (A) (A) (A)
                 (A) (A) (A) (A) (A) (A) (A) (A) (A) (A) (A) (A)
                 (A) (A) (A) (A) (A) (A) (A) (A) (A) (A) (A) (A)
                 (A) (A) (A) (A) (A) (A) (A) (A) (A) (A) (A) (A)
                 (A) (A) (A) (A) (A) (A) (A) (A) (A) (A) (A) (A)
                 (A) (A) (A) (A) (A) (A) (A) (A) (A) (A) (A) (A)
                 (A) (A) (A) (A) (A) (A) (A) (A) (A) (A) (A) (A)
                 (A) (A) (A) (A) (A) (A) (A) (A) (A) (A) (A) (A)
                 (A) (A) (A) (A) (A) (A) (A) (A) (A) (A) (A) (A)
                 (A) (A) (A) (A) (A) (A) (A) (A) (A) (A) (A) (A)
                 (A) (A) (A) (A) (A) (A) (A) (A) (A) (A) (A) (A)
                 (A) (A) (A) (A) (A) (A) (A) (A) (A) (A) (A) (A)
                 (A) (A) (A) (A) (A) (A) (A) (A) (A) (A) (A) (A)
                 (A) (A) (A) (A) (A) (A) (A) (A) (A) (A) (A) (A)
                 (A) (A) (A) (A) (A) (A) (A) (A) (A) (A) (A) (A)
                 (A) (A) (A) (A) (A) (A) (A) (A) (A) (A) (A) (A)
                 (A) (A) (A) (A) (A) (A) (A) (A) (A) (A) (A) (A)
                 (A) (A) (A) (A) (A) (A) (A) (A) (A) (A) (A) (A)
                 (A) (A) (A) (A) (A) (A) (A) (A) (A) (A) (A) (A)
                 (A) (A) (A) (A) (A) (A) (A) (A) (A) (A) (A) (A)
                 (A) (A) (A) (A) (A) (A) (A) (A) (A) (A) (A) (A)
                 (A) (A) (A) (A) (A) (A) (A) (A) (A) (A) (A) (A)
                 (A) (A) (A) (A) (A) (A) (A) (A) (A) (A) (A) (A)
                 (A) (A) (A) (A) (A) (A) (A) (A) (A)
 The electronic state of the initial guess is 1-A.
 Requested convergence on RMS density matrix=1.00D-08 within 128 cycles.
 Requested convergence on MAX density matrix=1.00D-06.
 Requested convergence on             energy=1.00D-06.
 No special actions if energy rises.
 FoFJK:  IHMeth= 1 ICntrl=     0 DoSepK=T KAlg= 1 I1Cent= 0 FoldK=F
 FoFJK:  IHMeth= 1 ICntrl=     0 DoSepK=T KAlg= 1 I1Cent= 0 FoldK=F
 FoFJK:  IHMeth= 1 ICntrl=     0 DoSepK=T KAlg= 1 I1Cent= 0 FoldK=F
 FoFJK:  IHMeth= 1 ICntrl=     0 DoSepK=T KAlg= 1 I1Cent= 0 FoldK=F
 FoFJK:  IHMeth= 1 ICntrl=     0 DoSepK=T KAlg= 1 I1Cent= 0 FoldK=F
 FoFJK:  IHMeth= 1 ICntrl=     0 DoSepK=T KAlg= 1 I1Cent= 0 FoldK=F
 FoFJK:  IHMeth= 1 ICntrl=     0 DoSepK=T KAlg= 1 I1Cent= 0 FoldK=F
 FoFJK:  IHMeth= 1 ICntrl=     0 DoSepK=T KAlg= 1 I1Cent= 0 FoldK=F
 FoFJK:  IHMeth= 1 ICntrl=     0 DoSepK=T KAlg= 1 I1Cent= 0 FoldK=F
 FoFJK:  IHMeth= 1 ICntrl=     0 DoSepK=T KAlg= 1 I1Cent= 0 FoldK=F
 FoFJK:  IHMeth= 1 ICntrl=     0 DoSepK=T KAlg= 1 I1Cent= 0 FoldK=F
 FoFJK:  IHMeth= 1 ICntrl=     0 DoSepK=T KAlg= 1 I1Cent= 0 FoldK=F
 FoFJK:  IHMeth= 1 ICntrl=     0 DoSepK=T KAlg= 1 I1Cent= 0 FoldK=F
 FoFJK:  IHMeth= 1 ICntrl=     0 DoSepK=T KAlg= 1 I1Cent= 0 FoldK=F
 FoFJK:  IHMeth= 1 ICntrl=     0 DoSepK=T KAlg= 1 I1Cent= 0 FoldK=F
 FoFJK:  IHMeth= 1 ICntrl=     0 DoSepK=T KAlg= 1 I1Cent= 0 FoldK=F
 Error on total polarization charges =  0.04005
 SCF Done:  E(RwB97XD) =  -692.445354168     A.U. after   16 cycles
             Convg  =    0.2949D-08             -V/T =  2.0095
 SMD-CDS (non-electrostatic) energy       (kcal/mol) =      -4.02
 (included in total energy above)
 Range of M.O.s used for correlation:     1   365
 NBasis=   365 NAE=    56 NBE=    56 NFC=     0 NFV=     0
 NROrb=    365 NOA=    56 NOB=    56 NVA=   309 NVB=   309

 **** Warning!!: The largest alpha MO coefficient is  0.12158448D+03

 NEqPCM:  Using equilibrium solvation (IEInf=0, Eps=   4.7113, EpsInf=   2.0906)
          Differentiating once with respect to magnetic field using GIAOs.
          Electric field/nuclear overlap derivatives assumed to be zero.
 FoFCou: FMM=F IPFlag=           0 FMFlag=    10101102 FMFlg1=           0
         NFxFlg=    40000000 DoJE=F BraDBF=F KetDBF=T FulRan=T
         Omega=  0.000000  0.000000  1.000000  0.000000  0.000000 ICntrl=    6100 IOpCl=  0
         NMat0=    1 NMatS0=    1 NMatT0=    0 NMatD0=    1 NMtDS0=    0 NMtDT0=    0
         I1Cent=           7 NGrid=        2295.
 Symmetry not used in FoFCou.
 FoFJK:  IHMeth= 1 ICntrl=  6127 DoSepK=T KAlg= 1 I1Cent= 0 FoldK=F
 FoFJK:  IHMeth= 1 ICntrl=     0 DoSepK=T KAlg= 1 I1Cent= 0 FoldK=F
          There are     3 degrees of freedom in the 1st order CPHF.  IDoFFX=0.
      3 vectors produced by pass  0 Test12= 5.77D-13 3.33D-08 XBig12= 1.47D+02 2.47D+00.
 AX will form     3 AO Fock derivatives at one time.
 FoFJK:  IHMeth= 1 ICntrl=     0 DoSepK=T KAlg= 1 I1Cent= 0 FoldK=F
      3 vectors produced by pass  1 Test12= 5.77D-13 3.33D-08 XBig12= 1.22D+00 2.50D-01.
 FoFJK:  IHMeth= 1 ICntrl=     0 DoSepK=T KAlg= 1 I1Cent= 0 FoldK=F
      3 vectors produced by pass  2 Test12= 5.77D-13 3.33D-08 XBig12= 2.23D-02 5.17D-02.
 FoFJK:  IHMeth= 1 ICntrl=     0 DoSepK=T KAlg= 1 I1Cent= 0 FoldK=F
      3 vectors produced by pass  3 Test12= 5.77D-13 3.33D-08 XBig12= 4.07D-04 5.76D-03.
 FoFJK:  IHMeth= 1 ICntrl=     0 DoSepK=T KAlg= 1 I1Cent= 0 FoldK=F
      3 vectors produced by pass  4 Test12= 5.77D-13 3.33D-08 XBig12= 6.02D-06 4.40D-04.
 FoFJK:  IHMeth= 1 ICntrl=     0 DoSepK=T KAlg= 1 I1Cent= 0 FoldK=F
      3 vectors produced by pass  5 Test12= 5.77D-13 3.33D-08 XBig12= 7.54D-08 5.15D-05.
 FoFJK:  IHMeth= 1 ICntrl=     0 DoSepK=T KAlg= 1 I1Cent= 0 FoldK=F
      3 vectors produced by pass  6 Test12= 5.77D-13 3.33D-08 XBig12= 9.54D-10 7.83D-06.
 FoFJK:  IHMeth= 1 ICntrl=     0 DoSepK=T KAlg= 1 I1Cent= 0 FoldK=F
      3 vectors produced by pass  7 Test12= 5.77D-13 3.33D-08 XBig12= 1.18D-11 6.78D-07.
 FoFJK:  IHMeth= 1 ICntrl=     0 DoSepK=T KAlg= 1 I1Cent= 0 FoldK=F
      3 vectors produced by pass  8 Test12= 5.77D-13 3.33D-08 XBig12= 1.38D-13 6.37D-08.
 FoFJK:  IHMeth= 1 ICntrl=     0 DoSepK=T KAlg= 1 I1Cent= 0 FoldK=F
 Inverted reduced A of dimension    27 with in-core refinement.
 Calculating GIAO nuclear magnetic shielding tensors.
 SCF GIAO Magnetic shielding tensor (ppm):
      1  C    Isotropic =    69.2260   Anisotropy =   160.6905
   XX=    52.5648   YX=     4.8493   ZX=   -30.8911
   XY=    13.8891   YY=   102.5231   ZY=    95.1366
   XZ=   -24.1750   YZ=    94.5235   ZZ=    52.5902
   Eigenvalues:   -29.7574    61.0825   176.3530
      2  C    Isotropic =    68.9175   Anisotropy =   176.9503
   XX=    46.8668   YX=     3.1088   ZX=   -31.6897
   XY=     5.2497   YY=   109.0085   ZY=    99.1527
   XZ=   -33.5289   YZ=   102.6361   ZZ=    50.8772
   Eigenvalues:   -35.1533    55.0214   186.8843
      3  C    Isotropic =    70.1166   Anisotropy =   173.6265
   XX=    23.6307   YX=   -41.3822   ZX=    20.6138
   XY=   -42.3179   YY=   108.2557   ZY=    89.7165
   XZ=    22.3566   YZ=    88.5356   ZZ=    78.4633
   Eigenvalues:   -31.9220    56.4041   185.8676
      4  C    Isotropic =    52.2751   Anisotropy =   187.2012
   XX=   -30.5171   YX=   -13.3323   ZX=   -13.1142
   XY=   -14.5422   YY=   120.1448   ZY=    74.3080
   XZ=   -21.5189   YZ=    79.2103   ZZ=    67.1977
   Eigenvalues:   -33.5006    13.2501   177.0759
      5  C    Isotropic =    74.1803   Anisotropy =   182.3352
   XX=    26.8409   YX=   -38.1380   ZX=    15.9816
   XY=   -33.9087   YY=   114.5330   ZY=    93.8072
   XZ=    23.3762   YZ=    96.2981   ZZ=    81.1671
   Eigenvalues:   -26.5605    53.3644   195.7371
      6  C    Isotropic =    71.2235   Anisotropy =   177.6882
   XX=   -26.0314   YX=   -13.1580   ZX=   -24.6744
   XY=   -15.0449   YY=   135.9623   ZY=    64.8459
   XZ=   -27.6223   YZ=    63.9515   ZZ=   103.7395
   Eigenvalues:   -31.1205    55.1086   189.6823
      7  C    Isotropic =   116.6942   Anisotropy =    26.7425
   XX=   112.3026   YX=     7.4223   ZX=    -3.4875
   XY=     9.7107   YY=   131.1972   ZY=    -0.0937
   XZ=    -3.4804   YZ=     1.2057   ZZ=   106.5828
   Eigenvalues:   104.1224   111.4377   134.5225
      8  C    Isotropic =   147.8017   Anisotropy =    24.3526
   XX=   162.1620   YX=    -7.8236   ZX=    -1.3051
   XY=    -5.3627   YY=   140.4109   ZY=    -2.8028
   XZ=    -1.3293   YZ=    -0.2075   ZZ=   140.8321
   Eigenvalues:   137.5639   141.8043   164.0367
      9  C    Isotropic =    16.8011   Anisotropy =   101.3881
   XX=   -44.7354   YX=   -29.9594   ZX=    21.3183
   XY=   -49.9787   YY=    59.5608   ZY=    28.3447
   XZ=    42.9123   YZ=    36.6475   ZZ=    35.5779
   Eigenvalues:   -73.9356    39.9458    84.3932
     10  O    Isotropic =   123.8139   Anisotropy =   144.3830
   XX=    87.7889   YX=    23.0522   ZX=   -45.2625
   XY=    97.3915   YY=   189.2628   ZY=    70.8950
   XZ=  -164.6295   YZ=    48.6435   ZZ=    94.3902
   Eigenvalues:   -44.6775   196.0500   220.0693
     11  C    Isotropic =   137.5010   Anisotropy =    65.7596
   XX=   178.0233   YX=    -0.9889   ZX=    14.1227
   XY=     3.5902   YY=   117.1664   ZY=    17.7722
   XZ=    13.3337   YZ=    14.3324   ZZ=   117.3132
   Eigenvalues:   100.1557   131.0064   181.3407
     12  O    Isotropic =   265.7455   Anisotropy =    45.7609
   XX=   288.6692   YX=    -6.6000   ZX=    -8.8409
   XY=    -0.7419   YY=   278.1199   ZY=    24.2077
   XZ=    -1.0451   YZ=    34.9947   ZZ=   230.4474
   Eigenvalues:   216.1639   284.8198   296.2528
     13  C    Isotropic =   180.7806   Anisotropy =    21.4455
   XX=   179.0003   YX=     3.3648   ZX=     2.9005
   XY=     3.0942   YY=   191.9230   ZY=     8.7500
   XZ=     4.6038   YZ=     4.8544   ZZ=   171.4185
   Eigenvalues:   168.6360   178.6282   195.0776
     14  O    Isotropic =   -22.7237   Anisotropy =   552.7111
   XX=  -156.9882   YX=   -54.7998   ZX=   -24.3732
   XY=   -65.6091   YY=   172.7097   ZY=   258.0038
   XZ=     4.2700   YZ=   273.3108   ZZ=   -83.8926
   Eigenvalues:  -256.4679  -157.4535   345.7504
     15  C    Isotropic =   181.3085   Anisotropy =    25.4995
   XX=   185.7811   YX=    -0.4329   ZX=     5.4606
   XY=     4.0341   YY=   182.9805   ZY=    15.3769
   XZ=     9.0039   YZ=    16.3575   ZZ=   175.1640
   Eigenvalues:   161.8154   183.8020   198.3082
     16  H    Isotropic =    23.7042   Anisotropy =     7.8348
   XX=    27.8290   YX=     1.7222   ZX=    -1.9823
   XY=     1.5329   YY=    20.7894   ZY=    -1.4384
   XZ=    -1.7310   YZ=    -1.7464   ZZ=    22.4941
   Eigenvalues:    19.8051    22.3801    28.9274
     17  H    Isotropic =    23.7276   Anisotropy =     5.0948
   XX=    27.0193   YX=     0.6932   ZX=     0.1013
   XY=     0.6888   YY=    21.9469   ZY=    -1.7127
   XZ=    -0.1199   YZ=    -1.6619   ZZ=    22.2166
   Eigenvalues:    20.3510    23.7077    27.1241
     18  H    Isotropic =    23.8196   Anisotropy =     4.7837
   XX=    26.3755   YX=    -0.3619   ZX=     1.1806
   XY=    -0.2903   YY=    21.7853   ZY=    -2.0147
   XZ=     1.2510   YZ=    -2.0086   ZZ=    23.2980
   Eigenvalues:    20.3609    24.0892    27.0087
     19  H    Isotropic =    23.2996   Anisotropy =     9.8752
   XX=    26.6829   YX=    -2.6609   ZX=     3.8981
   XY=    -1.7946   YY=    21.1258   ZY=    -2.9106
   XZ=     3.3351   YZ=    -2.3898   ZZ=    22.0902
   Eigenvalues:    18.8346    21.1812    29.8831
     20  H    Isotropic =    23.7206   Anisotropy =     4.2438
   XX=    24.4599   YX=     0.4178   ZX=    -0.0371
   XY=     0.4165   YY=    22.6292   ZY=    -3.0508
   XZ=    -0.0917   YZ=    -3.0873   ZZ=    24.0726
   Eigenvalues:    20.1789    24.4331    26.5498
     21  H    Isotropic =    26.5936   Anisotropy =     4.4809
   XX=    26.1171   YX=     1.6344   ZX=    -0.6743
   XY=     0.2796   YY=    26.6759   ZY=    -2.8028
   XZ=    -0.2103   YZ=    -2.1289   ZZ=    26.9878
   Eigenvalues:    24.2671    25.9329    29.5809
     22  H    Isotropic =    28.5034   Anisotropy =     4.3019
   XX=    29.4443   YX=     0.6275   ZX=     0.3324
   XY=    -0.2830   YY=    27.4586   ZY=    -2.4311
   XZ=    -2.1363   YZ=    -3.4499   ZZ=    28.6074
   Eigenvalues:    24.9923    29.1466    31.3714
     23  H    Isotropic =    26.8379   Anisotropy =     6.2694
   XX=    29.5144   YX=    -2.7054   ZX=     1.6101
   XY=    -1.4287   YY=    28.0655   ZY=    -0.0077
   XZ=    -0.2374   YZ=     0.0514   ZZ=    22.9337
   Eigenvalues:    22.8510    26.6452    31.0175
     24  H    Isotropic =    27.7768   Anisotropy =     8.2264
   XX=    30.5150   YX=     0.9962   ZX=    -3.9596
   XY=    -0.0953   YY=    23.5930   ZY=     2.3896
   XZ=    -2.5259   YZ=     1.5093   ZZ=    29.2225
   Eigenvalues:    22.6881    27.3813    33.2611
     25  H    Isotropic =    29.9254   Anisotropy =    14.7529
   XX=    30.9405   YX=    -4.4445   ZX=    -5.6067
   XY=    -2.6647   YY=    32.7750   ZY=     6.6440
   XZ=    -3.0503   YZ=     5.9023   ZZ=    26.0607
   Eigenvalues:    21.8113    28.2043    39.7607
     26  H    Isotropic =    30.7564   Anisotropy =    10.3203
   XX=    30.1526   YX=    -1.2899   ZX=    -2.8048
   XY=    -2.6107   YY=    31.6049   ZY=     5.3762
   XZ=    -3.3161   YZ=     4.4202   ZZ=    30.5116
   Eigenvalues:    25.8224    28.8101    37.6365
     27  H    Isotropic =    31.3915   Anisotropy =     6.7717
   XX=    34.5050   YX=     0.3358   ZX=     3.8308
   XY=    -1.4037   YY=    30.0391   ZY=     3.4354
   XZ=     1.6208   YZ=     3.3351   ZZ=    29.6303
   Eigenvalues:    25.7873    32.4812    35.9059
     28  H    Isotropic =    30.6573   Anisotropy =     7.9821
   XX=    27.9892   YX=     1.5306   ZX=    -0.5111
   XY=    -0.2356   YY=    34.2363   ZY=    -4.2103
   XZ=    -1.2656   YZ=    -2.0848   ZZ=    29.7464
   Eigenvalues:    27.4905    28.5026    35.9787
     29  H    Isotropic =    30.1872   Anisotropy =     5.8397
   XX=    29.4412   YX=     2.0297   ZX=    -2.1302
   XY=     2.1205   YY=    27.8217   ZY=     2.1019
   XZ=    -1.4767   YZ=     0.8223   ZZ=    33.2986
   Eigenvalues:    25.7416    30.7396    34.0803
     30  H    Isotropic =    30.5839   Anisotropy =    11.5492
   XX=    36.4010   YX=     1.9248   ZX=     3.2034
   XY=     2.7264   YY=    27.5564   ZY=     1.1574
   XZ=     3.8565   YZ=     1.1458   ZZ=    27.7944
   Eigenvalues:    26.3780    27.0903    38.2834
     31  H    Isotropic =    30.3531   Anisotropy =     8.0271
   XX=    28.2308   YX=     0.1708   ZX=     1.0832
   XY=     0.1926   YY=    35.3903   ZY=    -2.3757
   XZ=     0.5677   YZ=    -0.8474   ZZ=    27.4384
   Eigenvalues:    26.6675    28.6875    35.7045
 End of Minotr Frequency-dependent properties file   721 does not exist.
 End of Minotr Frequency-dependent properties file   722 does not exist.

 **********************************************************************

            Population analysis using the SCF density.

 **********************************************************************

 Orbital symmetries:
       Occupied  (A) (A) (A) (A) (A) (A) (A) (A) (A) (A) (A) (A)
                 (A) (A) (A) (A) (A) (A) (A) (A) (A) (A) (A) (A)
                 (A) (A) (A) (A) (A) (A) (A) (A) (A) (A) (A) (A)
                 (A) (A) (A) (A) (A) (A) (A) (A) (A) (A) (A) (A)
                 (A) (A) (A) (A) (A) (A) (A) (A)
       Virtual   (A) (A) (A) (A) (A) (A) (A) (A) (A) (A) (A) (A)
                 (A) (A) (A) (A) (A) (A) (A) (A) (A) (A) (A) (A)
                 (A) (A) (A) (A) (A) (A) (A) (A) (A) (A) (A) (A)
                 (A) (A) (A) (A) (A) (A) (A) (A) (A) (A) (A) (A)
                 (A) (A) (A) (A) (A) (A) (A) (A) (A) (A) (A) (A)
                 (A) (A) (A) (A) (A) (A) (A) (A) (A) (A) (A) (A)
                 (A) (A) (A) (A) (A) (A) (A) (A) (A) (A) (A) (A)
                 (A) (A) (A) (A) (A) (A) (A) (A) (A) (A) (A) (A)
                 (A) (A) (A) (A) (A) (A) (A) (A) (A) (A) (A) (A)
                 (A) (A) (A) (A) (A) (A) (A) (A) (A) (A) (A) (A)
                 (A) (A) (A) (A) (A) (A) (A) (A) (A) (A) (A) (A)
                 (A) (A) (A) (A) (A) (A) (A) (A) (A) (A) (A) (A)
                 (A) (A) (A) (A) (A) (A) (A) (A) (A) (A) (A) (A)
                 (A) (A) (A) (A) (A) (A) (A) (A) (A) (A) (A) (A)
                 (A) (A) (A) (A) (A) (A) (A) (A) (A) (A) (A) (A)
                 (A) (A) (A) (A) (A) (A) (A) (A) (A) (A) (A) (A)
                 (A) (A) (A) (A) (A) (A) (A) (A) (A) (A) (A) (A)
                 (A) (A) (A) (A) (A) (A) (A) (A) (A) (A) (A) (A)
                 (A) (A) (A) (A) (A) (A) (A) (A) (A) (A) (A) (A)
                 (A) (A) (A) (A) (A) (A) (A) (A) (A) (A) (A) (A)
                 (A) (A) (A) (A) (A) (A) (A) (A) (A) (A) (A) (A)
                 (A) (A) (A) (A) (A) (A) (A) (A) (A) (A) (A) (A)
                 (A) (A) (A) (A) (A) (A) (A) (A) (A) (A) (A) (A)
                 (A) (A) (A) (A) (A) (A) (A) (A) (A) (A) (A) (A)
                 (A) (A) (A) (A) (A) (A) (A) (A) (A) (A) (A) (A)
                 (A) (A) (A) (A) (A) (A) (A) (A) (A)
 The electronic state is 1-A.
 Alpha  occ. eigenvalues --  -19.32728 -19.28155 -19.27398 -10.43830 -10.35990
 Alpha  occ. eigenvalues --  -10.34835 -10.31868 -10.31606 -10.30890 -10.30889
 Alpha  occ. eigenvalues --  -10.30831 -10.30795 -10.30706 -10.29304 -10.28462
 Alpha  occ. eigenvalues --   -1.20788  -1.13025  -1.12295  -0.96358  -0.91452
 Alpha  occ. eigenvalues --   -0.86735  -0.85079  -0.84886  -0.77948  -0.76249
 Alpha  occ. eigenvalues --   -0.71339  -0.70276  -0.67487  -0.64149  -0.61787
 Alpha  occ. eigenvalues --   -0.61006  -0.58361  -0.57851  -0.55811  -0.54807
 Alpha  occ. eigenvalues --   -0.53601  -0.53062  -0.52761  -0.50675  -0.49960
 Alpha  occ. eigenvalues --   -0.49232  -0.47048  -0.46864  -0.46367  -0.45285
 Alpha  occ. eigenvalues --   -0.44735  -0.44383  -0.43795  -0.42492  -0.41651
 Alpha  occ. eigenvalues --   -0.40229  -0.38710  -0.36941  -0.36548  -0.33509
 Alpha  occ. eigenvalues --   -0.32617
 Alpha virt. eigenvalues --    0.04543   0.05170   0.06710   0.07530   0.07855
 Alpha virt. eigenvalues --    0.08249   0.08551   0.09283   0.10029   0.10105
 Alpha virt. eigenvalues --    0.10587   0.11130   0.11880   0.12118   0.12876
 Alpha virt. eigenvalues --    0.13297   0.13830   0.14073   0.14595   0.14697
 Alpha virt. eigenvalues --    0.15511   0.16327   0.16613   0.17548   0.18016
 Alpha virt. eigenvalues --    0.18364   0.18678   0.19048   0.19384   0.20512
 Alpha virt. eigenvalues --    0.20874   0.21053   0.21638   0.21913   0.22044
 Alpha virt. eigenvalues --    0.22615   0.23092   0.24067   0.24185   0.24921
 Alpha virt. eigenvalues --    0.25453   0.26024   0.26235   0.26595   0.26719
 Alpha virt. eigenvalues --    0.27250   0.27452   0.28059   0.28519   0.29208
 Alpha virt. eigenvalues --    0.29515   0.30197   0.30688   0.30855   0.31160
 Alpha virt. eigenvalues --    0.31739   0.32446   0.33063   0.33113   0.33814
 Alpha virt. eigenvalues --    0.34589   0.34815   0.35211   0.35666   0.36461
 Alpha virt. eigenvalues --    0.37039   0.37681   0.37774   0.38280   0.38975
 Alpha virt. eigenvalues --    0.39193   0.40165   0.40500   0.40948   0.41792
 Alpha virt. eigenvalues --    0.42138   0.42995   0.43375   0.44158   0.45017
 Alpha virt. eigenvalues --    0.45286   0.45643   0.47190   0.48279   0.48885
 Alpha virt. eigenvalues --    0.49513   0.50341   0.52548   0.52860   0.52904
 Alpha virt. eigenvalues --    0.53891   0.56857   0.61919   0.66343   0.70136
 Alpha virt. eigenvalues --    0.72934   0.73695   0.74640   0.75803   0.76594
 Alpha virt. eigenvalues --    0.77035   0.78148   0.79287   0.79559   0.80373
 Alpha virt. eigenvalues --    0.81109   0.82419   0.83388   0.83788   0.84365
 Alpha virt. eigenvalues --    0.84749   0.86343   0.87080   0.88331   0.88738
 Alpha virt. eigenvalues --    0.90264   0.90782   0.91328   0.93239   0.94193
 Alpha virt. eigenvalues --    0.94815   0.97547   1.00000   1.00369   1.01130
 Alpha virt. eigenvalues --    1.02446   1.05157   1.06202   1.06625   1.06840
 Alpha virt. eigenvalues --    1.08715   1.09768   1.10028   1.11099   1.12758
 Alpha virt. eigenvalues --    1.15379   1.15872   1.16108   1.17837   1.18452
 Alpha virt. eigenvalues --    1.20356   1.21229   1.23272   1.24331   1.24912
 Alpha virt. eigenvalues --    1.26423   1.27127   1.28217   1.29073   1.30044
 Alpha virt. eigenvalues --    1.33077   1.33913   1.34353   1.35155   1.36027
 Alpha virt. eigenvalues --    1.40033   1.41189   1.42373   1.43115   1.44522
 Alpha virt. eigenvalues --    1.46310   1.46609   1.47657   1.48844   1.50071
 Alpha virt. eigenvalues --    1.50680   1.52426   1.54196   1.54988   1.56670
 Alpha virt. eigenvalues --    1.57128   1.59989   1.61902   1.63689   1.65392
 Alpha virt. eigenvalues --    1.69119   1.69762   1.70309   1.73710   1.75083
 Alpha virt. eigenvalues --    1.77037   1.79463   1.82525   1.85932   1.88128
 Alpha virt. eigenvalues --    1.89391   1.91856   1.92965   1.94440   1.95821
 Alpha virt. eigenvalues --    1.96630   1.97478   1.99154   1.99472   2.00960
 Alpha virt. eigenvalues --    2.01447   2.02651   2.04465   2.05334   2.06428
 Alpha virt. eigenvalues --    2.06993   2.08036   2.09231   2.10508   2.11437
 Alpha virt. eigenvalues --    2.12075   2.14539   2.14986   2.15945   2.18983
 Alpha virt. eigenvalues --    2.20124   2.20926   2.21523   2.22853   2.24019
 Alpha virt. eigenvalues --    2.24487   2.26821   2.27491   2.29394   2.31205
 Alpha virt. eigenvalues --    2.32269   2.35876   2.36386   2.38153   2.40080
 Alpha virt. eigenvalues --    2.41649   2.42216   2.43470   2.46306   2.48023
 Alpha virt. eigenvalues --    2.48680   2.49603   2.50403   2.51875   2.55286
 Alpha virt. eigenvalues --    2.55472   2.56577   2.57193   2.58403   2.59980
 Alpha virt. eigenvalues --    2.61249   2.63569   2.64519   2.65281   2.68671
 Alpha virt. eigenvalues --    2.69927   2.71378   2.73173   2.74292   2.74653
 Alpha virt. eigenvalues --    2.77522   2.78679   2.80565   2.80943   2.83708
 Alpha virt. eigenvalues --    2.85040   2.86180   2.86545   2.87222   2.90295
 Alpha virt. eigenvalues --    2.90767   2.92498   2.95373   2.96683   2.96906
 Alpha virt. eigenvalues --    2.98379   3.00076   3.02228   3.04803   3.08951
 Alpha virt. eigenvalues --    3.12907   3.14725   3.16416   3.19994   3.25607
 Alpha virt. eigenvalues --    3.28428   3.30226   3.36696   3.36885   3.38217
 Alpha virt. eigenvalues --    3.38875   3.43373   3.44780   3.48793   3.51969
 Alpha virt. eigenvalues --    3.53943   3.57823   3.58835   3.61049   3.62077
 Alpha virt. eigenvalues --    3.65039   3.66089   3.68896   3.99687   4.40348
 Alpha virt. eigenvalues --    4.41081   4.44176   4.48435   4.52821   4.54415
 Alpha virt. eigenvalues --    4.57866   4.59949   4.63989   4.67673   4.71825
 Alpha virt. eigenvalues --    4.75088   4.82194   4.94053   4.98624
          Condensed to atoms (all electrons):
              1          2          3          4          5          6
     1  C   15.830866  -0.816672  -1.092806  -6.609858  -6.492046   0.208648
     2  C   -0.816672   7.713147   0.321968   1.127020  -1.056075   0.437334
     3  C   -1.092806   0.321968   6.520421   0.539626  -0.006715   0.434393
     4  C   -6.609858   1.127020   0.539626  18.617601   0.103181  -1.057496
     5  C   -6.492046  -1.056075  -0.006715   0.103181  15.551408   0.357493
     6  C    0.208648   0.437334   0.434393  -1.057496   0.357493   5.503401
     7  C    5.740587  -2.027828  -0.871620  -8.127696  -3.210279   0.021305
     8  C   -1.504645   0.334719   0.060508   2.027579   1.130189  -0.063590
     9  C    0.541017  -0.166385  -0.054217  -1.194847  -0.502674   0.004467
    10  O   -0.004549  -0.000670  -0.000481  -0.011668   0.001818  -0.000119
    11  C   -0.002058  -0.001490   0.000405  -0.007376   0.004041   0.000006
    12  O   -0.067566   0.097277   0.020263   0.196363  -0.013187   0.002320
    13  C    0.068613   0.020776  -0.025146   0.078504   0.028401   0.034118
    14  O   -0.005621   0.000579  -0.003930  -0.028535  -0.001447  -0.000322
    15  C   -0.002859   0.001093  -0.000161   0.015035   0.001695  -0.000072
    16  H    0.228411   0.010018   0.041257   0.073205  -0.001901  -0.009949
    17  H    0.009204   0.277978  -0.003347   0.045032   0.004043  -0.004683
    18  H    0.031891   0.002719   0.277259   0.011687  -0.009550   0.015265
    19  H    0.041940  -0.048340  -0.003926   0.050941   0.193387  -0.018718
    20  H   -0.006152   0.018584   0.027695   0.004059  -0.001895   0.283329
    21  H    0.170930   0.009030   0.049169  -0.029211  -0.083192   0.001760
    22  H    0.041956  -0.007956   0.003302   0.022489  -0.083007  -0.002500
    23  H   -0.000181  -0.000001   0.000000  -0.000762   0.000305   0.000000
    24  H   -0.000006   0.000018  -0.000002   0.000119   0.000016   0.000000
    25  H   -0.034173   0.006420   0.004010   0.115977  -0.064218  -0.007085
    26  H    0.007750  -0.003040  -0.001259  -0.024672  -0.008905   0.000191
    27  H   -0.001385   0.004425  -0.001319   0.047840   0.024707   0.005241
    28  H    0.020828  -0.000705   0.001589  -0.034930  -0.010582  -0.000038
    29  H   -0.000104   0.000020  -0.000001   0.002666   0.000166   0.000000
    30  H   -0.000007   0.000001  -0.000001  -0.000184   0.000000   0.000000
    31  H   -0.000049  -0.000011   0.000002  -0.000786   0.000188   0.000000
              7          8          9         10         11         12
     1  C    5.740587  -1.504645   0.541017  -0.004549  -0.002058  -0.067566
     2  C   -2.027828   0.334719  -0.166385  -0.000670  -0.001490   0.097277
     3  C   -0.871620   0.060508  -0.054217  -0.000481   0.000405   0.020263
     4  C   -8.127696   2.027579  -1.194847  -0.011668  -0.007376   0.196363
     5  C   -3.210279   1.130189  -0.502674   0.001818   0.004041  -0.013187
     6  C    0.021305  -0.063590   0.004467  -0.000119   0.000006   0.002320
     7  C   16.685018  -3.617760   1.830921  -0.059404   0.011728  -0.109039
     8  C   -3.617760   9.298842  -1.853140  -0.094652  -0.078448  -0.170090
     9  C    1.830921  -1.853140   6.932641   0.276797  -0.004115   0.050910
    10  O   -0.059404  -0.094652   0.276797   8.384158   0.069412   0.007008
    11  C    0.011728  -0.078448  -0.004115   0.069412   5.126922  -0.003961
    12  O   -0.109039  -0.170090   0.050910   0.007008  -0.003961   8.305047
    13  C   -0.303979  -0.030792  -0.157917  -0.028399  -0.016454   0.047154
    14  O   -0.026067  -0.001543   0.559687  -0.157548   0.016446  -0.004874
    15  C   -0.000741  -0.003741  -0.066071  -0.044309   0.279192  -0.000065
    16  H   -0.025666   0.005683  -0.007601  -0.000001  -0.000062  -0.000010
    17  H   -0.001824   0.000074   0.000075   0.000000  -0.000001   0.000083
    18  H   -0.002150  -0.000287   0.000130   0.000000   0.000000   0.000014
    19  H    0.092694  -0.007566   0.025109  -0.000055   0.000060   0.001097
    20  H    0.001502  -0.000278  -0.000044   0.000000   0.000000  -0.000007
    21  H    0.159914   0.095298  -0.059394  -0.000388  -0.000288  -0.044489
    22  H   -0.000881   0.404479  -0.040030  -0.005950  -0.000018   0.000592
    23  H   -0.003801   0.016404  -0.005895  -0.036042   0.400003   0.000076
    24  H   -0.002010  -0.005353   0.018911  -0.059990   0.417841   0.000041
    25  H   -0.008084   0.014357  -0.006289   0.000079   0.000321   0.225494
    26  H    0.066568  -0.186846   0.073648   0.004352   0.001742  -0.000571
    27  H   -0.064561  -0.070324  -0.024161  -0.000048  -0.000182  -0.000354
    28  H    0.009965  -0.008642  -0.019740  -0.000348  -0.000351   0.000305
    29  H   -0.005344   0.007776  -0.010796  -0.005752  -0.044783   0.000223
    30  H   -0.000848   0.001300   0.010520   0.006787  -0.050210   0.000019
    31  H    0.000281  -0.001120   0.009771  -0.004318  -0.039630   0.000024
             13         14         15         16         17         18
     1  C    0.068613  -0.005621  -0.002859   0.228411   0.009204   0.031891
     2  C    0.020776   0.000579   0.001093   0.010018   0.277978   0.002719
     3  C   -0.025146  -0.003930  -0.000161   0.041257  -0.003347   0.277259
     4  C    0.078504  -0.028535   0.015035   0.073205   0.045032   0.011687
     5  C    0.028401  -0.001447   0.001695  -0.001901   0.004043  -0.009550
     6  C    0.034118  -0.000322  -0.000072  -0.009949  -0.004683   0.015265
     7  C   -0.303979  -0.026067  -0.000741  -0.025666  -0.001824  -0.002150
     8  C   -0.030792  -0.001543  -0.003741   0.005683   0.000074  -0.000287
     9  C   -0.157917   0.559687  -0.066071  -0.007601   0.000075   0.000130
    10  O   -0.028399  -0.157548  -0.044309  -0.000001   0.000000   0.000000
    11  C   -0.016454   0.016446   0.279192  -0.000062  -0.000001   0.000000
    12  O    0.047154  -0.004874  -0.000065  -0.000010   0.000083   0.000014
    13  C    5.663608  -0.011914  -0.003791   0.004025   0.000264  -0.000037
    14  O   -0.011914   8.169951  -0.041538   0.000026   0.000000   0.000000
    15  C   -0.003791  -0.041538   5.206774   0.000007   0.000000   0.000000
    16  H    0.004025   0.000026   0.000007   0.503491   0.000011  -0.003886
    17  H    0.000264   0.000000   0.000000   0.000011   0.494708  -0.000122
    18  H   -0.000037   0.000000   0.000000  -0.003886  -0.000122   0.495299
    19  H   -0.008015  -0.000041  -0.000045  -0.000108  -0.003974   0.000011
    20  H   -0.000020   0.000000   0.000000  -0.000120  -0.003810  -0.003859
    21  H   -0.017446  -0.002367  -0.000537   0.002239   0.000002  -0.000002
    22  H   -0.031247   0.005102  -0.000246  -0.000008   0.000001   0.000000
    23  H   -0.000660   0.001050  -0.037833   0.000000   0.000000   0.000000
    24  H    0.001251   0.000201  -0.039250   0.000000   0.000000   0.000000
    25  H   -0.002286   0.000043   0.000075   0.000103  -0.000003   0.000000
    26  H    0.429013  -0.000808   0.000040   0.000002   0.000000   0.000000
    27  H    0.440623   0.000740   0.000031  -0.000040  -0.000004  -0.000002
    28  H    0.395425   0.000225  -0.000035  -0.000084   0.000000   0.000000
    29  H    0.000065   0.001896   0.417271   0.000000   0.000000   0.000000
    30  H    0.000320  -0.000364   0.395813   0.000000   0.000000   0.000000
    31  H   -0.000424  -0.000441   0.399460   0.000000   0.000000   0.000000
             19         20         21         22         23         24
     1  C    0.041940  -0.006152   0.170930   0.041956  -0.000181  -0.000006
     2  C   -0.048340   0.018584   0.009030  -0.007956  -0.000001   0.000018
     3  C   -0.003926   0.027695   0.049169   0.003302   0.000000  -0.000002
     4  C    0.050941   0.004059  -0.029211   0.022489  -0.000762   0.000119
     5  C    0.193387  -0.001895  -0.083192  -0.083007   0.000305   0.000016
     6  C   -0.018718   0.283329   0.001760  -0.002500   0.000000   0.000000
     7  C    0.092694   0.001502   0.159914  -0.000881  -0.003801  -0.002010
     8  C   -0.007566  -0.000278   0.095298   0.404479   0.016404  -0.005353
     9  C    0.025109  -0.000044  -0.059394  -0.040030  -0.005895   0.018911
    10  O   -0.000055   0.000000  -0.000388  -0.005950  -0.036042  -0.059990
    11  C    0.000060   0.000000  -0.000288  -0.000018   0.400003   0.417841
    12  O    0.001097  -0.000007  -0.044489   0.000592   0.000076   0.000041
    13  C   -0.008015  -0.000020  -0.017446  -0.031247  -0.000660   0.001251
    14  O   -0.000041   0.000000  -0.002367   0.005102   0.001050   0.000201
    15  C   -0.000045   0.000000  -0.000537  -0.000246  -0.037833  -0.039250
    16  H   -0.000108  -0.000120   0.002239  -0.000008   0.000000   0.000000
    17  H   -0.003974  -0.003810   0.000002   0.000001   0.000000   0.000000
    18  H    0.000011  -0.003859  -0.000002   0.000000   0.000000   0.000000
    19  H    0.502934  -0.000117  -0.000083  -0.000435   0.000000   0.000000
    20  H   -0.000117   0.497534   0.000000   0.000000   0.000000   0.000000
    21  H   -0.000083   0.000000   0.584295   0.003502  -0.000002   0.000000
    22  H   -0.000435   0.000000   0.003502   0.492435  -0.000006  -0.000033
    23  H    0.000000   0.000000  -0.000002  -0.000006   0.522238  -0.031706
    24  H    0.000000   0.000000   0.000000  -0.000033  -0.031706   0.529210
    25  H   -0.000325   0.000000  -0.003984  -0.000037   0.000000   0.000000
    26  H    0.000006   0.000000  -0.000080  -0.002396  -0.000007   0.000001
    27  H   -0.000039   0.000000  -0.000019  -0.003512   0.000000   0.000000
    28  H   -0.000002   0.000000   0.001945   0.003705  -0.000004   0.000000
    29  H    0.000000   0.000000  -0.000004  -0.000008  -0.004883   0.003877
    30  H    0.000000   0.000000   0.000000   0.000000  -0.000968  -0.001144
    31  H    0.000000   0.000000  -0.000001  -0.000005   0.003800  -0.005091
             25         26         27         28         29         30
     1  C   -0.034173   0.007750  -0.001385   0.020828  -0.000104  -0.000007
     2  C    0.006420  -0.003040   0.004425  -0.000705   0.000020   0.000001
     3  C    0.004010  -0.001259  -0.001319   0.001589  -0.000001  -0.000001
     4  C    0.115977  -0.024672   0.047840  -0.034930   0.002666  -0.000184
     5  C   -0.064218  -0.008905   0.024707  -0.010582   0.000166   0.000000
     6  C   -0.007085   0.000191   0.005241  -0.000038   0.000000   0.000000
     7  C   -0.008084   0.066568  -0.064561   0.009965  -0.005344  -0.000848
     8  C    0.014357  -0.186846  -0.070324  -0.008642   0.007776   0.001300
     9  C   -0.006289   0.073648  -0.024161  -0.019740  -0.010796   0.010520
    10  O    0.000079   0.004352  -0.000048  -0.000348  -0.005752   0.006787
    11  C    0.000321   0.001742  -0.000182  -0.000351  -0.044783  -0.050210
    12  O    0.225494  -0.000571  -0.000354   0.000305   0.000223   0.000019
    13  C   -0.002286   0.429013   0.440623   0.395425   0.000065   0.000320
    14  O    0.000043  -0.000808   0.000740   0.000225   0.001896  -0.000364
    15  C    0.000075   0.000040   0.000031  -0.000035   0.417271   0.395813
    16  H    0.000103   0.000002  -0.000040  -0.000084   0.000000   0.000000
    17  H   -0.000003   0.000000  -0.000004   0.000000   0.000000   0.000000
    18  H    0.000000   0.000000  -0.000002   0.000000   0.000000   0.000000
    19  H   -0.000325   0.000006  -0.000039  -0.000002   0.000000   0.000000
    20  H    0.000000   0.000000   0.000000   0.000000   0.000000   0.000000
    21  H   -0.003984  -0.000080  -0.000019   0.001945  -0.000004   0.000000
    22  H   -0.000037  -0.002396  -0.003512   0.003705  -0.000008   0.000000
    23  H    0.000000  -0.000007   0.000000  -0.000004  -0.004883  -0.000968
    24  H    0.000000   0.000001   0.000000   0.000000   0.003877  -0.001144
    25  H    0.356946   0.000002  -0.000003  -0.000003   0.000002   0.000000
    26  H    0.000002   0.514108  -0.023652  -0.024773   0.000000   0.000000
    27  H   -0.000003  -0.023652   0.504854  -0.024132   0.000000   0.000000
    28  H   -0.000003  -0.024773  -0.024132   0.500912   0.000000   0.000000
    29  H    0.000002   0.000000   0.000000   0.000000   0.507221  -0.022323
    30  H    0.000000   0.000000   0.000000   0.000000  -0.022323   0.507680
    31  H    0.000002   0.000000   0.000000   0.000000  -0.028870  -0.022910
             31
     1  C   -0.000049
     2  C   -0.000011
     3  C    0.000002
     4  C   -0.000786
     5  C    0.000188
     6  C    0.000000
     7  C    0.000281
     8  C   -0.001120
     9  C    0.009771
    10  O   -0.004318
    11  C   -0.039630
    12  O    0.000024
    13  C   -0.000424
    14  O   -0.000441
    15  C    0.399460
    16  H    0.000000
    17  H    0.000000
    18  H    0.000000
    19  H    0.000000
    20  H    0.000000
    21  H   -0.000001
    22  H   -0.000005
    23  H    0.003800
    24  H   -0.005091
    25  H    0.000002
    26  H    0.000000
    27  H    0.000000
    28  H    0.000000
    29  H   -0.028870
    30  H   -0.022910
    31  H    0.515215
 Mulliken atomic charges:
              1
     1  C   -0.301905
     2  C   -0.253951
     3  C   -0.236938
     4  C    0.049095
     5  C    0.144636
     6  C   -0.144699
     7  C   -0.150903
     8  C    0.301609
     9  C   -0.161285
    10  O   -0.235720
    11  C   -0.078692
    12  O   -0.540098
    13  C   -0.573637
    14  O   -0.468588
    15  C   -0.475191
    16  H    0.180957
    17  H    0.186291
    18  H    0.185623
    19  H    0.183608
    20  H    0.183600
    21  H    0.163401
    22  H    0.200713
    23  H    0.178874
    24  H    0.173100
    25  H    0.402657
    26  H    0.179585
    27  H    0.185274
    28  H    0.189471
    29  H    0.181684
    30  H    0.176518
    31  H    0.174913
 Sum of Mulliken atomic charges =   0.00000
 Mulliken charges with hydrogens summed into heavy atoms:
              1
     1  C   -0.120948
     2  C   -0.067660
     3  C   -0.051314
     4  C    0.049095
     5  C    0.328243
     6  C    0.038901
     7  C    0.012498
     8  C    0.502322
     9  C   -0.161285
    10  O   -0.235720
    11  C    0.273281
    12  O   -0.137441
    13  C   -0.019307
    14  O   -0.468588
    15  C    0.057923
 Sum of Mulliken charges with hydrogens summed into heavy atoms =   0.00000
 Electronic spatial extent (au):  <R**2>=           4240.8135
 Charge=              0.0000 electrons
 Dipole moment (field-independent basis, Debye):
    X=              1.7982    Y=             -0.3637    Z=              1.3868  Tot=              2.2998
 Quadrupole moment (field-independent basis, Debye-Ang):
   XX=            -73.3847   YY=            -91.2958   ZZ=            -88.5641
   XY=              1.8534   XZ=             -5.5268   YZ=              0.7150
 Traceless Quadrupole moment (field-independent basis, Debye-Ang):
   XX=             11.0301   YY=             -6.8809   ZZ=             -4.1492
   XY=              1.8534   XZ=             -5.5268   YZ=              0.7150
 Octapole moment (field-independent basis, Debye-Ang**2):
  XXX=            -47.0338  YYY=             -5.9504  ZZZ=             -1.5068  XYY=             -1.3049
  XXY=             -9.2905  XXZ=             17.4738  XZZ=              4.6207  YZZ=             -5.9688
  YYZ=              2.1431  XYZ=            -19.4339
 Hexadecapole moment (field-independent basis, Debye-Ang**3):
 XXXX=          -3936.1284 YYYY=           -623.1476 ZZZZ=           -449.2139 XXXY=             57.2014
 XXXZ=            -28.2710 YYYX=             -7.9741 YYYZ=             10.7191 ZZZX=            -13.2370
 ZZZY=             -5.7892 XXYY=           -899.8655 XXZZ=           -846.3404 YYZZ=           -164.2730
 XXYZ=            -37.7463 YYXZ=            -17.2657 ZZXY=             -0.6041
 N-N= 9.945007809153D+02 E-N=-3.601012245817D+03  KE= 6.859003511886D+02
 1\1\GINC-COMPUTE-8-12\SP\RwB97XD\6-31+G(d,p)\C12H16O3\ELUCIANO.IQUIR\1
 7-May-2022\0\\# wb97xd/6-31+g** scrf=(pcm,solvent=chloroform,smd,dovac
 uum) nmr\\comment\\0,1\C,0,-0.445572454,-2.838068189,-0.838968902\C,0,
 -3.110132124,-2.480176584,-0.093605047\C,0,-1.303307942,-3.936317002,-
 0.755052366\C,0,-0.911175649,-1.546959464,-0.549631236\C,0,-2.25465392
 7,-1.380868491,-0.176316703\C,0,-2.634070529,-3.757190186,-0.382538175
 \C,0,0.027988072,-0.359120283,-0.638210209\C,0,0.312088697,0.312197757
 ,0.712938228\C,0,1.391035175,1.350727041,0.494934173\O,0,0.955609681,2
 .581123359,0.886563337\C,0,1.88726255,3.658138283,0.714417226\O,0,-0.5
 69216675,0.602287315,-1.518915472\C,0,0.803544213,-0.65037126,1.793561
 226\O,0,2.508983825,1.103749372,0.059100226\C,0,1.790575367,4.21375597
 3,-0.694122156\H,0,0.590776851,-2.999843285,-1.129082607\H,0,-4.148381
 918,-2.339656761,0.196065979\H,0,-0.932423203,-4.93324783,-0.979719106
 \H,0,-2.64133479,-0.38835989,0.048634648\H,0,-3.30046164,-4.613420946,
 -0.317440939\H,0,0.964412806,-0.671060104,-1.11705752\H,0,-0.591108688
 ,0.82132808,1.073903335\H,0,2.909501385,3.342980621,0.953048476\H,0,1.
 614375973,4.435358691,1.435757292\H,0,-0.991547478,0.103215825,-2.2408
 6301\H,0,1.117758362,-0.101614045,2.68864043\H,0,0.016615965,-1.348589
 786,2.094989557\H,0,1.664542946,-1.233349254,1.447739112\H,0,2.0598810
 02,3.45492266,-1.43559501\H,0,2.454327901,5.074041632,-0.818082849\H,0
 ,0.764106246,4.524386753,-0.915091939\\Version=EM64L-G09RevC.01\State=
 1-A\HF=-692.4453542\RMSD=2.949e-09\Dipole=-0.7539644,-0.404319,0.29454
 07\Quadrupole=-4.5489824,7.2238193,-2.6748369,4.0462598,0.9343412,3.64
 33086\PG=C01 [X(C12H16O3)]\\@


 THERE IS MORE TO LIFE THAN INCREASING ITS SPEED.

                                       -- GANDHI
 Job cpu time:  0 days  2 hours 10 minutes 46.2 seconds.
 File lengths (MBytes):  RWF=    124 Int=      0 D2E=      0 Chk=      9 Scr=      1
 Normal termination of Gaussian 09 at Tue May 17 23:33:33 2022.
