 Entering Gaussian System, Link 0=g09
 Input=/home/eluciano.iquir/wb9/73b_002.gjc
 Output=/home/eluciano.iquir/wb9/73b_002.log
 Initial command:
 /share/apps/Gaussian09/EM64T.SSE4.2-enabled/g09/l1.exe /tmp/Gau-15283.inp -scrdir=/tmp/
 Entering Link 1 = /share/apps/Gaussian09/EM64T.SSE4.2-enabled/g09/l1.exe PID=     15284.
  
 Copyright (c) 1988,1990,1992,1993,1995,1998,2003,2009,2011,
            Gaussian, Inc.  All Rights Reserved.
  
 This is part of the Gaussian(R) 09 program.  It is based on
 the Gaussian(R) 03 system (copyright 2003, Gaussian, Inc.),
 the Gaussian(R) 98 system (copyright 1998, Gaussian, Inc.),
 the Gaussian(R) 94 system (copyright 1995, Gaussian, Inc.),
 the Gaussian 92(TM) system (copyright 1992, Gaussian, Inc.),
 the Gaussian 90(TM) system (copyright 1990, Gaussian, Inc.),
 the Gaussian 88(TM) system (copyright 1988, Gaussian, Inc.),
 the Gaussian 86(TM) system (copyright 1986, Carnegie Mellon
 University), and the Gaussian 82(TM) system (copyright 1983,
 Carnegie Mellon University). Gaussian is a federally registered
 trademark of Gaussian, Inc.
  
 This software contains proprietary and confidential information,
 including trade secrets, belonging to Gaussian, Inc.
  
 This software is provided under written license and may be
 used, copied, transmitted, or stored only in accord with that
 written license.
  
 The following legend is applicable only to US Government
 contracts under FAR:
  
                    RESTRICTED RIGHTS LEGEND
  
 Use, reproduction and disclosure by the US Government is
 subject to restrictions as set forth in subparagraphs (a)
 and (c) of the Commercial Computer Software - Restricted
 Rights clause in FAR 52.227-19.
  
 Gaussian, Inc.
 340 Quinnipiac St., Bldg. 40, Wallingford CT 06492
  
  
 ---------------------------------------------------------------
 Warning -- This program may not be used in any manner that
 competes with the business of Gaussian, Inc. or will provide
 assistance to any competitor of Gaussian, Inc.  The licensee
 of this program is prohibited from giving any competitor of
 Gaussian, Inc. access to this program.  By using this program,
 the user acknowledges that Gaussian, Inc. is engaged in the
 business of creating and licensing software in the field of
 computational chemistry and represents and warrants to the
 licensee that it is not a competitor of Gaussian, Inc. and that
 it will not use this program in any manner prohibited above.
 ---------------------------------------------------------------
  

 Cite this work as:
 Gaussian 09, Revision C.01,
 M. J. Frisch, G. W. Trucks, H. B. Schlegel, G. E. Scuseria, 
 M. A. Robb, J. R. Cheeseman, G. Scalmani, V. Barone, B. Mennucci, 
 G. A. Petersson, H. Nakatsuji, M. Caricato, X. Li, H. P. Hratchian, 
 A. F. Izmaylov, J. Bloino, G. Zheng, J. L. Sonnenberg, M. Hada, 
 M. Ehara, K. Toyota, R. Fukuda, J. Hasegawa, M. Ishida, T. Nakajima, 
 Y. Honda, O. Kitao, H. Nakai, T. Vreven, J. A. Montgomery, Jr., 
 J. E. Peralta, F. Ogliaro, M. Bearpark, J. J. Heyd, E. Brothers, 
 K. N. Kudin, V. N. Staroverov, T. Keith, R. Kobayashi, J. Normand, 
 K. Raghavachari, A. Rendell, J. C. Burant, S. S. Iyengar, J. Tomasi, 
 M. Cossi, N. Rega, J. M. Millam, M. Klene, J. E. Knox, J. B. Cross, 
 V. Bakken, C. Adamo, J. Jaramillo, R. Gomperts, R. E. Stratmann, 
 O. Yazyev, A. J. Austin, R. Cammi, C. Pomelli, J. W. Ochterski, 
 R. L. Martin, K. Morokuma, V. G. Zakrzewski, G. A. Voth, 
 P. Salvador, J. J. Dannenberg, S. Dapprich, A. D. Daniels, 
 O. Farkas, J. B. Foresman, J. V. Ortiz, J. Cioslowski, 
 and D. J. Fox, Gaussian, Inc., Wallingford CT, 2010.
 
 ******************************************
 Gaussian 09:  EM64L-G09RevC.01 23-Sep-2011
                17-May-2022 
 ******************************************
 %nprocshared=4
 Will use up to    4 processors via shared memory.
 ----------------------------------------------------------------
 # wb97xd/6-31+g** scrf=(pcm,solvent=chloroform,smd,dovacuum) nmr
 ----------------------------------------------------------------
 1/38=1/1;
 2/12=2,17=6,18=5,40=1/2;
 3/5=1,6=6,7=111,11=2,16=1,25=1,30=1,70=32101,72=7,74=-58/1,2,8,3;
 4//1;
 5/5=2,38=5,53=7/2;
 8/6=1,10=90,11=11/1;
 10/13=100,45=16/2;
 6/7=2,8=2,9=2,10=2,28=1/1;
 99/9=1/99;
 -------
 comment
 -------
 Charge =  0 Multiplicity = 1
 Symbolic Z-Matrix:
 6                     0.14772  -0.8021   -2.02811 
 6                    -0.56052  -3.22442  -0.84529 
 6                     0.90031  -1.95069  -2.27988 
 6                    -0.97047  -0.84875  -1.18065 
 6                    -1.31375  -2.07658  -0.59255 
 6                     0.54596  -3.16105  -1.68881 
 6                    -1.76966   0.41463  -0.91264 
 6                    -1.36547   1.19803   0.34923 
 6                     0.02634   1.77099   0.15504 
 8                     0.84278   1.52995   1.21466 
 6                     2.1746    2.03736   1.0701 
 8                    -3.16776   0.10194  -0.84705 
 6                    -1.55035   0.41244   1.65075 
 8                     0.36315   2.39562  -0.84549 
 6                     2.96052   1.66026   2.31053 
 1                     0.44397   0.13399  -2.50004 
 1                    -0.83687  -4.16779  -0.38129 
 1                     1.7642   -1.89926  -2.93777 
 1                    -2.17178  -2.14519   0.07407 
 1                     1.13278  -4.05462  -1.88474 
 1                    -1.67031   1.06928  -1.78827 
 1                    -2.03292   2.06725   0.43456 
 1                     2.14469   3.12779   0.96748 
 1                     2.64567   1.59484   0.18518 
 1                    -3.34789  -0.51799  -1.57609 
 1                    -1.38442   1.06288   2.51725 
 1                    -2.56591   0.01244   1.73344 
 1                    -0.84321  -0.41912   1.73347 
 1                     2.48972   2.07753   3.20682 
 1                     3.98865   2.02745   2.24779 
 1                     2.98023   0.57286   2.4383 
 
                          Input orientation:                          
 ---------------------------------------------------------------------
 Center     Atomic      Atomic             Coordinates (Angstroms)
 Number     Number       Type             X           Y           Z
 ---------------------------------------------------------------------
      1          6           0        0.147720   -0.802104   -2.028108
      2          6           0       -0.560521   -3.224418   -0.845295
      3          6           0        0.900313   -1.950685   -2.279877
      4          6           0       -0.970471   -0.848752   -1.180648
      5          6           0       -1.313749   -2.076583   -0.592546
      6          6           0        0.545955   -3.161054   -1.688807
      7          6           0       -1.769659    0.414629   -0.912636
      8          6           0       -1.365466    1.198035    0.349227
      9          6           0        0.026345    1.770994    0.155044
     10          8           0        0.842777    1.529949    1.214657
     11          6           0        2.174596    2.037359    1.070096
     12          8           0       -3.167764    0.101945   -0.847051
     13          6           0       -1.550346    0.412438    1.650752
     14          8           0        0.363145    2.395620   -0.845492
     15          6           0        2.960516    1.660261    2.310528
     16          1           0        0.443967    0.133994   -2.500042
     17          1           0       -0.836867   -4.167790   -0.381293
     18          1           0        1.764205   -1.899262   -2.937769
     19          1           0       -2.171783   -2.145185    0.074071
     20          1           0        1.132781   -4.054617   -1.884745
     21          1           0       -1.670310    1.069283   -1.788268
     22          1           0       -2.032916    2.067249    0.434556
     23          1           0        2.144686    3.127792    0.967477
     24          1           0        2.645670    1.594844    0.185178
     25          1           0       -3.347888   -0.517986   -1.576090
     26          1           0       -1.384422    1.062880    2.517251
     27          1           0       -2.565908    0.012438    1.733439
     28          1           0       -0.843208   -0.419117    1.733475
     29          1           0        2.489719    2.077534    3.206819
     30          1           0        3.988654    2.027448    2.247792
     31          1           0        2.980229    0.572860    2.438303
 ---------------------------------------------------------------------
                    Distance matrix (angstroms):
                    1          2          3          4          5
     1  C    0.000000
     2  C    2.787160   0.000000
     3  C    1.396074   2.411318   0.000000
     4  C    1.403822   2.433991   2.433597   0.000000
     5  C    2.412680   1.395980   2.786576   1.404020   0.000000
     6  C    2.416270   1.392773   1.392812   2.811497   2.415857
     7  C    2.530032   3.835259   3.820054   1.518770   2.552733
     8  C    3.455721   4.651119   4.686190   2.585706   3.407746
     9  C    3.376643   5.128278   4.532500   3.104961   4.142293
    10  O    4.054269   5.368115   4.932534   3.831915   4.574239
    11  C    4.665796   6.231845   5.361960   4.825654   5.644241
    12  O    3.633819   4.226394   4.776560   2.417273   2.871955
    13  C    4.229959   4.520700   5.199992   3.153360   3.359105
    14  O    3.416200   5.695436   4.608294   3.523749   4.782944
    15  C    5.727026   6.798310   6.193157   5.825471   6.376612
    16  H    1.089387   3.876354   2.145370   2.169614   3.408043
    17  H    3.874179   1.087022   3.396759   3.416553   2.155271
    18  H    2.155055   3.396887   1.087096   3.416065   3.873669
    19  H    3.406335   2.146192   3.875135   2.167535   1.088718
    20  H    3.401432   2.153360   2.153299   3.898332   3.401162
    21  H    2.620085   4.533949   3.996246   2.130219   3.384280
    22  H    4.364983   5.639833   5.667078   3.498676   4.329375
    23  H    5.329679   7.138267   6.155055   5.489220   6.440494
    24  H    4.108983   5.879355   4.657633   4.573086   5.455385
    25  H    3.536145   3.953259   4.538189   2.432672   2.744869
    26  H    5.146447   5.510577   6.108521   4.183318   4.419509
    27  H    4.709192   4.598770   5.654665   3.432050   3.367806
    28  H    3.908724   3.820953   4.636006   2.948371   2.894646
    29  H    6.417300   7.337186   6.989750   6.307609   6.793986
    30  H    6.406439   7.605543   6.772236   6.679794   7.281900
    31  H    5.464656   6.143147   5.740693   5.543087   5.885902
                    6          7          8          9         10
     6  C    0.000000
     7  C    4.330129   0.000000
     8  C    5.177718   1.539284   0.000000
     9  C    5.291019   2.491043   1.517605   0.000000
    10  O    5.524827   3.548822   2.394884   1.359207   0.000000
    11  C    6.106351   4.703364   3.708929   2.350161   1.432517
    12  O    5.014721   1.434144   2.425031   3.740622   4.730145
    13  C    5.321370   2.572753   1.531440   2.562961   2.676947
    14  O    5.623275   2.911647   2.418607   1.226648   2.285530
    15  C    6.713409   5.857896   4.772260   3.642490   2.388040
    16  H    3.394974   2.738386   3.539006   3.147007   3.988323
    17  H    2.152977   4.706484   5.441062   6.025110   6.150813
    18  H    2.153174   4.684384   5.494764   5.104550   5.463621
    19  H    3.394971   2.772714   3.450070   4.491635   4.888263
    20  H    1.086835   5.416947   6.230748   6.270780   6.393572
    21  H    4.776764   1.097804   2.162960   2.673480   3.942763
    22  H    6.204386   2.148345   1.099229   2.099154   3.027682
    23  H    7.011516   5.120369   4.053068   2.643542   2.075853
    24  H    5.526226   4.700344   4.034052   2.625415   2.077129
    25  H    4.707497   1.949551   3.252933   4.429639   5.435437
    26  H    6.265692   3.511803   2.172315   2.841076   2.622083
    27  H    5.609501   2.792396   2.182371   3.507652   3.767108
    28  H    4.600000   2.924952   2.191820   2.836222   2.628797
    29  H    7.428875   6.154468   4.878709   3.933893   2.642154
    30  H    7.366786   6.763702   5.740999   4.488347   3.348346
    31  H    6.074606   5.815090   4.862113   3.920999   2.642354
                   11         12         13         14         15
    11  C    0.000000
    12  O    5.996840   0.000000
    13  C    4.105207   2.991900   0.000000
    14  O    2.660674   4.210495   3.718292   0.000000
    15  C    1.516095   7.067847   4.726546   4.153017   0.000000
    16  H    4.400427   3.972154   4.613448   2.803394   5.639511
    17  H    7.048356   4.886783   5.061299   6.688338   7.458700
    18  H    5.632796   5.718413   6.114305   4.978614   6.453370
    19  H    6.113653   2.624888   3.068150   5.281133   6.769317
    20  H    6.850448   6.070296   6.297101   6.578597   7.321254
    21  H    4.887814   2.015937   3.503241   2.604407   6.212402
    22  H    4.255345   2.606304   2.109599   2.736323   5.349698
    23  H    1.095659   6.377334   4.636084   2.645150   2.150119
    24  H    1.095816   6.090177   4.599189   2.629343   2.149540
    25  H    6.635505   0.973785   3.809115   4.774373   7.723116
    26  H    3.963644   3.927115   1.096096   4.017241   4.390681
    27  H    5.197375   2.651258   1.094625   4.572722   5.795663
    28  H    3.947339   3.512005   1.094701   4.003636   4.373227
    29  H    2.160209   7.234911   4.638536   4.587453   1.095036
    30  H    2.162839   8.031185   5.800451   4.779987   1.093540
    31  H    2.160045   6.986639   4.601313   4.577651   1.095060
                   16         17         18         19         20
    16  H    0.000000
    17  H    4.963364   0.000000
    18  H    2.463486   4.295041   0.000000
    19  H    4.320053   2.465824   4.962223   0.000000
    20  H    4.289233   2.480462   2.480547   4.289875   0.000000
    21  H    2.418998   5.486451   4.682894   3.748678   5.841316
    22  H    4.299336   6.400927   6.443905   4.230111   7.271729
    23  H    4.886609   7.995896   6.377066   6.872726   7.793979
    24  H    3.767224   6.756989   4.768495   6.099837   6.204016
    25  H    3.956884   4.588446   5.467686   2.598852   5.716592
    26  H    5.420245   6.005105   6.960271   4.108619   7.204349
    27  H    5.195813   4.993594   6.650162   2.750305   6.581222
    28  H    4.459306   4.304048   5.550671   2.738256   5.496626
    29  H    6.366373   7.933776   7.355083   7.026740   8.085084
    30  H    6.220281   8.281227   6.874392   7.751575   7.888306
    31  H    5.568885   6.707765   6.040882   6.286541   6.596616
                   21         22         23         24         25
    21  H    0.000000
    22  H    2.463406   0.000000
    23  H    5.136709   4.342938   0.000000
    24  H    4.774765   4.708983   1.792458   0.000000
    25  H    2.319205   3.529205   7.066102   6.594608   0.000000
    26  H    4.315005   2.401441   4.372672   4.686490   4.807263
    27  H    3.784367   2.488659   5.699282   5.662302   3.441776
    28  H    3.911791   3.047066   4.700513   4.315730   4.151676
    29  H    6.578245   5.304694   2.497348   3.063924   7.980639
    30  H    7.016533   6.288777   2.500037   2.499026   8.655990
    31  H    6.303797   5.601770   3.064170   2.496588   7.573002
                   26         27         28         29         30
    26  H    0.000000
    27  H    1.764568   0.000000
    28  H    1.761685   1.775932   0.000000
    29  H    4.063741   5.656398   4.417286   0.000000
    30  H    5.465615   6.876562   5.440321   1.780182   0.000000
    31  H    4.392781   5.618767   4.012415   1.759336   1.780180
                   31
    31  H    0.000000
 Stoichiometry    C12H16O3
 Framework group  C1[X(C12H16O3)]
 Deg. of freedom    87
 Full point group                 C1      NOp   1
 Largest Abelian subgroup         C1      NOp   1
 Largest concise Abelian subgroup C1      NOp   1
                         Standard orientation:                         
 ---------------------------------------------------------------------
 Center     Atomic      Atomic             Coordinates (Angstroms)
 Number     Number       Type             X           Y           Z
 ---------------------------------------------------------------------
      1          6           0       -1.413267   -0.865258   -1.175420
      2          6           0       -2.932017   -1.173192    1.141223
      3          6           0       -2.063036   -2.074163   -0.919743
      4          6           0       -1.513923    0.207464   -0.275501
      5          6           0       -2.282591    0.036062    0.886842
      6          6           0       -2.822097   -2.227610    0.237929
      7          6           0       -0.791098    1.510726   -0.568239
      8          6           0        0.604177    1.650543    0.066625
      9          6           0        1.545320    0.646770   -0.573545
     10          8           0        2.258264   -0.059084    0.343475
     11          6           0        3.149198   -1.032852   -0.213406
     12          8           0       -1.606075    2.620548   -0.167143
     13          6           0        0.592989    1.620133    1.597723
     14          8           0        1.655007    0.506543   -1.787204
     15          6           0        3.838445   -1.750615    0.930403
     16          1           0       -0.823887   -0.768039   -2.086432
     17          1           0       -3.522038   -1.292256    2.046384
     18          1           0       -1.975417   -2.896460   -1.625382
     19          1           0       -2.376022    0.846556    1.607729
     20          1           0       -3.327047   -3.169292    0.436600
     21          1           0       -0.700769    1.609505   -1.657853
     22          1           0        0.999901    2.639802   -0.203694
     23          1           0        3.895564   -0.533508   -0.841150
     24          1           0        2.582317   -1.753159   -0.813919
     25          1           0       -2.513154    2.417947   -0.457690
     26          1           0        1.585647    1.865269    1.992648
     27          1           0       -0.109965    2.353571    2.005308
     28          1           0        0.327264    0.632392    1.987761
     29          1           0        4.392390   -1.040429    1.553206
     30          1           0        4.532559   -2.507438    0.554565
     31          1           0        3.102497   -2.236565    1.579548
 ---------------------------------------------------------------------
 Rotational constants (GHZ):      0.7759820      0.4285651      0.3492402
 Standard basis: 6-31+G(d,p) (6D, 7F)
 There are   365 symmetry adapted basis functions of A   symmetry.
 Integral buffers will be    131072 words long.
 Raffenetti 2 integral format.
 Two-electron integral symmetry is turned on.
   365 basis functions,   592 primitive gaussians,   365 cartesian basis functions
    56 alpha electrons       56 beta electrons
       nuclear repulsion energy      1016.3246856148 Hartrees.
 NAtoms=   31 NActive=   31 NUniq=   31 SFac= 1.00D+00 NAtFMM=   60 NAOKFM=F Big=F
 Nuclear repulsion after empirical dispersion term =     1016.3031695481 Hartrees.
 ------------------------------------------------------------------------------
 Polarizable Continuum Model (PCM)
 =================================
 Model                : C-PCM.
 Atomic radii         : SMD-Coulomb.
 Polarization charges : Total charges.
 Charge compensation  : None.
 Solution method      : Matrix inversion.
 Cavity type          : VdW (van der Waals Surface) (Alpha=1.000).
 Cavity algorithm     : GePol (No added spheres)
                        Default sphere list used, NSphG=   31.
                        Lebedev-Laikov grids with approx.  5.0 points / Ang**2.
                        Smoothing algorithm: Karplus/York (Gamma=1.0000).
                        Polarization charges: spherical gaussians, with
                                              point-specific exponents (IZeta= 3).
                        Self-potential: point-specific (ISelfS= 7).
                        Self-field    : sphere-specific E.n sum rule (ISelfD= 2).
 Solvent              : Chloroform, Eps=   4.711300 Eps(inf)=   2.090627
 ------------------------------------------------------------------------------
 ------------------------------------------------------------------------------
 Atomic radii for non-electrostatic terms: SMD-CDS.
 ------------------------------------------------------------------------------
 Nuclear repulsion after PCM non-electrostatic terms =     1016.2965713603 Hartrees.
 One-electron integrals computed using PRISM.
 NBasis=   365 RedAO= T  NBF=   365
 NBsUse=   365 1.00D-06 NBFU=   365
 Harris functional with IExCor= 4639 diagonalized for initial guess.
 ExpMin= 4.38D-02 ExpMax= 5.48D+03 ExpMxC= 8.25D+02 IAcc=2 IRadAn=         4 AccDes= 0.00D+00
 HarFok:  IExCor= 4639 AccDes= 0.00D+00 IRadAn=         4 IDoV= 1
 ScaDFX=  1.000000  1.000000  1.000000  1.000000
 FoFCou: FMM=F IPFlag=           0 FMFlag=      100000 FMFlg1=           0
         NFxFlg=           0 DoJE=T BraDBF=F KetDBF=T FulRan=T
         Omega=  0.000000  0.000000  1.000000  0.000000  0.000000 ICntrl=     500 IOpCl=  0
         NMat0=    1 NMatS0=    1 NMatT0=    0 NMatD0=    1 NMtDS0=    0 NMtDT0=    0
         I1Cent=           4 NGrid=           0.
 Petite list used in FoFCou.
 Initial guess orbital symmetries:
       Occupied  (A) (A) (A) (A) (A) (A) (A) (A) (A) (A) (A) (A)
                 (A) (A) (A) (A) (A) (A) (A) (A) (A) (A) (A) (A)
                 (A) (A) (A) (A) (A) (A) (A) (A) (A) (A) (A) (A)
                 (A) (A) (A) (A) (A) (A) (A) (A) (A) (A) (A) (A)
                 (A) (A) (A) (A) (A) (A) (A) (A)
       Virtual   (A) (A) (A) (A) (A) (A) (A) (A) (A) (A) (A) (A)
                 (A) (A) (A) (A) (A) (A) (A) (A) (A) (A) (A) (A)
                 (A) (A) (A) (A) (A) (A) (A) (A) (A) (A) (A) (A)
                 (A) (A) (A) (A) (A) (A) (A) (A) (A) (A) (A) (A)
                 (A) (A) (A) (A) (A) (A) (A) (A) (A) (A) (A) (A)
                 (A) (A) (A) (A) (A) (A) (A) (A) (A) (A) (A) (A)
                 (A) (A) (A) (A) (A) (A) (A) (A) (A) (A) (A) (A)
                 (A) (A) (A) (A) (A) (A) (A) (A) (A) (A) (A) (A)
                 (A) (A) (A) (A) (A) (A) (A) (A) (A) (A) (A) (A)
                 (A) (A) (A) (A) (A) (A) (A) (A) (A) (A) (A) (A)
                 (A) (A) (A) (A) (A) (A) (A) (A) (A) (A) (A) (A)
                 (A) (A) (A) (A) (A) (A) (A) (A) (A) (A) (A) (A)
                 (A) (A) (A) (A) (A) (A) (A) (A) (A) (A) (A) (A)
                 (A) (A) (A) (A) (A) (A) (A) (A) (A) (A) (A) (A)
                 (A) (A) (A) (A) (A) (A) (A) (A) (A) (A) (A) (A)
                 (A) (A) (A) (A) (A) (A) (A) (A) (A) (A) (A) (A)
                 (A) (A) (A) (A) (A) (A) (A) (A) (A) (A) (A) (A)
                 (A) (A) (A) (A) (A) (A) (A) (A) (A) (A) (A) (A)
                 (A) (A) (A) (A) (A) (A) (A) (A) (A) (A) (A) (A)
                 (A) (A) (A) (A) (A) (A) (A) (A) (A) (A) (A) (A)
                 (A) (A) (A) (A) (A) (A) (A) (A) (A) (A) (A) (A)
                 (A) (A) (A) (A) (A) (A) (A) (A) (A) (A) (A) (A)
                 (A) (A) (A) (A) (A) (A) (A) (A) (A) (A) (A) (A)
                 (A) (A) (A) (A) (A) (A) (A) (A) (A) (A) (A) (A)
                 (A) (A) (A) (A) (A) (A) (A) (A) (A) (A) (A) (A)
                 (A) (A) (A) (A) (A) (A) (A) (A) (A)
 The electronic state of the initial guess is 1-A.
 Requested convergence on RMS density matrix=1.00D-08 within 128 cycles.
 Requested convergence on MAX density matrix=1.00D-06.
 Requested convergence on             energy=1.00D-06.
 No special actions if energy rises.
 FoFJK:  IHMeth= 1 ICntrl=     0 DoSepK=T KAlg= 1 I1Cent= 0 FoldK=F
 FoFJK:  IHMeth= 1 ICntrl=     0 DoSepK=T KAlg= 1 I1Cent= 0 FoldK=F
 FoFJK:  IHMeth= 1 ICntrl=     0 DoSepK=T KAlg= 1 I1Cent= 0 FoldK=F
 FoFJK:  IHMeth= 1 ICntrl=     0 DoSepK=T KAlg= 1 I1Cent= 0 FoldK=F
 FoFJK:  IHMeth= 1 ICntrl=     0 DoSepK=T KAlg= 1 I1Cent= 0 FoldK=F
 FoFJK:  IHMeth= 1 ICntrl=     0 DoSepK=T KAlg= 1 I1Cent= 0 FoldK=F
 FoFJK:  IHMeth= 1 ICntrl=     0 DoSepK=T KAlg= 1 I1Cent= 0 FoldK=F
 FoFJK:  IHMeth= 1 ICntrl=     0 DoSepK=T KAlg= 1 I1Cent= 0 FoldK=F
 FoFJK:  IHMeth= 1 ICntrl=     0 DoSepK=T KAlg= 1 I1Cent= 0 FoldK=F
 FoFJK:  IHMeth= 1 ICntrl=     0 DoSepK=T KAlg= 1 I1Cent= 0 FoldK=F
 FoFJK:  IHMeth= 1 ICntrl=     0 DoSepK=T KAlg= 1 I1Cent= 0 FoldK=F
 FoFJK:  IHMeth= 1 ICntrl=     0 DoSepK=T KAlg= 1 I1Cent= 0 FoldK=F
 FoFJK:  IHMeth= 1 ICntrl=     0 DoSepK=T KAlg= 1 I1Cent= 0 FoldK=F
 FoFJK:  IHMeth= 1 ICntrl=     0 DoSepK=T KAlg= 1 I1Cent= 0 FoldK=F
 FoFJK:  IHMeth= 1 ICntrl=     0 DoSepK=T KAlg= 1 I1Cent= 0 FoldK=F
 Error on total polarization charges =  0.03847
 SCF Done:  E(RwB97XD) =  -692.444447390     A.U. after   15 cycles
             Convg  =    0.9568D-08             -V/T =  2.0096
 SMD-CDS (non-electrostatic) energy       (kcal/mol) =      -4.14
 (included in total energy above)
 Range of M.O.s used for correlation:     1   365
 NBasis=   365 NAE=    56 NBE=    56 NFC=     0 NFV=     0
 NROrb=    365 NOA=    56 NOB=    56 NVA=   309 NVB=   309

 **** Warning!!: The largest alpha MO coefficient is  0.12609627D+03

 NEqPCM:  Using equilibrium solvation (IEInf=0, Eps=   4.7113, EpsInf=   2.0906)
          Differentiating once with respect to magnetic field using GIAOs.
          Electric field/nuclear overlap derivatives assumed to be zero.
 FoFCou: FMM=F IPFlag=           0 FMFlag=    10101102 FMFlg1=           0
         NFxFlg=    40000000 DoJE=F BraDBF=F KetDBF=T FulRan=T
         Omega=  0.000000  0.000000  1.000000  0.000000  0.000000 ICntrl=    6100 IOpCl=  0
         NMat0=    1 NMatS0=    1 NMatT0=    0 NMatD0=    1 NMtDS0=    0 NMtDT0=    0
         I1Cent=           7 NGrid=        2254.
 Symmetry not used in FoFCou.
 FoFJK:  IHMeth= 1 ICntrl=  6127 DoSepK=T KAlg= 1 I1Cent= 0 FoldK=F
 FoFJK:  IHMeth= 1 ICntrl=     0 DoSepK=T KAlg= 1 I1Cent= 0 FoldK=F
          There are     3 degrees of freedom in the 1st order CPHF.  IDoFFX=0.
      3 vectors produced by pass  0 Test12= 5.77D-13 3.33D-08 XBig12= 1.17D+02 1.79D+00.
 AX will form     3 AO Fock derivatives at one time.
 FoFJK:  IHMeth= 1 ICntrl=     0 DoSepK=T KAlg= 1 I1Cent= 0 FoldK=F
      3 vectors produced by pass  1 Test12= 5.77D-13 3.33D-08 XBig12= 8.91D-01 2.47D-01.
 FoFJK:  IHMeth= 1 ICntrl=     0 DoSepK=T KAlg= 1 I1Cent= 0 FoldK=F
      3 vectors produced by pass  2 Test12= 5.77D-13 3.33D-08 XBig12= 1.54D-02 4.77D-02.
 FoFJK:  IHMeth= 1 ICntrl=     0 DoSepK=T KAlg= 1 I1Cent= 0 FoldK=F
      3 vectors produced by pass  3 Test12= 5.77D-13 3.33D-08 XBig12= 2.78D-04 4.61D-03.
 FoFJK:  IHMeth= 1 ICntrl=     0 DoSepK=T KAlg= 1 I1Cent= 0 FoldK=F
      3 vectors produced by pass  4 Test12= 5.77D-13 3.33D-08 XBig12= 5.01D-06 4.65D-04.
 FoFJK:  IHMeth= 1 ICntrl=     0 DoSepK=T KAlg= 1 I1Cent= 0 FoldK=F
      3 vectors produced by pass  5 Test12= 5.77D-13 3.33D-08 XBig12= 9.46D-08 7.93D-05.
 FoFJK:  IHMeth= 1 ICntrl=     0 DoSepK=T KAlg= 1 I1Cent= 0 FoldK=F
      3 vectors produced by pass  6 Test12= 5.77D-13 3.33D-08 XBig12= 2.04D-09 1.55D-05.
 FoFJK:  IHMeth= 1 ICntrl=     0 DoSepK=T KAlg= 1 I1Cent= 0 FoldK=F
      3 vectors produced by pass  7 Test12= 5.77D-13 3.33D-08 XBig12= 3.51D-11 1.49D-06.
 FoFJK:  IHMeth= 1 ICntrl=     0 DoSepK=T KAlg= 1 I1Cent= 0 FoldK=F
      2 vectors produced by pass  8 Test12= 5.77D-13 3.33D-08 XBig12= 3.38D-13 7.42D-08.
 FoFJK:  IHMeth= 1 ICntrl=     0 DoSepK=T KAlg= 1 I1Cent= 0 FoldK=F
 Inverted reduced A of dimension    26 with in-core refinement.
 Calculating GIAO nuclear magnetic shielding tensors.
 SCF GIAO Magnetic shielding tensor (ppm):
      1  C    Isotropic =    70.2657   Anisotropy =   166.0364
   XX=   110.8865   YX=   -46.8110   ZX=    84.9124
   XY=   -32.7049   YY=    75.1990   ZY=   -15.3844
   XZ=    84.8974   YZ=   -21.5300   ZZ=    24.7114
   Eigenvalues:   -27.6900    57.5304   180.9566
      2  C    Isotropic =    70.0457   Anisotropy =   174.8184
   XX=   117.7425   YX=   -40.9638   ZX=    88.1733
   XY=   -39.8294   YY=    70.0008   ZY=   -10.7184
   XZ=    92.5777   YZ=   -13.3408   ZZ=    22.3937
   Eigenvalues:   -33.2829    56.8287   186.5913
      3  C    Isotropic =    70.1007   Anisotropy =   174.2040
   XX=   140.8963   YX=   -28.1667   ZX=    57.8008
   XY=   -28.5165   YY=    18.8165   ZY=   -65.0158
   XZ=    54.3260   YZ=   -64.1855   ZZ=    50.5893
   Eigenvalues:   -32.8595    56.9249   186.2367
      4  C    Isotropic =    54.1808   Anisotropy =   179.9966
   XX=   115.3453   YX=   -68.4998   ZX=    52.2437
   XY=   -66.3131   YY=     2.4886   ZY=   -13.2011
   XZ=    64.9908   YZ=   -16.3481   ZZ=    44.7084
   Eigenvalues:   -31.3087    19.6725   174.1785
      5  C    Isotropic =    72.3731   Anisotropy =   184.0013
   XX=   139.4285   YX=   -38.0072   ZX=    64.0905
   XY=   -27.5818   YY=    26.7997   ZY=   -65.2172
   XZ=    61.3459   YZ=   -69.9250   ZZ=    50.8912
   Eigenvalues:   -31.4675    53.5463   195.0407
      6  C    Isotropic =    71.6804   Anisotropy =   177.3561
   XX=   127.1545   YX=   -65.9344   ZX=    59.4242
   XY=   -71.7346   YY=     3.8455   ZY=    -8.5524
   XZ=    61.0510   YZ=    -5.1239   ZZ=    84.0411
   Eigenvalues:   -30.3839    55.5071   189.9178
      7  C    Isotropic =   121.9879   Anisotropy =    38.3440
   XX=   117.0765   YX=   -13.8124   ZX=    -4.3636
   XY=   -15.8107   YY=   134.2680   ZY=     8.7677
   XZ=    -7.2541   YZ=    13.4140   ZZ=   114.6193
   Eigenvalues:   108.3972   110.0160   147.5506
      8  C    Isotropic =   150.7435   Anisotropy =    29.1701
   XX=   161.4961   YX=    -7.9354   ZX=    -7.7483
   XY=   -13.7721   YY=   147.0451   ZY=    10.5680
   XZ=     0.3299   YZ=    11.0965   ZZ=   143.6894
   Eigenvalues:   133.6175   148.4228   170.1902
      9  C    Isotropic =    20.8320   Anisotropy =    98.2860
   XX=    17.9175   YX=    72.4024   ZX=   -10.9285
   XY=    69.5049   YY=    12.7393   ZY=     9.0460
   XZ=   -33.8289   YZ=    34.1174   ZZ=    31.8393
   Eigenvalues:   -65.5819    41.7219    86.3560
     10  O    Isotropic =   123.8826   Anisotropy =   144.8659
   XX=   169.6997   YX=    50.7108   ZX=    52.2368
   XY=    47.9050   YY=   161.2488   ZY=   -58.6708
   XZ=   134.0156   YZ=  -142.3315   ZZ=    40.6993
   Eigenvalues:   -63.7485   214.9364   220.4599
     11  C    Isotropic =   136.5204   Anisotropy =    58.7393
   XX=   140.6940   YX=   -27.0711   ZX=   -15.4731
   XY=   -26.8007   YY=   143.6094   ZY=    17.1035
   XZ=    -8.6645   YZ=    10.1046   ZZ=   125.2577
   Eigenvalues:   115.0892   118.7920   175.6799
     12  O    Isotropic =   281.3579   Anisotropy =    77.7620
   XX=   331.2928   YX=     2.0772   ZX=     9.6544
   XY=     2.8939   YY=   295.9271   ZY=    -0.3544
   XZ=    19.6385   YZ=   -15.0321   ZZ=   216.8537
   Eigenvalues:   214.2363   296.6381   333.1992
     13  C    Isotropic =   187.1076   Anisotropy =     9.4411
   XX=   185.5900   YX=    -1.5010   ZX=    -4.2367
   XY=    -1.3753   YY=   183.4027   ZY=     0.4481
   XZ=    -1.4891   YZ=    -0.5695   ZZ=   192.3301
   Eigenvalues:   182.4744   185.4467   193.4017
     14  O    Isotropic =   -48.5675   Anisotropy =   565.1559
   XX=    71.7876   YX=   262.3190   ZX=   -23.8651
   XY=   255.7639   YY=    64.9594   ZY=   -14.6407
   XZ=   -48.6023   YZ=    26.5922   ZZ=  -282.4496
   Eigenvalues:  -291.9191  -181.9866   328.2031
     15  C    Isotropic =   182.9174   Anisotropy =    23.0017
   XX=   180.5154   YX=   -11.5331   ZX=     3.2263
   XY=   -11.6584   YY=   180.5274   ZY=    -2.9767
   XZ=     8.4408   YZ=    -8.1012   ZZ=   187.7093
   Eigenvalues:   168.9229   181.5774   198.2518
     16  H    Isotropic =    23.9190   Anisotropy =     8.0887
   XX=    22.8590   YX=     3.2683   ZX=     1.0163
   XY=     3.4869   YY=    26.3063   ZY=     2.6882
   XZ=     0.3278   YZ=     2.3445   ZZ=    22.5916
   Eigenvalues:    20.4009    22.0446    29.3114
     17  H    Isotropic =    23.7498   Anisotropy =     4.8251
   XX=    22.4714   YX=     2.0623   ZX=    -1.4635
   XY=     1.9656   YY=    26.0289   ZY=     0.8704
   XZ=    -1.2296   YZ=     1.0710   ZZ=    22.7492
   Eigenvalues:    20.4193    23.8636    26.9665
     18  H    Isotropic =    23.9301   Anisotropy =     4.9786
   XX=    22.9940   YX=     2.4570   ZX=    -1.8356
   XY=     2.6771   YY=    24.9037   ZY=    -0.2873
   XZ=    -1.8897   YZ=    -0.3113   ZZ=    23.8926
   Eigenvalues:    20.5974    23.9437    27.2492
     19  H    Isotropic =    23.3123   Anisotropy =     9.3844
   XX=    24.6262   YX=     3.1966   ZX=    -4.2459
   XY=     3.2945   YY=    23.2480   ZY=    -2.1189
   XZ=    -3.0024   YZ=    -2.1350   ZZ=    22.0627
   Eigenvalues:    19.4899    20.8784    29.5685
     20  H    Isotropic =    23.7941   Anisotropy =     4.0316
   XX=    22.5247   YX=     1.2405   ZX=    -2.2511
   XY=     1.1170   YY=    23.9447   ZY=     1.4138
   XZ=    -2.1573   YZ=     1.6266   ZZ=    24.9128
   Eigenvalues:    20.3092    24.5912    26.4818
     21  H    Isotropic =    25.8828   Anisotropy =     6.3538
   XX=    23.1296   YX=    -2.5154   ZX=    -1.0320
   XY=    -1.6235   YY=    25.2340   ZY=     1.5528
   XZ=    -2.0039   YZ=     0.4836   ZZ=    29.2847
   Eigenvalues:    21.7765    25.7532    30.1186
     22  H    Isotropic =    28.3332   Anisotropy =     6.6532
   XX=    26.9278   YX=     3.5822   ZX=    -1.3382
   XY=     2.1794   YY=    30.3469   ZY=    -2.4473
   XZ=    -1.0311   YZ=    -0.7695   ZZ=    27.7248
   Eigenvalues:    25.2585    26.9724    32.7686
     23  H    Isotropic =    27.5682   Anisotropy =     7.3013
   XX=    30.5769   YX=    -1.3964   ZX=    -3.6739
   XY=    -2.2996   YY=    24.9305   ZY=    -1.6042
   XZ=    -2.4663   YZ=    -2.5486   ZZ=    27.1973
   Eigenvalues:    22.4039    27.8650    32.4357
     24  H    Isotropic =    27.8393   Anisotropy =     5.5845
   XX=    27.2109   YX=    -1.9673   ZX=     1.3013
   XY=    -2.0908   YY=    29.6223   ZY=     3.5203
   XZ=     3.4462   YZ=     2.4675   ZZ=    26.6848
   Eigenvalues:    22.6957    29.2600    31.5623
     25  H    Isotropic =    29.9102   Anisotropy =    15.5065
   XX=    39.3147   YX=    -2.4943   ZX=     4.5462
   XY=    -0.8255   YY=    27.4763   ZY=     1.3706
   XZ=     2.6363   YZ=    -0.2956   ZZ=    22.9395
   Eigenvalues:    22.0449    27.4378    40.2478
     26  H    Isotropic =    30.4392   Anisotropy =    10.2682
   XX=    33.6910   YX=     2.2196   ZX=     3.8602
   XY=     1.0637   YY=    27.1400   ZY=     2.7798
   XZ=     4.3394   YZ=     2.4019   ZZ=    30.4866
   Eigenvalues:    25.6744    28.3585    37.2847
     27  H    Isotropic =    30.0942   Anisotropy =     8.8912
   XX=    29.6858   YX=    -2.7799   ZX=    -0.9932
   XY=    -3.6312   YY=    29.2598   ZY=     3.9240
   XZ=    -1.6123   YZ=     4.2872   ZZ=    31.3370
   Eigenvalues:    25.2118    29.0491    36.0216
     28  H    Isotropic =    30.7363   Anisotropy =     5.6570
   XX=    30.0487   YX=     3.3637   ZX=     0.4934
   XY=     0.6566   YY=    31.2261   ZY=    -3.7532
   XZ=     0.2163   YZ=    -2.3705   ZZ=    30.9342
   Eigenvalues:    27.0478    30.6535    34.5076
     29  H    Isotropic =    30.5006   Anisotropy =     8.7521
   XX=    31.4759   YX=     1.4715   ZX=     4.3591
   XY=     1.1931   YY=    29.3063   ZY=     1.4364
   XZ=     4.5381   YZ=     2.5381   ZZ=    30.7195
   Eigenvalues:    26.4906    28.6757    36.3353
     30  H    Isotropic =    30.5690   Anisotropy =    11.1781
   XX=    32.1041   YX=    -5.7651   ZX=    -0.8706
   XY=    -5.9722   YY=    32.0368   ZY=     0.9508
   XZ=    -0.2274   YZ=     0.5689   ZZ=    27.5661
   Eigenvalues:    26.1841    27.5018    38.0211
     31  H    Isotropic =    30.6808   Anisotropy =     7.1655
   XX=    30.9513   YX=     1.0432   ZX=    -1.4070
   XY=     0.7561   YY=    30.0996   ZY=    -4.1878
   XZ=    -2.0022   YZ=    -4.0289   ZZ=    30.9916
   Eigenvalues:    26.3604    30.2242    35.4578
 End of Minotr Frequency-dependent properties file   721 does not exist.
 End of Minotr Frequency-dependent properties file   722 does not exist.

 **********************************************************************

            Population analysis using the SCF density.

 **********************************************************************

 Orbital symmetries:
       Occupied  (A) (A) (A) (A) (A) (A) (A) (A) (A) (A) (A) (A)
                 (A) (A) (A) (A) (A) (A) (A) (A) (A) (A) (A) (A)
                 (A) (A) (A) (A) (A) (A) (A) (A) (A) (A) (A) (A)
                 (A) (A) (A) (A) (A) (A) (A) (A) (A) (A) (A) (A)
                 (A) (A) (A) (A) (A) (A) (A) (A)
       Virtual   (A) (A) (A) (A) (A) (A) (A) (A) (A) (A) (A) (A)
                 (A) (A) (A) (A) (A) (A) (A) (A) (A) (A) (A) (A)
                 (A) (A) (A) (A) (A) (A) (A) (A) (A) (A) (A) (A)
                 (A) (A) (A) (A) (A) (A) (A) (A) (A) (A) (A) (A)
                 (A) (A) (A) (A) (A) (A) (A) (A) (A) (A) (A) (A)
                 (A) (A) (A) (A) (A) (A) (A) (A) (A) (A) (A) (A)
                 (A) (A) (A) (A) (A) (A) (A) (A) (A) (A) (A) (A)
                 (A) (A) (A) (A) (A) (A) (A) (A) (A) (A) (A) (A)
                 (A) (A) (A) (A) (A) (A) (A) (A) (A) (A) (A) (A)
                 (A) (A) (A) (A) (A) (A) (A) (A) (A) (A) (A) (A)
                 (A) (A) (A) (A) (A) (A) (A) (A) (A) (A) (A) (A)
                 (A) (A) (A) (A) (A) (A) (A) (A) (A) (A) (A) (A)
                 (A) (A) (A) (A) (A) (A) (A) (A) (A) (A) (A) (A)
                 (A) (A) (A) (A) (A) (A) (A) (A) (A) (A) (A) (A)
                 (A) (A) (A) (A) (A) (A) (A) (A) (A) (A) (A) (A)
                 (A) (A) (A) (A) (A) (A) (A) (A) (A) (A) (A) (A)
                 (A) (A) (A) (A) (A) (A) (A) (A) (A) (A) (A) (A)
                 (A) (A) (A) (A) (A) (A) (A) (A) (A) (A) (A) (A)
                 (A) (A) (A) (A) (A) (A) (A) (A) (A) (A) (A) (A)
                 (A) (A) (A) (A) (A) (A) (A) (A) (A) (A) (A) (A)
                 (A) (A) (A) (A) (A) (A) (A) (A) (A) (A) (A) (A)
                 (A) (A) (A) (A) (A) (A) (A) (A) (A) (A) (A) (A)
                 (A) (A) (A) (A) (A) (A) (A) (A) (A) (A) (A) (A)
                 (A) (A) (A) (A) (A) (A) (A) (A) (A) (A) (A) (A)
                 (A) (A) (A) (A) (A) (A) (A) (A) (A) (A) (A) (A)
                 (A) (A) (A) (A) (A) (A) (A) (A) (A)
 The electronic state is 1-A.
 Alpha  occ. eigenvalues --  -19.32987 -19.28172 -19.27475 -10.44191 -10.36035
 Alpha  occ. eigenvalues --  -10.35071 -10.32154 -10.31590 -10.30769 -10.30740
 Alpha  occ. eigenvalues --  -10.30707 -10.30669 -10.30582 -10.28823 -10.28492
 Alpha  occ. eigenvalues --   -1.21218  -1.12953  -1.12403  -0.96256  -0.91316
 Alpha  occ. eigenvalues --   -0.86944  -0.85113  -0.84758  -0.77849  -0.75319
 Alpha  occ. eigenvalues --   -0.71218  -0.70054  -0.67997  -0.65305  -0.62432
 Alpha  occ. eigenvalues --   -0.59200  -0.59018  -0.57115  -0.56287  -0.55677
 Alpha  occ. eigenvalues --   -0.54649  -0.53110  -0.51104  -0.50392  -0.49383
 Alpha  occ. eigenvalues --   -0.48798  -0.47412  -0.47266  -0.46393  -0.45278
 Alpha  occ. eigenvalues --   -0.44841  -0.43949  -0.43369  -0.42863  -0.42032
 Alpha  occ. eigenvalues --   -0.40142  -0.38906  -0.37080  -0.36199  -0.33333
 Alpha  occ. eigenvalues --   -0.32501
 Alpha virt. eigenvalues --    0.04916   0.05159   0.06514   0.06853   0.08050
 Alpha virt. eigenvalues --    0.08175   0.08374   0.09410   0.09938   0.10102
 Alpha virt. eigenvalues --    0.10809   0.11191   0.11436   0.11956   0.12703
 Alpha virt. eigenvalues --    0.13675   0.13924   0.14063   0.14894   0.15410
 Alpha virt. eigenvalues --    0.15675   0.16342   0.17096   0.18134   0.18398
 Alpha virt. eigenvalues --    0.18775   0.18974   0.19753   0.19904   0.20694
 Alpha virt. eigenvalues --    0.21227   0.21407   0.22154   0.22450   0.22807
 Alpha virt. eigenvalues --    0.22841   0.23190   0.23905   0.24299   0.24956
 Alpha virt. eigenvalues --    0.25338   0.25559   0.26203   0.26516   0.27312
 Alpha virt. eigenvalues --    0.27459   0.27619   0.28214   0.28433   0.28944
 Alpha virt. eigenvalues --    0.29102   0.29669   0.30529   0.30923   0.31372
 Alpha virt. eigenvalues --    0.31428   0.31909   0.32421   0.32713   0.33146
 Alpha virt. eigenvalues --    0.33398   0.33836   0.34291   0.35382   0.35946
 Alpha virt. eigenvalues --    0.36654   0.36885   0.37880   0.38379   0.38893
 Alpha virt. eigenvalues --    0.39529   0.39785   0.40416   0.40835   0.41850
 Alpha virt. eigenvalues --    0.42150   0.42413   0.43395   0.43927   0.44997
 Alpha virt. eigenvalues --    0.45233   0.45506   0.46601   0.46978   0.47159
 Alpha virt. eigenvalues --    0.48186   0.49573   0.51676   0.52193   0.54259
 Alpha virt. eigenvalues --    0.55083   0.56890   0.60818   0.66207   0.70218
 Alpha virt. eigenvalues --    0.72126   0.74517   0.75587   0.75745   0.76636
 Alpha virt. eigenvalues --    0.78009   0.78236   0.79103   0.79736   0.80954
 Alpha virt. eigenvalues --    0.82020   0.83168   0.83331   0.83895   0.84283
 Alpha virt. eigenvalues --    0.85272   0.86756   0.87765   0.88890   0.89416
 Alpha virt. eigenvalues --    0.90793   0.91932   0.93263   0.93754   0.95979
 Alpha virt. eigenvalues --    0.98422   0.99100   1.01611   1.01950   1.02577
 Alpha virt. eigenvalues --    1.03206   1.04341   1.06118   1.06672   1.07287
 Alpha virt. eigenvalues --    1.08613   1.09884   1.10230   1.10807   1.12383
 Alpha virt. eigenvalues --    1.13243   1.15248   1.17300   1.18819   1.19960
 Alpha virt. eigenvalues --    1.20229   1.20876   1.22057   1.22473   1.23846
 Alpha virt. eigenvalues --    1.24933   1.26790   1.27999   1.29391   1.31097
 Alpha virt. eigenvalues --    1.32083   1.33670   1.35556   1.36895   1.36961
 Alpha virt. eigenvalues --    1.39526   1.41016   1.42075   1.43246   1.45314
 Alpha virt. eigenvalues --    1.46759   1.47596   1.48718   1.49808   1.50624
 Alpha virt. eigenvalues --    1.50928   1.52216   1.52599   1.53413   1.55468
 Alpha virt. eigenvalues --    1.56802   1.57532   1.58277   1.61732   1.66294
 Alpha virt. eigenvalues --    1.70623   1.71218   1.72781   1.76602   1.80239
 Alpha virt. eigenvalues --    1.80941   1.82742   1.83101   1.85824   1.89725
 Alpha virt. eigenvalues --    1.90038   1.91547   1.93067   1.93670   1.94600
 Alpha virt. eigenvalues --    1.96896   1.98946   1.99953   2.01178   2.01561
 Alpha virt. eigenvalues --    2.02369   2.03203   2.04202   2.05044   2.06020
 Alpha virt. eigenvalues --    2.06898   2.08278   2.08715   2.10397   2.11608
 Alpha virt. eigenvalues --    2.13358   2.13780   2.16054   2.17311   2.17496
 Alpha virt. eigenvalues --    2.18483   2.19608   2.20444   2.20510   2.21768
 Alpha virt. eigenvalues --    2.23660   2.26519   2.27222   2.28633   2.29809
 Alpha virt. eigenvalues --    2.32540   2.34205   2.36993   2.38537   2.38947
 Alpha virt. eigenvalues --    2.42791   2.43965   2.45186   2.46905   2.47307
 Alpha virt. eigenvalues --    2.48221   2.49317   2.51048   2.52976   2.55825
 Alpha virt. eigenvalues --    2.56046   2.56770   2.58232   2.59551   2.61410
 Alpha virt. eigenvalues --    2.62691   2.64414   2.66724   2.67324   2.67730
 Alpha virt. eigenvalues --    2.69157   2.70964   2.72181   2.73399   2.75195
 Alpha virt. eigenvalues --    2.76984   2.79963   2.80137   2.81943   2.83928
 Alpha virt. eigenvalues --    2.84320   2.85846   2.86566   2.87210   2.88566
 Alpha virt. eigenvalues --    2.91021   2.92060   2.94117   2.97137   2.97553
 Alpha virt. eigenvalues --    2.99598   2.99957   3.02189   3.06741   3.08580
 Alpha virt. eigenvalues --    3.14338   3.16286   3.17111   3.17879   3.27747
 Alpha virt. eigenvalues --    3.29849   3.30671   3.36596   3.37276   3.38798
 Alpha virt. eigenvalues --    3.39798   3.44555   3.45478   3.49160   3.52941
 Alpha virt. eigenvalues --    3.53776   3.57674   3.58768   3.61513   3.62718
 Alpha virt. eigenvalues --    3.63895   3.65577   3.67064   3.99556   4.40140
 Alpha virt. eigenvalues --    4.41852   4.43735   4.49530   4.54211   4.56778
 Alpha virt. eigenvalues --    4.58775   4.62093   4.64222   4.69954   4.72894
 Alpha virt. eigenvalues --    4.78785   4.80123   4.94876   4.99720
          Condensed to atoms (all electrons):
              1          2          3          4          5          6
     1  C   15.792261  -0.700205  -0.381300  -3.253583  -7.470500   0.091345
     2  C   -0.700205   7.463990   0.317429  -0.174659  -0.526792   0.504991
     3  C   -0.381300   0.317429   6.470285  -0.055829  -0.452997   0.410315
     4  C   -3.253583  -0.174659  -0.055829  14.146718  -1.604499  -0.910741
     5  C   -7.470500  -0.526792  -0.452997  -1.604499  16.093606   0.242436
     6  C    0.091345   0.504991   0.410315  -0.910741   0.242436   5.527705
     7  C    1.992049  -1.331682  -0.526273  -2.643864  -0.561459   0.050070
     8  C   -0.213246   0.406827   0.230387   0.260127   0.052425  -0.031422
     9  C   -0.325069  -0.024858  -0.148723   0.255034   0.161677   0.000712
    10  O    0.078502   0.002441   0.016579  -0.026347  -0.075773  -0.000192
    11  C    0.041322  -0.000328   0.001462  -0.036113  -0.007692  -0.002437
    12  O   -0.149563   0.153009   0.002751  -0.153076   0.193800   0.012176
    13  C    0.045587  -0.078473  -0.001727  -0.023195  -0.055957   0.002824
    14  O    0.025955   0.003060   0.008578  -0.015855  -0.028577  -0.000371
    15  C    0.026680   0.007215   0.002244  -0.003105  -0.017262  -0.002239
    16  H    0.160449   0.006847   0.065150   0.093779   0.005456  -0.005577
    17  H    0.004190   0.272900  -0.003419   0.037889   0.013971   0.005791
    18  H    0.019774  -0.006876   0.260961   0.010438   0.006681   0.037037
    19  H    0.048510  -0.035753  -0.000593   0.107567   0.226087  -0.005290
    20  H   -0.004781   0.027500   0.040935   0.010113  -0.013813   0.265246
    21  H    0.136365   0.023913   0.059184  -0.012317  -0.070905  -0.000694
    22  H   -0.005332   0.000755  -0.002628   0.033183   0.001539   0.000123
    23  H    0.002287  -0.000042   0.000823  -0.003090  -0.001183   0.000069
    24  H    0.003244   0.000501  -0.001819   0.000710   0.000277  -0.001133
    25  H    0.026425  -0.015029  -0.002356  -0.012196  -0.034960   0.001101
    26  H   -0.005641  -0.002029  -0.000796  -0.017739   0.007888   0.000326
    27  H   -0.011431   0.002069   0.000261  -0.037878   0.050824   0.000866
    28  H    0.026073   0.010382  -0.005191   0.014657  -0.042273   0.001455
    29  H    0.000178   0.000032   0.000012  -0.000070  -0.000059  -0.000013
    30  H    0.000081   0.000002   0.000027  -0.000109  -0.000015   0.000000
    31  H    0.001130  -0.000216   0.000299  -0.001117  -0.000986   0.000055
              7          8          9         10         11         12
     1  C    1.992049  -0.213246  -0.325069   0.078502   0.041322  -0.149563
     2  C   -1.331682   0.406827  -0.024858   0.002441  -0.000328   0.153009
     3  C   -0.526273   0.230387  -0.148723   0.016579   0.001462   0.002751
     4  C   -2.643864   0.260127   0.255034  -0.026347  -0.036113  -0.153076
     5  C   -0.561459   0.052425   0.161677  -0.075773  -0.007692   0.193800
     6  C    0.050070  -0.031422   0.000712  -0.000192  -0.002437   0.012176
     7  C   10.054680  -1.461135   0.164588   0.010879  -0.025991   0.002276
     8  C   -1.461135   8.159026  -1.430379  -0.302564   0.081178  -0.036080
     9  C    0.164588  -1.430379   6.929611   0.325623  -0.232425   0.067588
    10  O    0.010879  -0.302564   0.325623   8.461565   0.005698  -0.002964
    11  C   -0.025991   0.081178  -0.232425   0.005698   5.365074  -0.000495
    12  O    0.002276  -0.036080   0.067588  -0.002964  -0.000495   8.319485
    13  C    0.133331   0.073167  -0.221610   0.032556  -0.003378  -0.040898
    14  O   -0.011757  -0.093328   0.593114  -0.169363  -0.068302  -0.001688
    15  C   -0.024370  -0.023214   0.027576  -0.029941   0.110740   0.000205
    16  H   -0.017294   0.018736  -0.005079  -0.000586  -0.004231  -0.000044
    17  H   -0.005435   0.000288  -0.000498  -0.000002  -0.000006   0.000153
    18  H   -0.001238  -0.000564   0.000793  -0.000040  -0.000027   0.000021
    19  H   -0.020916  -0.006783  -0.003740  -0.000039  -0.000051   0.003991
    20  H    0.000929   0.000243  -0.000094   0.000004   0.000034  -0.000002
    21  H    0.056896   0.222839  -0.139527   0.000201   0.001504  -0.043881
    22  H    0.005755   0.263199   0.046779   0.003305  -0.001594  -0.004601
    23  H    0.002504  -0.011028   0.005254  -0.043707   0.400211  -0.000002
    24  H   -0.002594  -0.006166  -0.032741  -0.036544   0.411149   0.000006
    25  H    0.056620   0.004005  -0.005201   0.000061   0.000017   0.233025
    26  H    0.033803  -0.093289   0.004712   0.000830  -0.003337   0.000027
    27  H   -0.032181  -0.058728   0.007211   0.000814  -0.000421   0.009064
    28  H    0.035096  -0.095859   0.018837  -0.001485  -0.002681  -0.004389
    29  H   -0.000658  -0.004729  -0.002922  -0.002771  -0.059353   0.000000
    30  H    0.000044  -0.000340   0.001141   0.007077  -0.059597   0.000000
    31  H    0.001467  -0.005499   0.003462  -0.004100  -0.057568   0.000000
             13         14         15         16         17         18
     1  C    0.045587   0.025955   0.026680   0.160449   0.004190   0.019774
     2  C   -0.078473   0.003060   0.007215   0.006847   0.272900  -0.006876
     3  C   -0.001727   0.008578   0.002244   0.065150  -0.003419   0.260961
     4  C   -0.023195  -0.015855  -0.003105   0.093779   0.037889   0.010438
     5  C   -0.055957  -0.028577  -0.017262   0.005456   0.013971   0.006681
     6  C    0.002824  -0.000371  -0.002239  -0.005577   0.005791   0.037037
     7  C    0.133331  -0.011757  -0.024370  -0.017294  -0.005435  -0.001238
     8  C    0.073167  -0.093328  -0.023214   0.018736   0.000288  -0.000564
     9  C   -0.221610   0.593114   0.027576  -0.005079  -0.000498   0.000793
    10  O    0.032556  -0.169363  -0.029941  -0.000586  -0.000002  -0.000040
    11  C   -0.003378  -0.068302   0.110740  -0.004231  -0.000006  -0.000027
    12  O   -0.040898  -0.001688   0.000205  -0.000044   0.000153   0.000021
    13  C    5.501496   0.004119   0.000072   0.001400   0.000651   0.000031
    14  O    0.004119   8.195276   0.010226  -0.000725   0.000002  -0.000028
    15  C    0.000072   0.010226   5.300704  -0.000746   0.000004  -0.000160
    16  H    0.001400  -0.000725  -0.000746   0.506956   0.000011  -0.003954
    17  H    0.000651   0.000002   0.000004   0.000011   0.496418  -0.000121
    18  H    0.000031  -0.000028  -0.000160  -0.003954  -0.000121   0.496708
    19  H    0.006130   0.000021   0.000008  -0.000113  -0.004041   0.000011
    20  H   -0.000081   0.000001   0.000024  -0.000123  -0.003846  -0.003896
    21  H   -0.008429   0.016259   0.000283   0.001270   0.000002  -0.000002
    22  H   -0.036532  -0.008107   0.000639  -0.000013   0.000000   0.000000
    23  H    0.001721   0.001811  -0.024060   0.000001   0.000000   0.000000
    24  H    0.002131   0.005226  -0.013180  -0.000033   0.000000  -0.000002
    25  H   -0.001007   0.000096   0.000003   0.000040  -0.000001   0.000000
    26  H    0.437032  -0.000800   0.000043   0.000000   0.000000   0.000000
    27  H    0.430651  -0.000247   0.000252   0.000000   0.000000   0.000000
    28  H    0.400727  -0.000187   0.000748  -0.000004  -0.000015   0.000000
    29  H    0.001456  -0.000073   0.431867   0.000000   0.000000   0.000000
    30  H   -0.000007   0.000134   0.418948   0.000000   0.000000   0.000000
    31  H    0.002074  -0.000170   0.423876   0.000000   0.000000   0.000000
             19         20         21         22         23         24
     1  C    0.048510  -0.004781   0.136365  -0.005332   0.002287   0.003244
     2  C   -0.035753   0.027500   0.023913   0.000755  -0.000042   0.000501
     3  C   -0.000593   0.040935   0.059184  -0.002628   0.000823  -0.001819
     4  C    0.107567   0.010113  -0.012317   0.033183  -0.003090   0.000710
     5  C    0.226087  -0.013813  -0.070905   0.001539  -0.001183   0.000277
     6  C   -0.005290   0.265246  -0.000694   0.000123   0.000069  -0.001133
     7  C   -0.020916   0.000929   0.056896   0.005755   0.002504  -0.002594
     8  C   -0.006783   0.000243   0.222839   0.263199  -0.011028  -0.006166
     9  C   -0.003740  -0.000094  -0.139527   0.046779   0.005254  -0.032741
    10  O   -0.000039   0.000004   0.000201   0.003305  -0.043707  -0.036544
    11  C   -0.000051   0.000034   0.001504  -0.001594   0.400211   0.411149
    12  O    0.003991  -0.000002  -0.043881  -0.004601  -0.000002   0.000006
    13  C    0.006130  -0.000081  -0.008429  -0.036532   0.001721   0.002131
    14  O    0.000021   0.000001   0.016259  -0.008107   0.001811   0.005226
    15  C    0.000008   0.000024   0.000283   0.000639  -0.024060  -0.013180
    16  H   -0.000113  -0.000123   0.001270  -0.000013   0.000001  -0.000033
    17  H   -0.004041  -0.003846   0.000002   0.000000   0.000000   0.000000
    18  H    0.000011  -0.003896  -0.000002   0.000000   0.000000  -0.000002
    19  H    0.501112  -0.000120  -0.000037  -0.000019   0.000000   0.000000
    20  H   -0.000120   0.499075   0.000000   0.000000   0.000000   0.000000
    21  H   -0.000037   0.000000   0.602820  -0.005912   0.000000  -0.000001
    22  H   -0.000019   0.000000  -0.005912   0.497058   0.000043  -0.000015
    23  H    0.000000   0.000000   0.000000   0.000043   0.528437  -0.033587
    24  H    0.000000   0.000000  -0.000001  -0.000015  -0.033587   0.530651
    25  H   -0.000973   0.000000  -0.005196   0.000077   0.000000   0.000000
    26  H    0.000049   0.000000  -0.000101  -0.003669  -0.000005  -0.000004
    27  H   -0.000391   0.000000   0.000045  -0.002067   0.000000   0.000000
    28  H   -0.000561   0.000000  -0.000130   0.003972  -0.000003  -0.000008
    29  H    0.000000   0.000000   0.000000  -0.000001  -0.005088   0.004014
    30  H    0.000000   0.000000   0.000000   0.000000  -0.001692  -0.001706
    31  H    0.000000   0.000000   0.000000   0.000000   0.003979  -0.005131
             25         26         27         28         29         30
     1  C    0.026425  -0.005641  -0.011431   0.026073   0.000178   0.000081
     2  C   -0.015029  -0.002029   0.002069   0.010382   0.000032   0.000002
     3  C   -0.002356  -0.000796   0.000261  -0.005191   0.000012   0.000027
     4  C   -0.012196  -0.017739  -0.037878   0.014657  -0.000070  -0.000109
     5  C   -0.034960   0.007888   0.050824  -0.042273  -0.000059  -0.000015
     6  C    0.001101   0.000326   0.000866   0.001455  -0.000013   0.000000
     7  C    0.056620   0.033803  -0.032181   0.035096  -0.000658   0.000044
     8  C    0.004005  -0.093289  -0.058728  -0.095859  -0.004729  -0.000340
     9  C   -0.005201   0.004712   0.007211   0.018837  -0.002922   0.001141
    10  O    0.000061   0.000830   0.000814  -0.001485  -0.002771   0.007077
    11  C    0.000017  -0.003337  -0.000421  -0.002681  -0.059353  -0.059597
    12  O    0.233025   0.000027   0.009064  -0.004389   0.000000   0.000000
    13  C   -0.001007   0.437032   0.430651   0.400727   0.001456  -0.000007
    14  O    0.000096  -0.000800  -0.000247  -0.000187  -0.000073   0.000134
    15  C    0.000003   0.000043   0.000252   0.000748   0.431867   0.418948
    16  H    0.000040   0.000000   0.000000  -0.000004   0.000000   0.000000
    17  H   -0.000001   0.000000   0.000000  -0.000015   0.000000   0.000000
    18  H    0.000000   0.000000   0.000000   0.000000   0.000000   0.000000
    19  H   -0.000973   0.000049  -0.000391  -0.000561   0.000000   0.000000
    20  H    0.000000   0.000000   0.000000   0.000000   0.000000   0.000000
    21  H   -0.005196  -0.000101   0.000045  -0.000130   0.000000   0.000000
    22  H    0.000077  -0.003669  -0.002067   0.003972  -0.000001   0.000000
    23  H    0.000000  -0.000005   0.000000  -0.000003  -0.005088  -0.001692
    24  H    0.000000  -0.000004   0.000000  -0.000008   0.004014  -0.001706
    25  H    0.361452   0.000002  -0.000166   0.000002   0.000000   0.000000
    26  H    0.000002   0.517761  -0.024820  -0.024172  -0.000002   0.000000
    27  H   -0.000166  -0.024820   0.511620  -0.025404   0.000000   0.000000
    28  H    0.000002  -0.024172  -0.025404   0.508470  -0.000004   0.000000
    29  H    0.000000  -0.000002   0.000000  -0.000004   0.513628  -0.022662
    30  H    0.000000   0.000000   0.000000   0.000000  -0.022662   0.500428
    31  H    0.000000  -0.000002   0.000000   0.000002  -0.028347  -0.022540
             31
     1  C    0.001130
     2  C   -0.000216
     3  C    0.000299
     4  C   -0.001117
     5  C   -0.000986
     6  C    0.000055
     7  C    0.001467
     8  C   -0.005499
     9  C    0.003462
    10  O   -0.004100
    11  C   -0.057568
    12  O    0.000000
    13  C    0.002074
    14  O   -0.000170
    15  C    0.423876
    16  H    0.000000
    17  H    0.000000
    18  H    0.000000
    19  H    0.000000
    20  H    0.000000
    21  H    0.000000
    22  H    0.000000
    23  H    0.003979
    24  H   -0.005131
    25  H    0.000000
    26  H   -0.000002
    27  H    0.000000
    28  H    0.000002
    29  H   -0.028347
    30  H   -0.022540
    31  H    0.512741
 Mulliken atomic charges:
              1
     1  C   -0.001757
     2  C   -0.306923
     3  C   -0.304033
     4  C    0.015169
     5  C   -0.090964
     6  C   -0.194534
     7  C    0.065859
     8  C    0.101906
     9  C   -0.040845
    10  O   -0.249718
    11  C    0.147639
    12  O   -0.559892
    13  C   -0.605860
    14  O   -0.464297
    15  C   -0.624083
    16  H    0.178428
    17  H    0.185114
    18  H    0.184455
    19  H    0.185933
    20  H    0.182651
    21  H    0.165549
    22  H    0.214064
    23  H    0.176348
    24  H    0.176756
    25  H    0.394160
    26  H    0.173934
    27  H    0.180054
    28  H    0.181946
    29  H    0.175565
    30  H    0.180785
    31  H    0.176593
 Sum of Mulliken atomic charges =   0.00000
 Mulliken charges with hydrogens summed into heavy atoms:
              1
     1  C    0.176671
     2  C   -0.121809
     3  C   -0.119577
     4  C    0.015169
     5  C    0.094969
     6  C   -0.011884
     7  C    0.231408
     8  C    0.315970
     9  C   -0.040845
    10  O   -0.249718
    11  C    0.500742
    12  O   -0.165733
    13  C   -0.069927
    14  O   -0.464297
    15  C   -0.091140
 Sum of Mulliken charges with hydrogens summed into heavy atoms =   0.00000
 Electronic spatial extent (au):  <R**2>=           3497.2473
 Charge=              0.0000 electrons
 Dipole moment (field-independent basis, Debye):
    X=             -0.0469    Y=             -2.2105    Z=              1.5107  Tot=              2.6779
 Quadrupole moment (field-independent basis, Debye-Ang):
   XX=            -78.5781   YY=            -87.9613   ZZ=            -93.0868
   XY=             -0.7490   XZ=              1.8905   YZ=              1.7180
 Traceless Quadrupole moment (field-independent basis, Debye-Ang):
   XX=              7.9640   YY=             -1.4192   ZZ=             -6.5448
   XY=             -0.7490   XZ=              1.8905   YZ=              1.7180
 Octapole moment (field-independent basis, Debye-Ang**2):
  XXX=             38.7520  YYY=            -25.6553  ZZZ=              9.5501  XYY=              7.9186
  XXY=            -10.3601  XXZ=             13.8617  XZZ=            -14.8204  YZZ=             -1.0877
  YYZ=             -6.9979  XYZ=              8.4680
 Hexadecapole moment (field-independent basis, Debye-Ang**3):
 XXXX=          -2576.9894 YYYY=          -1352.2234 ZZZZ=           -649.1934 XXXY=            -93.0372
 XXXZ=            -46.2943 YYYX=             47.0791 YYYZ=              7.9516 ZZZX=              6.5153
 ZZZY=              8.8787 XXYY=           -583.1019 XXZZ=           -559.7641 YYZZ=           -314.1512
 XXYZ=            -21.2864 YYXZ=              6.1627 ZZXY=             -8.3637
 N-N= 1.016296571360D+03 E-N=-3.644467934354D+03  KE= 6.858794741264D+02
 1\1\GINC-COMPUTE-8-12\SP\RwB97XD\6-31+G(d,p)\C12H16O3\ELUCIANO.IQUIR\1
 7-May-2022\0\\# wb97xd/6-31+g** scrf=(pcm,solvent=chloroform,smd,dovac
 uum) nmr\\comment\\0,1\C,0,0.147720332,-0.802103846,-2.028108152\C,0,-
 0.560521267,-3.224418319,-0.845294984\C,0,0.900312556,-1.950685395,-2.
 279876761\C,0,-0.970471087,-0.848751849,-1.180647654\C,0,-1.313749229,
 -2.076582527,-0.592546445\C,0,0.54595532,-3.16105383,-1.688806651\C,0,
 -1.769659432,0.414628828,-0.912635678\C,0,-1.365465646,1.198034873,0.3
 49227361\C,0,0.026344586,1.770994301,0.155043872\O,0,0.842776669,1.529
 94914,1.214656964\C,0,2.17459609,2.037359447,1.070096383\O,0,-3.167764
 019,0.101944639,-0.84705059\C,0,-1.550345782,0.412437975,1.650752123\O
 ,0,0.363145217,2.395619853,-0.845492183\C,0,2.960515758,1.660261205,2.
 310528128\H,0,0.443967024,0.133994403,-2.500041574\H,0,-0.836867454,-4
 .167790427,-0.381292594\H,0,1.764204971,-1.899261526,-2.937769078\H,0,
 -2.171782838,-2.145185388,0.074070685\H,0,1.132781137,-4.054616668,-1.
 884744614\H,0,-1.670309745,1.069282623,-1.788268304\H,0,-2.032916093,2
 .067249444,0.434556265\H,0,2.144685938,3.127791908,0.967476542\H,0,2.6
 45669909,1.594843504,0.18517768\H,0,-3.34788832,-0.517985672,-1.576089
 71\H,0,-1.384421552,1.062880151,2.517251182\H,0,-2.565907785,0.0124382
 84,1.733438539\H,0,-0.843207922,-0.419117069,1.733474718\H,0,2.4897192
 46,2.077534264,3.206819339\H,0,3.988654263,2.027447558,2.247792191\H,0
 ,2.980229155,0.572860116,2.438303002\\Version=EM64L-G09RevC.01\State=1
 -A\HF=-692.4444474\RMSD=9.568e-09\Dipole=0.6835694,-0.6970258,0.396054
 9\Quadrupole=0.8011155,-0.121526,-0.6795895,2.3247391,1.6474786,5.0163
 621\PG=C01 [X(C12H16O3)]\\@


 THE ENLIGHTENED ONE, BECAUSE HE SAW MANKIND DROWNING  
 IN THE GREAT SEA OF BIRTH, DEATH, AND SORROW, LONGED TO SAVE 
 THEM, FOR THIS HE WAS MOVED TO PITY.                         
 BECAUSE HE SAW MEN OF THE WORLD STRAYING IN FALSE PATHS, AND 
 NONE TO GUIDE THEM, FOR THIS HE WAS MOVED TO PITY.           
                     ..................                       
 BECAUSE HE SAW THE MEN OF THE WORLD PLOUGHING THEIR FIELDS,  
 SOWING THE SEED, TRAFFICKING, HUCKSTERING, BUYING, SELLING,  
 AND AT THE END WINNOWING NOTHING BUT BITTERNESS,             
 FOR THIS HE WAS MOVED TO PITY......                   
                   BUDAH'S PITY - UPSAKA SILA SUTRA           
 Job cpu time:  0 days  2 hours  7 minutes 14.4 seconds.
 File lengths (MBytes):  RWF=    123 Int=      0 D2E=      0 Chk=      9 Scr=      1
 Normal termination of Gaussian 09 at Tue May 17 23:00:49 2022.
