 Entering Gaussian System, Link 0=g09
 Input=/home/eluciano.iquir/todos_optB3L_MPW_B_PCM/01_epoxido28_009_optB3L_nmr_MPW_B_PCM.gjc
 Output=/home/eluciano.iquir/todos_optB3L_MPW_B_PCM/01_epoxido28_009_optB3L_nmr_MPW_B_PCM.log
 Initial command:
 /share/apps/Gaussian09/EM64T.SSE4.2-enabled/g09/l1.exe /tmp/Gau-57303.inp -scrdir=/tmp/
 Entering Link 1 = /share/apps/Gaussian09/EM64T.SSE4.2-enabled/g09/l1.exe PID=     57304.
  
 Copyright (c) 1988,1990,1992,1993,1995,1998,2003,2009,2011,
            Gaussian, Inc.  All Rights Reserved.
  
 This is part of the Gaussian(R) 09 program.  It is based on
 the Gaussian(R) 03 system (copyright 2003, Gaussian, Inc.),
 the Gaussian(R) 98 system (copyright 1998, Gaussian, Inc.),
 the Gaussian(R) 94 system (copyright 1995, Gaussian, Inc.),
 the Gaussian 92(TM) system (copyright 1992, Gaussian, Inc.),
 the Gaussian 90(TM) system (copyright 1990, Gaussian, Inc.),
 the Gaussian 88(TM) system (copyright 1988, Gaussian, Inc.),
 the Gaussian 86(TM) system (copyright 1986, Carnegie Mellon
 University), and the Gaussian 82(TM) system (copyright 1983,
 Carnegie Mellon University). Gaussian is a federally registered
 trademark of Gaussian, Inc.
  
 This software contains proprietary and confidential information,
 including trade secrets, belonging to Gaussian, Inc.
  
 This software is provided under written license and may be
 used, copied, transmitted, or stored only in accord with that
 written license.
  
 The following legend is applicable only to US Government
 contracts under FAR:
  
                    RESTRICTED RIGHTS LEGEND
  
 Use, reproduction and disclosure by the US Government is
 subject to restrictions as set forth in subparagraphs (a)
 and (c) of the Commercial Computer Software - Restricted
 Rights clause in FAR 52.227-19.
  
 Gaussian, Inc.
 340 Quinnipiac St., Bldg. 40, Wallingford CT 06492
  
  
 ---------------------------------------------------------------
 Warning -- This program may not be used in any manner that
 competes with the business of Gaussian, Inc. or will provide
 assistance to any competitor of Gaussian, Inc.  The licensee
 of this program is prohibited from giving any competitor of
 Gaussian, Inc. access to this program.  By using this program,
 the user acknowledges that Gaussian, Inc. is engaged in the
 business of creating and licensing software in the field of
 computational chemistry and represents and warrants to the
 licensee that it is not a competitor of Gaussian, Inc. and that
 it will not use this program in any manner prohibited above.
 ---------------------------------------------------------------
  

 Cite this work as:
 Gaussian 09, Revision C.01,
 M. J. Frisch, G. W. Trucks, H. B. Schlegel, G. E. Scuseria, 
 M. A. Robb, J. R. Cheeseman, G. Scalmani, V. Barone, B. Mennucci, 
 G. A. Petersson, H. Nakatsuji, M. Caricato, X. Li, H. P. Hratchian, 
 A. F. Izmaylov, J. Bloino, G. Zheng, J. L. Sonnenberg, M. Hada, 
 M. Ehara, K. Toyota, R. Fukuda, J. Hasegawa, M. Ishida, T. Nakajima, 
 Y. Honda, O. Kitao, H. Nakai, T. Vreven, J. A. Montgomery, Jr., 
 J. E. Peralta, F. Ogliaro, M. Bearpark, J. J. Heyd, E. Brothers, 
 K. N. Kudin, V. N. Staroverov, T. Keith, R. Kobayashi, J. Normand, 
 K. Raghavachari, A. Rendell, J. C. Burant, S. S. Iyengar, J. Tomasi, 
 M. Cossi, N. Rega, J. M. Millam, M. Klene, J. E. Knox, J. B. Cross, 
 V. Bakken, C. Adamo, J. Jaramillo, R. Gomperts, R. E. Stratmann, 
 O. Yazyev, A. J. Austin, R. Cammi, C. Pomelli, J. W. Ochterski, 
 R. L. Martin, K. Morokuma, V. G. Zakrzewski, G. A. Voth, 
 P. Salvador, J. J. Dannenberg, S. Dapprich, A. D. Daniels, 
 O. Farkas, J. B. Foresman, J. V. Ortiz, J. Cioslowski, 
 and D. J. Fox, Gaussian, Inc., Wallingford CT, 2010.
 
 ******************************************
 Gaussian 09:  EM64L-G09RevC.01 23-Sep-2011
                 6-Dec-2022 
 ******************************************
 %nprocshared=4
 Will use up to    4 processors via shared memory.
 %mem=80MW
 -----------------------------------------------------
 # mPW1PW91/6-31+g** scrf=(PCM,solvent=chloroform) nmr
 -----------------------------------------------------
 1/38=1/1;
 2/12=2,17=6,18=5,40=1/2;
 3/5=1,6=6,7=111,11=2,16=1,25=1,30=1,70=2201,72=7,74=-7/1,2,8,3;
 4//1;
 5/5=2,38=5,53=7/2;
 8/6=1,10=90,11=11/1;
 10/13=100,45=16/2;
 6/7=2,8=2,9=2,10=2,28=1/1;
 99/9=1/99;
 -------
 comment
 -------
 Charge =  0 Multiplicity = 1
 Symbolic Z-Matrix:
 1                     0.08107   0.47254  -2.06422 
 6                     0.49233  -0.04875  -1.18918 
 6                     1.7574   -2.10099  -0.43022 
 6                     2.26251   0.20135   0.63971 
 6                     2.7547   -1.20665   0.27739 
 6                     1.57319   0.86081  -0.57581 
 6                     1.11431  -1.38166  -1.62422 
 1                     0.97349  -2.38149   0.2832 
 1                     1.53246   0.13855   1.45261 
 1                     2.33992   1.03435  -1.35091 
 1                     1.87078  -1.19208  -2.3967 
 1                     2.26082  -3.0191   -0.75152 
 1                     0.33705  -2.00971  -2.07267 
 6                     3.89355  -1.77523   1.00651 
 1                     4.33038  -1.22445   1.83667 
 1                     4.02337  -2.85686   1.033 
 8                     4.09297  -1.17658  -0.29378 
 8                     3.34366   0.98931   1.12043 
 1                     4.08931   0.77643   0.52721 
 8                     0.95376   2.094    -0.24119 
 6                     1.79561   3.2397   -0.25703 
 1                     2.54743   3.20278   0.5364 
 1                     1.14234   4.1043   -0.11006 
 1                     2.30417   3.34224  -1.22871 
 8                    -0.54259  -0.32715  -0.25508 
 14                   -1.95269   0.53562   0.08614 
 6                    -1.7409    1.47266   1.71016 
 1                    -2.6382    2.04841   1.9683 
 1                    -0.89999   2.1674    1.62133 
 1                    -1.52888   0.7948    2.54526 
 6                    -3.31408  -0.80817   0.25169 
 6                    -2.34066   1.74521  -1.31319 
 1                    -3.26795   2.29334  -1.1073 
 1                    -2.46122   1.24609  -2.28173 
 1                    -1.53206   2.47744  -1.40676 
 6                    -3.49234  -1.54715  -1.09119 
 1                    -3.82488  -0.8723   -1.88947 
 1                    -4.2495   -2.33965  -0.99823 
 1                    -2.55845  -2.01944  -1.41806 
 6                    -4.65512  -0.15584   0.65064 
 1                    -4.99658   0.57336  -0.09493 
 1                    -4.5896    0.35933   1.61661 
 1                    -5.44207  -0.91889   0.74131 
 6                    -2.90932  -1.83292   1.3327 
 1                    -3.67304  -2.61973   1.4231 
 1                    -2.80413  -1.36787   2.32046 
 1                    -1.95804  -2.31945   1.08901 
 
                          Input orientation:                          
 ---------------------------------------------------------------------
 Center     Atomic      Atomic             Coordinates (Angstroms)
 Number     Number       Type             X           Y           Z
 ---------------------------------------------------------------------
      1          1           0        0.081069    0.472541   -2.064223
      2          6           0        0.492334   -0.048750   -1.189181
      3          6           0        1.757401   -2.100987   -0.430220
      4          6           0        2.262508    0.201351    0.639707
      5          6           0        2.754695   -1.206651    0.277389
      6          6           0        1.573192    0.860811   -0.575810
      7          6           0        1.114315   -1.381662   -1.624216
      8          1           0        0.973487   -2.381493    0.283198
      9          1           0        1.532462    0.138551    1.452611
     10          1           0        2.339924    1.034345   -1.350912
     11          1           0        1.870781   -1.192081   -2.396704
     12          1           0        2.260824   -3.019102   -0.751516
     13          1           0        0.337045   -2.009713   -2.072671
     14          6           0        3.893549   -1.775231    1.006511
     15          1           0        4.330382   -1.224450    1.836673
     16          1           0        4.023365   -2.856856    1.032998
     17          8           0        4.092972   -1.176585   -0.293779
     18          8           0        3.343656    0.989314    1.120428
     19          1           0        4.089312    0.776425    0.527214
     20          8           0        0.953763    2.094004   -0.241192
     21          6           0        1.795614    3.239702   -0.257028
     22          1           0        2.547429    3.202778    0.536403
     23          1           0        1.142341    4.104297   -0.110064
     24          1           0        2.304171    3.342239   -1.228714
     25          8           0       -0.542585   -0.327148   -0.255079
     26         14           0       -1.952686    0.535620    0.086142
     27          6           0       -1.740902    1.472664    1.710163
     28          1           0       -2.638195    2.048407    1.968295
     29          1           0       -0.899992    2.167399    1.621334
     30          1           0       -1.528876    0.794796    2.545255
     31          6           0       -3.314080   -0.808165    0.251693
     32          6           0       -2.340657    1.745212   -1.313188
     33          1           0       -3.267946    2.293340   -1.107300
     34          1           0       -2.461222    1.246092   -2.281726
     35          1           0       -1.532057    2.477435   -1.406764
     36          6           0       -3.492340   -1.547149   -1.091189
     37          1           0       -3.824879   -0.872295   -1.889467
     38          1           0       -4.249504   -2.339648   -0.998227
     39          1           0       -2.558452   -2.019437   -1.418064
     40          6           0       -4.655119   -0.155841    0.650638
     41          1           0       -4.996577    0.573357   -0.094930
     42          1           0       -4.589602    0.359328    1.616612
     43          1           0       -5.442072   -0.918894    0.741312
     44          6           0       -2.909318   -1.832918    1.332695
     45          1           0       -3.673036   -2.619732    1.423101
     46          1           0       -2.804133   -1.367866    2.320463
     47          1           0       -1.958040   -2.319451    1.089007
 ---------------------------------------------------------------------
                    Distance matrix (angstroms):
                    1          2          3          4          5
     1  H    0.000000
     2  C    1.098445   0.000000
     3  C    3.478951   2.527468   0.000000
     4  C    3.484746   2.557518   2.588559   0.000000
     5  C    3.930790   2.934253   1.514973   1.534924   0.000000
     6  C    2.143025   1.540058   2.971090   1.545162   2.529486
     7  C    2.167780   1.533874   1.535127   2.991592   2.517454
     8  H    3.801619   2.800196   1.096435   2.908566   2.133774
     9  H    3.819190   2.845349   2.934481   1.094406   2.164386
    10  H    2.434515   2.147752   3.319234   2.159268   2.800975
    11  H    2.466694   2.159962   2.169337   3.363762   2.816432
    12  H    4.320428   3.484551   1.095263   3.508108   2.141853
    13  H    2.495432   2.156396   2.173336   3.994146   3.465937
    14  C    5.386733   4.401143   2.594888   2.588767   1.466932
    15  H    6.012772   5.026796   3.539400   2.782398   2.216861
    16  H    6.018252   5.029087   2.801239   3.550764   2.214418
    17  O    4.685024   3.877931   2.515557   2.474005   1.455377
    18  O    4.588413   3.813385   3.804034   1.421569   2.424841
    19  H    4.782667   4.070034   3.825440   1.918483   2.403374
    20  O    2.591173   2.388094   4.275455   2.463926   3.795603
    21  C    3.723278   3.658055   5.343633   3.202140   4.579901
    22  H    4.505594   4.215862   5.448709   3.016690   4.421890
    23  H    4.258484   4.339908   6.243905   4.129155   5.563809
    24  H    3.724973   3.844883   5.528586   3.654848   4.812870
    25  O    2.073993   1.421657   2.909831   2.991404   3.453853
    26  Si   2.960441   2.818876   4.580728   4.264508   5.023099
    27  C    4.308807   3.963362   5.439701   4.334675   5.426045
    28  H    5.112627   4.916089   6.503200   5.403115   6.522103
    29  H    4.173530   3.840427   5.430445   3.851018   5.152392
    30  H    4.893164   4.329304   5.295151   4.284610   5.243852
    31  C    4.304731   4.140244   5.277908   5.680494   6.081898
    32  C    2.836988   3.355520   5.689197   5.233205   6.099676
    33  H    3.930256   4.430778   6.709893   6.165580   7.102078
    34  H    2.666258   3.404962   5.694541   5.651538   6.306410
    35  H    2.655942   3.244551   5.721549   4.875174   5.897890
    36  C    4.218435   4.258219   5.320094   6.258716   6.404248
    37  H    4.134677   4.450501   5.899232   6.678751   6.935262
    38  H    5.272439   5.269697   6.038419   7.179541   7.209000
    39  H    3.687078   3.639133   4.428213   5.692800   5.636019
    40  C    5.495163   5.467419   6.787655   6.926851   7.493254
    41  H    5.447088   5.631389   7.271915   7.305641   7.961738
    42  H    5.947817   5.819371   7.108243   6.923201   7.627877
    43  H    6.349189   6.300883   7.389333   7.786259   8.214927
    44  C    5.079036   4.595035   4.995798   5.600560   5.795423
    45  H    5.984721   5.548358   5.761384   6.618376   6.680208
    46  H    5.562100   4.992431   5.376924   5.564012   5.924585
    47  H    4.679321   4.043582   4.019985   4.936531   4.909880
                    6          7          8          9         10
     6  C    0.000000
     7  C    2.517620   0.000000
     8  H    3.407356   2.158176   0.000000
     9  H    2.153558   3.457276   2.833832   0.000000
    10  H    1.103981   2.722848   4.025595   3.051915   0.000000
    11  H    2.760177   1.097688   3.066221   4.086841   2.504146
    12  H    3.944291   2.181123   1.770428   3.919115   4.098288
    13  H    3.465337   1.095312   2.468481   4.297868   3.714667
    14  C    3.851820   3.847046   3.068794   3.071856   3.983078
    15  H    4.215505   4.727109   3.875665   3.135862   4.384607
    16  H    4.734201   4.207084   3.176464   3.918308   4.863995
    17  O    3.252663   3.268718   3.393507   3.366849   3.013124
    18  O    2.455255   4.257295   4.204878   2.028440   2.667776
    19  H    2.748571   4.258708   4.443012   2.792978   2.579581
    20  O    1.420009   3.744167   4.506157   2.650973   2.067800
    21  C    2.410439   4.867276   5.706625   3.550951   2.521201
    22  H    2.769651   5.266800   5.807365   3.355456   2.882207
    23  H    3.304959   5.691150   6.499895   4.280337   3.521152
    24  H    2.667977   4.887476   6.067760   4.248371   2.311403
    25  O    2.447576   2.394129   2.609320   2.727435   3.370960
    26  Si   3.602186   4.000974   4.136528   3.764460   4.554158
    27  C    4.072254   5.236175   4.925308   3.544165   5.120102
    28  H    5.061485   6.225178   5.958843   4.616044   6.068536
    29  H    3.556860   5.214102   5.098328   3.171991   4.540387
    30  H    4.400935   5.395175   4.633307   3.316070   5.495918
    31  C    5.230265   4.843410   4.567229   5.082071   6.158811
    32  C    4.079719   4.670215   5.528263   5.023152   4.734405
    33  H    5.076538   5.742565   6.463536   5.851511   5.752619
    34  H    4.397168   4.485741   5.615642   5.578659   4.895126
    35  H    3.598129   4.684357   5.722142   4.799758   4.132537
    36  C    5.632362   4.640342   4.746439   5.878872   6.383328
    37  H    5.819667   4.972469   5.479276   6.394716   6.475347
    38  H    6.657715   5.484538   5.378051   6.751238   7.411395
    39  H    5.106437   3.733426   3.937000   5.443644   5.772710
    40  C    6.428811   6.321706   6.063806   6.246278   7.372474
    41  H    6.593614   6.595742   6.672015   6.724008   7.457496
    42  H    6.560353   6.787391   6.343347   6.128238   7.568367
    43  H    7.356364   6.985420   6.596094   7.090011   8.291683
    44  C    5.566998   5.013639   4.059378   4.861119   6.555722
    45  H    6.605508   5.808415   4.790231   5.891197   7.563274
    46  H    5.702313   5.560118   4.410023   4.672100   6.760986
    47  H    5.035403   4.204806   3.040893   4.284575   5.972742
                   11         12         13         14         15
    11  H    0.000000
    12  H    2.489334   0.000000
    13  H    1.768012   2.542684   0.000000
    14  C    4.001690   2.702529   4.710102   0.000000
    15  H    4.896138   3.768630   5.643257   1.087820   0.000000
    16  H    4.378122   2.513437   4.894056   1.089709   1.845238
    17  O    3.059521   2.638401   4.238578   1.445303   2.144174
    18  O    4.392956   4.554569   5.313168   2.821005   2.527328
    19  H    4.164876   4.402788   5.348035   2.603651   2.403393
    20  O    4.035531   5.302140   4.535984   5.016980   5.170224
    21  C    4.921846   6.295520   5.742851   5.580987   5.544122
    22  H    5.326890   6.360241   6.234030   5.178186   4.946713
    23  H    5.814720   7.239149   6.471588   6.586709   6.507606
    24  H    4.702349   6.379362   5.764134   5.806105   5.861465
    25  O    3.340509   3.918184   2.628386   4.834029   5.378325
    26  Si   4.875282   5.575965   4.047476   6.353391   6.755675
    27  C    6.083706   6.499972   5.545687   6.541482   6.644616
    28  H    7.062920   7.554959   6.453665   7.629477   7.699999
    29  H    5.925194   6.520810   5.711760   6.237016   6.237614
    30  H    6.318885   6.306849   5.715958   6.194793   6.237816
    31  C    5.834739   6.080643   4.491893   7.311285   7.818136
    32  C    5.247657   6.647390   4.674009   7.525945   7.952564
    33  H    6.341706   7.675671   5.695978   8.503439   8.875608
    34  H    4.972339   6.544550   4.298170   7.766853   8.318093
    35  H    5.101435   6.710232   4.906269   7.303853   7.654543
    36  C    5.531140   5.948186   3.980133   7.681388   8.358917
    37  H    5.727137   6.552823   4.318437   8.293136   8.973094
    38  H    6.382048   6.550335   4.722258   8.405168   9.104656
    39  H    4.610896   4.966793   2.968587   6.896848   7.660375
    40  C    7.276500   7.615416   5.981217   8.707973   9.126217
    41  H    7.454900   8.124453   6.247498   9.260852   9.693058
    42  H    7.762095   7.996884   6.595075   8.768832   9.062168
    43  H    7.962386   8.122439   6.519707   9.378564   9.838396
    44  C    6.096592   5.699240   4.708147   6.810927   7.282684
    45  H    6.882079   6.332389   5.354745   7.624955   8.134651
    46  H    6.643597   6.149587   5.438621   6.837497   7.152337
    47  H    5.299152   4.655733   3.919128   5.877421   6.426685
                   16         17         18         19         20
    16  H    0.000000
    17  O    2.142077   0.000000
    18  O    3.906747   2.693060   0.000000
    19  H    3.668910   2.118559   0.976334   0.000000
    20  O    5.962972   4.533669   2.964108   3.486851   0.000000
    21  C    6.617784   4.978232   3.059095   3.455983   1.421826
    22  H    6.256529   4.717703   2.423734   2.874835   2.091364
    23  H    7.620009   6.052081   4.007869   4.490601   2.023372
    24  H    6.819072   4.949109   3.483569   3.585166   2.087317
    25  O    5.376473   4.712900   4.327581   4.825383   2.846265
    26  Si   6.936758   6.294916   5.415425   6.062860   3.314084
    27  C    7.240861   6.713299   5.141415   5.989617   3.384534
    28  H    8.325429   7.799113   6.133767   6.996714   4.217354
    29  H    7.058946   6.307105   4.432532   5.293870   2.628840
    30  H    6.815340   6.599366   5.080309   5.969662   3.951674
    31  C    7.658046   7.436242   6.950617   7.576084   5.184593
    32  C    8.196609   7.139165   6.229389   6.757968   3.481958
    33  H    9.179794   8.178344   7.097643   7.687777   4.314244
    34  H    8.358914   7.264899   6.733290   7.142844   4.067537
    35  H    8.078973   6.799379   5.689796   6.183324   2.772161
    36  C    7.919174   7.636108   7.619431   8.093187   5.809331
    37  H    8.606638   8.082770   7.994558   8.437597   5.860986
    38  H    8.534269   8.452566   8.557264   9.031762   6.877816
    39  H    7.073139   6.798225   7.094463   7.469519   5.535438
    40  C    9.097130   8.857931   8.093978   8.794852   6.108741
    41  H    9.715860   9.258604   8.438578   9.109428   6.143314
    42  H    9.212364   9.021957   7.973686   8.756958   6.098314
    43  H    9.666192   9.594524   8.998556   9.683348   7.137897
    44  C    7.014297   7.218605   6.863653   7.512542   5.728982
    45  H    7.709928   8.083392   7.896252   8.520008   6.811494
    46  H    7.105588   7.378408   6.692659   7.438636   5.715628
    47  H    6.005759   6.311338   6.249551   6.816929   5.452212
                   21         22         23         24         25
    21  C    0.000000
    22  H    1.093674   0.000000
    23  H    1.093567   1.790231   0.000000
    24  H    1.101507   1.787250   1.783805   0.000000
    25  O    4.264926   4.757626   4.743175   4.745143   0.000000
    26  Si   4.634607   5.250476   4.727911   5.265623   1.687953
    27  C    4.415791   4.770827   4.307181   5.338064   2.921894
    28  H    5.101951   5.502144   4.778987   6.026761   3.870172
    29  H    3.456063   3.759494   3.304608   4.446311   3.141883
    30  H    4.988245   5.142969   5.013872   5.951853   3.173862
    31  C    6.538578   7.108165   6.642502   7.140182   2.858213
    32  C    4.523020   5.425760   4.375393   4.912439   2.940635
    33  H    5.220939   6.111254   4.870798   5.671280   3.875672
    34  H    5.118060   6.071001   5.086366   5.311463   3.203678
    35  H    3.602268   4.576486   3.388291   3.936526   3.189219
    36  C    7.181380   7.854277   7.374396   7.584495   3.299778
    37  H    7.152854   7.943386   7.253001   7.467539   3.707002
    38  H    8.259659   8.903475   8.448979   8.676844   4.282952
    39  H    6.925636   7.560522   7.273710   7.240754   2.877516
    40  C    7.346123   7.947960   7.234500   8.012506   4.214571
    41  H    7.298598   8.014017   7.081955   7.890063   4.546933
    42  H    7.251073   7.758174   7.061259   8.032294   4.511410
    43  H    8.406825   8.992346   8.325370   9.057734   5.034673
    44  C    7.098949   7.467825   7.331304   7.779687   3.223320
    45  H    8.189135   8.566332   8.411362   8.848967   4.227523
    46  H    7.002201   7.260363   7.171240   7.802340   3.582054
    47  H    6.841485   7.148401   7.232888   7.456072   2.789149
                   26         27         28         29         30
    26  Si   0.000000
    27  C    1.886888   0.000000
    28  H    2.510169   1.096926   0.000000
    29  H    2.475415   1.094384   1.776483   0.000000
    30  H    2.508789   1.096284   1.770597   1.770075   0.000000
    31  C    1.920041   3.131167   3.400522   4.069118   3.319166
    32  C    1.889910   3.094291   3.308865   3.296237   4.055843
    33  H    2.498758   3.308092   3.148946   3.615040   4.314065
    34  H    2.523921   4.062681   4.328707   4.303501   4.936870
    35  H    2.485225   3.281526   3.577517   3.108859   4.295316
    36  C    2.845096   4.475978   4.797711   5.279765   4.750118
    37  H    3.064370   4.774843   4.982073   5.488208   5.264749
    38  H    3.836456   5.306805   5.536388   6.196354   5.457364
    39  H    3.026203   4.759093   5.293500   5.433049   4.968685
    40  C    2.846036   3.502468   3.265411   4.521136   3.777126
    41  H    3.049505   3.829691   3.463327   4.718955   4.364008
    42  H    3.053972   3.059961   2.604738   4.108816   3.228011
    43  H    3.836753   4.511860   4.262873   5.561487   4.637246
    44  C    2.842360   3.526266   3.942357   4.485893   3.206369
    45  H    3.834490   4.534672   4.812448   5.535855   4.185171
    46  H    3.056209   3.093790   3.438383   4.075860   2.520698
    47  H    3.026086   3.848782   4.507099   4.640545   3.464589
                   31         32         33         34         35
    31  C    0.000000
    32  C    3.148990   0.000000
    33  H    3.386491   1.096676   0.000000
    34  H    3.371283   1.096231   1.768278   0.000000
    35  H    4.089163   1.094870   1.771124   1.773446   0.000000
    36  C    1.543116   3.495039   3.847073   3.206677   4.487714
    37  H    2.202179   3.063716   3.308051   2.549704   4.087875
    38  H    2.186952   4.519843   4.737080   4.207476   5.545783
    39  H    2.196871   3.772402   4.381781   3.379208   4.612534
    40  C    1.543719   3.581529   3.318596   3.921398   4.573900
    41  H    2.204438   3.148223   2.640341   3.415066   4.165252
    42  H    2.202953   3.944890   3.592614   4.529171   4.793304
    43  H    2.186398   4.575719   4.296817   4.765647   5.606915
    44  C    1.543540   4.486322   4.807098   4.769186   5.289672
    45  H    2.186966   5.321207   5.541237   5.489884   6.210720
    46  H    2.202980   4.807232   5.036776   5.303820   5.504247
    47  H    2.196343   4.736921   5.274226   4.932355   5.424062
                   36         37         38         39         40
    36  C    0.000000
    37  H    1.096931   0.000000
    38  H    1.099997   1.768542   0.000000
    39  H    1.096380   1.772567   1.771569   0.000000
    40  C    2.514310   2.766720   2.766278   3.485474   0.000000
    41  H    2.784207   2.585179   3.140010   3.797067   1.097358
    42  H    3.488671   3.793980   3.773264   4.358136   1.096721
    43  H    2.748494   3.088443   2.542982   3.766877   1.099894
    44  C    2.509341   3.484735   2.736069   2.779311   2.515077
    45  H    2.739478   3.748293   2.504714   3.110445   2.762598
    46  H    3.484988   4.360163   3.747954   3.802826   2.771907
    47  H    2.775569   3.801402   3.099639   2.595363   3.485342
                   41         42         43         44         45
    41  H    0.000000
    42  H    1.772234   0.000000
    43  H    1.767648   1.768250   0.000000
    44  C    3.490691   2.776672   2.756813   0.000000
    45  H    3.775182   3.122873   2.546993   1.100234   0.000000
    46  H    3.795956   2.581958   3.107091   1.096824   1.768451
    47  H    4.359215   3.792010   3.771065   1.095914   1.772850
                   46         47
    46  H    0.000000
    47  H    1.771404   0.000000
 Stoichiometry    C14H28O4Si
 Framework group  C1[X(C14H28O4Si)]
 Deg. of freedom   135
 Full point group                 C1      NOp   1
 Largest Abelian subgroup         C1      NOp   1
 Largest concise Abelian subgroup C1      NOp   1
                         Standard orientation:                         
 ---------------------------------------------------------------------
 Center     Atomic      Atomic             Coordinates (Angstroms)
 Number     Number       Type             X           Y           Z
 ---------------------------------------------------------------------
      1          1           0        0.081069    0.472541   -2.064223
      2          6           0        0.492334   -0.048750   -1.189181
      3          6           0        1.757401   -2.100987   -0.430220
      4          6           0        2.262508    0.201351    0.639707
      5          6           0        2.754695   -1.206651    0.277389
      6          6           0        1.573192    0.860811   -0.575810
      7          6           0        1.114315   -1.381662   -1.624216
      8          1           0        0.973487   -2.381493    0.283198
      9          1           0        1.532462    0.138551    1.452611
     10          1           0        2.339924    1.034345   -1.350912
     11          1           0        1.870781   -1.192081   -2.396704
     12          1           0        2.260824   -3.019102   -0.751516
     13          1           0        0.337045   -2.009713   -2.072671
     14          6           0        3.893549   -1.775231    1.006511
     15          1           0        4.330382   -1.224450    1.836673
     16          1           0        4.023365   -2.856856    1.032998
     17          8           0        4.092972   -1.176585   -0.293779
     18          8           0        3.343656    0.989314    1.120428
     19          1           0        4.089312    0.776425    0.527214
     20          8           0        0.953763    2.094004   -0.241192
     21          6           0        1.795614    3.239702   -0.257028
     22          1           0        2.547429    3.202778    0.536403
     23          1           0        1.142341    4.104297   -0.110064
     24          1           0        2.304171    3.342239   -1.228714
     25          8           0       -0.542585   -0.327148   -0.255079
     26         14           0       -1.952686    0.535620    0.086142
     27          6           0       -1.740902    1.472664    1.710163
     28          1           0       -2.638195    2.048407    1.968295
     29          1           0       -0.899992    2.167399    1.621334
     30          1           0       -1.528876    0.794796    2.545255
     31          6           0       -3.314080   -0.808165    0.251693
     32          6           0       -2.340657    1.745212   -1.313188
     33          1           0       -3.267946    2.293340   -1.107300
     34          1           0       -2.461222    1.246092   -2.281726
     35          1           0       -1.532057    2.477435   -1.406764
     36          6           0       -3.492340   -1.547149   -1.091189
     37          1           0       -3.824879   -0.872295   -1.889467
     38          1           0       -4.249504   -2.339648   -0.998227
     39          1           0       -2.558452   -2.019437   -1.418064
     40          6           0       -4.655119   -0.155841    0.650638
     41          1           0       -4.996577    0.573357   -0.094930
     42          1           0       -4.589602    0.359328    1.616612
     43          1           0       -5.442072   -0.918894    0.741312
     44          6           0       -2.909318   -1.832918    1.332695
     45          1           0       -3.673036   -2.619732    1.423101
     46          1           0       -2.804133   -1.367866    2.320463
     47          1           0       -1.958040   -2.319451    1.089007
 ---------------------------------------------------------------------
 Rotational constants (GHZ):      0.5595464      0.2211943      0.1894389
 Standard basis: 6-31+G(d,p) (6D, 7F)
 There are   505 symmetry adapted basis functions of A   symmetry.
 Integral buffers will be    131072 words long.
 Raffenetti 2 integral format.
 Two-electron integral symmetry is turned on.
   505 basis functions,   828 primitive gaussians,   505 cartesian basis functions
    79 alpha electrons       79 beta electrons
       nuclear repulsion energy      1831.4832060431 Hartrees.
 NAtoms=   47 NActive=   47 NUniq=   47 SFac= 1.00D+00 NAtFMM=   60 NAOKFM=F Big=F
 ------------------------------------------------------------------------------
 Polarizable Continuum Model (PCM)
 =================================
 Model                : PCM.
 Atomic radii         : UFF (Universal Force Field).
 Polarization charges : Total charges.
 Charge compensation  : None.
 Solution method      : Matrix inversion.
 Cavity type          : Scaled VdW (van der Waals Surface) (Alpha=1.100).
 Cavity algorithm     : GePol (No added spheres)
                        Default sphere list used, NSphG=   47.
                        Lebedev-Laikov grids with approx.  5.0 points / Ang**2.
                        Smoothing algorithm: Karplus/York (Gamma=1.0000).
                        Polarization charges: spherical gaussians, with
                                              point-specific exponents (IZeta= 3).
                        Self-potential: point-specific (ISelfS= 7).
                        Self-field    : sphere-specific E.n sum rule (ISelfD= 2).
 Solvent              : Chloroform, Eps=   4.711300 Eps(inf)=   2.090627
 ------------------------------------------------------------------------------
 One-electron integrals computed using PRISM.
 NBasis=   505 RedAO= T  NBF=   505
 NBsUse=   505 1.00D-06 NBFU=   505
 Harris functional with IExCor=  908 diagonalized for initial guess.
 ExpMin= 3.31D-02 ExpMax= 1.61D+04 ExpMxC= 2.43D+03 IAcc=3 IRadAn=         5 AccDes= 0.00D+00
 HarFok:  IExCor=  908 AccDes= 0.00D+00 IRadAn=         5 IDoV= 1
 ScaDFX=  1.000000  1.000000  1.000000  1.000000
 FoFCou: FMM=F IPFlag=           0 FMFlag=      100000 FMFlg1=           0
         NFxFlg=           0 DoJE=T BraDBF=F KetDBF=T FulRan=T
         Omega=  0.000000  0.000000  1.000000  0.000000  0.000000 ICntrl=     500 IOpCl=  0
         NMat0=    1 NMatS0=    1 NMatT0=    0 NMatD0=    1 NMtDS0=    0 NMtDT0=    0
         I1Cent=           4 NGrid=           0.
 Petite list used in FoFCou.
 Initial guess orbital symmetries:
       Occupied  (A) (A) (A) (A) (A) (A) (A) (A) (A) (A) (A) (A)
                 (A) (A) (A) (A) (A) (A) (A) (A) (A) (A) (A) (A)
                 (A) (A) (A) (A) (A) (A) (A) (A) (A) (A) (A) (A)
                 (A) (A) (A) (A) (A) (A) (A) (A) (A) (A) (A) (A)
                 (A) (A) (A) (A) (A) (A) (A) (A) (A) (A) (A) (A)
                 (A) (A) (A) (A) (A) (A) (A) (A) (A) (A) (A) (A)
                 (A) (A) (A) (A) (A) (A) (A)
       Virtual   (A) (A) (A) (A) (A) (A) (A) (A) (A) (A) (A) (A)
                 (A) (A) (A) (A) (A) (A) (A) (A) (A) (A) (A) (A)
                 (A) (A) (A) (A) (A) (A) (A) (A) (A) (A) (A) (A)
                 (A) (A) (A) (A) (A) (A) (A) (A) (A) (A) (A) (A)
                 (A) (A) (A) (A) (A) (A) (A) (A) (A) (A) (A) (A)
                 (A) (A) (A) (A) (A) (A) (A) (A) (A) (A) (A) (A)
                 (A) (A) (A) (A) (A) (A) (A) (A) (A) (A) (A) (A)
                 (A) (A) (A) (A) (A) (A) (A) (A) (A) (A) (A) (A)
                 (A) (A) (A) (A) (A) (A) (A) (A) (A) (A) (A) (A)
                 (A) (A) (A) (A) (A) (A) (A) (A) (A) (A) (A) (A)
                 (A) (A) (A) (A) (A) (A) (A) (A) (A) (A) (A) (A)
                 (A) (A) (A) (A) (A) (A) (A) (A) (A) (A) (A) (A)
                 (A) (A) (A) (A) (A) (A) (A) (A) (A) (A) (A) (A)
                 (A) (A) (A) (A) (A) (A) (A) (A) (A) (A) (A) (A)
                 (A) (A) (A) (A) (A) (A) (A) (A) (A) (A) (A) (A)
                 (A) (A) (A) (A) (A) (A) (A) (A) (A) (A) (A) (A)
                 (A) (A) (A) (A) (A) (A) (A) (A) (A) (A) (A) (A)
                 (A) (A) (A) (A) (A) (A) (A) (A) (A) (A) (A) (A)
                 (A) (A) (A) (A) (A) (A) (A) (A) (A) (A) (A) (A)
                 (A) (A) (A) (A) (A) (A) (A) (A) (A) (A) (A) (A)
                 (A) (A) (A) (A) (A) (A) (A) (A) (A) (A) (A) (A)
                 (A) (A) (A) (A) (A) (A) (A) (A) (A) (A) (A) (A)
                 (A) (A) (A) (A) (A) (A) (A) (A) (A) (A) (A) (A)
                 (A) (A) (A) (A) (A) (A) (A) (A) (A) (A) (A) (A)
                 (A) (A) (A) (A) (A) (A) (A) (A) (A) (A) (A) (A)
                 (A) (A) (A) (A) (A) (A) (A) (A) (A) (A) (A) (A)
                 (A) (A) (A) (A) (A) (A) (A) (A) (A) (A) (A) (A)
                 (A) (A) (A) (A) (A) (A) (A) (A) (A) (A) (A) (A)
                 (A) (A) (A) (A) (A) (A) (A) (A) (A) (A) (A) (A)
                 (A) (A) (A) (A) (A) (A) (A) (A) (A) (A) (A) (A)
                 (A) (A) (A) (A) (A) (A) (A) (A) (A) (A) (A) (A)
                 (A) (A) (A) (A) (A) (A) (A) (A) (A) (A) (A) (A)
                 (A) (A) (A) (A) (A) (A) (A) (A) (A) (A) (A) (A)
                 (A) (A) (A) (A) (A) (A) (A) (A) (A) (A) (A) (A)
                 (A) (A) (A) (A) (A) (A) (A) (A) (A) (A) (A) (A)
                 (A) (A) (A) (A) (A) (A)
 The electronic state of the initial guess is 1-A.
 Requested convergence on RMS density matrix=1.00D-08 within 128 cycles.
 Requested convergence on MAX density matrix=1.00D-06.
 Requested convergence on             energy=1.00D-06.
 No special actions if energy rises.
 Error on total polarization charges =  0.01539
 SCF Done:  E(RmPW1PW91) =  -1140.62596124     A.U. after   13 cycles
             Convg  =    0.4660D-08             -V/T =  2.0080
 Range of M.O.s used for correlation:     1   505
 NBasis=   505 NAE=    79 NBE=    79 NFC=     0 NFV=     0
 NROrb=    505 NOA=    79 NOB=    79 NVA=   426 NVB=   426

 **** Warning!!: The largest alpha MO coefficient is  0.73650464D+02

 NEqPCM:  Using equilibrium solvation (IEInf=0, Eps=   4.7113, EpsInf=   2.0906)
          Differentiating once with respect to magnetic field using GIAOs.
          Electric field/nuclear overlap derivatives assumed to be zero.
 FoFCou: FMM=F IPFlag=           0 FMFlag=    10101102 FMFlg1=           0
         NFxFlg=    40000000 DoJE=F BraDBF=F KetDBF=T FulRan=T
         Omega=  0.000000  0.000000  1.000000  0.000000  0.000000 ICntrl=    6100 IOpCl=  0
         NMat0=    1 NMatS0=    1 NMatT0=    0 NMatD0=    1 NMtDS0=    0 NMtDT0=    0
         I1Cent=           7 NGrid=        3007.
 Symmetry not used in FoFCou.
          There are     3 degrees of freedom in the 1st order CPHF.  IDoFFX=0.
      3 vectors produced by pass  0 Test12= 1.12D-12 3.33D-08 XBig12= 1.55D+02 2.98D+00.
 AX will form     3 AO Fock derivatives at one time.
      3 vectors produced by pass  1 Test12= 1.12D-12 3.33D-08 XBig12= 3.94D-01 1.03D-01.
      3 vectors produced by pass  2 Test12= 1.12D-12 3.33D-08 XBig12= 9.46D-04 5.14D-03.
      3 vectors produced by pass  3 Test12= 1.12D-12 3.33D-08 XBig12= 5.03D-06 2.53D-04.
      3 vectors produced by pass  4 Test12= 1.12D-12 3.33D-08 XBig12= 1.80D-08 1.53D-05.
      3 vectors produced by pass  5 Test12= 1.12D-12 3.33D-08 XBig12= 6.22D-11 1.06D-06.
      2 vectors produced by pass  6 Test12= 1.12D-12 3.33D-08 XBig12= 2.36D-13 6.93D-08.
 Inverted reduced A of dimension    20 with in-core refinement.
 Calculating GIAO nuclear magnetic shielding tensors.
 SCF GIAO Magnetic shielding tensor (ppm):
      1  H    Isotropic =    27.3973   Anisotropy =     3.8705
   XX=    28.3753   YX=    -1.2005   ZX=    -1.9542
   XY=    -1.6058   YY=    24.8318   ZY=    -1.4980
   XZ=    -0.2206   YZ=    -2.4047   ZZ=    28.9849
   Eigenvalues:    23.4625    28.7519    29.9777
      2  C    Isotropic =   121.5925   Anisotropy =    36.8372
   XX=   130.5902   YX=    13.7643   ZX=   -19.3101
   XY=     5.4431   YY=   116.1515   ZY=     4.3203
   XZ=   -19.0634   YZ=    -1.3523   ZZ=   118.0356
   Eigenvalues:   100.8373   117.7894   146.1506
      3  C    Isotropic =   167.3897   Anisotropy =    29.6594
   XX=   170.6012   YX=     5.3722   ZX=     9.8778
   XY=     3.5143   YY=   170.8882   ZY=    10.7439
   XZ=    14.6845   YZ=    15.0435   ZZ=   160.6797
   Eigenvalues:   148.7068   166.2997   187.1627
      4  C    Isotropic =   123.8345   Anisotropy =    38.6376
   XX=   130.9908   YX=     8.6769   ZX=    18.9088
   XY=    18.3003   YY=   129.4517   ZY=     3.0628
   XZ=    18.2264   YZ=    -1.2012   ZZ=   111.0610
   Eigenvalues:    98.5898   123.3208   149.5929
      5  C    Isotropic =   134.3079   Anisotropy =    59.5239
   XX=   112.6167   YX=    20.3524   ZX=   -21.1167
   XY=    24.2636   YY=   155.2452   ZY=    23.2235
   XZ=   -17.3812   YZ=    28.1788   ZZ=   135.0618
   Eigenvalues:    86.1397   142.7935   173.9905
      6  C    Isotropic =   110.0970   Anisotropy =    34.4488
   XX=   107.7255   YX=    -5.7512   ZX=    -1.0786
   XY=   -13.1744   YY=   124.4119   ZY=     7.2855
   XZ=   -13.5254   YZ=    13.1726   ZZ=    98.1537
   Eigenvalues:    93.2742   103.9539   133.0629
      7  C    Isotropic =   164.0335   Anisotropy =    18.9152
   XX=   163.7815   YX=    -4.9582   ZX=    -5.0122
   XY=    -9.0618   YY=   170.2958   ZY=     9.3894
   XZ=    -1.5399   YZ=     0.4487   ZZ=   158.0232
   Eigenvalues:   156.1442   159.3126   176.6436
      8  H    Isotropic =    28.9734   Anisotropy =     7.3357
   XX=    32.1736   YX=     1.1632   ZX=    -1.8847
   XY=     1.9340   YY=    28.7241   ZY=    -3.4352
   XZ=    -1.5420   YZ=    -2.9574   ZZ=    26.0225
   Eigenvalues:    23.8602    29.1962    33.8638
      9  H    Isotropic =    27.3135   Anisotropy =     5.5384
   XX=    30.9380   YX=     0.4908   ZX=     0.0445
   XY=     0.7766   YY=    24.2763   ZY=    -0.7991
   XZ=    -0.4685   YZ=     1.3452   ZZ=    26.7263
   Eigenvalues:    24.1830    26.7518    31.0058
     10  H    Isotropic =    28.7390   Anisotropy =     3.2987
   XX=    28.4757   YX=    -0.1586   ZX=    -0.8402
   XY=    -2.1498   YY=    30.3788   ZY=     0.5315
   XZ=    -1.9508   YZ=    -1.3881   ZZ=    27.3624
   Eigenvalues:    26.1688    29.1099    30.9381
     11  H    Isotropic =    29.8479   Anisotropy =     8.8348
   XX=    29.6318   YX=    -1.2592   ZX=    -3.3325
   XY=    -1.1199   YY=    26.0956   ZY=     1.2639
   XZ=    -3.0789   YZ=     0.4832   ZZ=    33.8163
   Eigenvalues:    25.7308    28.0750    35.7378
     12  H    Isotropic =    30.4686   Anisotropy =    10.6473
   XX=    28.5564   YX=    -2.5610   ZX=     1.7452
   XY=    -2.6423   YY=    36.2308   ZY=     3.0416
   XZ=     1.9132   YZ=     2.9887   ZZ=    26.6186
   Eigenvalues:    24.2253    29.6137    37.5668
     13  H    Isotropic =    29.8238   Anisotropy =     9.0479
   XX=    30.7049   YX=     0.9193   ZX=     3.4412
   XY=     1.9699   YY=    29.2910   ZY=     4.0671
   XZ=     3.5416   YZ=     3.9189   ZZ=    29.4756
   Eigenvalues:    24.9308    28.6849    35.8558
     14  C    Isotropic =   146.4592   Anisotropy =    31.5525
   XX=   129.6188   YX=    21.6525   ZX=   -16.8866
   XY=    16.6599   YY=   157.6848   ZY=    12.3022
   XZ=   -20.2017   YZ=     4.7048   ZZ=   152.0741
   Eigenvalues:   110.0213   161.8622   167.4943
     15  H    Isotropic =    28.5358   Anisotropy =     9.1657
   XX=    25.6785   YX=    -2.0346   ZX=     4.8016
   XY=     1.2113   YY=    28.5453   ZY=     2.7941
   XZ=     5.6012   YZ=     0.1279   ZZ=    31.3838
   Eigenvalues:    22.3994    28.5618    34.6463
     16  H    Isotropic =    29.0194   Anisotropy =    11.3046
   XX=    25.3893   YX=    -0.0258   ZX=     2.0160
   XY=    -3.7280   YY=    35.2343   ZY=    -3.8898
   XZ=     1.6621   YZ=    -1.7779   ZZ=    26.4348
   Eigenvalues:    23.9948    26.5077    36.5559
     17  O    Isotropic =   312.4733   Anisotropy =   124.6258
   XX=   317.1768   YX=   -19.8805   ZX=    80.9236
   XY=   -40.7127   YY=   373.6827   ZY=    52.7516
   XZ=    93.0836   YZ=    60.6729   ZZ=   246.5603
   Eigenvalues:   168.0566   373.8061   395.5572
     18  O    Isotropic =   308.9347   Anisotropy =    41.0210
   XX=   334.1987   YX=    15.2515   ZX=    -3.5911
   XY=   -16.8962   YY=   279.1235   ZY=    -0.6371
   XZ=   -10.0793   YZ=     4.4745   ZZ=   313.4821
   Eigenvalues:   279.0130   311.5091   336.2821
     19  H    Isotropic =    29.7624   Anisotropy =    14.0552
   XX=    35.4470   YX=    -0.7367   ZX=    -6.9454
   XY=     0.5720   YY=    29.4329   ZY=     4.6244
   XZ=    -6.6698   YZ=     4.2059   ZZ=    24.4072
   Eigenvalues:    19.5506    30.6040    39.1325
     20  O    Isotropic =   295.0599   Anisotropy =    70.6007
   XX=   311.5626   YX=   -39.1252   ZX=   -11.8759
   XY=   -28.2841   YY=   295.1784   ZY=     6.4854
   XZ=   -14.5584   YZ=    11.9898   ZZ=   278.4388
   Eigenvalues:   268.5514   274.5014   342.1270
     21  C    Isotropic =   136.4667   Anisotropy =    85.7328
   XX=   129.3168   YX=    37.6027   ZX=    -2.7819
   XY=    36.5391   YY=   172.2042   ZY=    -1.6547
   XZ=    -3.3812   YZ=     1.2038   ZZ=   107.8790
   Eigenvalues:   105.3325   110.4456   193.6219
     22  H    Isotropic =    27.0769   Anisotropy =     8.9411
   XX=    27.2934   YX=     2.4572   ZX=     4.3164
   XY=     3.5515   YY=    30.3887   ZY=     1.7908
   XZ=     2.9850   YZ=    -0.0510   ZZ=    23.5485
   Eigenvalues:    21.2338    26.9593    33.0376
     23  H    Isotropic =    27.8199   Anisotropy =    10.6136
   XX=    25.5778   YX=     2.3863   ZX=    -0.0431
   XY=    -0.7698   YY=    34.8114   ZY=     0.6404
   XZ=    -0.3726   YZ=     0.2113   ZZ=    23.0704
   Eigenvalues:    23.0324    25.5316    34.8956
     24  H    Isotropic =    28.3103   Anisotropy =    10.3436
   XX=    27.7630   YX=     3.4962   ZX=    -2.6220
   XY=     4.5923   YY=    30.2736   ZY=    -4.7515
   XZ=    -1.1815   YZ=    -2.4346   ZZ=    26.8941
   Eigenvalues:    24.3158    25.4089    35.2060
     25  O    Isotropic =   290.2655   Anisotropy =    21.0251
   XX=   286.1887   YX=    -2.8414   ZX=    17.9829
   XY=     3.6716   YY=   304.1944   ZY=    -3.5173
   XZ=    12.2393   YZ=     0.9468   ZZ=   280.4135
   Eigenvalues:   267.8731   298.6411   304.2822
     26  Si   Isotropic =   378.3600   Anisotropy =    32.5801
   XX=   397.3690   YX=   -17.0235   ZX=     4.3893
   XY=     0.2217   YY=   373.9963   ZY=     4.0797
   XZ=    -0.3701   YZ=     5.6960   ZZ=   363.7147
   Eigenvalues:   361.0101   373.9898   400.0800
     27  C    Isotropic =   198.7218   Anisotropy =     8.5247
   XX=   202.0531   YX=    -2.7844   ZX=     0.0354
   XY=    -3.3637   YY=   192.8688   ZY=     5.2752
   XZ=    -1.2768   YZ=     2.5967   ZZ=   201.2434
   Eigenvalues:   190.6878   201.0725   204.4049
     28  H    Isotropic =    31.7344   Anisotropy =    10.9064
   XX=    34.2226   YX=    -3.9641   ZX=    -2.9732
   XY=    -3.5537   YY=    31.4189   ZY=     3.7062
   XZ=    -2.8878   YZ=     3.5915   ZZ=    29.5615
   Eigenvalues:    26.7250    29.4727    39.0053
     29  H    Isotropic =    30.8684   Anisotropy =    10.1584
   XX=    34.1491   YX=     4.9276   ZX=    -2.2883
   XY=     5.0754   YY=    30.2730   ZY=     1.3723
   XZ=    -1.5482   YZ=     1.5097   ZZ=    28.1830
   Eigenvalues:    25.1290    29.8355    37.6406
     30  H    Isotropic =    31.3161   Anisotropy =     8.1962
   XX=    28.4260   YX=    -0.0973   ZX=     1.3278
   XY=     0.3317   YY=    30.1120   ZY=    -2.4062
   XZ=     1.4054   YZ=    -3.1612   ZZ=    35.4102
   Eigenvalues:    27.8628    29.3052    36.7802
     31  C    Isotropic =   172.6208   Anisotropy =     7.5865
   XX=   174.8598   YX=    -3.9912   ZX=    -0.7510
   XY=    -2.0004   YY=   172.9712   ZY=     1.4214
   XZ=    -2.2515   YZ=     1.8462   ZZ=   170.0313
   Eigenvalues:   169.2958   170.8881   177.6784
     32  C    Isotropic =   201.2146   Anisotropy =     4.7476
   XX=   202.9762   YX=    -1.2562   ZX=     1.8134
   XY=    -0.1532   YY=   198.0686   ZY=    -0.7218
   XZ=     1.3460   YZ=     2.0566   ZZ=   202.5990
   Eigenvalues:   197.7929   201.4713   204.3797
     33  H    Isotropic =    31.6925   Anisotropy =    10.6799
   XX=    35.4290   YX=    -5.0010   ZX=    -0.3215
   XY=    -4.5933   YY=    31.9946   ZY=    -1.2071
   XZ=    -0.5996   YZ=    -0.9522   ZZ=    27.6541
   Eigenvalues:    26.8871    29.3781    38.8124
     34  H    Isotropic =    31.4595   Anisotropy =     8.8970
   XX=    28.3807   YX=     0.5735   ZX=     2.0259
   XY=     0.6141   YY=    29.3664   ZY=     1.2344
   XZ=     1.9915   YZ=     1.6564   ZZ=    36.6312
   Eigenvalues:    27.8658    29.1218    37.3908
     35  H    Isotropic =    31.0458   Anisotropy =     9.6030
   XX=    33.9173   YX=     3.8873   ZX=     0.3761
   XY=     4.2508   YY=    32.2343   ZY=    -2.5902
   XZ=     0.3138   YZ=    -2.8789   ZZ=    26.9858
   Eigenvalues:    25.2980    30.3915    37.4478
     36  C    Isotropic =   170.4280   Anisotropy =    37.4460
   XX=   157.0993   YX=     3.7527   ZX=     3.7862
   XY=     2.1513   YY=   165.8564   ZY=    16.3605
   XZ=     0.4087   YZ=    11.8576   ZZ=   188.3284
   Eigenvalues:   155.8803   160.0117   195.3920
     37  H    Isotropic =    30.6417   Anisotropy =     8.3483
   XX=    28.2218   YX=     0.8252   ZX=     3.0665
   XY=     1.1565   YY=    28.9562   ZY=    -0.9192
   XZ=     3.2605   YZ=    -2.2945   ZZ=    34.7472
   Eigenvalues:    26.0938    29.6241    36.2073
     38  H    Isotropic =    31.0538   Anisotropy =     9.8178
   XX=    31.2538   YX=     4.4474   ZX=     1.1974
   XY=     4.8340   YY=    32.7663   ZY=     1.9238
   XZ=     1.9025   YZ=     2.6272   ZZ=    29.1412
   Eigenvalues:    27.2314    28.3310    37.5989
     39  H    Isotropic =    30.4127   Anisotropy =     7.7578
   XX=    32.4491   YX=    -0.7046   ZX=    -1.7909
   XY=    -1.4483   YY=    29.4413   ZY=     4.0999
   XZ=    -2.9770   YZ=     4.3715   ZZ=    29.3477
   Eigenvalues:    25.0277    30.6258    35.5845
     40  C    Isotropic =   170.3693   Anisotropy =    38.9839
   XX=   185.1307   YX=   -17.6742   ZX=    -8.8419
   XY=   -13.2561   YY=   165.9187   ZY=     3.9960
   XZ=    -8.2539   YZ=     5.4563   ZZ=   160.0584
   Eigenvalues:   157.3145   157.4347   196.3585
     41  H    Isotropic =    30.7256   Anisotropy =     9.0487
   XX=    33.3416   YX=    -3.7511   ZX=     1.7741
   XY=    -3.1280   YY=    31.0859   ZY=    -3.5416
   XZ=     0.5872   YZ=    -2.7995   ZZ=    27.7493
   Eigenvalues:    25.7347    29.6841    36.7581
     42  H    Isotropic =    30.7003   Anisotropy =     8.8446
   XX=    31.1944   YX=    -1.1848   ZX=    -3.6052
   XY=    -0.6983   YY=    29.1384   ZY=     4.6286
   XZ=    -2.2199   YZ=     4.1064   ZZ=    31.7682
   Eigenvalues:    25.6831    29.8212    36.5967
     43  H    Isotropic =    30.9419   Anisotropy =    10.2256
   XX=    36.4971   YX=     3.3743   ZX=    -1.8376
   XY=     2.1336   YY=    29.0634   ZY=    -0.3006
   XZ=    -1.9541   YZ=    -0.4867   ZZ=    27.2653
   Eigenvalues:    26.8759    28.1909    37.7590
     44  C    Isotropic =   170.3297   Anisotropy =    37.6900
   XX=   161.9541   YX=    -3.4905   ZX=     7.8631
   XY=    -8.1390   YY=   172.4664   ZY=   -19.1008
   XZ=    11.1141   YZ=   -15.3465   ZZ=   176.5685
   Eigenvalues:   155.8152   159.7175   195.4563
     45  H    Isotropic =    31.0472   Anisotropy =     9.8029
   XX=    30.0882   YX=     3.2236   ZX=    -0.8917
   XY=     3.9834   YY=    34.0146   ZY=    -3.1770
   XZ=    -1.4172   YZ=    -3.5493   ZZ=    29.0388
   Eigenvalues:    27.0897    28.4694    37.5825
     46  H    Isotropic =    30.5003   Anisotropy =     8.2629
   XX=    27.2198   YX=     1.5377   ZX=     1.3468
   XY=     1.2107   YY=    28.4868   ZY=    -1.5432
   XZ=     1.1338   YZ=     0.0790   ZZ=    35.7942
   Eigenvalues:    26.1258    29.3661    36.0089
     47  H    Isotropic =    30.2432   Anisotropy =     8.2153
   XX=    33.7124   YX=    -2.6421   ZX=    -1.0429
   XY=    -3.3572   YY=    30.8035   ZY=    -2.4294
   XZ=     0.0689   YZ=    -3.0676   ZZ=    26.2138
   Eigenvalues:    24.5749    30.4347    35.7201
 End of Minotr Frequency-dependent properties file   721 does not exist.
 End of Minotr Frequency-dependent properties file   722 does not exist.

 **********************************************************************

            Population analysis using the SCF density.

 **********************************************************************

 Orbital symmetries:
       Occupied  (A) (A) (A) (A) (A) (A) (A) (A) (A) (A) (A) (A)
                 (A) (A) (A) (A) (A) (A) (A) (A) (A) (A) (A) (A)
                 (A) (A) (A) (A) (A) (A) (A) (A) (A) (A) (A) (A)
                 (A) (A) (A) (A) (A) (A) (A) (A) (A) (A) (A) (A)
                 (A) (A) (A) (A) (A) (A) (A) (A) (A) (A) (A) (A)
                 (A) (A) (A) (A) (A) (A) (A) (A) (A) (A) (A) (A)
                 (A) (A) (A) (A) (A) (A) (A)
       Virtual   (A) (A) (A) (A) (A) (A) (A) (A) (A) (A) (A) (A)
                 (A) (A) (A) (A) (A) (A) (A) (A) (A) (A) (A) (A)
                 (A) (A) (A) (A) (A) (A) (A) (A) (A) (A) (A) (A)
                 (A) (A) (A) (A) (A) (A) (A) (A) (A) (A) (A) (A)
                 (A) (A) (A) (A) (A) (A) (A) (A) (A) (A) (A) (A)
                 (A) (A) (A) (A) (A) (A) (A) (A) (A) (A) (A) (A)
                 (A) (A) (A) (A) (A) (A) (A) (A) (A) (A) (A) (A)
                 (A) (A) (A) (A) (A) (A) (A) (A) (A) (A) (A) (A)
                 (A) (A) (A) (A) (A) (A) (A) (A) (A) (A) (A) (A)
                 (A) (A) (A) (A) (A) (A) (A) (A) (A) (A) (A) (A)
                 (A) (A) (A) (A) (A) (A) (A) (A) (A) (A) (A) (A)
                 (A) (A) (A) (A) (A) (A) (A) (A) (A) (A) (A) (A)
                 (A) (A) (A) (A) (A) (A) (A) (A) (A) (A) (A) (A)
                 (A) (A) (A) (A) (A) (A) (A) (A) (A) (A) (A) (A)
                 (A) (A) (A) (A) (A) (A) (A) (A) (A) (A) (A) (A)
                 (A) (A) (A) (A) (A) (A) (A) (A) (A) (A) (A) (A)
                 (A) (A) (A) (A) (A) (A) (A) (A) (A) (A) (A) (A)
                 (A) (A) (A) (A) (A) (A) (A) (A) (A) (A) (A) (A)
                 (A) (A) (A) (A) (A) (A) (A) (A) (A) (A) (A) (A)
                 (A) (A) (A) (A) (A) (A) (A) (A) (A) (A) (A) (A)
                 (A) (A) (A) (A) (A) (A) (A) (A) (A) (A) (A) (A)
                 (A) (A) (A) (A) (A) (A) (A) (A) (A) (A) (A) (A)
                 (A) (A) (A) (A) (A) (A) (A) (A) (A) (A) (A) (A)
                 (A) (A) (A) (A) (A) (A) (A) (A) (A) (A) (A) (A)
                 (A) (A) (A) (A) (A) (A) (A) (A) (A) (A) (A) (A)
                 (A) (A) (A) (A) (A) (A) (A) (A) (A) (A) (A) (A)
                 (A) (A) (A) (A) (A) (A) (A) (A) (A) (A) (A) (A)
                 (A) (A) (A) (A) (A) (A) (A) (A) (A) (A) (A) (A)
                 (A) (A) (A) (A) (A) (A) (A) (A) (A) (A) (A) (A)
                 (A) (A) (A) (A) (A) (A) (A) (A) (A) (A) (A) (A)
                 (A) (A) (A) (A) (A) (A) (A) (A) (A) (A) (A) (A)
                 (A) (A) (A) (A) (A) (A) (A) (A) (A) (A) (A) (A)
                 (A) (A) (A) (A) (A) (A) (A) (A) (A) (A) (A) (A)
                 (A) (A) (A) (A) (A) (A) (A) (A) (A) (A) (A) (A)
                 (A) (A) (A) (A) (A) (A) (A) (A) (A) (A) (A) (A)
                 (A) (A) (A) (A) (A) (A)
 The electronic state is 1-A.
 Alpha  occ. eigenvalues --  -66.30032 -19.27168 -19.25296 -19.25223 -19.23096
 Alpha  occ. eigenvalues --  -10.31896 -10.30682 -10.30624 -10.30302 -10.30220
 Alpha  occ. eigenvalues --  -10.28269 -10.25461 -10.25024 -10.24360 -10.23391
 Alpha  occ. eigenvalues --  -10.23180 -10.23123 -10.22020 -10.21571  -5.33388
 Alpha  occ. eigenvalues --   -3.67311  -3.67015  -3.66983  -1.11564  -1.07332
 Alpha  occ. eigenvalues --   -1.05287  -1.02840  -0.84526  -0.81930  -0.77446
 Alpha  occ. eigenvalues --   -0.75386  -0.71770  -0.70186  -0.70057  -0.69921
 Alpha  occ. eigenvalues --   -0.69219  -0.68970  -0.63763  -0.62012  -0.59229
 Alpha  occ. eigenvalues --   -0.56384  -0.55030  -0.52497  -0.51888  -0.50987
 Alpha  occ. eigenvalues --   -0.48205  -0.48150  -0.47589  -0.46450  -0.45674
 Alpha  occ. eigenvalues --   -0.44557  -0.44347  -0.43928  -0.42794  -0.41959
 Alpha  occ. eigenvalues --   -0.41447  -0.41020  -0.40633  -0.40342  -0.39774
 Alpha  occ. eigenvalues --   -0.39396  -0.38918  -0.38527  -0.38473  -0.38076
 Alpha  occ. eigenvalues --   -0.36989  -0.36463  -0.35336  -0.33963  -0.33799
 Alpha  occ. eigenvalues --   -0.33463  -0.32844  -0.32509  -0.31327  -0.30572
 Alpha  occ. eigenvalues --   -0.29721  -0.28880  -0.26540  -0.25520
 Alpha virt. eigenvalues --   -0.00058   0.00802   0.01270   0.01518   0.02465
 Alpha virt. eigenvalues --    0.02902   0.03259   0.03791   0.03967   0.04568
 Alpha virt. eigenvalues --    0.04914   0.05685   0.05803   0.06047   0.06361
 Alpha virt. eigenvalues --    0.07055   0.07149   0.07637   0.07978   0.08226
 Alpha virt. eigenvalues --    0.08300   0.08740   0.09004   0.09391   0.09685
 Alpha virt. eigenvalues --    0.10011   0.10342   0.10608   0.11470   0.11894
 Alpha virt. eigenvalues --    0.11960   0.12062   0.12470   0.13107   0.13130
 Alpha virt. eigenvalues --    0.13382   0.14082   0.14282   0.14434   0.14996
 Alpha virt. eigenvalues --    0.15069   0.15557   0.15643   0.16168   0.16539
 Alpha virt. eigenvalues --    0.16608   0.17068   0.17649   0.17745   0.17834
 Alpha virt. eigenvalues --    0.18234   0.18547   0.18677   0.19111   0.20016
 Alpha virt. eigenvalues --    0.20163   0.20330   0.20756   0.21123   0.21399
 Alpha virt. eigenvalues --    0.21687   0.21943   0.22417   0.22521   0.22902
 Alpha virt. eigenvalues --    0.22995   0.23274   0.24053   0.24342   0.24423
 Alpha virt. eigenvalues --    0.24602   0.24959   0.25429   0.25914   0.26267
 Alpha virt. eigenvalues --    0.26483   0.26870   0.27250   0.27762   0.27880
 Alpha virt. eigenvalues --    0.28083   0.28294   0.28720   0.29335   0.29603
 Alpha virt. eigenvalues --    0.30077   0.30490   0.31078   0.31313   0.31564
 Alpha virt. eigenvalues --    0.31703   0.32194   0.32577   0.33167   0.33424
 Alpha virt. eigenvalues --    0.33828   0.34355   0.35141   0.35467   0.36474
 Alpha virt. eigenvalues --    0.36903   0.37110   0.37810   0.38411   0.38632
 Alpha virt. eigenvalues --    0.39192   0.39548   0.40067   0.40789   0.41274
 Alpha virt. eigenvalues --    0.41852   0.42975   0.43523   0.43646   0.44760
 Alpha virt. eigenvalues --    0.45549   0.45791   0.46741   0.48210   0.48549
 Alpha virt. eigenvalues --    0.49220   0.51165   0.52050   0.53833   0.54888
 Alpha virt. eigenvalues --    0.55106   0.59105   0.62362   0.64205   0.66003
 Alpha virt. eigenvalues --    0.66907   0.68960   0.69993   0.71325   0.71985
 Alpha virt. eigenvalues --    0.72720   0.73159   0.73644   0.74270   0.75364
 Alpha virt. eigenvalues --    0.75622   0.76998   0.77397   0.78534   0.79120
 Alpha virt. eigenvalues --    0.79546   0.79615   0.80921   0.81447   0.82151
 Alpha virt. eigenvalues --    0.82743   0.84002   0.85171   0.85824   0.86037
 Alpha virt. eigenvalues --    0.87101   0.88272   0.88455   0.89527   0.90293
 Alpha virt. eigenvalues --    0.90703   0.91801   0.92951   0.93451   0.93709
 Alpha virt. eigenvalues --    0.94472   0.96321   0.96780   0.98051   0.98672
 Alpha virt. eigenvalues --    0.99091   1.00196   1.00471   1.01758   1.02894
 Alpha virt. eigenvalues --    1.02986   1.04055   1.05036   1.05277   1.06129
 Alpha virt. eigenvalues --    1.06390   1.07010   1.07168   1.07797   1.08283
 Alpha virt. eigenvalues --    1.08916   1.09685   1.10057   1.11005   1.11582
 Alpha virt. eigenvalues --    1.14378   1.14729   1.15391   1.16648   1.16859
 Alpha virt. eigenvalues --    1.17757   1.18708   1.19324   1.20026   1.22341
 Alpha virt. eigenvalues --    1.23069   1.23840   1.24196   1.24934   1.25431
 Alpha virt. eigenvalues --    1.27281   1.28911   1.29782   1.31680   1.33385
 Alpha virt. eigenvalues --    1.33670   1.35448   1.35900   1.36563   1.37418
 Alpha virt. eigenvalues --    1.39313   1.39755   1.41097   1.42767   1.42917
 Alpha virt. eigenvalues --    1.44072   1.45378   1.47393   1.48002   1.48373
 Alpha virt. eigenvalues --    1.49767   1.52017   1.52747   1.54517   1.54978
 Alpha virt. eigenvalues --    1.55599   1.58542   1.59361   1.61657   1.63402
 Alpha virt. eigenvalues --    1.64103   1.66427   1.66811   1.68488   1.69633
 Alpha virt. eigenvalues --    1.69971   1.72365   1.73036   1.75436   1.76732
 Alpha virt. eigenvalues --    1.77049   1.79026   1.79886   1.81474   1.82540
 Alpha virt. eigenvalues --    1.82990   1.83798   1.85147   1.85935   1.87152
 Alpha virt. eigenvalues --    1.89573   1.90944   1.91889   1.92441   1.93567
 Alpha virt. eigenvalues --    1.95010   1.95645   1.96033   1.96871   1.97189
 Alpha virt. eigenvalues --    1.97798   1.99647   2.00509   2.01311   2.02159
 Alpha virt. eigenvalues --    2.02956   2.04103   2.06213   2.06392   2.07007
 Alpha virt. eigenvalues --    2.07457   2.07748   2.08938   2.09623   2.09886
 Alpha virt. eigenvalues --    2.10313   2.10931   2.11965   2.12649   2.12680
 Alpha virt. eigenvalues --    2.14464   2.14844   2.15628   2.16026   2.16368
 Alpha virt. eigenvalues --    2.16668   2.17063   2.17474   2.18036   2.19112
 Alpha virt. eigenvalues --    2.19348   2.19915   2.19925   2.21002   2.22012
 Alpha virt. eigenvalues --    2.22272   2.23244   2.25447   2.25523   2.26855
 Alpha virt. eigenvalues --    2.27338   2.30016   2.30872   2.31161   2.36083
 Alpha virt. eigenvalues --    2.36266   2.38084   2.39234   2.39679   2.40562
 Alpha virt. eigenvalues --    2.41728   2.42583   2.43356   2.44072   2.45654
 Alpha virt. eigenvalues --    2.46020   2.47874   2.49757   2.51743   2.53476
 Alpha virt. eigenvalues --    2.54947   2.56842   2.57135   2.57988   2.59053
 Alpha virt. eigenvalues --    2.59834   2.60593   2.62195   2.63248   2.65328
 Alpha virt. eigenvalues --    2.67136   2.67637   2.68625   2.69910   2.70814
 Alpha virt. eigenvalues --    2.71025   2.72810   2.73225   2.74109   2.75619
 Alpha virt. eigenvalues --    2.75980   2.76922   2.78467   2.78513   2.79477
 Alpha virt. eigenvalues --    2.80465   2.81474   2.83396   2.84208   2.85281
 Alpha virt. eigenvalues --    2.86294   2.87232   2.87536   2.88391   2.88491
 Alpha virt. eigenvalues --    2.89208   2.89510   2.89783   2.90603   2.91545
 Alpha virt. eigenvalues --    2.92078   2.93653   2.94887   2.95769   2.98335
 Alpha virt. eigenvalues --    2.99247   2.99934   3.01631   3.03924   3.06512
 Alpha virt. eigenvalues --    3.11907   3.12701   3.20204   3.24644   3.27594
 Alpha virt. eigenvalues --    3.28661   3.29588   3.30486   3.30741   3.31485
 Alpha virt. eigenvalues --    3.32101   3.37382   3.37919   3.39794   3.45306
 Alpha virt. eigenvalues --    3.47964   3.48022   3.48664   3.49056   3.49730
 Alpha virt. eigenvalues --    3.50476   3.50765   3.51258   3.51489   3.52115
 Alpha virt. eigenvalues --    3.52572   3.53723   3.55691   3.55948   3.56695
 Alpha virt. eigenvalues --    3.57365   3.60565   3.62936   4.36825   4.41951
 Alpha virt. eigenvalues --    4.45771   4.50430   4.53855   4.56313   4.59079
 Alpha virt. eigenvalues --    4.61963   4.63134   4.65718   4.67191   4.68710
 Alpha virt. eigenvalues --    4.70959   4.75885   4.80278   4.84077   4.94339
 Alpha virt. eigenvalues --    4.99312
          Condensed to atoms (all electrons):
              1          2          3          4          5          6
     1  H    0.595900   0.219731  -0.008212   0.027750   0.031328   0.042128
     2  C    0.219731  11.013008   0.412691  -1.823889   0.469600  -3.583988
     3  C   -0.008212   0.412691   8.555494  -2.622390  -0.423192  -0.149630
     4  C    0.027750  -1.823889  -2.622390  13.795897  -3.777032   0.295798
     5  C    0.031328   0.469600  -0.423192  -3.777032  11.033810  -0.107589
     6  C    0.042128  -3.583988  -0.149630   0.295798  -0.107589  10.311060
     7  C   -0.016929  -1.259941   0.247252  -0.076771  -0.019890   0.463987
     8  H   -0.000058  -0.060977   0.383400   0.031681  -0.053423   0.038086
     9  H   -0.000203   0.066510  -0.014529   0.348813  -0.007134  -0.142017
    10  H   -0.004550   0.117440  -0.015702  -0.212697   0.112242   0.264787
    11  H   -0.002245  -0.106312  -0.037942   0.005977   0.004068   0.026832
    12  H   -0.000108   0.060334   0.329948   0.067241  -0.036453  -0.000087
    13  H   -0.004938  -0.031458  -0.052575   0.002518   0.034547   0.014300
    14  C    0.005835   0.288088  -0.325672   0.438653  -1.792383  -0.753689
    15  H    0.000000  -0.004440  -0.038533   0.126102  -0.141162   0.005222
    16  H    0.000000   0.006855   0.046801  -0.025204  -0.140162  -0.012824
    17  O   -0.000388  -0.001169  -0.044244  -0.293441   0.287334   0.007162
    18  O   -0.000570   0.080790   0.094761   0.112963   0.122476  -0.160330
    19  H   -0.000009   0.024908   0.004011   0.057324  -0.053785  -0.070733
    20  O    0.002214  -0.107079   0.022145  -0.332072   0.119649   0.330467
    21  C   -0.007428   0.082433   0.019376   0.067547  -0.104950  -0.161940
    22  H    0.000023  -0.034625  -0.006256   0.047442  -0.030284   0.041177
    23  H   -0.000023  -0.004982   0.000246   0.000176   0.002676   0.005137
    24  H   -0.000080   0.051334   0.002624  -0.032327   0.014029  -0.050482
    25  O   -0.049222   0.084821  -0.046258  -0.048937   0.120289  -0.162801
    26  Si   0.027009  -0.485509   0.001640  -0.336808   0.170012   0.305427
    27  C   -0.002875   0.119205   0.002543   0.056758  -0.014780  -0.141592
    28  H    0.000002   0.004368   0.000020  -0.000491  -0.000250  -0.000826
    29  H    0.000000  -0.009446   0.000442   0.004620  -0.001476  -0.002182
    30  H   -0.000003   0.006737  -0.000388  -0.004067   0.003637  -0.007246
    31  C    0.003326  -0.054050  -0.021812  -0.015600   0.024116   0.062566
    32  C   -0.004934   0.110159  -0.003374   0.039452  -0.004578  -0.098600
    33  H    0.000065  -0.001881  -0.000020   0.000145   0.000098   0.001832
    34  H   -0.000092  -0.013744   0.000040   0.000094  -0.000479   0.010130
    35  H   -0.000212  -0.008780   0.000356   0.000597  -0.000579   0.008027
    36  C   -0.006077  -0.048255   0.054339  -0.003065  -0.027583   0.014712
    37  H    0.000002   0.000600  -0.000636   0.000031  -0.000009   0.000923
    38  H    0.000000   0.000152  -0.000014   0.000052  -0.000094  -0.000119
    39  H    0.000011  -0.002826   0.004906   0.000710  -0.000725  -0.000732
    40  C    0.000669  -0.011543   0.000410  -0.007134   0.006573   0.009569
    41  H    0.000000   0.000559  -0.000013  -0.000028   0.000016   0.000048
    42  H    0.000000  -0.000236   0.000012  -0.000023   0.000010  -0.000084
    43  H    0.000000  -0.000440  -0.000048   0.000002   0.000017   0.000020
    44  C    0.001682   0.053022  -0.042022   0.025805  -0.004103  -0.040659
    45  H    0.000000  -0.000089   0.000046   0.000076  -0.000258   0.000410
    46  H    0.000000   0.000483   0.001210  -0.000817  -0.000083  -0.000613
    47  H   -0.000005  -0.003279  -0.003164   0.002359  -0.000135   0.001632
              7          8          9         10         11         12
     1  H   -0.016929  -0.000058  -0.000203  -0.004550  -0.002245  -0.000108
     2  C   -1.259941  -0.060977   0.066510   0.117440  -0.106312   0.060334
     3  C    0.247252   0.383400  -0.014529  -0.015702  -0.037942   0.329948
     4  C   -0.076771   0.031681   0.348813  -0.212697   0.005977   0.067241
     5  C   -0.019890  -0.053423  -0.007134   0.112242   0.004068  -0.036453
     6  C    0.463987   0.038086  -0.142017   0.264787   0.026832  -0.000087
     7  C    6.581366  -0.025593   0.012766   0.003098   0.415474  -0.063712
     8  H   -0.025593   0.512553   0.000159  -0.000005   0.004362  -0.023722
     9  H    0.012766   0.000159   0.527109   0.004861  -0.000011  -0.000079
    10  H    0.003098  -0.000005   0.004861   0.588255   0.000470  -0.000043
    11  H    0.415474   0.004362  -0.000011   0.000470   0.527163  -0.003885
    12  H   -0.063712  -0.023722  -0.000079  -0.000043  -0.003885   0.527150
    13  H    0.373910  -0.003383   0.000001   0.000063  -0.023230  -0.001476
    14  C   -0.144598  -0.014345   0.030619   0.023328  -0.001727  -0.020313
    15  H   -0.004392   0.000217  -0.000194  -0.000026   0.000002   0.000088
    16  H    0.002763  -0.000203   0.000199   0.000007  -0.000016   0.000624
    17  O    0.035675   0.008465   0.010606   0.004799   0.003091  -0.001290
    18  O   -0.007567  -0.000163  -0.050024  -0.002159   0.000126  -0.000670
    19  H   -0.004103  -0.000036   0.006882   0.003064  -0.000037  -0.000010
    20  O    0.038905  -0.000686   0.000169  -0.053494  -0.001280   0.000111
    21  C   -0.007060   0.000128  -0.003167  -0.008680   0.000231   0.000269
    22  H    0.002694   0.000000  -0.000006  -0.001402   0.000000   0.000000
    23  H   -0.001120   0.000000  -0.000003   0.000002   0.000000   0.000000
    24  H    0.001409   0.000000   0.000020   0.009866  -0.000001   0.000000
    25  O   -0.040038   0.008090   0.011223   0.015923   0.012523  -0.001621
    26  Si   0.132344   0.000903   0.012452   0.004503  -0.001953  -0.004590
    27  C   -0.026562  -0.000263  -0.001722  -0.001247   0.000017   0.000121
    28  H    0.000106   0.000000   0.000003   0.000000   0.000000   0.000000
    29  H   -0.000723   0.000000   0.000065   0.000001   0.000000   0.000000
    30  H    0.001413   0.000000   0.000224   0.000001   0.000000   0.000000
    31  C   -0.015180   0.001166  -0.000946   0.000164   0.000025   0.000137
    32  C   -0.058172   0.000409   0.000225  -0.000013   0.000620   0.000139
    33  H    0.000849   0.000000   0.000000   0.000000   0.000000   0.000000
    34  H    0.000180   0.000000   0.000000   0.000001   0.000001   0.000000
    35  H   -0.002129   0.000000  -0.000002  -0.000012   0.000000   0.000000
    36  C    0.002459   0.000048   0.000212   0.000051   0.000313  -0.000267
    37  H   -0.000191   0.000000   0.000000   0.000000   0.000000   0.000000
    38  H    0.000499   0.000000   0.000000   0.000000   0.000000   0.000000
    39  H   -0.003869   0.000029   0.000000   0.000000   0.000002  -0.000001
    40  C   -0.006574   0.000177   0.000293   0.000025   0.000033  -0.000008
    41  H    0.000012   0.000000   0.000000   0.000000   0.000000   0.000000
    42  H   -0.000094   0.000000   0.000000   0.000000   0.000000   0.000000
    43  H   -0.000006   0.000000   0.000000   0.000000   0.000000   0.000000
    44  C    0.026512  -0.001999  -0.001391  -0.000151  -0.000180   0.000475
    45  H   -0.000131  -0.000002   0.000000   0.000000   0.000000   0.000000
    46  H   -0.000685  -0.000009   0.000000   0.000000   0.000000   0.000000
    47  H    0.003323   0.000738  -0.000003   0.000000   0.000001  -0.000002
             13         14         15         16         17         18
     1  H   -0.004938   0.005835   0.000000   0.000000  -0.000388  -0.000570
     2  C   -0.031458   0.288088  -0.004440   0.006855  -0.001169   0.080790
     3  C   -0.052575  -0.325672  -0.038533   0.046801  -0.044244   0.094761
     4  C    0.002518   0.438653   0.126102  -0.025204  -0.293441   0.112963
     5  C    0.034547  -1.792383  -0.141162  -0.140162   0.287334   0.122476
     6  C    0.014300  -0.753689   0.005222  -0.012824   0.007162  -0.160330
     7  C    0.373910  -0.144598  -0.004392   0.002763   0.035675  -0.007567
     8  H   -0.003383  -0.014345   0.000217  -0.000203   0.008465  -0.000163
     9  H    0.000001   0.030619  -0.000194   0.000199   0.010606  -0.050024
    10  H    0.000063   0.023328  -0.000026   0.000007   0.004799  -0.002159
    11  H   -0.023230  -0.001727   0.000002  -0.000016   0.003091   0.000126
    12  H   -0.001476  -0.020313   0.000088   0.000624  -0.001290  -0.000670
    13  H    0.527430   0.000963   0.000001  -0.000001  -0.000141   0.000073
    14  C    0.000963   7.514899   0.432401   0.489564   0.066744  -0.120010
    15  H    0.000001   0.432401   0.509191  -0.031685  -0.035504   0.000751
    16  H   -0.000001   0.489564  -0.031685   0.518257  -0.031555   0.000525
    17  O   -0.000141   0.066744  -0.035504  -0.031555   8.344288   0.008562
    18  O    0.000073  -0.120010   0.000751   0.000525   0.008562   8.236947
    19  H    0.000001   0.007957  -0.001661   0.000219   0.030732   0.250628
    20  O   -0.000510  -0.011879  -0.000030   0.000036   0.002683   0.006975
    21  C    0.000406  -0.013846   0.000403  -0.000069  -0.002153  -0.010090
    22  H    0.000000   0.004290   0.000001   0.000000   0.000143  -0.019172
    23  H    0.000000  -0.000055   0.000000   0.000000  -0.000008   0.001435
    24  H    0.000000  -0.000714   0.000000   0.000000  -0.000043   0.003613
    25  O   -0.007664   0.035311  -0.000113  -0.000039   0.000888  -0.003493
    26  Si  -0.000412  -0.012005  -0.000879   0.000014   0.001358  -0.016389
    27  C   -0.000110   0.001949   0.000063   0.000016   0.000133   0.002940
    28  H    0.000000  -0.000020   0.000000   0.000000   0.000000   0.000003
    29  H    0.000000   0.000087   0.000000   0.000000   0.000002   0.000083
    30  H    0.000000  -0.000066   0.000000   0.000000   0.000000  -0.000002
    31  C    0.000177   0.003062   0.000002   0.000010  -0.000170  -0.000513
    32  C   -0.000078   0.003303   0.000009   0.000001  -0.000057   0.000911
    33  H    0.000000   0.000005   0.000000   0.000000   0.000000  -0.000001
    34  H    0.000007  -0.000016   0.000000   0.000000   0.000000  -0.000001
    35  H   -0.000002   0.000034   0.000000   0.000000  -0.000001  -0.000016
    36  C    0.002260  -0.000514   0.000000   0.000002   0.000086   0.000053
    37  H   -0.000007  -0.000010   0.000000   0.000000   0.000000   0.000000
    38  H   -0.000003   0.000004   0.000000   0.000000   0.000000   0.000000
    39  H    0.000543   0.000028   0.000000   0.000000   0.000000   0.000000
    40  C    0.000064   0.001145  -0.000001   0.000001  -0.000004  -0.000003
    41  H    0.000000   0.000000   0.000000   0.000000   0.000000   0.000000
    42  H    0.000000   0.000002   0.000000   0.000000   0.000000   0.000000
    43  H    0.000000   0.000001   0.000000   0.000000   0.000000   0.000000
    44  C   -0.002983  -0.001864   0.000011  -0.000017  -0.000021   0.000177
    45  H    0.000000  -0.000008   0.000000   0.000000   0.000000   0.000000
    46  H    0.000001   0.000045   0.000000   0.000000   0.000000   0.000001
    47  H    0.000002  -0.000326   0.000000   0.000000   0.000000  -0.000001
             19         20         21         22         23         24
     1  H   -0.000009   0.002214  -0.007428   0.000023  -0.000023  -0.000080
     2  C    0.024908  -0.107079   0.082433  -0.034625  -0.004982   0.051334
     3  C    0.004011   0.022145   0.019376  -0.006256   0.000246   0.002624
     4  C    0.057324  -0.332072   0.067547   0.047442   0.000176  -0.032327
     5  C   -0.053785   0.119649  -0.104950  -0.030284   0.002676   0.014029
     6  C   -0.070733   0.330467  -0.161940   0.041177   0.005137  -0.050482
     7  C   -0.004103   0.038905  -0.007060   0.002694  -0.001120   0.001409
     8  H   -0.000036  -0.000686   0.000128   0.000000   0.000000   0.000000
     9  H    0.006882   0.000169  -0.003167  -0.000006  -0.000003   0.000020
    10  H    0.003064  -0.053494  -0.008680  -0.001402   0.000002   0.009866
    11  H   -0.000037  -0.001280   0.000231   0.000000   0.000000  -0.000001
    12  H   -0.000010   0.000111   0.000269   0.000000   0.000000   0.000000
    13  H    0.000001  -0.000510   0.000406   0.000000   0.000000   0.000000
    14  C    0.007957  -0.011879  -0.013846   0.004290  -0.000055  -0.000714
    15  H   -0.001661  -0.000030   0.000403   0.000001   0.000000   0.000000
    16  H    0.000219   0.000036  -0.000069   0.000000   0.000000   0.000000
    17  O    0.030732   0.002683  -0.002153   0.000143  -0.000008  -0.000043
    18  O    0.250628   0.006975  -0.010090  -0.019172   0.001435   0.003613
    19  H    0.360966  -0.001029  -0.001073  -0.000023  -0.000006  -0.000083
    20  O   -0.001029   8.374495  -0.047291  -0.060141  -0.069921  -0.060136
    21  C   -0.001073  -0.047291   5.134623   0.410374   0.428238   0.415537
    22  H   -0.000023  -0.060141   0.410374   0.538103  -0.029189  -0.041225
    23  H   -0.000006  -0.069921   0.428238  -0.029189   0.533742  -0.027082
    24  H   -0.000083  -0.060136   0.415537  -0.041225  -0.027082   0.572720
    25  O    0.000266   0.040514  -0.006738   0.000179  -0.000265  -0.000088
    26  Si   0.001754   0.104633  -0.062774   0.002756  -0.002022  -0.001808
    27  C   -0.000094  -0.041229   0.016712  -0.001167   0.000851   0.000074
    28  H    0.000000   0.000706   0.000055   0.000000  -0.000001   0.000000
    29  H    0.000000   0.000759   0.004906  -0.000011   0.000175  -0.000008
    30  H    0.000000   0.000007   0.000042   0.000000  -0.000001   0.000000
    31  C    0.000003   0.009363  -0.000489   0.000056  -0.000161  -0.000083
    32  C   -0.000014  -0.037042   0.015831  -0.000408   0.001429  -0.000556
    33  H    0.000000   0.000500  -0.000565   0.000000  -0.000003   0.000000
    34  H    0.000000  -0.000420  -0.000124   0.000000  -0.000001   0.000000
    35  H    0.000000   0.001301   0.003585  -0.000001   0.000141  -0.000009
    36  C    0.000004  -0.004010   0.000652  -0.000035   0.000018   0.000046
    37  H    0.000000  -0.000011  -0.000008   0.000000   0.000000   0.000000
    38  H    0.000000   0.000002   0.000004   0.000000   0.000000   0.000000
    39  H    0.000000  -0.000043  -0.000012   0.000000   0.000000   0.000000
    40  C    0.000003  -0.000849  -0.000420   0.000001   0.000006  -0.000002
    41  H    0.000000  -0.000002   0.000003   0.000000   0.000000   0.000000
    42  H    0.000000  -0.000002  -0.000002   0.000000   0.000000   0.000000
    43  H    0.000000   0.000002   0.000002   0.000000   0.000000   0.000000
    44  C   -0.000039   0.003068   0.000838   0.000048   0.000023  -0.000032
    45  H    0.000000   0.000004   0.000003   0.000000   0.000000   0.000000
    46  H    0.000000  -0.000024   0.000000   0.000000   0.000000   0.000000
    47  H    0.000000  -0.000061  -0.000035   0.000000   0.000000   0.000000
             25         26         27         28         29         30
     1  H   -0.049222   0.027009  -0.002875   0.000002   0.000000  -0.000003
     2  C    0.084821  -0.485509   0.119205   0.004368  -0.009446   0.006737
     3  C   -0.046258   0.001640   0.002543   0.000020   0.000442  -0.000388
     4  C   -0.048937  -0.336808   0.056758  -0.000491   0.004620  -0.004067
     5  C    0.120289   0.170012  -0.014780  -0.000250  -0.001476   0.003637
     6  C   -0.162801   0.305427  -0.141592  -0.000826  -0.002182  -0.007246
     7  C   -0.040038   0.132344  -0.026562   0.000106  -0.000723   0.001413
     8  H    0.008090   0.000903  -0.000263   0.000000   0.000000   0.000000
     9  H    0.011223   0.012452  -0.001722   0.000003   0.000065   0.000224
    10  H    0.015923   0.004503  -0.001247   0.000000   0.000001   0.000001
    11  H    0.012523  -0.001953   0.000017   0.000000   0.000000   0.000000
    12  H   -0.001621  -0.004590   0.000121   0.000000   0.000000   0.000000
    13  H   -0.007664  -0.000412  -0.000110   0.000000   0.000000   0.000000
    14  C    0.035311  -0.012005   0.001949  -0.000020   0.000087  -0.000066
    15  H   -0.000113  -0.000879   0.000063   0.000000   0.000000   0.000000
    16  H   -0.000039   0.000014   0.000016   0.000000   0.000000   0.000000
    17  O    0.000888   0.001358   0.000133   0.000000   0.000002   0.000000
    18  O   -0.003493  -0.016389   0.002940   0.000003   0.000083  -0.000002
    19  H    0.000266   0.001754  -0.000094   0.000000   0.000000   0.000000
    20  O    0.040514   0.104633  -0.041229   0.000706   0.000759   0.000007
    21  C   -0.006738  -0.062774   0.016712   0.000055   0.004906   0.000042
    22  H    0.000179   0.002756  -0.001167   0.000000  -0.000011   0.000000
    23  H   -0.000265  -0.002022   0.000851  -0.000001   0.000175  -0.000001
    24  H   -0.000088  -0.001808   0.000074   0.000000  -0.000008   0.000000
    25  O    8.370828   0.056253  -0.045224   0.009820  -0.002163  -0.010390
    26  Si   0.056253  13.250503   0.153178  -0.030801  -0.049921  -0.019204
    27  C   -0.045224   0.153178   5.562855   0.395461   0.410514   0.396710
    28  H    0.009820  -0.030801   0.395461   0.499561  -0.021712  -0.022819
    29  H   -0.002163  -0.049921   0.410514  -0.021712   0.473035  -0.021537
    30  H   -0.010390  -0.019204   0.396710  -0.022819  -0.021537   0.497426
    31  C   -0.038437   0.299957  -0.127828  -0.017418   0.012417  -0.014583
    32  C   -0.061079   0.173340   0.034852  -0.010906  -0.004319   0.006913
    33  H    0.009931  -0.030304  -0.008934   0.000143   0.000087   0.000023
    34  H   -0.004763  -0.020411   0.005166   0.000021   0.000002  -0.000017
    35  H   -0.004643  -0.054658  -0.008038   0.000114   0.000417   0.000004
    36  C    0.032315  -0.090948  -0.016874   0.000156  -0.001300  -0.002738
    37  H   -0.002564  -0.001104  -0.000342   0.000001  -0.000001   0.000000
    38  H   -0.000933   0.016790  -0.001492   0.000000   0.000000   0.000000
    39  H    0.008424  -0.009562  -0.000942   0.000000   0.000000   0.000002
    40  C    0.017373  -0.059445   0.021121   0.005500  -0.001227  -0.000949
    41  H    0.000726  -0.014364  -0.000291  -0.000005  -0.000005   0.000020
    42  H    0.000525  -0.011207   0.004215  -0.000022   0.000012   0.000024
    43  H   -0.000622   0.019603  -0.000028   0.000026   0.000000  -0.000007
    44  C   -0.012833  -0.130402  -0.019525   0.008877   0.002259   0.010922
    45  H   -0.000666   0.018319   0.000081  -0.000001   0.000000  -0.000006
    46  H   -0.003852   0.008172   0.000812   0.000056   0.000003   0.000199
    47  H    0.007020  -0.023637   0.000235   0.000005  -0.000006   0.000032
             31         32         33         34         35         36
     1  H    0.003326  -0.004934   0.000065  -0.000092  -0.000212  -0.006077
     2  C   -0.054050   0.110159  -0.001881  -0.013744  -0.008780  -0.048255
     3  C   -0.021812  -0.003374  -0.000020   0.000040   0.000356   0.054339
     4  C   -0.015600   0.039452   0.000145   0.000094   0.000597  -0.003065
     5  C    0.024116  -0.004578   0.000098  -0.000479  -0.000579  -0.027583
     6  C    0.062566  -0.098600   0.001832   0.010130   0.008027   0.014712
     7  C   -0.015180  -0.058172   0.000849   0.000180  -0.002129   0.002459
     8  H    0.001166   0.000409   0.000000   0.000000   0.000000   0.000048
     9  H   -0.000946   0.000225   0.000000   0.000000  -0.000002   0.000212
    10  H    0.000164  -0.000013   0.000000   0.000001  -0.000012   0.000051
    11  H    0.000025   0.000620   0.000000   0.000001   0.000000   0.000313
    12  H    0.000137   0.000139   0.000000   0.000000   0.000000  -0.000267
    13  H    0.000177  -0.000078   0.000000   0.000007  -0.000002   0.002260
    14  C    0.003062   0.003303   0.000005  -0.000016   0.000034  -0.000514
    15  H    0.000002   0.000009   0.000000   0.000000   0.000000   0.000000
    16  H    0.000010   0.000001   0.000000   0.000000   0.000000   0.000002
    17  O   -0.000170  -0.000057   0.000000   0.000000  -0.000001   0.000086
    18  O   -0.000513   0.000911  -0.000001  -0.000001  -0.000016   0.000053
    19  H    0.000003  -0.000014   0.000000   0.000000   0.000000   0.000004
    20  O    0.009363  -0.037042   0.000500  -0.000420   0.001301  -0.004010
    21  C   -0.000489   0.015831  -0.000565  -0.000124   0.003585   0.000652
    22  H    0.000056  -0.000408   0.000000   0.000000  -0.000001  -0.000035
    23  H   -0.000161   0.001429  -0.000003  -0.000001   0.000141   0.000018
    24  H   -0.000083  -0.000556   0.000000   0.000000  -0.000009   0.000046
    25  O   -0.038437  -0.061079   0.009931  -0.004763  -0.004643   0.032315
    26  Si   0.299957   0.173340  -0.030304  -0.020411  -0.054658  -0.090948
    27  C   -0.127828   0.034852  -0.008934   0.005166  -0.008038  -0.016874
    28  H   -0.017418  -0.010906   0.000143   0.000021   0.000114   0.000156
    29  H    0.012417  -0.004319   0.000087   0.000002   0.000417  -0.001300
    30  H   -0.014583   0.006913   0.000023  -0.000017   0.000004  -0.002738
    31  C    8.001682  -0.137524  -0.018785  -0.017184   0.014745  -0.300386
    32  C   -0.137524   5.554172   0.395813   0.397114   0.413912   0.020693
    33  H   -0.018785   0.395813   0.490848  -0.021540  -0.020427   0.005655
    34  H   -0.017184   0.397114  -0.021540   0.495012  -0.022998   0.010123
    35  H    0.014745   0.413912  -0.020427  -0.022998   0.473934   0.001004
    36  C   -0.300386   0.020693   0.005655   0.010123   0.001004   5.859908
    37  H   -0.063987   0.001176   0.000086   0.000051   0.000014   0.423493
    38  H   -0.157441   0.000627  -0.000002  -0.000003   0.000000   0.455931
    39  H   -0.108026  -0.000907   0.000011   0.000048  -0.000005   0.475572
    40  C   -0.395774   0.013047   0.008620   0.004516  -0.000592   0.018947
    41  H   -0.083816   0.003973   0.000274   0.000006  -0.000005  -0.011368
    42  H   -0.086122  -0.000663   0.000001   0.000008  -0.000005   0.004328
    43  H   -0.153656   0.001123   0.000010  -0.000005   0.000000   0.005595
    44  C   -0.283421  -0.030302   0.001262  -0.004126  -0.000479  -0.289586
    45  H   -0.163016  -0.001192   0.000000   0.000000   0.000000   0.002887
    46  H   -0.065492  -0.000453   0.000000   0.000000  -0.000001   0.000330
    47  H   -0.094155  -0.000707   0.000000   0.000002   0.000000  -0.002518
             37         38         39         40         41         42
     1  H    0.000002   0.000000   0.000011   0.000669   0.000000   0.000000
     2  C    0.000600   0.000152  -0.002826  -0.011543   0.000559  -0.000236
     3  C   -0.000636  -0.000014   0.004906   0.000410  -0.000013   0.000012
     4  C    0.000031   0.000052   0.000710  -0.007134  -0.000028  -0.000023
     5  C   -0.000009  -0.000094  -0.000725   0.006573   0.000016   0.000010
     6  C    0.000923  -0.000119  -0.000732   0.009569   0.000048  -0.000084
     7  C   -0.000191   0.000499  -0.003869  -0.006574   0.000012  -0.000094
     8  H    0.000000   0.000000   0.000029   0.000177   0.000000   0.000000
     9  H    0.000000   0.000000   0.000000   0.000293   0.000000   0.000000
    10  H    0.000000   0.000000   0.000000   0.000025   0.000000   0.000000
    11  H    0.000000   0.000000   0.000002   0.000033   0.000000   0.000000
    12  H    0.000000   0.000000  -0.000001  -0.000008   0.000000   0.000000
    13  H   -0.000007  -0.000003   0.000543   0.000064   0.000000   0.000000
    14  C   -0.000010   0.000004   0.000028   0.001145   0.000000   0.000002
    15  H    0.000000   0.000000   0.000000  -0.000001   0.000000   0.000000
    16  H    0.000000   0.000000   0.000000   0.000001   0.000000   0.000000
    17  O    0.000000   0.000000   0.000000  -0.000004   0.000000   0.000000
    18  O    0.000000   0.000000   0.000000  -0.000003   0.000000   0.000000
    19  H    0.000000   0.000000   0.000000   0.000003   0.000000   0.000000
    20  O   -0.000011   0.000002  -0.000043  -0.000849  -0.000002  -0.000002
    21  C   -0.000008   0.000004  -0.000012  -0.000420   0.000003  -0.000002
    22  H    0.000000   0.000000   0.000000   0.000001   0.000000   0.000000
    23  H    0.000000   0.000000   0.000000   0.000006   0.000000   0.000000
    24  H    0.000000   0.000000   0.000000  -0.000002   0.000000   0.000000
    25  O   -0.002564  -0.000933   0.008424   0.017373   0.000726   0.000525
    26  Si  -0.001104   0.016790  -0.009562  -0.059445  -0.014364  -0.011207
    27  C   -0.000342  -0.001492  -0.000942   0.021121  -0.000291   0.004215
    28  H    0.000001   0.000000   0.000000   0.005500  -0.000005  -0.000022
    29  H   -0.000001   0.000000   0.000000  -0.001227  -0.000005   0.000012
    30  H    0.000000   0.000000   0.000002  -0.000949   0.000020   0.000024
    31  C   -0.063987  -0.157441  -0.108026  -0.395774  -0.083816  -0.086122
    32  C    0.001176   0.000627  -0.000907   0.013047   0.003973  -0.000663
    33  H    0.000086  -0.000002   0.000011   0.008620   0.000274   0.000001
    34  H    0.000051  -0.000003   0.000048   0.004516   0.000006   0.000008
    35  H    0.000014   0.000000  -0.000005  -0.000592  -0.000005  -0.000005
    36  C    0.423493   0.455931   0.475572   0.018947  -0.011368   0.004328
    37  H    0.536383  -0.028017  -0.026802  -0.005961   0.002764   0.000031
    38  H   -0.028017   0.545195  -0.027385   0.008530  -0.000319  -0.000002
    39  H   -0.026802  -0.027385   0.525850  -0.000920   0.000035  -0.000147
    40  C   -0.005961   0.008530  -0.000920   5.681566   0.450249   0.460350
    41  H    0.002764  -0.000319   0.000035   0.450249   0.535145  -0.027266
    42  H    0.000031  -0.000002  -0.000147   0.460350  -0.027266   0.531728
    43  H   -0.000334   0.005361   0.000019   0.450441  -0.028062  -0.027728
    44  C    0.000770   0.016111  -0.008265  -0.132679   0.006074  -0.018573
    45  H    0.000038   0.005601  -0.000319   0.010765  -0.000007  -0.000316
    46  H   -0.000153   0.000026   0.000031  -0.002882   0.000033   0.002781
    47  H    0.000023  -0.000312   0.003084   0.000694  -0.000147   0.000038
             43         44         45         46         47
     1  H    0.000000   0.001682   0.000000   0.000000  -0.000005
     2  C   -0.000440   0.053022  -0.000089   0.000483  -0.003279
     3  C   -0.000048  -0.042022   0.000046   0.001210  -0.003164
     4  C    0.000002   0.025805   0.000076  -0.000817   0.002359
     5  C    0.000017  -0.004103  -0.000258  -0.000083  -0.000135
     6  C    0.000020  -0.040659   0.000410  -0.000613   0.001632
     7  C   -0.000006   0.026512  -0.000131  -0.000685   0.003323
     8  H    0.000000  -0.001999  -0.000002  -0.000009   0.000738
     9  H    0.000000  -0.001391   0.000000   0.000000  -0.000003
    10  H    0.000000  -0.000151   0.000000   0.000000   0.000000
    11  H    0.000000  -0.000180   0.000000   0.000000   0.000001
    12  H    0.000000   0.000475   0.000000   0.000000  -0.000002
    13  H    0.000000  -0.002983   0.000000   0.000001   0.000002
    14  C    0.000001  -0.001864  -0.000008   0.000045  -0.000326
    15  H    0.000000   0.000011   0.000000   0.000000   0.000000
    16  H    0.000000  -0.000017   0.000000   0.000000   0.000000
    17  O    0.000000  -0.000021   0.000000   0.000000   0.000000
    18  O    0.000000   0.000177   0.000000   0.000001  -0.000001
    19  H    0.000000  -0.000039   0.000000   0.000000   0.000000
    20  O    0.000002   0.003068   0.000004  -0.000024  -0.000061
    21  C    0.000002   0.000838   0.000003   0.000000  -0.000035
    22  H    0.000000   0.000048   0.000000   0.000000   0.000000
    23  H    0.000000   0.000023   0.000000   0.000000   0.000000
    24  H    0.000000  -0.000032   0.000000   0.000000   0.000000
    25  O   -0.000622  -0.012833  -0.000666  -0.003852   0.007020
    26  Si   0.019603  -0.130402   0.018319   0.008172  -0.023637
    27  C   -0.000028  -0.019525   0.000081   0.000812   0.000235
    28  H    0.000026   0.008877  -0.000001   0.000056   0.000005
    29  H    0.000000   0.002259   0.000000   0.000003  -0.000006
    30  H   -0.000007   0.010922  -0.000006   0.000199   0.000032
    31  C   -0.153656  -0.283421  -0.163016  -0.065492  -0.094155
    32  C    0.001123  -0.030302  -0.001192  -0.000453  -0.000707
    33  H    0.000010   0.001262   0.000000   0.000000   0.000000
    34  H   -0.000005  -0.004126   0.000000   0.000000   0.000002
    35  H    0.000000  -0.000479   0.000000  -0.000001   0.000000
    36  C    0.005595  -0.289586   0.002887   0.000330  -0.002518
    37  H   -0.000334   0.000770   0.000038  -0.000153   0.000023
    38  H    0.005361   0.016111   0.005601   0.000026  -0.000312
    39  H    0.000019  -0.008265  -0.000319   0.000031   0.003084
    40  C    0.450441  -0.132679   0.010765  -0.002882   0.000694
    41  H   -0.028062   0.006074  -0.000007   0.000033  -0.000147
    42  H   -0.027728  -0.018573  -0.000316   0.002781   0.000038
    43  H    0.542464   0.017488   0.005383  -0.000359   0.000012
    44  C    0.017488   6.060307   0.472155   0.415250   0.464760
    45  H    0.005383   0.472155   0.545556  -0.028306  -0.027728
    46  H   -0.000359   0.415250  -0.028306   0.536244  -0.026181
    47  H    0.000012   0.464760  -0.027728  -0.026181   0.522747
 Mulliken atomic charges:
              1
     1  H    0.151488
     2  C    0.385107
     3  C   -0.328086
     4  C    0.056210
     5  C    0.186046
     6  C   -0.612674
     7  C   -0.560965
     8  H    0.194258
     9  H    0.188019
    10  H    0.147230
    11  H    0.177487
    12  H    0.171697
    13  H    0.171703
    14  C   -0.134259
    15  H    0.184159
    16  H    0.175880
    17  O   -0.402565
    18  O   -0.533620
    19  H    0.384012
    20  O   -0.229464
    21  C   -0.163283
    22  H    0.176658
    23  H    0.160551
    24  H    0.143487
    25  O   -0.287797
    26  Si   0.710195
    27  C   -0.725421
    28  H    0.180269
    29  H    0.206150
    30  H    0.179685
    31  C    0.003080
    32  C   -0.733365
    33  H    0.186204
    34  H    0.183401
    35  H    0.205407
    36  C   -0.586668
    37  H    0.163753
    38  H    0.161250
    39  H    0.172183
    40  C   -0.543721
    41  H    0.165761
    42  H    0.168426
    43  H    0.163726
    44  C   -0.562245
    45  H    0.160720
    46  H    0.164232
    47  H    0.175697
 Sum of Mulliken atomic charges =   0.00000
 Mulliken charges with hydrogens summed into heavy atoms:
              1
     2  C    0.536595
     3  C    0.037869
     4  C    0.244229
     5  C    0.186046
     6  C   -0.465444
     7  C   -0.211775
    14  C    0.225780
    17  O   -0.402565
    18  O   -0.149608
    20  O   -0.229464
    21  C    0.317413
    25  O   -0.287797
    26  Si   0.710195
    27  C   -0.159318
    31  C    0.003080
    32  C   -0.158353
    36  C   -0.089482
    40  C   -0.045808
    44  C   -0.061597
 Sum of Mulliken charges with hydrogens summed into heavy atoms =   0.00000
 Electronic spatial extent (au):  <R**2>=           6280.3955
 Charge=              0.0000 electrons
 Dipole moment (field-independent basis, Debye):
    X=             -0.0572    Y=             -0.7474    Z=             -0.9563  Tot=              1.2150
 Quadrupole moment (field-independent basis, Debye-Ang):
   XX=           -129.5076   YY=           -120.5690   ZZ=           -125.7090
   XY=             -2.9312   XZ=              0.7094   YZ=             -4.7437
 Traceless Quadrupole moment (field-independent basis, Debye-Ang):
   XX=             -4.2457   YY=              4.6928   ZZ=             -0.4471
   XY=             -2.9312   XZ=              0.7094   YZ=             -4.7437
 Octapole moment (field-independent basis, Debye-Ang**2):
  XXX=             19.1439  YYY=             10.3948  ZZZ=             -6.5347  XYY=             31.8449
  XXY=              6.3054  XXZ=             13.9230  XZZ=             12.3664  YZZ=             -4.4775
  YYZ=             -0.4550  XYZ=            -20.3502
 Hexadecapole moment (field-independent basis, Debye-Ang**3):
 XXXX=          -5728.9172 YYYY=          -1851.5561 ZZZZ=           -935.3961 XXXY=              3.2953
 XXXZ=            103.9800 YYYX=            -19.3936 YYYZ=             -5.1325 ZZZX=              2.9124
 ZZZY=             -7.7577 XXYY=          -1209.6012 XXZZ=          -1107.2999 YYZZ=           -498.1277
 XXYZ=            -76.9660 YYXZ=              6.3316 ZZXY=            -18.4887
 N-N= 1.831483206043D+03 E-N=-6.333872876099D+03  KE= 1.131542324367D+03
 1\1\GINC-COMPUTE-8-11\SP\RmPW1PW91\6-31+G(d,p)\C14H28O4Si1\ELUCIANO.IQ
 UIR\06-Dec-2022\0\\# mPW1PW91/6-31+g** scrf=(PCM,solvent=chloroform) n
 mr\\comment\\0,1\H,0,0.081069,0.472541,-2.064223\C,0,0.492334,-0.04875
 ,-1.189181\C,0,1.757401,-2.100987,-0.43022\C,0,2.262508,0.201351,0.639
 707\C,0,2.754695,-1.206651,0.277389\C,0,1.573192,0.860811,-0.57581\C,0
 ,1.114315,-1.381662,-1.624216\H,0,0.973487,-2.381493,0.283198\H,0,1.53
 2462,0.138551,1.452611\H,0,2.339924,1.034345,-1.350912\H,0,1.870781,-1
 .192081,-2.396704\H,0,2.260824,-3.019102,-0.751516\H,0,0.337045,-2.009
 713,-2.072671\C,0,3.893549,-1.775231,1.006511\H,0,4.330382,-1.22445,1.
 836673\H,0,4.023365,-2.856856,1.032998\O,0,4.092972,-1.176585,-0.29377
 9\O,0,3.343656,0.989314,1.120428\H,0,4.089312,0.776425,0.527214\O,0,0.
 953763,2.094004,-0.241192\C,0,1.795614,3.239702,-0.257028\H,0,2.547429
 ,3.202778,0.536403\H,0,1.142341,4.104297,-0.110064\H,0,2.304171,3.3422
 39,-1.228714\O,0,-0.542585,-0.327148,-0.255079\Si,0,-1.952686,0.53562,
 0.086142\C,0,-1.740902,1.472664,1.710163\H,0,-2.638195,2.048407,1.9682
 95\H,0,-0.899992,2.167399,1.621334\H,0,-1.528876,0.794796,2.545255\C,0
 ,-3.31408,-0.808165,0.251693\C,0,-2.340657,1.745212,-1.313188\H,0,-3.2
 67946,2.29334,-1.1073\H,0,-2.461222,1.246092,-2.281726\H,0,-1.532057,2
 .477435,-1.406764\C,0,-3.49234,-1.547149,-1.091189\H,0,-3.824879,-0.87
 2295,-1.889467\H,0,-4.249504,-2.339648,-0.998227\H,0,-2.558452,-2.0194
 37,-1.418064\C,0,-4.655119,-0.155841,0.650638\H,0,-4.996577,0.573357,-
 0.09493\H,0,-4.589602,0.359328,1.616612\H,0,-5.442072,-0.918894,0.7413
 12\C,0,-2.909318,-1.832918,1.332695\H,0,-3.673036,-2.619732,1.423101\H
 ,0,-2.804133,-1.367866,2.320463\H,0,-1.95804,-2.319451,1.089007\\Versi
 on=EM64L-G09RevC.01\State=1-A\HF=-1140.6259612\RMSD=4.660e-09\Dipole=-
 0.0225203,-0.2940341,-0.3762244\Quadrupole=-3.1565945,3.4890177,-0.332
 4232,-2.1792572,0.527453,-3.5268535\PG=C01 [X(C14H28O4Si1)]\\@


 WHEN IT COMES TO CASH FLOW, IT SEEMS LIKE THE TIDE IS ALWAYS GOING OUT.
 Job cpu time:  0 days  3 hours 56 minutes 15.2 seconds.
 File lengths (MBytes):  RWF=    296 Int=      0 D2E=      0 Chk=     16 Scr=      1
 Normal termination of Gaussian 09 at Tue Dec  6 18:05:58 2022.
