 Entering Gaussian System, Link 0=g09
 Input=/home/eluciano.iquir/todos_optB3L_MPW_B_PCM/01_epoxido28_003_optB3L_nmr_MPW_B_PCM.gjc
 Output=/home/eluciano.iquir/todos_optB3L_MPW_B_PCM/01_epoxido28_003_optB3L_nmr_MPW_B_PCM.log
 Initial command:
 /share/apps/Gaussian09/EM64T.SSE4.2-enabled/g09/l1.exe /tmp/Gau-19723.inp -scrdir=/tmp/
 Entering Link 1 = /share/apps/Gaussian09/EM64T.SSE4.2-enabled/g09/l1.exe PID=     19724.
  
 Copyright (c) 1988,1990,1992,1993,1995,1998,2003,2009,2011,
            Gaussian, Inc.  All Rights Reserved.
  
 This is part of the Gaussian(R) 09 program.  It is based on
 the Gaussian(R) 03 system (copyright 2003, Gaussian, Inc.),
 the Gaussian(R) 98 system (copyright 1998, Gaussian, Inc.),
 the Gaussian(R) 94 system (copyright 1995, Gaussian, Inc.),
 the Gaussian 92(TM) system (copyright 1992, Gaussian, Inc.),
 the Gaussian 90(TM) system (copyright 1990, Gaussian, Inc.),
 the Gaussian 88(TM) system (copyright 1988, Gaussian, Inc.),
 the Gaussian 86(TM) system (copyright 1986, Carnegie Mellon
 University), and the Gaussian 82(TM) system (copyright 1983,
 Carnegie Mellon University). Gaussian is a federally registered
 trademark of Gaussian, Inc.
  
 This software contains proprietary and confidential information,
 including trade secrets, belonging to Gaussian, Inc.
  
 This software is provided under written license and may be
 used, copied, transmitted, or stored only in accord with that
 written license.
  
 The following legend is applicable only to US Government
 contracts under FAR:
  
                    RESTRICTED RIGHTS LEGEND
  
 Use, reproduction and disclosure by the US Government is
 subject to restrictions as set forth in subparagraphs (a)
 and (c) of the Commercial Computer Software - Restricted
 Rights clause in FAR 52.227-19.
  
 Gaussian, Inc.
 340 Quinnipiac St., Bldg. 40, Wallingford CT 06492
  
  
 ---------------------------------------------------------------
 Warning -- This program may not be used in any manner that
 competes with the business of Gaussian, Inc. or will provide
 assistance to any competitor of Gaussian, Inc.  The licensee
 of this program is prohibited from giving any competitor of
 Gaussian, Inc. access to this program.  By using this program,
 the user acknowledges that Gaussian, Inc. is engaged in the
 business of creating and licensing software in the field of
 computational chemistry and represents and warrants to the
 licensee that it is not a competitor of Gaussian, Inc. and that
 it will not use this program in any manner prohibited above.
 ---------------------------------------------------------------
  

 Cite this work as:
 Gaussian 09, Revision C.01,
 M. J. Frisch, G. W. Trucks, H. B. Schlegel, G. E. Scuseria, 
 M. A. Robb, J. R. Cheeseman, G. Scalmani, V. Barone, B. Mennucci, 
 G. A. Petersson, H. Nakatsuji, M. Caricato, X. Li, H. P. Hratchian, 
 A. F. Izmaylov, J. Bloino, G. Zheng, J. L. Sonnenberg, M. Hada, 
 M. Ehara, K. Toyota, R. Fukuda, J. Hasegawa, M. Ishida, T. Nakajima, 
 Y. Honda, O. Kitao, H. Nakai, T. Vreven, J. A. Montgomery, Jr., 
 J. E. Peralta, F. Ogliaro, M. Bearpark, J. J. Heyd, E. Brothers, 
 K. N. Kudin, V. N. Staroverov, T. Keith, R. Kobayashi, J. Normand, 
 K. Raghavachari, A. Rendell, J. C. Burant, S. S. Iyengar, J. Tomasi, 
 M. Cossi, N. Rega, J. M. Millam, M. Klene, J. E. Knox, J. B. Cross, 
 V. Bakken, C. Adamo, J. Jaramillo, R. Gomperts, R. E. Stratmann, 
 O. Yazyev, A. J. Austin, R. Cammi, C. Pomelli, J. W. Ochterski, 
 R. L. Martin, K. Morokuma, V. G. Zakrzewski, G. A. Voth, 
 P. Salvador, J. J. Dannenberg, S. Dapprich, A. D. Daniels, 
 O. Farkas, J. B. Foresman, J. V. Ortiz, J. Cioslowski, 
 and D. J. Fox, Gaussian, Inc., Wallingford CT, 2010.
 
 ******************************************
 Gaussian 09:  EM64L-G09RevC.01 23-Sep-2011
                 6-Dec-2022 
 ******************************************
 %nprocshared=4
 Will use up to    4 processors via shared memory.
 %mem=80MW
 -----------------------------------------------------
 # mPW1PW91/6-31+g** scrf=(PCM,solvent=chloroform) nmr
 -----------------------------------------------------
 1/38=1/1;
 2/12=2,17=6,18=5,40=1/2;
 3/5=1,6=6,7=111,11=2,16=1,25=1,30=1,70=2201,72=7,74=-7/1,2,8,3;
 4//1;
 5/5=2,38=5,53=7/2;
 8/6=1,10=90,11=11/1;
 10/13=100,45=16/2;
 6/7=2,8=2,9=2,10=2,28=1/1;
 99/9=1/99;
 -------
 comment
 -------
 Charge =  0 Multiplicity = 1
 Symbolic Z-Matrix:
 1                    -0.24024  -1.04152   0.37268 
 6                    -0.46631  -0.20852  -0.30656 
 6                    -2.60531  -1.39829  -0.938 
 6                    -2.53076   0.16465   1.09178 
 6                    -3.36699  -0.46478  -0.01478 
 6                    -1.2646    0.82078   0.51827 
 6                    -1.31968  -0.73525  -1.46649 
 1                    -3.25236  -1.71819  -1.76191 
 1                    -3.12316   0.9395    1.59836 
 1                    -0.64114   1.17975   1.35097 
 1                    -0.73768  -1.45643  -2.05058 
 1                    -2.34503  -2.29911  -0.36694 
 1                    -1.56207   0.10551  -2.12592 
 6                    -4.61903   0.17988  -0.42508 
 1                    -4.9136    1.12983   0.0199 
 1                    -5.01323  -0.00707  -1.42408 
 8                    -4.64241  -0.95405   0.46072 
 8                    -2.11351  -0.83423   2.021 
 1                    -2.92163  -1.29183   2.30725 
 8                    -1.7329    1.91752  -0.25511 
 6                    -0.82788   3.0004   -0.41105 
 1                     0.01477   2.74269  -1.05957 
 1                    -0.43728   3.33376   0.56304 
 1                    -1.40073   3.81837  -0.85812 
 8                     0.73786   0.38478  -0.78902 
 14                    2.28219  -0.28627  -0.76713 
 6                     2.20212  -2.12065  -1.2309 
 1                     3.19977  -2.57547  -1.21328 
 1                     1.80367  -2.24422  -2.24486 
 1                     1.56729  -2.70135  -0.55163 
 6                     3.10388  -0.06021   0.95658 
 6                     3.21668   0.67144  -2.09483 
 1                     4.25242   0.32707  -2.19642 
 1                     3.24002   1.74511  -1.87722 
 1                     2.72541   0.54286  -3.06617 
 6                     3.10918   1.43477   1.34027 
 1                     3.6853    2.03813   0.62809 
 1                     3.5647    1.57613   2.33133 
 1                     2.09429   1.84681   1.3808 
 6                     4.5618   -0.5685    0.90335 
 1                     5.16344  -0.02175   0.16697 
 1                     4.61873  -1.63592   0.65673 
 1                     5.04778  -0.43665   1.88114 
 6                     2.34206  -0.85356   2.04088 
 1                     2.82925  -0.72653   3.01888 
 1                     2.32307  -1.92931   1.82698 
 1                     1.30435  -0.5175    2.15202 
 
                          Input orientation:                          
 ---------------------------------------------------------------------
 Center     Atomic      Atomic             Coordinates (Angstroms)
 Number     Number       Type             X           Y           Z
 ---------------------------------------------------------------------
      1          1           0       -0.240239   -1.041516    0.372681
      2          6           0       -0.466307   -0.208522   -0.306560
      3          6           0       -2.605309   -1.398290   -0.938001
      4          6           0       -2.530762    0.164645    1.091782
      5          6           0       -3.366994   -0.464783   -0.014777
      6          6           0       -1.264604    0.820779    0.518267
      7          6           0       -1.319678   -0.735253   -1.466485
      8          1           0       -3.252355   -1.718186   -1.761912
      9          1           0       -3.123164    0.939503    1.598355
     10          1           0       -0.641138    1.179745    1.350969
     11          1           0       -0.737683   -1.456434   -2.050585
     12          1           0       -2.345031   -2.299114   -0.366943
     13          1           0       -1.562069    0.105506   -2.125923
     14          6           0       -4.619029    0.179884   -0.425076
     15          1           0       -4.913597    1.129828    0.019899
     16          1           0       -5.013231   -0.007074   -1.424079
     17          8           0       -4.642414   -0.954051    0.460724
     18          8           0       -2.113509   -0.834228    2.020998
     19          1           0       -2.921628   -1.291828    2.307249
     20          8           0       -1.732901    1.917524   -0.255107
     21          6           0       -0.827884    3.000403   -0.411046
     22          1           0        0.014768    2.742693   -1.059572
     23          1           0       -0.437278    3.333755    0.563044
     24          1           0       -1.400728    3.818370   -0.858118
     25          8           0        0.737859    0.384783   -0.789017
     26         14           0        2.282194   -0.286274   -0.767132
     27          6           0        2.202120   -2.120651   -1.230898
     28          1           0        3.199770   -2.575474   -1.213279
     29          1           0        1.803672   -2.244220   -2.244859
     30          1           0        1.567287   -2.701348   -0.551633
     31          6           0        3.103879   -0.060208    0.956575
     32          6           0        3.216678    0.671442   -2.094832
     33          1           0        4.252423    0.327069   -2.196416
     34          1           0        3.240017    1.745114   -1.877223
     35          1           0        2.725408    0.542861   -3.066172
     36          6           0        3.109178    1.434767    1.340274
     37          1           0        3.685304    2.038128    0.628094
     38          1           0        3.564704    1.576128    2.331329
     39          1           0        2.094292    1.846808    1.380799
     40          6           0        4.561800   -0.568497    0.903346
     41          1           0        5.163440   -0.021750    0.166965
     42          1           0        4.618728   -1.635915    0.656727
     43          1           0        5.047778   -0.436646    1.881136
     44          6           0        2.342063   -0.853557    2.040875
     45          1           0        2.829245   -0.726525    3.018876
     46          1           0        2.323065   -1.929310    1.826984
     47          1           0        1.304347   -0.517498    2.152021
 ---------------------------------------------------------------------
                    Distance matrix (angstroms):
                    1          2          3          4          5
     1  H    0.000000
     2  C    1.098342   0.000000
     3  C    2.727404   2.527765   0.000000
     4  C    2.686713   2.521228   2.562878   0.000000
     5  C    3.203021   2.926567   1.517874   1.523134   0.000000
     6  C    2.130413   1.541778   2.973630   1.537071   2.521279
     7  C    2.154418   1.533334   1.540052   2.970062   2.524304
     8  H    3.753294   3.487004   1.095368   3.494184   2.153286
     9  H    3.706477   3.464903   3.488058   1.099073   2.152595
    10  H    2.460034   2.169160   3.967823   2.160621   3.464105
    11  H    2.508351   2.161609   2.174684   3.964530   3.470038
    12  H    2.561005   2.811374   1.097878   2.869230   2.129131
    13  H    3.050560   2.146949   2.181951   3.360876   2.835475
    14  C    4.615413   4.172530   2.609366   2.581075   1.466810
    15  H    5.165217   4.655765   3.554876   2.785393   2.221704
    16  H    5.203832   4.686571   2.823091   3.538601   2.214887
    17  O    4.403924   4.310964   2.510692   2.471596   1.446437
    18  O    2.503809   2.919299   3.052165   1.426636   2.419110
    19  H    3.315879   3.746218   3.262367   1.936866   2.504827
    20  O    3.373140   2.475274   3.496007   2.350165   2.898863
    21  C    4.158926   3.230922   4.773408   3.633154   4.314119
    22  H    4.054210   3.083526   4.901767   4.213594   4.776590
    23  H    4.383841   3.647572   5.417171   3.834775   4.831770
    24  H    5.145881   4.170518   5.354525   4.292877   4.787779
    25  O    2.083398   1.426461   3.791875   3.777532   4.262749
    26  Si   2.869187   2.787908   5.015323   5.179135   5.701862
    27  C    3.114661   3.410446   4.870212   5.746094   5.935982
    28  H    4.086803   4.456986   5.929628   6.757259   7.000987
    29  H    3.532079   3.613015   4.675745   5.976882   5.905544
    30  H    2.622317   3.226414   4.388371   5.263909   5.444040
    31  C    3.533698   3.789952   6.162362   5.640746   6.555868
    32  C    4.579642   4.187676   6.286301   6.591238   6.997312
    33  H    5.353251   5.111245   7.182546   7.539909   7.965055
    34  H    4.993952   4.474429   6.703056   6.679428   7.211445
    35  H    4.809472   4.285683   6.059185   6.712597   6.887940
    36  C    4.276308   4.265742   6.772895   5.786526   6.883695
    37  H    4.995931   4.812160   7.337127   6.508796   7.510842
    38  H    5.016568   5.137362   7.589779   6.378359   7.597234
    39  H    3.848214   3.691643   6.163907   4.929942   6.092350
    40  C    4.854372   5.184141   7.446245   7.132842   7.982448
    41  H    5.502907   5.652713   7.966761   7.751824   8.543864
    42  H    4.903423   5.368701   7.401779   7.385560   8.099026
    43  H    5.532127   5.936597   8.212310   7.643226   8.625756
    44  C    3.080014   3.716647   5.800597   5.067735   6.080311
    45  H    4.064886   4.710362   6.755925   5.765202   6.903980
    46  H    3.077938   3.910718   5.675914   5.337116   6.157410
    47  H    2.413792   3.045538   5.060577   4.037015   5.149681
                    6          7          8          9         10
     6  C    0.000000
     7  C    2.522600   0.000000
     8  H    3.949267   2.188304   0.000000
     9  H    2.152889   3.930727   4.286187   0.000000
    10  H    1.100436   3.473569   4.990640   2.505867   0.000000
    11  H    3.473089   1.095442   2.544685   4.974515   4.304571
    12  H    3.418282   2.169332   1.762570   3.867367   4.237562
    13  H    2.755330   1.095668   2.513051   4.123447   3.753782
    14  C    3.542994   3.578788   2.693993   2.628480   4.469639
    15  H    3.695813   4.313249   3.747767   2.394451   4.475282
    16  H    4.302354   3.764887   2.478451   3.688288   5.312686
    17  O    3.816141   3.847412   2.730618   2.681021   4.621237
    18  O    2.391211   3.578058   4.048303   2.084263   2.583196
    19  H    3.226344   4.137280   4.104782   2.349891   3.496252
    20  O    1.421358   2.945406   4.218719   2.514891   2.077437
    21  C    2.409379   3.912919   5.474302   3.681482   2.540545
    22  H    2.796448   3.747323   5.573761   4.490288   2.946816
    23  H    2.646039   4.631894   6.233152   3.744101   2.302638
    24  H    3.301290   4.594797   5.907522   4.157995   3.524115
    25  O    2.430832   2.438627   4.614197   4.573266   2.667047
    26  Si   3.931615   3.696506   5.802688   6.026272   3.896336
    27  C    4.871321   3.791819   5.495021   6.762238   5.063869
    28  H    5.870555   4.886301   6.531911   7.761433   5.952278
    29  H    5.142315   3.555019   5.106208   7.012852   5.534493
    30  H    4.644316   3.610686   5.065603   6.314949   4.853856
    31  C    4.477934   5.088690   7.109203   6.339351   3.964616
    32  C    5.189651   4.790839   6.904314   7.342008   5.197563
    33  H    6.168536   5.719234   7.790607   8.317130   6.103928
    34  H    5.185015   5.206894   7.359255   7.295116   5.079786
    35  H    5.370813   4.533795   6.522812   7.491390   5.590205
    36  C    4.492510   5.674650   7.748146   6.257314   3.758992
    37  H    5.098587   6.093336   8.243369   6.964454   4.469616
    38  H    5.213440   6.604776   8.606940   6.757967   4.336742
    39  H    3.616473   5.140939   7.153492   5.300225   2.815749
    40  C    6.002113   6.343161   8.335850   7.862301   5.507021
    41  H    6.492536   6.723694   8.799095   8.464082   6.044715
    42  H    6.377155   6.370548   8.234715   8.213180   6.006339
    43  H    6.579111   7.200016   9.154581   8.290841   5.937808
    44  C    4.257908   5.071875   6.819552   5.768847   3.675565
    45  H    5.040515   6.110000   7.799050   6.342295   4.296433
    46  H    4.706070   5.053938   6.634008   6.159851   4.321957
    47  H    3.325605   4.475099   6.125688   4.693853   2.703189
                   11         12         13         14         15
    11  H    0.000000
    12  H    2.475546   0.000000
    13  H    1.767751   3.080461   0.000000
    14  C    4.514938   3.364503   3.499059   0.000000
    15  H    5.330470   4.301723   4.109322   1.089572   0.000000
    16  H    4.557792   3.672911   3.523603   1.090117   1.840529
    17  O    4.669688   2.787866   4.159559   1.439096   2.147189
    18  O    4.342560   2.811006   4.287673   3.645454   3.962626
    19  H    4.877236   2.915200   4.842929   3.537330   3.881279
    20  O    3.949404   4.262305   2.610085   3.373132   3.288301
    21  C    4.749697   5.512582   3.443873   4.725284   4.514179
    22  H    4.379607   5.609653   3.252426   5.333165   5.296732
    23  H    5.465090   6.019436   4.349401   5.330134   5.018937
    24  H    5.448409   6.209394   3.926668   4.876840   4.509925
    25  O    2.675604   4.109217   2.674880   5.373145   5.757464
    26  Si   3.483703   5.061906   4.096116   6.925401   7.375918
    27  C    3.123382   4.631938   4.463851   7.243610   7.922344
    28  H    4.178142   5.615824   5.540369   8.327477   9.004261
    29  H    2.667740   4.554264   4.106528   7.102040   7.850798
    30  H    3.018204   3.937275   4.488840   6.825542   7.550259
    31  C    5.074451   6.037799   5.594669   7.849198   8.159257
    32  C    4.490744   6.537768   4.812242   8.026707   8.413298
    33  H    5.301255   7.332817   5.819139   9.047760   9.464269
    34  H    5.109018   7.059000   5.080374   8.143911   8.393990
    35  H    4.125724   6.408745   4.411100   7.813315   8.259707
    36  C    5.886876   6.826775   5.966742   8.025981   8.136418
    37  H    6.241001   7.494445   6.233343   8.574624   8.668103
    38  H    6.848951   7.564598   6.950800   8.747614   8.799061
    39  H    5.541289   6.320669   5.357071   7.149021   7.174721
    40  C    6.131775   7.232772   6.865313   9.306578   9.666847
    41  H    6.465222   7.864387   7.106757   9.802442  10.143689
    42  H    6.004406   7.069772   6.998424   9.476475   9.945859
    43  H    7.068943   7.948350   7.748582   9.957202  10.254123
    44  C    5.156388   5.464071   5.790013   7.456924   7.788630
    45  H    6.241408   6.380434   6.815047   8.255857   8.508320
    46  H    4.962593   5.171189   5.904254   7.596917   8.061833
    47  H    4.765856   4.778838   5.187030   6.497242   6.776611
                   16         17         18         19         20
    16  H    0.000000
    17  O    2.141671   0.000000
    18  O    4.578332   2.973915   0.000000
    19  H    4.466341   2.546537   0.971799   0.000000
    20  O    3.978836   4.150135   3.591331   4.275357   0.000000
    21  C    5.252455   5.563122   4.719329   5.495101   1.419859
    22  H    5.742374   6.137309   5.178208   6.019573   2.093422
    23  H    6.004094   6.006573   4.723078   5.532654   2.086557
    24  H    5.291929   5.918097   5.517611   6.200549   2.021677
    25  O    5.799301   5.683456   4.184791   5.078359   2.956182
    26  Si   7.330263   7.064259   5.234131   6.127212   4.608675
    27  C    7.521025   7.146341   5.554671   6.281578   5.722186
    28  H    8.607816   8.181146   6.459367   7.177282   6.740650
    29  H    7.221404   7.108920   5.960698   6.630022   5.812622
    30  H    7.164042   6.529801   4.863417   5.505480   5.684465
    31  C    8.459185   7.813442   5.380822   6.296661   5.364144
    32  C    8.285028   8.422495   6.900579   7.804585   5.425462
    33  H    9.303790   9.371221   7.724007   8.623853   6.490172
    34  H    8.449355   8.653566   7.106995   8.043550   5.233632
    35  H    7.930034   8.304489   7.154774   8.008043   5.446862
    36  C    8.700235   8.158875   5.734822   6.688795   5.120940
    37  H    9.168357   8.850539   6.619429   7.586812   5.491041
    38  H    9.496872   8.789639   6.176425   7.092126   5.905152
    39  H    7.862640   7.353540   5.030248   5.989057   4.162763
    40  C    9.869819   9.222913   6.773441   7.648258   6.866263
    41  H   10.300304   9.854453   7.553247   8.459447   7.176242
    42  H    9.987868   9.288278   6.915703   7.726551   7.334955
    43  H   10.598721   9.807400   7.173679   8.026477   7.488876
    44  C    8.174521   7.161696   4.455658   5.288618   5.436520
    45  H    9.042228   7.900734   5.043627   5.822244   6.206701
    46  H    8.251402   7.164893   4.573842   5.305077   5.965241
    47  H    7.277418   6.197986   3.435000   4.299133   4.576950
                   21         22         23         24         25
    21  C    0.000000
    22  H    1.094104   0.000000
    23  H    1.101158   1.785100   0.000000
    24  H    1.094118   1.789216   1.784037   0.000000
    25  O    3.071788   2.481089   3.450428   4.045720   0.000000
    26  Si   4.538902   3.794915   4.719058   5.515460   1.683974
    27  C    6.006519   5.335352   6.319430   6.956396   2.935391
    28  H    6.925026   6.200868   7.162571   7.884920   3.873516
    29  H    6.147685   5.429032   6.634756   6.996158   3.188587
    30  H    6.185998   5.683828   6.456257   7.170061   3.204451
    31  C    5.166864   4.632894   4.920736   6.215140   2.973745
    32  C    4.961620   3.951464   5.244388   5.723029   2.816358
    33  H    6.011970   5.008530   6.216758   6.777783   3.786326
    34  H    4.502582   3.473607   4.690542   5.183964   3.048850
    35  H    5.071005   4.026571   5.564430   5.712220   3.026677
    36  C    4.584626   4.128596   4.097266   5.554615   3.355518
    37  H    4.730185   4.100910   4.321870   5.589795   3.664585
    38  H    5.370662   5.045902   4.715076   6.313140   4.375719
    39  H    3.616712   3.329030   3.047717   4.595103   2.947122
    40  C    6.596466   5.957560   6.350918   7.609146   4.288981
    41  H    6.735241   5.971211   6.540974   7.673697   4.545870
    42  H    7.231955   6.581363   7.090105   8.263040   4.608095
    43  H    7.182674   6.639815   6.785214   8.197067   5.136133
    44  C    5.559990   5.287919   5.238540   6.651282   3.480696
    45  H    6.247315   6.049008   5.760830   7.319824   4.484300
    46  H    6.264130   5.957185   6.075927   7.356102   3.835540
    47  H    4.846787   4.754597   4.515557   5.931114   3.128054
                   26         27         28         29         30
    26  Si   0.000000
    27  C    1.893787   0.000000
    28  H    2.506278   1.096576   0.000000
    29  H    2.499242   1.096425   1.767194   0.000000
    30  H    2.527868   1.096186   1.765962   1.769706   0.000000
    31  C    1.922872   3.137456   3.323255   4.087741   3.407554
    32  C    1.885011   3.093783   3.364504   3.243483   4.059269
    33  H    2.510148   3.335761   3.240277   3.551092   4.368819
    34  H    2.505247   4.054517   4.371490   4.255940   4.932164
    35  H    2.483845   3.276638   3.658175   3.048274   4.264861
    36  C    2.843773   4.480477   4.755089   5.300233   4.802519
    37  H    3.052576   4.790734   4.991164   5.489344   5.323569
    38  H    3.835862   5.311523   5.471126   6.215930   5.531541
    39  H    3.032978   4.751139   5.244797   5.474154   4.969683
    40  C    2.840202   3.540095   3.219190   4.508493   3.953875
    41  H    3.040409   3.889579   3.504651   4.695137   4.541910
    42  H    3.050950   3.104528   2.528465   4.088249   3.450590
    43  H    3.832022   4.540749   4.191077   5.551160   4.812594
    44  C    2.865362   3.511354   3.780235   4.537766   3.276539
    45  H    3.850577   4.516354   4.633253   5.573339   4.270948
    46  H    3.070941   3.066249   3.229449   4.116897   2.612482
    47  H    3.087249   3.849706   4.376430   4.750100   3.485410
                   31         32         33         34         35
    31  C    0.000000
    32  C    3.139924   0.000000
    33  H    3.377942   1.096212   0.000000
    34  H    3.362757   1.095751   1.771356   0.000000
    35  H    4.085269   1.096075   1.770541   1.767437   0.000000
    36  C    1.543439   3.520536   3.878425   3.235077   4.512155
    37  H    2.202037   3.082494   3.350702   2.561396   4.099369
    38  H    2.186299   4.531057   4.746955   4.224439   5.559233
    39  H    2.199078   3.836828   4.445627   3.455103   4.676979
    40  C    1.544903   3.512246   3.241339   3.851165   4.512707
    41  H    2.206072   3.063678   2.556794   3.316635   4.088516
    42  H    2.206248   3.854960   3.482515   4.444446   4.710807
    43  H    2.185237   4.515430   4.224012   4.706733   5.552359
    44  C    1.544498   4.493845   4.795622   4.786534   5.308377
    45  H    2.184602   5.315489   5.507701   5.499956   6.216907
    46  H    2.204728   4.789895   5.000142   5.297485   5.496952
    47  H    2.208285   4.806906   5.321029   5.010094   5.511199
                   36         37         38         39         40
    36  C    0.000000
    37  H    1.096889   0.000000
    38  H    1.099853   1.768897   0.000000
    39  H    1.096090   1.770448   1.771690   0.000000
    40  C    2.512784   2.763784   2.762744   3.485722   0.000000
    41  H    2.778145   2.576941   3.129480   3.792700   1.096886
    42  H    3.489279   3.790870   3.772596   4.361928   1.097015
    43  H    2.748252   3.090462   2.540362   3.766640   1.099833
    44  C    2.513112   3.487419   2.735431   2.790889   2.510471
    45  H    2.750864   3.753929   2.513132   3.137753   2.739012
    46  H    3.488821   4.362751   3.752882   3.809263   2.777923
    47  H    2.779872   3.810844   3.086201   2.609356   3.488953
                   41         42         43         44         45
    41  H    0.000000
    42  H    1.772599   0.000000
    43  H    1.767455   1.766779   0.000000
    44  C    3.487637   2.776896   2.742303   0.000000
    45  H    3.752142   3.099837   2.510054   1.099986   0.000000
    46  H    3.802917   2.593386   3.107256   1.096975   1.767347
    47  H    4.367930   3.804193   3.754090   1.096423   1.766478
                   46         47
    46  H    0.000000
    47  H    1.771059   0.000000
 Stoichiometry    C14H28O4Si
 Framework group  C1[X(C14H28O4Si)]
 Deg. of freedom   135
 Full point group                 C1      NOp   1
 Largest Abelian subgroup         C1      NOp   1
 Largest concise Abelian subgroup C1      NOp   1
                         Standard orientation:                         
 ---------------------------------------------------------------------
 Center     Atomic      Atomic             Coordinates (Angstroms)
 Number     Number       Type             X           Y           Z
 ---------------------------------------------------------------------
      1          1           0       -0.240239   -1.041516    0.372681
      2          6           0       -0.466307   -0.208522   -0.306560
      3          6           0       -2.605309   -1.398290   -0.938001
      4          6           0       -2.530762    0.164645    1.091782
      5          6           0       -3.366994   -0.464783   -0.014777
      6          6           0       -1.264604    0.820779    0.518267
      7          6           0       -1.319678   -0.735253   -1.466485
      8          1           0       -3.252355   -1.718186   -1.761912
      9          1           0       -3.123164    0.939503    1.598355
     10          1           0       -0.641138    1.179745    1.350969
     11          1           0       -0.737683   -1.456434   -2.050585
     12          1           0       -2.345031   -2.299114   -0.366943
     13          1           0       -1.562069    0.105506   -2.125923
     14          6           0       -4.619029    0.179884   -0.425076
     15          1           0       -4.913597    1.129828    0.019899
     16          1           0       -5.013231   -0.007074   -1.424079
     17          8           0       -4.642414   -0.954051    0.460724
     18          8           0       -2.113509   -0.834228    2.020998
     19          1           0       -2.921628   -1.291828    2.307249
     20          8           0       -1.732901    1.917524   -0.255107
     21          6           0       -0.827884    3.000403   -0.411046
     22          1           0        0.014768    2.742693   -1.059572
     23          1           0       -0.437278    3.333755    0.563044
     24          1           0       -1.400728    3.818370   -0.858118
     25          8           0        0.737859    0.384783   -0.789017
     26         14           0        2.282194   -0.286274   -0.767132
     27          6           0        2.202120   -2.120651   -1.230898
     28          1           0        3.199770   -2.575474   -1.213279
     29          1           0        1.803672   -2.244220   -2.244859
     30          1           0        1.567287   -2.701348   -0.551633
     31          6           0        3.103879   -0.060208    0.956575
     32          6           0        3.216678    0.671442   -2.094832
     33          1           0        4.252423    0.327069   -2.196416
     34          1           0        3.240017    1.745114   -1.877223
     35          1           0        2.725408    0.542861   -3.066172
     36          6           0        3.109178    1.434767    1.340274
     37          1           0        3.685304    2.038128    0.628094
     38          1           0        3.564704    1.576128    2.331329
     39          1           0        2.094292    1.846808    1.380799
     40          6           0        4.561800   -0.568497    0.903346
     41          1           0        5.163440   -0.021750    0.166965
     42          1           0        4.618728   -1.635915    0.656727
     43          1           0        5.047778   -0.436646    1.881136
     44          6           0        2.342063   -0.853557    2.040875
     45          1           0        2.829245   -0.726525    3.018876
     46          1           0        2.323065   -1.929310    1.826984
     47          1           0        1.304347   -0.517498    2.152021
 ---------------------------------------------------------------------
 Rotational constants (GHZ):      0.6128613      0.1937604      0.1916047
 Standard basis: 6-31+G(d,p) (6D, 7F)
 There are   505 symmetry adapted basis functions of A   symmetry.
 Integral buffers will be    131072 words long.
 Raffenetti 2 integral format.
 Two-electron integral symmetry is turned on.
   505 basis functions,   828 primitive gaussians,   505 cartesian basis functions
    79 alpha electrons       79 beta electrons
       nuclear repulsion energy      1817.3903192820 Hartrees.
 NAtoms=   47 NActive=   47 NUniq=   47 SFac= 1.00D+00 NAtFMM=   60 NAOKFM=F Big=F
 ------------------------------------------------------------------------------
 Polarizable Continuum Model (PCM)
 =================================
 Model                : PCM.
 Atomic radii         : UFF (Universal Force Field).
 Polarization charges : Total charges.
 Charge compensation  : None.
 Solution method      : Matrix inversion.
 Cavity type          : Scaled VdW (van der Waals Surface) (Alpha=1.100).
 Cavity algorithm     : GePol (No added spheres)
                        Default sphere list used, NSphG=   47.
                        Lebedev-Laikov grids with approx.  5.0 points / Ang**2.
                        Smoothing algorithm: Karplus/York (Gamma=1.0000).
                        Polarization charges: spherical gaussians, with
                                              point-specific exponents (IZeta= 3).
                        Self-potential: point-specific (ISelfS= 7).
                        Self-field    : sphere-specific E.n sum rule (ISelfD= 2).
 Solvent              : Chloroform, Eps=   4.711300 Eps(inf)=   2.090627
 ------------------------------------------------------------------------------
 One-electron integrals computed using PRISM.
 NBasis=   505 RedAO= T  NBF=   505
 NBsUse=   505 1.00D-06 NBFU=   505
 Harris functional with IExCor=  908 diagonalized for initial guess.
 ExpMin= 3.31D-02 ExpMax= 1.61D+04 ExpMxC= 2.43D+03 IAcc=3 IRadAn=         5 AccDes= 0.00D+00
 HarFok:  IExCor=  908 AccDes= 0.00D+00 IRadAn=         5 IDoV= 1
 ScaDFX=  1.000000  1.000000  1.000000  1.000000
 FoFCou: FMM=F IPFlag=           0 FMFlag=      100000 FMFlg1=           0
         NFxFlg=           0 DoJE=T BraDBF=F KetDBF=T FulRan=T
         Omega=  0.000000  0.000000  1.000000  0.000000  0.000000 ICntrl=     500 IOpCl=  0
         NMat0=    1 NMatS0=    1 NMatT0=    0 NMatD0=    1 NMtDS0=    0 NMtDT0=    0
         I1Cent=           4 NGrid=           0.
 Petite list used in FoFCou.
 Initial guess orbital symmetries:
       Occupied  (A) (A) (A) (A) (A) (A) (A) (A) (A) (A) (A) (A)
                 (A) (A) (A) (A) (A) (A) (A) (A) (A) (A) (A) (A)
                 (A) (A) (A) (A) (A) (A) (A) (A) (A) (A) (A) (A)
                 (A) (A) (A) (A) (A) (A) (A) (A) (A) (A) (A) (A)
                 (A) (A) (A) (A) (A) (A) (A) (A) (A) (A) (A) (A)
                 (A) (A) (A) (A) (A) (A) (A) (A) (A) (A) (A) (A)
                 (A) (A) (A) (A) (A) (A) (A)
       Virtual   (A) (A) (A) (A) (A) (A) (A) (A) (A) (A) (A) (A)
                 (A) (A) (A) (A) (A) (A) (A) (A) (A) (A) (A) (A)
                 (A) (A) (A) (A) (A) (A) (A) (A) (A) (A) (A) (A)
                 (A) (A) (A) (A) (A) (A) (A) (A) (A) (A) (A) (A)
                 (A) (A) (A) (A) (A) (A) (A) (A) (A) (A) (A) (A)
                 (A) (A) (A) (A) (A) (A) (A) (A) (A) (A) (A) (A)
                 (A) (A) (A) (A) (A) (A) (A) (A) (A) (A) (A) (A)
                 (A) (A) (A) (A) (A) (A) (A) (A) (A) (A) (A) (A)
                 (A) (A) (A) (A) (A) (A) (A) (A) (A) (A) (A) (A)
                 (A) (A) (A) (A) (A) (A) (A) (A) (A) (A) (A) (A)
                 (A) (A) (A) (A) (A) (A) (A) (A) (A) (A) (A) (A)
                 (A) (A) (A) (A) (A) (A) (A) (A) (A) (A) (A) (A)
                 (A) (A) (A) (A) (A) (A) (A) (A) (A) (A) (A) (A)
                 (A) (A) (A) (A) (A) (A) (A) (A) (A) (A) (A) (A)
                 (A) (A) (A) (A) (A) (A) (A) (A) (A) (A) (A) (A)
                 (A) (A) (A) (A) (A) (A) (A) (A) (A) (A) (A) (A)
                 (A) (A) (A) (A) (A) (A) (A) (A) (A) (A) (A) (A)
                 (A) (A) (A) (A) (A) (A) (A) (A) (A) (A) (A) (A)
                 (A) (A) (A) (A) (A) (A) (A) (A) (A) (A) (A) (A)
                 (A) (A) (A) (A) (A) (A) (A) (A) (A) (A) (A) (A)
                 (A) (A) (A) (A) (A) (A) (A) (A) (A) (A) (A) (A)
                 (A) (A) (A) (A) (A) (A) (A) (A) (A) (A) (A) (A)
                 (A) (A) (A) (A) (A) (A) (A) (A) (A) (A) (A) (A)
                 (A) (A) (A) (A) (A) (A) (A) (A) (A) (A) (A) (A)
                 (A) (A) (A) (A) (A) (A) (A) (A) (A) (A) (A) (A)
                 (A) (A) (A) (A) (A) (A) (A) (A) (A) (A) (A) (A)
                 (A) (A) (A) (A) (A) (A) (A) (A) (A) (A) (A) (A)
                 (A) (A) (A) (A) (A) (A) (A) (A) (A) (A) (A) (A)
                 (A) (A) (A) (A) (A) (A) (A) (A) (A) (A) (A) (A)
                 (A) (A) (A) (A) (A) (A) (A) (A) (A) (A) (A) (A)
                 (A) (A) (A) (A) (A) (A) (A) (A) (A) (A) (A) (A)
                 (A) (A) (A) (A) (A) (A) (A) (A) (A) (A) (A) (A)
                 (A) (A) (A) (A) (A) (A) (A) (A) (A) (A) (A) (A)
                 (A) (A) (A) (A) (A) (A) (A) (A) (A) (A) (A) (A)
                 (A) (A) (A) (A) (A) (A) (A) (A) (A) (A) (A) (A)
                 (A) (A) (A) (A) (A) (A)
 The electronic state of the initial guess is 1-A.
 Requested convergence on RMS density matrix=1.00D-08 within 128 cycles.
 Requested convergence on MAX density matrix=1.00D-06.
 Requested convergence on             energy=1.00D-06.
 No special actions if energy rises.
 Error on total polarization charges =  0.01522
 SCF Done:  E(RmPW1PW91) =  -1140.62360649     A.U. after   13 cycles
             Convg  =    0.5003D-08             -V/T =  2.0080
 Range of M.O.s used for correlation:     1   505
 NBasis=   505 NAE=    79 NBE=    79 NFC=     0 NFV=     0
 NROrb=    505 NOA=    79 NOB=    79 NVA=   426 NVB=   426

 **** Warning!!: The largest alpha MO coefficient is  0.83505073D+02

 NEqPCM:  Using equilibrium solvation (IEInf=0, Eps=   4.7113, EpsInf=   2.0906)
          Differentiating once with respect to magnetic field using GIAOs.
          Electric field/nuclear overlap derivatives assumed to be zero.
 FoFCou: FMM=F IPFlag=           0 FMFlag=    10101102 FMFlg1=           0
         NFxFlg=    40000000 DoJE=F BraDBF=F KetDBF=T FulRan=T
         Omega=  0.000000  0.000000  1.000000  0.000000  0.000000 ICntrl=    6100 IOpCl=  0
         NMat0=    1 NMatS0=    1 NMatT0=    0 NMatD0=    1 NMtDS0=    0 NMtDT0=    0
         I1Cent=           7 NGrid=        3014.
 Symmetry not used in FoFCou.
          There are     3 degrees of freedom in the 1st order CPHF.  IDoFFX=0.
      3 vectors produced by pass  0 Test12= 1.12D-12 3.33D-08 XBig12= 1.83D+02 1.74D+00.
 AX will form     3 AO Fock derivatives at one time.
      3 vectors produced by pass  1 Test12= 1.12D-12 3.33D-08 XBig12= 4.26D-01 7.82D-02.
      3 vectors produced by pass  2 Test12= 1.12D-12 3.33D-08 XBig12= 9.35D-04 6.04D-03.
      3 vectors produced by pass  3 Test12= 1.12D-12 3.33D-08 XBig12= 3.94D-06 4.43D-04.
      3 vectors produced by pass  4 Test12= 1.12D-12 3.33D-08 XBig12= 1.83D-08 1.72D-05.
      3 vectors produced by pass  5 Test12= 1.12D-12 3.33D-08 XBig12= 6.03D-11 9.83D-07.
      3 vectors produced by pass  6 Test12= 1.12D-12 3.33D-08 XBig12= 1.93D-13 5.04D-08.
 Inverted reduced A of dimension    21 with in-core refinement.
 Calculating GIAO nuclear magnetic shielding tensors.
 SCF GIAO Magnetic shielding tensor (ppm):
      1  H    Isotropic =    27.1064   Anisotropy =     8.9432
   XX=    32.8176   YX=     1.0373   ZX=    -1.9488
   XY=    -0.7000   YY=    24.0814   ZY=    -1.8542
   XZ=    -0.8053   YZ=    -2.5272   ZZ=    24.4203
   Eigenvalues:    21.9911    26.2595    33.0686
      2  C    Isotropic =   121.7347   Anisotropy =    54.4619
   XX=   141.9671   YX=    15.4714   ZX=   -14.4355
   XY=    30.6405   YY=   113.5047   ZY=    -1.7228
   XZ=   -13.9294   YZ=     1.8769   ZZ=   109.7323
   Eigenvalues:    96.1919   110.9696   158.0427
      3  C    Isotropic =   167.2444   Anisotropy =    25.7154
   XX=   179.0482   YX=     7.2153   ZX=    -8.3152
   XY=    -0.8842   YY=   160.6759   ZY=    15.6978
   XZ=   -11.9649   YZ=    12.8409   ZZ=   162.0090
   Eigenvalues:   144.4961   172.8490   184.3880
      4  C    Isotropic =   117.5777   Anisotropy =    26.3182
   XX=   110.5770   YX=     3.8825   ZX=     0.2836
   XY=    -9.9162   YY=   124.3594   ZY=   -16.9780
   XZ=    11.1755   YZ=    -7.3952   ZZ=   117.7966
   Eigenvalues:   106.1430   111.4669   135.1231
      5  C    Isotropic =   136.0229   Anisotropy =    55.1769
   XX=   106.3033   YX=    21.5259   ZX=    -8.1518
   XY=    30.7675   YY=   145.0021   ZY=    22.1243
   XZ=   -21.8791   YZ=    19.4664   ZZ=   156.7633
   Eigenvalues:    85.6345   149.6267   172.8075
      6  C    Isotropic =   112.9780   Anisotropy =    44.8615
   XX=    99.6156   YX=    -0.6785   ZX=     0.3806
   XY=   -10.5213   YY=   124.4700   ZY=   -21.1644
   XZ=    17.6302   YZ=   -19.5325   ZZ=   114.8483
   Eigenvalues:    94.4571   101.5912   142.8856
      7  C    Isotropic =   166.7500   Anisotropy =    31.5021
   XX=   181.9709   YX=    12.5092   ZX=    -3.3312
   XY=    14.6414   YY=   153.5488   ZY=     4.2964
   XZ=     4.7087   YZ=     7.0620   ZZ=   164.7302
   Eigenvalues:   146.6975   165.8011   187.7514
      8  H    Isotropic =    30.5556   Anisotropy =    10.4319
   XX=    31.8412   YX=     2.6872   ZX=     3.3001
   XY=     2.3971   YY=    28.1821   ZY=     5.4656
   XZ=     1.8825   YZ=     4.5939   ZZ=    31.6436
   Eigenvalues:    24.5414    29.6153    37.5103
      9  H    Isotropic =    28.1864   Anisotropy =     5.2141
   XX=    26.7810   YX=    -2.4397   ZX=    -1.1459
   XY=    -1.6129   YY=    29.3390   ZY=     2.6004
   XZ=     0.2076   YZ=     1.3512   ZZ=    28.4394
   Eigenvalues:    25.5258    27.3711    31.6625
     10  H    Isotropic =    27.8036   Anisotropy =     2.8585
   XX=    28.5454   YX=    -0.4738   ZX=     0.3305
   XY=    -0.8624   YY=    26.5854   ZY=    -1.0046
   XZ=     2.1482   YZ=     1.3321   ZZ=    28.2801
   Eigenvalues:    26.2056    27.4960    29.7093
     11  H    Isotropic =    29.9872   Anisotropy =     8.5413
   XX=    33.2365   YX=    -1.7582   ZX=    -1.7406
   XY=    -1.3852   YY=    27.8542   ZY=     4.2190
   XZ=    -2.6810   YZ=     4.3925   ZZ=    28.8709
   Eigenvalues:    24.0165    30.2637    35.6814
     12  H    Isotropic =    29.2874   Anisotropy =     6.2572
   XX=    28.2802   YX=     0.6710   ZX=    -1.0336
   XY=    -1.1161   YY=    33.3842   ZY=    -1.1421
   XZ=    -1.2824   YZ=    -0.3072   ZZ=    26.1977
   Eigenvalues:    25.6088    28.7945    33.4588
     13  H    Isotropic =    29.3370   Anisotropy =     4.2948
   XX=    28.6513   YX=     0.4533   ZX=     1.0007
   XY=    -0.2060   YY=    28.3403   ZY=    -1.5334
   XZ=     0.3483   YZ=    -2.5426   ZZ=    31.0195
   Eigenvalues:    27.1165    28.6943    32.2002
     14  C    Isotropic =   139.5354   Anisotropy =    33.2857
   XX=   122.6921   YX=    13.2020   ZX=    -7.7054
   XY=    20.8459   YY=   143.6928   ZY=    12.2480
   XZ=   -12.6785   YZ=    13.6829   ZZ=   152.2213
   Eigenvalues:   107.8625   149.0178   161.7259
     15  H    Isotropic =    28.8002   Anisotropy =     9.1066
   XX=    27.8259   YX=    -2.3155   ZX=     1.4525
   XY=    -4.4504   YY=    32.8983   ZY=     0.3032
   XZ=    -1.0519   YZ=     3.4689   ZZ=    25.6766
   Eigenvalues:    24.6929    26.8365    34.8713
     16  H    Isotropic =    28.8073   Anisotropy =     9.8820
   XX=    27.9613   YX=    -1.9084   ZX=     3.0360
   XY=     0.4400   YY=    25.5791   ZY=     1.4202
   XZ=     5.5810   YZ=    -1.3790   ZZ=    32.8814
   Eigenvalues:    24.8662    26.1603    35.3953
     17  O    Isotropic =   315.3856   Anisotropy =   135.2136
   XX=   352.9793   YX=   -44.9163   ZX=    27.3701
   XY=   -77.9932   YY=   275.8828   ZY=   103.8545
   XZ=    45.7033   YZ=   102.1021   ZZ=   317.2947
   Eigenvalues:   164.9075   375.7213   405.5280
     18  O    Isotropic =   295.4477   Anisotropy =    54.1851
   XX=   308.8538   YX=    31.0648   ZX=    -9.7901
   XY=    16.2064   YY=   293.1120   ZY=   -27.2747
   XZ=     0.0968   YZ=   -13.2426   ZZ=   284.3773
   Eigenvalues:   264.4348   290.3372   331.5712
     19  H    Isotropic =    29.9563   Anisotropy =    18.4608
   XX=    34.7486   YX=     6.4869   ZX=    -4.1810
   XY=     7.4752   YY=    25.9103   ZY=    -6.5561
   XZ=    -3.1620   YZ=    -7.7044   ZZ=    29.2100
   Eigenvalues:    19.3980    28.2075    42.2635
     20  O    Isotropic =   313.4617   Anisotropy =    46.2570
   XX=   321.6551   YX=    -6.6835   ZX=    14.6551
   XY=    -5.4438   YY=   314.4598   ZY=   -17.5010
   XZ=    21.3604   YZ=   -26.7218   ZZ=   304.2702
   Eigenvalues:   283.4471   312.6384   344.2997
     21  C    Isotropic =   135.7376   Anisotropy =    85.4996
   XX=   132.4405   YX=    39.5799   ZX=    -3.8715
   XY=    38.6214   YY=   165.4738   ZY=    -9.2066
   XZ=    -3.1963   YZ=   -11.4143   ZZ=   109.2986
   Eigenvalues:   104.4111   110.0644   192.7374
     22  H    Isotropic =    27.2329   Anisotropy =     7.0006
   XX=    28.9428   YX=    -0.0566   ZX=    -3.8359
   XY=     2.0435   YY=    29.6183   ZY=    -2.9091
   XZ=    -2.6813   YZ=    -1.2494   ZZ=    23.1376
   Eigenvalues:    21.3944    28.4043    31.9000
     23  H    Isotropic =    28.2268   Anisotropy =     8.5227
   XX=    27.8944   YX=     2.2017   ZX=     2.0845
   XY=     2.8745   YY=    31.6151   ZY=     4.1680
   XZ=    -0.0307   YZ=     1.4357   ZZ=    25.1711
   Eigenvalues:    24.1214    26.6505    33.9086
     24  H    Isotropic =    27.9151   Anisotropy =    10.8977
   XX=    25.4336   YX=     1.4533   ZX=    -0.2490
   XY=    -1.3340   YY=    34.2286   ZY=    -3.6367
   XZ=     0.7556   YZ=    -2.8625   ZZ=    24.0830
   Eigenvalues:    23.1024    25.4626    35.1802
     25  O    Isotropic =   280.7369   Anisotropy =    27.0285
   XX=   286.5508   YX=     6.5809   ZX=     4.8630
   XY=     9.5220   YY=   273.8839   ZY=     6.0641
   XZ=    11.0544   YZ=    13.8082   ZZ=   281.7759
   Eigenvalues:   266.7976   276.6571   298.7559
     26  Si   Isotropic =   380.3885   Anisotropy =    34.8507
   XX=   399.4151   YX=   -17.8327   ZX=    -2.0555
   XY=    -4.8873   YY=   368.2800   ZY=    -2.9925
   XZ=    -5.8850   YZ=     3.7591   ZZ=   373.4703
   Eigenvalues:   364.4885   373.0546   403.6223
     27  C    Isotropic =   201.3081   Anisotropy =     6.5098
   XX=   203.7006   YX=    -0.2900   ZX=     2.9105
   XY=     0.6150   YY=   201.8119   ZY=    -0.1587
   XZ=     4.3032   YZ=     2.4722   ZZ=   198.4118
   Eigenvalues:   196.4122   201.8642   205.6480
     28  H    Isotropic =    31.5591   Anisotropy =    10.7758
   XX=    35.3439   YX=    -5.0782   ZX=     0.3124
   XY=    -4.6413   YY=    31.6705   ZY=     1.8381
   XZ=     0.5652   YZ=     1.7588   ZZ=    27.6629
   Eigenvalues:    26.2074    29.7269    38.7430
     29  H    Isotropic =    31.5911   Anisotropy =     9.8660
   XX=    29.6577   YX=     0.0717   ZX=     2.9195
   XY=     0.4810   YY=    29.1845   ZY=     3.4394
   XZ=     2.7205   YZ=     3.2164   ZZ=    35.9312
   Eigenvalues:    27.3852    29.2197    38.1684
     30  H    Isotropic =    31.1047   Anisotropy =     7.6098
   XX=    30.9062   YX=     2.4930   ZX=    -2.7875
   XY=     2.7967   YY=    32.7718   ZY=    -2.2329
   XZ=    -2.6997   YZ=    -1.5358   ZZ=    29.6360
   Eigenvalues:    27.4465    29.6896    36.1779
     31  C    Isotropic =   171.4755   Anisotropy =     7.3196
   XX=   175.4430   YX=    -1.9758   ZX=    -1.1752
   XY=    -2.0042   YY=   169.0736   ZY=     2.3058
   XZ=    -0.7494   YZ=     1.4879   ZZ=   169.9100
   Eigenvalues:   167.4214   170.6499   176.3553
     32  C    Isotropic =   198.7486   Anisotropy =     8.0811
   XX=   202.8329   YX=     0.8438   ZX=    -0.2453
   XY=     0.8306   YY=   196.8286   ZY=    -3.5174
   XZ=    -3.3837   YZ=    -5.8160   ZZ=   196.5842
   Eigenvalues:   191.9892   200.1205   204.1360
     33  H    Isotropic =    31.6115   Anisotropy =    10.7745
   XX=    37.6680   YX=    -1.7759   ZX=    -2.9778
   XY=    -1.7668   YY=    27.2109   ZY=    -0.6286
   XZ=    -2.7110   YZ=    -0.6792   ZZ=    29.9557
   Eigenvalues:    26.4860    29.5540    38.7945
     34  H    Isotropic =    31.3170   Anisotropy =     8.6102
   XX=    27.7384   YX=     1.7735   ZX=    -1.0033
   XY=     1.6517   YY=    36.6880   ZY=    -0.0758
   XZ=    -0.9811   YZ=    -0.8302   ZZ=    29.5246
   Eigenvalues:    27.0888    29.8051    37.0571
     35  H    Isotropic =    31.5511   Anisotropy =     9.9138
   XX=    29.6614   YX=     0.9972   ZX=     2.0817
   XY=     0.8130   YY=    27.3639   ZY=    -0.7540
   XZ=     2.1210   YZ=    -0.4305   ZZ=    37.6281
   Eigenvalues:    26.8896    29.6034    38.1604
     36  C    Isotropic =   170.1211   Anisotropy =    36.5770
   XX=   157.4838   YX=     0.6956   ZX=     0.3566
   XY=    -2.0806   YY=   193.1866   ZY=     4.0223
   XZ=     0.2930   YZ=     9.4762   ZZ=   159.6930
   Eigenvalues:   157.2882   158.5693   194.5058
     37  H    Isotropic =    30.5530   Anisotropy =     8.5200
   XX=    28.3064   YX=     3.4617   ZX=    -0.9387
   XY=     4.0837   YY=    33.6683   ZY=    -2.4590
   XZ=    -0.9148   YZ=    -1.1101   ZZ=    29.6843
   Eigenvalues:    26.3591    29.0669    36.2330
     38  H    Isotropic =    30.9605   Anisotropy =     9.3577
   XX=    28.9036   YX=     1.3715   ZX=     2.9042
   XY=     1.8090   YY=    30.6250   ZY=     4.1103
   XZ=     2.8457   YZ=     3.2409   ZZ=    33.3528
   Eigenvalues:    27.4557    28.2267    37.1989
     39  H    Isotropic =    30.1491   Anisotropy =     8.6008
   XX=    32.9300   YX=    -2.9691   ZX=     1.3524
   XY=    -4.3945   YY=    31.1582   ZY=     2.2787
   XZ=     0.5719   YZ=     2.3438   ZZ=    26.3590
   Eigenvalues:    24.6891    29.8751    35.8829
     40  C    Isotropic =   169.6130   Anisotropy =    40.0689
   XX=   191.6460   YX=   -13.0704   ZX=    -5.4811
   XY=   -12.1118   YY=   160.0132   ZY=     1.5114
   XZ=    -1.1201   YZ=    -0.3392   ZZ=   157.1797
   Eigenvalues:   155.4209   157.0925   196.3256
     41  H    Isotropic =    30.7256   Anisotropy =     9.2502
   XX=    35.4358   YX=     1.7637   ZX=    -3.1445
   XY=     0.5573   YY=    26.4262   ZY=    -1.5923
   XZ=    -2.2502   YZ=    -1.8811   ZZ=    30.3147
   Eigenvalues:    25.7616    29.5227    36.8924
     42  H    Isotropic =    30.6681   Anisotropy =     8.9441
   XX=    31.2751   YX=    -4.8179   ZX=     0.7973
   XY=    -3.1013   YY=    33.5137   ZY=     2.0095
   XZ=     0.9187   YZ=     1.9129   ZZ=    27.2155
   Eigenvalues:    25.7404    29.6330    36.6308
     43  H    Isotropic =    30.9725   Anisotropy =    10.0376
   XX=    33.9389   YX=    -0.6827   ZX=     5.2760
   XY=    -0.9746   YY=    27.2605   ZY=    -0.2352
   XZ=     4.0444   YZ=     0.1269   ZZ=    31.7181
   Eigenvalues:    27.0022    28.2511    37.6642
     44  C    Isotropic =   170.0350   Anisotropy =    37.8958
   XX=   168.9971   YX=    11.2597   ZX=   -10.1436
   XY=    12.9490   YY=   166.7143   ZY=   -11.6282
   XZ=   -13.6320   YZ=   -15.2431   ZZ=   174.3936
   Eigenvalues:   155.1212   159.6849   195.2988
     45  H    Isotropic =    30.8834   Anisotropy =     9.2553
   XX=    28.7574   YX=     0.4305   ZX=     1.2300
   XY=     0.1616   YY=    27.3705   ZY=    -1.7591
   XZ=     2.0075   YZ=    -1.2433   ZZ=    36.5223
   Eigenvalues:    26.9397    28.6569    37.0536
     46  H    Isotropic =    30.4416   Anisotropy =     7.5302
   XX=    27.3991   YX=     2.2417   ZX=     0.3903
   XY=     1.5493   YY=    34.6287   ZY=    -0.8051
   XZ=    -0.0076   YZ=    -2.3747   ZZ=    29.2970
   Eigenvalues:    26.7891    29.0739    35.4617
     47  H    Isotropic =    30.2534   Anisotropy =     9.9807
   XX=    36.6240   YX=    -0.8504   ZX=    -0.9967
   XY=    -0.1575   YY=    24.9467   ZY=    -1.3789
   XZ=    -1.9219   YZ=    -0.8607   ZZ=    29.1894
   Eigenvalues:    24.6088    29.2441    36.9072
 End of Minotr Frequency-dependent properties file   721 does not exist.
 End of Minotr Frequency-dependent properties file   722 does not exist.

 **********************************************************************

            Population analysis using the SCF density.

 **********************************************************************

 Orbital symmetries:
       Occupied  (A) (A) (A) (A) (A) (A) (A) (A) (A) (A) (A) (A)
                 (A) (A) (A) (A) (A) (A) (A) (A) (A) (A) (A) (A)
                 (A) (A) (A) (A) (A) (A) (A) (A) (A) (A) (A) (A)
                 (A) (A) (A) (A) (A) (A) (A) (A) (A) (A) (A) (A)
                 (A) (A) (A) (A) (A) (A) (A) (A) (A) (A) (A) (A)
                 (A) (A) (A) (A) (A) (A) (A) (A) (A) (A) (A) (A)
                 (A) (A) (A) (A) (A) (A) (A)
       Virtual   (A) (A) (A) (A) (A) (A) (A) (A) (A) (A) (A) (A)
                 (A) (A) (A) (A) (A) (A) (A) (A) (A) (A) (A) (A)
                 (A) (A) (A) (A) (A) (A) (A) (A) (A) (A) (A) (A)
                 (A) (A) (A) (A) (A) (A) (A) (A) (A) (A) (A) (A)
                 (A) (A) (A) (A) (A) (A) (A) (A) (A) (A) (A) (A)
                 (A) (A) (A) (A) (A) (A) (A) (A) (A) (A) (A) (A)
                 (A) (A) (A) (A) (A) (A) (A) (A) (A) (A) (A) (A)
                 (A) (A) (A) (A) (A) (A) (A) (A) (A) (A) (A) (A)
                 (A) (A) (A) (A) (A) (A) (A) (A) (A) (A) (A) (A)
                 (A) (A) (A) (A) (A) (A) (A) (A) (A) (A) (A) (A)
                 (A) (A) (A) (A) (A) (A) (A) (A) (A) (A) (A) (A)
                 (A) (A) (A) (A) (A) (A) (A) (A) (A) (A) (A) (A)
                 (A) (A) (A) (A) (A) (A) (A) (A) (A) (A) (A) (A)
                 (A) (A) (A) (A) (A) (A) (A) (A) (A) (A) (A) (A)
                 (A) (A) (A) (A) (A) (A) (A) (A) (A) (A) (A) (A)
                 (A) (A) (A) (A) (A) (A) (A) (A) (A) (A) (A) (A)
                 (A) (A) (A) (A) (A) (A) (A) (A) (A) (A) (A) (A)
                 (A) (A) (A) (A) (A) (A) (A) (A) (A) (A) (A) (A)
                 (A) (A) (A) (A) (A) (A) (A) (A) (A) (A) (A) (A)
                 (A) (A) (A) (A) (A) (A) (A) (A) (A) (A) (A) (A)
                 (A) (A) (A) (A) (A) (A) (A) (A) (A) (A) (A) (A)
                 (A) (A) (A) (A) (A) (A) (A) (A) (A) (A) (A) (A)
                 (A) (A) (A) (A) (A) (A) (A) (A) (A) (A) (A) (A)
                 (A) (A) (A) (A) (A) (A) (A) (A) (A) (A) (A) (A)
                 (A) (A) (A) (A) (A) (A) (A) (A) (A) (A) (A) (A)
                 (A) (A) (A) (A) (A) (A) (A) (A) (A) (A) (A) (A)
                 (A) (A) (A) (A) (A) (A) (A) (A) (A) (A) (A) (A)
                 (A) (A) (A) (A) (A) (A) (A) (A) (A) (A) (A) (A)
                 (A) (A) (A) (A) (A) (A) (A) (A) (A) (A) (A) (A)
                 (A) (A) (A) (A) (A) (A) (A) (A) (A) (A) (A) (A)
                 (A) (A) (A) (A) (A) (A) (A) (A) (A) (A) (A) (A)
                 (A) (A) (A) (A) (A) (A) (A) (A) (A) (A) (A) (A)
                 (A) (A) (A) (A) (A) (A) (A) (A) (A) (A) (A) (A)
                 (A) (A) (A) (A) (A) (A) (A) (A) (A) (A) (A) (A)
                 (A) (A) (A) (A) (A) (A) (A) (A) (A) (A) (A) (A)
                 (A) (A) (A) (A) (A) (A)
 The electronic state is 1-A.
 Alpha  occ. eigenvalues --  -66.30426 -19.26782 -19.25948 -19.25439 -19.23432
 Alpha  occ. eigenvalues --  -10.31466 -10.30933 -10.30458 -10.30369 -10.30290
 Alpha  occ. eigenvalues --  -10.28331 -10.25407 -10.24807 -10.24666 -10.23656
 Alpha  occ. eigenvalues --  -10.23514 -10.23416 -10.22529 -10.22323  -5.33825
 Alpha  occ. eigenvalues --   -3.67734  -3.67467  -3.67413  -1.11298  -1.07463
 Alpha  occ. eigenvalues --   -1.06128  -1.02997  -0.84545  -0.82274  -0.77947
 Alpha  occ. eigenvalues --   -0.74738  -0.72194  -0.70589  -0.70238  -0.69716
 Alpha  occ. eigenvalues --   -0.69576  -0.68794  -0.64854  -0.62410  -0.57406
 Alpha  occ. eigenvalues --   -0.57221  -0.54031  -0.53745  -0.52800  -0.50252
 Alpha  occ. eigenvalues --   -0.48417  -0.48333  -0.48000  -0.46359  -0.44766
 Alpha  occ. eigenvalues --   -0.44723  -0.44371  -0.43898  -0.43556  -0.42721
 Alpha  occ. eigenvalues --   -0.42582  -0.41460  -0.40926  -0.40251  -0.40173
 Alpha  occ. eigenvalues --   -0.39750  -0.39151  -0.38912  -0.38444  -0.37424
 Alpha  occ. eigenvalues --   -0.37249  -0.36240  -0.35761  -0.35117  -0.33911
 Alpha  occ. eigenvalues --   -0.33479  -0.33191  -0.31602  -0.31091  -0.31015
 Alpha  occ. eigenvalues --   -0.30154  -0.28519  -0.26935  -0.26013
 Alpha virt. eigenvalues --   -0.00215   0.00939   0.01248   0.01465   0.02130
 Alpha virt. eigenvalues --    0.03014   0.03127   0.03744   0.03945   0.04574
 Alpha virt. eigenvalues --    0.04807   0.05410   0.05701   0.06038   0.06418
 Alpha virt. eigenvalues --    0.06788   0.06904   0.07430   0.07772   0.08238
 Alpha virt. eigenvalues --    0.08638   0.08881   0.08968   0.09402   0.09719
 Alpha virt. eigenvalues --    0.09961   0.10345   0.10629   0.10895   0.11152
 Alpha virt. eigenvalues --    0.11668   0.12098   0.12288   0.12487   0.12659
 Alpha virt. eigenvalues --    0.13396   0.13591   0.14111   0.14223   0.14522
 Alpha virt. eigenvalues --    0.15001   0.15325   0.15765   0.15863   0.16145
 Alpha virt. eigenvalues --    0.16575   0.17129   0.17462   0.17909   0.18134
 Alpha virt. eigenvalues --    0.18291   0.19101   0.19201   0.19457   0.19765
 Alpha virt. eigenvalues --    0.20164   0.20470   0.20761   0.21038   0.21247
 Alpha virt. eigenvalues --    0.21779   0.21915   0.22543   0.22668   0.23015
 Alpha virt. eigenvalues --    0.23158   0.23471   0.23944   0.24312   0.24534
 Alpha virt. eigenvalues --    0.24942   0.25244   0.25325   0.25726   0.26356
 Alpha virt. eigenvalues --    0.26732   0.26959   0.27144   0.27480   0.28178
 Alpha virt. eigenvalues --    0.28383   0.28591   0.28788   0.29369   0.29822
 Alpha virt. eigenvalues --    0.29881   0.30387   0.30614   0.31052   0.31421
 Alpha virt. eigenvalues --    0.31806   0.32339   0.32631   0.32873   0.33514
 Alpha virt. eigenvalues --    0.33713   0.34437   0.35340   0.36021   0.36299
 Alpha virt. eigenvalues --    0.36320   0.37467   0.37774   0.38022   0.38703
 Alpha virt. eigenvalues --    0.39208   0.39625   0.39731   0.40952   0.41110
 Alpha virt. eigenvalues --    0.42156   0.42697   0.43853   0.44580   0.45027
 Alpha virt. eigenvalues --    0.45322   0.45876   0.46311   0.47865   0.48817
 Alpha virt. eigenvalues --    0.49522   0.50487   0.52039   0.53767   0.54683
 Alpha virt. eigenvalues --    0.56681   0.57625   0.62311   0.65090   0.65690
 Alpha virt. eigenvalues --    0.67616   0.68179   0.68682   0.70856   0.71160
 Alpha virt. eigenvalues --    0.72386   0.72834   0.73200   0.74428   0.75007
 Alpha virt. eigenvalues --    0.75631   0.76312   0.77877   0.78567   0.79503
 Alpha virt. eigenvalues --    0.79941   0.80664   0.81319   0.81557   0.82741
 Alpha virt. eigenvalues --    0.83929   0.84189   0.84807   0.84974   0.85424
 Alpha virt. eigenvalues --    0.86069   0.87357   0.88660   0.88876   0.89509
 Alpha virt. eigenvalues --    0.90410   0.91793   0.92140   0.92800   0.93279
 Alpha virt. eigenvalues --    0.94252   0.94939   0.95837   0.97595   0.98535
 Alpha virt. eigenvalues --    0.99151   0.99690   1.00390   1.01680   1.02790
 Alpha virt. eigenvalues --    1.03159   1.03803   1.04453   1.04884   1.05428
 Alpha virt. eigenvalues --    1.05653   1.06214   1.07139   1.07486   1.08461
 Alpha virt. eigenvalues --    1.09642   1.09865   1.10688   1.10878   1.12732
 Alpha virt. eigenvalues --    1.12771   1.13360   1.15078   1.15943   1.16968
 Alpha virt. eigenvalues --    1.18434   1.18726   1.19426   1.20602   1.21516
 Alpha virt. eigenvalues --    1.22662   1.23028   1.24450   1.25894   1.27340
 Alpha virt. eigenvalues --    1.29009   1.29147   1.31227   1.31602   1.31867
 Alpha virt. eigenvalues --    1.32873   1.34921   1.35622   1.36603   1.38041
 Alpha virt. eigenvalues --    1.38881   1.40134   1.41377   1.42809   1.43891
 Alpha virt. eigenvalues --    1.45459   1.45920   1.47193   1.47743   1.49529
 Alpha virt. eigenvalues --    1.49655   1.50925   1.51771   1.52885   1.53686
 Alpha virt. eigenvalues --    1.57371   1.58079   1.59687   1.61229   1.62571
 Alpha virt. eigenvalues --    1.64385   1.65094   1.66872   1.68138   1.69885
 Alpha virt. eigenvalues --    1.70288   1.71704   1.73011   1.74966   1.76853
 Alpha virt. eigenvalues --    1.77337   1.78636   1.79672   1.80489   1.81859
 Alpha virt. eigenvalues --    1.83837   1.84950   1.85368   1.86252   1.87139
 Alpha virt. eigenvalues --    1.88866   1.89763   1.90868   1.91973   1.93192
 Alpha virt. eigenvalues --    1.94249   1.94442   1.95215   1.95869   1.97341
 Alpha virt. eigenvalues --    1.97814   1.97961   1.98815   1.99248   2.00434
 Alpha virt. eigenvalues --    2.02767   2.03757   2.06037   2.06172   2.06547
 Alpha virt. eigenvalues --    2.06962   2.07083   2.08184   2.08758   2.09525
 Alpha virt. eigenvalues --    2.10732   2.10945   2.12361   2.12649   2.13215
 Alpha virt. eigenvalues --    2.13798   2.14307   2.14580   2.14728   2.15628
 Alpha virt. eigenvalues --    2.16183   2.16545   2.17326   2.17931   2.18493
 Alpha virt. eigenvalues --    2.18779   2.19722   2.20229   2.21081   2.21802
 Alpha virt. eigenvalues --    2.22057   2.22898   2.24597   2.25735   2.27688
 Alpha virt. eigenvalues --    2.28260   2.29036   2.29730   2.30333   2.34716
 Alpha virt. eigenvalues --    2.35916   2.36066   2.37296   2.38244   2.38507
 Alpha virt. eigenvalues --    2.38801   2.41502   2.42060   2.43381   2.44239
 Alpha virt. eigenvalues --    2.45079   2.45984   2.49100   2.49734   2.53444
 Alpha virt. eigenvalues --    2.55215   2.56309   2.57192   2.57769   2.59010
 Alpha virt. eigenvalues --    2.59826   2.62171   2.62889   2.64691   2.65837
 Alpha virt. eigenvalues --    2.67071   2.67592   2.68146   2.69011   2.71027
 Alpha virt. eigenvalues --    2.71853   2.72729   2.73183   2.74123   2.74616
 Alpha virt. eigenvalues --    2.76259   2.76754   2.77546   2.78246   2.78814
 Alpha virt. eigenvalues --    2.81146   2.81914   2.83687   2.84669   2.85023
 Alpha virt. eigenvalues --    2.85875   2.86136   2.86603   2.87990   2.88186
 Alpha virt. eigenvalues --    2.88905   2.89086   2.89331   2.90239   2.91237
 Alpha virt. eigenvalues --    2.91754   2.93428   2.94440   2.97863   2.97997
 Alpha virt. eigenvalues --    2.98453   2.98850   3.00844   3.03807   3.05120
 Alpha virt. eigenvalues --    3.11838   3.15419   3.18185   3.24508   3.27504
 Alpha virt. eigenvalues --    3.27871   3.28159   3.30553   3.31855   3.32043
 Alpha virt. eigenvalues --    3.32899   3.38108   3.39189   3.40355   3.47523
 Alpha virt. eigenvalues --    3.47912   3.48056   3.48682   3.49319   3.49446
 Alpha virt. eigenvalues --    3.49763   3.50343   3.50746   3.51188   3.51721
 Alpha virt. eigenvalues --    3.52126   3.53150   3.55589   3.56340   3.57169
 Alpha virt. eigenvalues --    3.57303   3.61224   3.63518   4.37856   4.42741
 Alpha virt. eigenvalues --    4.46563   4.48642   4.51393   4.54909   4.59209
 Alpha virt. eigenvalues --    4.60790   4.63695   4.64671   4.66201   4.70019
 Alpha virt. eigenvalues --    4.72036   4.72984   4.77445   4.86727   4.93383
 Alpha virt. eigenvalues --    5.05309
          Condensed to atoms (all electrons):
              1          2          3          4          5          6
     1  H    0.586239   0.285580  -0.025911   0.024731   0.028107   0.045373
     2  C    0.285580  12.355617   0.902330   0.151133  -0.398847  -4.291755
     3  C   -0.025911   0.902330   8.950150  -1.348338  -0.774682  -0.656943
     4  C    0.024731   0.151133  -1.348338  10.776488  -2.240516  -1.918021
     5  C    0.028107  -0.398847  -0.774682  -2.240516  13.202071  -0.356916
     6  C    0.045373  -4.291755  -0.656943  -1.918021  -0.356916  13.056368
     7  C   -0.078938  -1.270275  -0.121763   0.218557  -1.137800  -1.236614
     8  H   -0.000024   0.048720   0.383943   0.036086  -0.143641   0.002054
     9  H   -0.000154  -0.000805  -0.012706   0.158771   0.022635   0.080206
    10  H   -0.001661   0.069709  -0.016513   0.099624   0.033855   0.117573
    11  H   -0.005372  -0.036121   0.043528  -0.015270   0.030103   0.063840
    12  H    0.002853  -0.006006   0.412828  -0.020522   0.072282  -0.011499
    13  H    0.004841  -0.123031  -0.067001  -0.007156   0.064478  -0.015029
    14  C   -0.004479  -0.407615  -0.654430   0.014603  -2.164998   0.737824
    15  H   -0.000001  -0.005521  -0.032784   0.080187  -0.181904   0.007604
    16  H   -0.000002  -0.002830   0.051776  -0.025971  -0.098176   0.006709
    17  O   -0.000572  -0.063810  -0.190790  -0.057220   0.097039   0.090656
    18  O   -0.001521  -0.006984  -0.132669   0.023435   0.192242  -0.007755
    19  H   -0.000002  -0.036605  -0.055701   0.139808  -0.107803   0.048964
    20  O    0.010504  -0.158451  -0.098931  -0.056989   0.129130   0.312541
    21  C    0.002756  -0.177497  -0.068259   0.026364  -0.057145  -0.058778
    22  H   -0.000175   0.011668   0.000447  -0.004950   0.005511  -0.002575
    23  H    0.000032   0.012888  -0.001139   0.012129  -0.008832  -0.031550
    24  H    0.000008  -0.004001   0.000910  -0.001745  -0.003989   0.017509
    25  O   -0.064500   0.133916  -0.033844   0.064703   0.006104  -0.095980
    26  Si   0.047145  -0.687003  -0.164494  -0.195541   0.122106   0.413643
    27  C   -0.008948   0.057903   0.044005   0.032640  -0.030111  -0.096341
    28  H   -0.000013   0.006523   0.000098   0.000046  -0.000185  -0.001043
    29  H   -0.000046  -0.028569   0.001868   0.000324  -0.000339   0.002095
    30  H    0.000570  -0.019253   0.001673   0.001335  -0.000929  -0.004088
    31  C   -0.013026   0.013492  -0.022506  -0.008377   0.025247  -0.057057
    32  C    0.000983  -0.054542  -0.003450   0.006357  -0.000042  -0.041747
    33  H    0.000002   0.006131   0.000016   0.000003  -0.000017  -0.000028
    34  H   -0.000003  -0.000240  -0.000041  -0.000179   0.000089   0.002456
    35  H   -0.000004  -0.014763   0.000399   0.000104  -0.000057   0.000813
    36  C   -0.002442   0.119427   0.016604  -0.020914  -0.010245   0.043076
    37  H    0.000000  -0.005904  -0.000002   0.000435  -0.000008   0.004285
    38  H    0.000002   0.001396   0.000050   0.000538   0.000015   0.000781
    39  H    0.000036   0.002797  -0.000332  -0.003192  -0.000122  -0.011209
    40  C    0.000813  -0.008423  -0.008751   0.012976   0.000568  -0.060541
    41  H    0.000000   0.000038  -0.000002   0.000005  -0.000004  -0.000039
    42  H    0.000000   0.000780  -0.000010   0.000075  -0.000011  -0.000557
    43  H    0.000001  -0.000698   0.000021   0.000045  -0.000001   0.000249
    44  C    0.003338  -0.036904   0.027839   0.080746  -0.037726  -0.016513
    45  H    0.000049  -0.003994   0.000203   0.000354   0.000120   0.006950
    46  H   -0.000051   0.008010  -0.000156  -0.000321   0.000285  -0.004083
    47  H    0.001815   0.000500  -0.000937   0.000062  -0.000889  -0.014879
              7          8          9         10         11         12
     1  H   -0.078938  -0.000024  -0.000154  -0.001661  -0.005372   0.002853
     2  C   -1.270275   0.048720  -0.000805   0.069709  -0.036121  -0.006006
     3  C   -0.121763   0.383943  -0.012706  -0.016513   0.043528   0.412828
     4  C    0.218557   0.036086   0.158771   0.099624  -0.015270  -0.020522
     5  C   -1.137800  -0.143641   0.022635   0.033855   0.030103   0.072282
     6  C   -1.236614   0.002054   0.080206   0.117573   0.063840  -0.011499
     7  C    8.723298  -0.033648  -0.011044  -0.011711   0.267130  -0.075694
     8  H   -0.033648   0.529628  -0.000088   0.000012  -0.002573  -0.026599
     9  H   -0.011044  -0.000088   0.578077  -0.007199   0.000012  -0.000205
    10  H   -0.011711   0.000012  -0.007199   0.591936  -0.000146  -0.000030
    11  H    0.267130  -0.002573   0.000012  -0.000146   0.542606  -0.004215
    12  H   -0.075694  -0.026599  -0.000205  -0.000030  -0.004215   0.513999
    13  H    0.457066  -0.003701  -0.000093   0.000004  -0.026843   0.004143
    14  C    0.309557   0.028783   0.073383  -0.006880  -0.006235  -0.036180
    15  H    0.008499   0.000181   0.002136  -0.000013   0.000000  -0.000133
    16  H    0.016196   0.001313   0.000143  -0.000001  -0.000007   0.000033
    17  O    0.099597   0.008036   0.002419  -0.000546  -0.000420  -0.014540
    18  O   -0.036958  -0.000243  -0.040732   0.001839   0.000373   0.001677
    19  H    0.010319  -0.000014  -0.006048   0.000055  -0.000007   0.000467
    20  O   -0.046321   0.001039  -0.004419  -0.045425  -0.001008   0.000253
    21  C    0.058252  -0.000102   0.002476  -0.005447  -0.000382   0.000447
    22  H    0.018150   0.000000   0.000001  -0.001845  -0.000006   0.000000
    23  H   -0.010431   0.000000  -0.000022   0.010463   0.000001   0.000000
    24  H   -0.002783   0.000000  -0.000026   0.000107  -0.000001   0.000000
    25  O   -0.035552  -0.000639  -0.000698   0.005699  -0.001776   0.000146
    26  Si  -0.119034  -0.000003   0.003217   0.012620  -0.015535  -0.002042
    27  C    0.015754   0.000059  -0.000060  -0.000507   0.002642  -0.000257
    28  H   -0.000345   0.000000   0.000000   0.000000   0.000037   0.000000
    29  H    0.020098  -0.000001   0.000000   0.000000   0.000074  -0.000003
    30  H    0.012658   0.000000   0.000000   0.000002  -0.000133  -0.000008
    31  C    0.012191   0.000046  -0.000019   0.014536   0.001761   0.000725
    32  C    0.045662  -0.000016  -0.000052  -0.000369  -0.000944   0.000062
    33  H   -0.001644   0.000000   0.000000   0.000000   0.000000   0.000000
    34  H   -0.000419   0.000000   0.000000   0.000001   0.000001   0.000000
    35  H    0.007591   0.000000   0.000000   0.000000  -0.000006   0.000000
    36  C    0.009957  -0.000004  -0.000192  -0.012797   0.000435  -0.000098
    37  H   -0.000237   0.000000   0.000000   0.000000   0.000000   0.000000
    38  H    0.000865   0.000000   0.000000  -0.000014   0.000000   0.000000
    39  H   -0.002126   0.000000   0.000000   0.001419   0.000000   0.000000
    40  C    0.000026   0.000009  -0.000041   0.003082  -0.000582   0.000072
    41  H   -0.000116   0.000000   0.000000   0.000000   0.000000   0.000000
    42  H   -0.000188   0.000000   0.000000   0.000000   0.000000   0.000000
    43  H    0.000213   0.000000   0.000000   0.000000   0.000000   0.000000
    44  C    0.006230   0.000030  -0.000496   0.002931  -0.001639  -0.000545
    45  H    0.000335   0.000000   0.000000  -0.000035   0.000000   0.000000
    46  H    0.002374   0.000000   0.000000   0.000001   0.000001   0.000000
    47  H   -0.004336   0.000000  -0.000004   0.002132  -0.000002   0.000003
             13         14         15         16         17         18
     1  H    0.004841  -0.004479  -0.000001  -0.000002  -0.000572  -0.001521
     2  C   -0.123031  -0.407615  -0.005521  -0.002830  -0.063810  -0.006984
     3  C   -0.067001  -0.654430  -0.032784   0.051776  -0.190790  -0.132669
     4  C   -0.007156   0.014603   0.080187  -0.025971  -0.057220   0.023435
     5  C    0.064478  -2.164998  -0.181904  -0.098176   0.097039   0.192242
     6  C   -0.015029   0.737824   0.007604   0.006709   0.090656  -0.007755
     7  C    0.457066   0.309557   0.008499   0.016196   0.099597  -0.036958
     8  H   -0.003701   0.028783   0.000181   0.001313   0.008036  -0.000243
     9  H   -0.000093   0.073383   0.002136   0.000143   0.002419  -0.040732
    10  H    0.000004  -0.006880  -0.000013  -0.000001  -0.000546   0.001839
    11  H   -0.026843  -0.006235   0.000000  -0.000007  -0.000420   0.000373
    12  H    0.004143  -0.036180  -0.000133   0.000033  -0.014540   0.001677
    13  H    0.511048  -0.005390  -0.000063  -0.000074  -0.001146   0.000264
    14  C   -0.005390   7.048668   0.473485   0.421944   0.130338   0.027961
    15  H   -0.000063   0.473485   0.529861  -0.033682  -0.026133   0.000959
    16  H   -0.000074   0.421944  -0.033682   0.522993  -0.031638  -0.000562
    17  O   -0.001146   0.130338  -0.026133  -0.031638   8.327349  -0.025690
    18  O    0.000264   0.027961   0.000959  -0.000562  -0.025690   8.274597
    19  H    0.000004   0.023821  -0.000019   0.000009   0.015366   0.198221
    20  O    0.009568  -0.003204   0.003220  -0.000639  -0.001283   0.019858
    21  C    0.007760   0.016726   0.001199   0.000210   0.000780   0.000146
    22  H   -0.000065   0.002171   0.000000   0.000000   0.000000   0.000111
    23  H   -0.000008  -0.000615   0.000001   0.000000   0.000009  -0.000274
    24  H    0.000027  -0.000792   0.000004  -0.000001   0.000005   0.000046
    25  O    0.003983   0.003790   0.000028  -0.000017   0.000160  -0.000374
    26  Si  -0.000119   0.023043   0.000211   0.000207   0.001290   0.021668
    27  C   -0.000846  -0.002811  -0.000003  -0.000004  -0.000115  -0.003005
    28  H    0.000000  -0.000003   0.000000   0.000000   0.000000   0.000002
    29  H   -0.000001   0.000005   0.000000   0.000000   0.000000  -0.000008
    30  H    0.000005   0.000005   0.000000   0.000000   0.000000  -0.000114
    31  C    0.000039  -0.000483  -0.000013  -0.000002  -0.000215  -0.000827
    32  C    0.001317  -0.000233  -0.000001  -0.000002  -0.000011  -0.000285
    33  H    0.000000   0.000000   0.000000   0.000000   0.000000   0.000000
    34  H   -0.000001  -0.000001   0.000000   0.000000   0.000000   0.000000
    35  H   -0.000010   0.000009   0.000000   0.000000   0.000000   0.000000
    36  C   -0.000320   0.000044  -0.000002   0.000000   0.000044  -0.002575
    37  H    0.000000   0.000000   0.000000   0.000000   0.000000   0.000001
    38  H    0.000000   0.000002   0.000000   0.000000   0.000000  -0.000010
    39  H    0.000000  -0.000007   0.000000   0.000000   0.000000  -0.000004
    40  C    0.000087  -0.000141   0.000000   0.000000  -0.000009  -0.000193
    41  H    0.000000   0.000000   0.000000   0.000000   0.000000   0.000000
    42  H    0.000000   0.000000   0.000000   0.000000   0.000000   0.000001
    43  H    0.000000   0.000000   0.000000   0.000000   0.000000  -0.000001
    44  C   -0.000366  -0.001921   0.000009  -0.000003   0.000089  -0.002209
    45  H    0.000000   0.000002   0.000000   0.000000   0.000000  -0.000107
    46  H    0.000000  -0.000013   0.000000   0.000000   0.000000  -0.000009
    47  H    0.000001  -0.000111   0.000000   0.000000  -0.000001   0.002314
             19         20         21         22         23         24
     1  H   -0.000002   0.010504   0.002756  -0.000175   0.000032   0.000008
     2  C   -0.036605  -0.158451  -0.177497   0.011668   0.012888  -0.004001
     3  C   -0.055701  -0.098931  -0.068259   0.000447  -0.001139   0.000910
     4  C    0.139808  -0.056989   0.026364  -0.004950   0.012129  -0.001745
     5  C   -0.107803   0.129130  -0.057145   0.005511  -0.008832  -0.003989
     6  C    0.048964   0.312541  -0.058778  -0.002575  -0.031550   0.017509
     7  C    0.010319  -0.046321   0.058252   0.018150  -0.010431  -0.002783
     8  H   -0.000014   0.001039  -0.000102   0.000000   0.000000   0.000000
     9  H   -0.006048  -0.004419   0.002476   0.000001  -0.000022  -0.000026
    10  H    0.000055  -0.045425  -0.005447  -0.001845   0.010463   0.000107
    11  H   -0.000007  -0.001008  -0.000382  -0.000006   0.000001  -0.000001
    12  H    0.000467   0.000253   0.000447   0.000000   0.000000   0.000000
    13  H    0.000004   0.009568   0.007760  -0.000065  -0.000008   0.000027
    14  C    0.023821  -0.003204   0.016726   0.002171  -0.000615  -0.000792
    15  H   -0.000019   0.003220   0.001199   0.000000   0.000001   0.000004
    16  H    0.000009  -0.000639   0.000210   0.000000   0.000000  -0.000001
    17  O    0.015366  -0.001283   0.000780   0.000000   0.000009   0.000005
    18  O    0.198221   0.019858   0.000146   0.000111  -0.000274   0.000046
    19  H    0.385685  -0.000625  -0.000366   0.000000   0.000001   0.000000
    20  O   -0.000625   8.283858   0.000452  -0.052782  -0.050679  -0.077300
    21  C   -0.000366   0.000452   5.134148   0.395868   0.413666   0.432927
    22  H    0.000000  -0.052782   0.395868   0.545994  -0.042452  -0.031348
    23  H    0.000001  -0.050679   0.413666  -0.042452   0.574487  -0.026582
    24  H    0.000000  -0.077300   0.432927  -0.031348  -0.026582   0.536476
    25  O    0.000207   0.038847  -0.005848  -0.020776   0.001988   0.002334
    26  Si  -0.002266   0.004257  -0.002536   0.008337   0.006341  -0.003532
    27  C    0.000002  -0.001948  -0.000130   0.000223  -0.000120   0.000010
    28  H    0.000000   0.000004   0.000007   0.000000   0.000000   0.000000
    29  H    0.000000  -0.000023  -0.000014   0.000001   0.000000   0.000000
    30  H    0.000000  -0.000006  -0.000053   0.000000   0.000000   0.000000
    31  C    0.000289   0.001384  -0.009314  -0.006466   0.001628   0.000533
    32  C    0.000014   0.001751   0.005842  -0.000766  -0.000790   0.000340
    33  H    0.000000   0.000004   0.000020   0.000000   0.000000   0.000000
    34  H    0.000000  -0.000015  -0.000102   0.000105   0.000000   0.000000
    35  H    0.000000  -0.000044   0.000104  -0.000005   0.000000   0.000000
    36  C    0.000076  -0.001120   0.007034   0.003149  -0.002715  -0.000036
    37  H    0.000000  -0.000028  -0.000162  -0.000015  -0.000005   0.000000
    38  H    0.000000  -0.000018  -0.000096   0.000001  -0.000001   0.000000
    39  H    0.000000   0.000414   0.000797  -0.000124   0.000562   0.000004
    40  C    0.000036   0.000001   0.000390  -0.000778   0.000261   0.000028
    41  H    0.000000   0.000000   0.000031   0.000000   0.000000   0.000000
    42  H    0.000000   0.000000   0.000000   0.000000   0.000000   0.000000
    43  H    0.000000   0.000000  -0.000015   0.000000   0.000000   0.000000
    44  C   -0.000021  -0.000530  -0.005951  -0.000628   0.000782   0.000023
    45  H    0.000000  -0.000011   0.000025   0.000000   0.000000   0.000000
    46  H    0.000000   0.000004   0.000066   0.000000   0.000000   0.000000
    47  H   -0.000020   0.000311  -0.000194  -0.000004   0.000010   0.000000
             25         26         27         28         29         30
     1  H   -0.064500   0.047145  -0.008948  -0.000013  -0.000046   0.000570
     2  C    0.133916  -0.687003   0.057903   0.006523  -0.028569  -0.019253
     3  C   -0.033844  -0.164494   0.044005   0.000098   0.001868   0.001673
     4  C    0.064703  -0.195541   0.032640   0.000046   0.000324   0.001335
     5  C    0.006104   0.122106  -0.030111  -0.000185  -0.000339  -0.000929
     6  C   -0.095980   0.413643  -0.096341  -0.001043   0.002095  -0.004088
     7  C   -0.035552  -0.119034   0.015754  -0.000345   0.020098   0.012658
     8  H   -0.000639  -0.000003   0.000059   0.000000  -0.000001   0.000000
     9  H   -0.000698   0.003217  -0.000060   0.000000   0.000000   0.000000
    10  H    0.005699   0.012620  -0.000507   0.000000   0.000000   0.000002
    11  H   -0.001776  -0.015535   0.002642   0.000037   0.000074  -0.000133
    12  H    0.000146  -0.002042  -0.000257   0.000000  -0.000003  -0.000008
    13  H    0.003983  -0.000119  -0.000846   0.000000  -0.000001   0.000005
    14  C    0.003790   0.023043  -0.002811  -0.000003   0.000005   0.000005
    15  H    0.000028   0.000211  -0.000003   0.000000   0.000000   0.000000
    16  H   -0.000017   0.000207  -0.000004   0.000000   0.000000   0.000000
    17  O    0.000160   0.001290  -0.000115   0.000000   0.000000   0.000000
    18  O   -0.000374   0.021668  -0.003005   0.000002  -0.000008  -0.000114
    19  H    0.000207  -0.002266   0.000002   0.000000   0.000000   0.000000
    20  O    0.038847   0.004257  -0.001948   0.000004  -0.000023  -0.000006
    21  C   -0.005848  -0.002536  -0.000130   0.000007  -0.000014  -0.000053
    22  H   -0.020776   0.008337   0.000223   0.000000   0.000001   0.000000
    23  H    0.001988   0.006341  -0.000120   0.000000   0.000000   0.000000
    24  H    0.002334  -0.003532   0.000010   0.000000   0.000000   0.000000
    25  O    8.364897   0.019053  -0.068965   0.009543  -0.001948  -0.004817
    26  Si   0.019053  13.677655   0.201998  -0.041694  -0.039322  -0.018435
    27  C   -0.068965   0.201998   5.463513   0.401761   0.396954   0.400774
    28  H    0.009543  -0.041694   0.401761   0.487734  -0.020622  -0.022315
    29  H   -0.001948  -0.039322   0.396954  -0.020622   0.494192  -0.022897
    30  H   -0.004817  -0.018435   0.400774  -0.022315  -0.022897   0.493256
    31  C   -0.014040   0.411842  -0.143017  -0.016745   0.021339  -0.030013
    32  C   -0.064316   0.282214  -0.005580  -0.004814  -0.008254   0.007060
    33  H    0.009995  -0.038565  -0.005969   0.000085   0.000103   0.000009
    34  H   -0.006109  -0.023358   0.006518   0.000013   0.000005  -0.000016
    35  H   -0.003891  -0.019763  -0.009316   0.000113   0.000410   0.000012
    36  C   -0.001925  -0.434333   0.012523   0.003119  -0.000963  -0.005027
    37  H   -0.002426   0.006797  -0.000347   0.000001  -0.000001   0.000000
    38  H   -0.000922   0.001327  -0.000792   0.000000   0.000000   0.000000
    39  H    0.012120   0.000332  -0.001024   0.000000  -0.000001   0.000002
    40  C    0.021327  -0.004754   0.017432   0.002360  -0.000339   0.004100
    41  H    0.000163  -0.008319  -0.000334  -0.000004  -0.000008   0.000009
    42  H    0.000493  -0.011225   0.003731   0.000539  -0.000010   0.000027
    43  H   -0.000621   0.006548   0.001302   0.000017   0.000000  -0.000004
    44  C   -0.019002  -0.160674   0.019969   0.006527  -0.001395   0.019064
    45  H   -0.000740   0.001775   0.001333   0.000000   0.000000  -0.000002
    46  H   -0.001774  -0.021156   0.006994   0.000076   0.000009   0.000018
    47  H    0.010370   0.016310  -0.004978   0.000013  -0.000006   0.000016
             31         32         33         34         35         36
     1  H   -0.013026   0.000983   0.000002  -0.000003  -0.000004  -0.002442
     2  C    0.013492  -0.054542   0.006131  -0.000240  -0.014763   0.119427
     3  C   -0.022506  -0.003450   0.000016  -0.000041   0.000399   0.016604
     4  C   -0.008377   0.006357   0.000003  -0.000179   0.000104  -0.020914
     5  C    0.025247  -0.000042  -0.000017   0.000089  -0.000057  -0.010245
     6  C   -0.057057  -0.041747  -0.000028   0.002456   0.000813   0.043076
     7  C    0.012191   0.045662  -0.001644  -0.000419   0.007591   0.009957
     8  H    0.000046  -0.000016   0.000000   0.000000   0.000000  -0.000004
     9  H   -0.000019  -0.000052   0.000000   0.000000   0.000000  -0.000192
    10  H    0.014536  -0.000369   0.000000   0.000001   0.000000  -0.012797
    11  H    0.001761  -0.000944   0.000000   0.000001  -0.000006   0.000435
    12  H    0.000725   0.000062   0.000000   0.000000   0.000000  -0.000098
    13  H    0.000039   0.001317   0.000000  -0.000001  -0.000010  -0.000320
    14  C   -0.000483  -0.000233   0.000000  -0.000001   0.000009   0.000044
    15  H   -0.000013  -0.000001   0.000000   0.000000   0.000000  -0.000002
    16  H   -0.000002  -0.000002   0.000000   0.000000   0.000000   0.000000
    17  O   -0.000215  -0.000011   0.000000   0.000000   0.000000   0.000044
    18  O   -0.000827  -0.000285   0.000000   0.000000   0.000000  -0.002575
    19  H    0.000289   0.000014   0.000000   0.000000   0.000000   0.000076
    20  O    0.001384   0.001751   0.000004  -0.000015  -0.000044  -0.001120
    21  C   -0.009314   0.005842   0.000020  -0.000102   0.000104   0.007034
    22  H   -0.006466  -0.000766   0.000000   0.000105  -0.000005   0.003149
    23  H    0.001628  -0.000790   0.000000   0.000000   0.000000  -0.002715
    24  H    0.000533   0.000340   0.000000   0.000000   0.000000  -0.000036
    25  O   -0.014040  -0.064316   0.009995  -0.006109  -0.003891  -0.001925
    26  Si   0.411842   0.282214  -0.038565  -0.023358  -0.019763  -0.434333
    27  C   -0.143017  -0.005580  -0.005969   0.006518  -0.009316   0.012523
    28  H   -0.016745  -0.004814   0.000085   0.000013   0.000113   0.003119
    29  H    0.021339  -0.008254   0.000103   0.000005   0.000410  -0.000963
    30  H   -0.030013   0.007060   0.000009  -0.000016   0.000012  -0.005027
    31  C    8.341114  -0.174151  -0.019984  -0.024675   0.017166  -0.380342
    32  C   -0.174151   5.449939   0.400422   0.397231   0.390603  -0.033491
    33  H   -0.019984   0.400422   0.491009  -0.021797  -0.020910   0.008282
    34  H   -0.024675   0.397231  -0.021797   0.488363  -0.022296   0.021435
    35  H    0.017166   0.390603  -0.020910  -0.022296   0.488137   0.000205
    36  C   -0.380342  -0.033491   0.008282   0.021435   0.000205   6.162749
    37  H   -0.059430  -0.000591   0.000062   0.000107   0.000001   0.410764
    38  H   -0.148505   0.001246  -0.000001  -0.000007   0.000000   0.480016
    39  H   -0.093779  -0.000354   0.000006   0.000054  -0.000005   0.447457
    40  C   -0.557661   0.079459   0.005704  -0.001016  -0.000979  -0.227291
    41  H   -0.093121   0.004278   0.000244   0.000037   0.000003  -0.019043
    42  H   -0.096277  -0.000560  -0.000005   0.000015  -0.000006   0.006179
    43  H   -0.136952   0.000375   0.000026  -0.000008   0.000000   0.013668
    44  C   -0.415876   0.007671   0.000318  -0.003129  -0.001464  -0.075985
    45  H   -0.147087  -0.001274   0.000000   0.000000   0.000000   0.027515
    46  H   -0.060205  -0.000020   0.000001   0.000000  -0.000001   0.007182
    47  H   -0.097190  -0.000302   0.000000   0.000001  -0.000001  -0.009463
             37         38         39         40         41         42
     1  H    0.000000   0.000002   0.000036   0.000813   0.000000   0.000000
     2  C   -0.005904   0.001396   0.002797  -0.008423   0.000038   0.000780
     3  C   -0.000002   0.000050  -0.000332  -0.008751  -0.000002  -0.000010
     4  C    0.000435   0.000538  -0.003192   0.012976   0.000005   0.000075
     5  C   -0.000008   0.000015  -0.000122   0.000568  -0.000004  -0.000011
     6  C    0.004285   0.000781  -0.011209  -0.060541  -0.000039  -0.000557
     7  C   -0.000237   0.000865  -0.002126   0.000026  -0.000116  -0.000188
     8  H    0.000000   0.000000   0.000000   0.000009   0.000000   0.000000
     9  H    0.000000   0.000000   0.000000  -0.000041   0.000000   0.000000
    10  H    0.000000  -0.000014   0.001419   0.003082   0.000000   0.000000
    11  H    0.000000   0.000000   0.000000  -0.000582   0.000000   0.000000
    12  H    0.000000   0.000000   0.000000   0.000072   0.000000   0.000000
    13  H    0.000000   0.000000   0.000000   0.000087   0.000000   0.000000
    14  C    0.000000   0.000002  -0.000007  -0.000141   0.000000   0.000000
    15  H    0.000000   0.000000   0.000000   0.000000   0.000000   0.000000
    16  H    0.000000   0.000000   0.000000   0.000000   0.000000   0.000000
    17  O    0.000000   0.000000   0.000000  -0.000009   0.000000   0.000000
    18  O    0.000001  -0.000010  -0.000004  -0.000193   0.000000   0.000001
    19  H    0.000000   0.000000   0.000000   0.000036   0.000000   0.000000
    20  O   -0.000028  -0.000018   0.000414   0.000001   0.000000   0.000000
    21  C   -0.000162  -0.000096   0.000797   0.000390   0.000031   0.000000
    22  H   -0.000015   0.000001  -0.000124  -0.000778   0.000000   0.000000
    23  H   -0.000005  -0.000001   0.000562   0.000261   0.000000   0.000000
    24  H    0.000000   0.000000   0.000004   0.000028   0.000000   0.000000
    25  O   -0.002426  -0.000922   0.012120   0.021327   0.000163   0.000493
    26  Si   0.006797   0.001327   0.000332  -0.004754  -0.008319  -0.011225
    27  C   -0.000347  -0.000792  -0.001024   0.017432  -0.000334   0.003731
    28  H    0.000001   0.000000   0.000000   0.002360  -0.000004   0.000539
    29  H   -0.000001   0.000000  -0.000001  -0.000339  -0.000008  -0.000010
    30  H    0.000000   0.000000   0.000002   0.004100   0.000009   0.000027
    31  C   -0.059430  -0.148505  -0.093779  -0.557661  -0.093121  -0.096277
    32  C   -0.000591   0.001246  -0.000354   0.079459   0.004278  -0.000560
    33  H    0.000062  -0.000001   0.000006   0.005704   0.000244  -0.000005
    34  H    0.000107  -0.000007   0.000054  -0.001016   0.000037   0.000015
    35  H    0.000001   0.000000  -0.000005  -0.000979   0.000003  -0.000006
    36  C    0.410764   0.480016   0.447457  -0.227291  -0.019043   0.006179
    37  H    0.533986  -0.027884  -0.026751  -0.008546   0.002708   0.000033
    38  H   -0.027884   0.541260  -0.027836  -0.003233  -0.000278  -0.000007
    39  H   -0.026751  -0.027836   0.531474   0.006631   0.000047  -0.000148
    40  C   -0.008546  -0.003233   0.006631   6.060402   0.459304   0.464558
    41  H    0.002708  -0.000278   0.000047   0.459304   0.531914  -0.027217
    42  H    0.000033  -0.000007  -0.000148   0.464558  -0.027217   0.534262
    43  H   -0.000304   0.005229   0.000010   0.442323  -0.027579  -0.027797
    44  C    0.008372   0.008374  -0.011438  -0.157531   0.009265  -0.015624
    45  H    0.000017   0.005453  -0.000284  -0.013300   0.000010  -0.000344
    46  H   -0.000152   0.000040   0.000020  -0.012268   0.000020   0.002658
    47  H    0.000049  -0.000503   0.003072   0.006957  -0.000146   0.000045
             43         44         45         46         47
     1  H    0.000001   0.003338   0.000049  -0.000051   0.001815
     2  C   -0.000698  -0.036904  -0.003994   0.008010   0.000500
     3  C    0.000021   0.027839   0.000203  -0.000156  -0.000937
     4  C    0.000045   0.080746   0.000354  -0.000321   0.000062
     5  C   -0.000001  -0.037726   0.000120   0.000285  -0.000889
     6  C    0.000249  -0.016513   0.006950  -0.004083  -0.014879
     7  C    0.000213   0.006230   0.000335   0.002374  -0.004336
     8  H    0.000000   0.000030   0.000000   0.000000   0.000000
     9  H    0.000000  -0.000496   0.000000   0.000000  -0.000004
    10  H    0.000000   0.002931  -0.000035   0.000001   0.002132
    11  H    0.000000  -0.001639   0.000000   0.000001  -0.000002
    12  H    0.000000  -0.000545   0.000000   0.000000   0.000003
    13  H    0.000000  -0.000366   0.000000   0.000000   0.000001
    14  C    0.000000  -0.001921   0.000002  -0.000013  -0.000111
    15  H    0.000000   0.000009   0.000000   0.000000   0.000000
    16  H    0.000000  -0.000003   0.000000   0.000000   0.000000
    17  O    0.000000   0.000089   0.000000   0.000000  -0.000001
    18  O   -0.000001  -0.002209  -0.000107  -0.000009   0.002314
    19  H    0.000000  -0.000021   0.000000   0.000000  -0.000020
    20  O    0.000000  -0.000530  -0.000011   0.000004   0.000311
    21  C   -0.000015  -0.005951   0.000025   0.000066  -0.000194
    22  H    0.000000  -0.000628   0.000000   0.000000  -0.000004
    23  H    0.000000   0.000782   0.000000   0.000000   0.000010
    24  H    0.000000   0.000023   0.000000   0.000000   0.000000
    25  O   -0.000621  -0.019002  -0.000740  -0.001774   0.010370
    26  Si   0.006548  -0.160674   0.001775  -0.021156   0.016310
    27  C    0.001302   0.019969   0.001333   0.006994  -0.004978
    28  H    0.000017   0.006527   0.000000   0.000076   0.000013
    29  H    0.000000  -0.001395   0.000000   0.000009  -0.000006
    30  H   -0.000004   0.019064  -0.000002   0.000018   0.000016
    31  C   -0.136952  -0.415876  -0.147087  -0.060205  -0.097190
    32  C    0.000375   0.007671  -0.001274  -0.000020  -0.000302
    33  H    0.000026   0.000318   0.000000   0.000001   0.000000
    34  H   -0.000008  -0.003129   0.000000   0.000000   0.000001
    35  H    0.000000  -0.001464   0.000000  -0.000001  -0.000001
    36  C    0.013668  -0.075985   0.027515   0.007182  -0.009463
    37  H   -0.000304   0.008372   0.000017  -0.000152   0.000049
    38  H    0.005229   0.008374   0.005453   0.000040  -0.000503
    39  H    0.000010  -0.011438  -0.000284   0.000020   0.003072
    40  C    0.442323  -0.157531  -0.013300  -0.012268   0.006957
    41  H   -0.027579   0.009265   0.000010   0.000020  -0.000146
    42  H   -0.027797  -0.015624  -0.000344   0.002658   0.000045
    43  H    0.538351   0.013607   0.005627  -0.000310   0.000010
    44  C    0.013607   6.009040   0.467078   0.428256   0.439921
    45  H    0.005627   0.467078   0.540126  -0.027155  -0.027718
    46  H   -0.000310   0.428256  -0.027155   0.532971  -0.027867
    47  H    0.000010   0.439921  -0.027718  -0.027867   0.535562
 Mulliken atomic charges:
              1
     1  H    0.162069
     2  C   -0.338109
     3  C   -0.345604
     4  C   -0.037441
     5  C   -0.276047
     6  C   -0.070026
     7  C   -0.082596
     8  H    0.171355
     9  H    0.161627
    10  H    0.143541
    11  H    0.166681
    12  H    0.188587
    13  H    0.186630
    14  C   -0.039618
    15  H    0.172688
    16  H    0.172077
    17  O   -0.359037
    18  O   -0.502605
    19  H    0.386154
    20  O   -0.215598
    21  C   -0.116103
    22  H    0.174024
    23  H    0.140965
    24  H    0.160845
    25  O   -0.258367
    26  Si   0.723767
    27  C   -0.702510
    28  H    0.189166
    29  H    0.187289
    30  H    0.187519
    31  C   -0.035975
    32  C   -0.685874
    33  H    0.186477
    34  H    0.186980
    35  H    0.187853
    36  C   -0.559618
    37  H    0.165173
    38  H    0.163514
    39  H    0.171483
    40  C   -0.522527
    41  H    0.168133
    42  H    0.166590
    43  H    0.166667
    44  C   -0.591910
    45  H    0.165079
    46  H    0.166555
    47  H    0.170077
 Sum of Mulliken atomic charges =   0.00000
 Mulliken charges with hydrogens summed into heavy atoms:
              1
     2  C   -0.176040
     3  C    0.014337
     4  C    0.124186
     5  C   -0.276047
     6  C    0.073515
     7  C    0.270715
    14  C    0.305147
    17  O   -0.359037
    18  O   -0.116451
    20  O   -0.215598
    21  C    0.359731
    25  O   -0.258367
    26  Si   0.723767
    27  C   -0.138537
    31  C   -0.035975
    32  C   -0.124564
    36  C   -0.059447
    40  C   -0.021136
    44  C   -0.090199
 Sum of Mulliken charges with hydrogens summed into heavy atoms =   0.00000
 Electronic spatial extent (au):  <R**2>=           6463.9253
 Charge=              0.0000 electrons
 Dipole moment (field-independent basis, Debye):
    X=              1.3347    Y=              0.5527    Z=             -1.1702  Tot=              1.8591
 Quadrupole moment (field-independent basis, Debye-Ang):
   XX=           -127.6603   YY=           -123.0373   ZZ=           -126.0189
   XY=             -5.4131   XZ=              3.1256   YZ=              2.6968
 Traceless Quadrupole moment (field-independent basis, Debye-Ang):
   XX=             -2.0881   YY=              2.5348   ZZ=             -0.4467
   XY=             -5.4131   XZ=              3.1256   YZ=              2.6968
 Octapole moment (field-independent basis, Debye-Ang**2):
  XXX=              2.3079  YYY=             18.7170  ZZZ=             -2.3449  XYY=             -8.6929
  XXY=             27.9151  XXZ=            -20.0490  XZZ=            -23.2068  YZZ=             -2.2395
  YYZ=              1.2264  XYZ=             -1.6906
 Hexadecapole moment (field-independent basis, Debye-Ang**3):
 XXXX=          -6253.1662 YYYY=          -1313.6846 ZZZZ=          -1283.6039 XXXY=           -184.7897
 XXXZ=             66.2287 YYYX=             -3.4399 YYYZ=            -37.0045 ZZZX=            -19.7127
 ZZZY=             -5.1609 XXYY=          -1271.3885 XXZZ=          -1173.1984 YYZZ=           -435.5275
 XXYZ=             11.7250 YYXZ=            -16.3807 ZZXY=             15.9530
 N-N= 1.817390319282D+03 E-N=-6.305511365886D+03  KE= 1.131547491579D+03
 1\1\GINC-COMPUTE-6-34\SP\RmPW1PW91\6-31+G(d,p)\C14H28O4Si1\ELUCIANO.IQ
 UIR\06-Dec-2022\0\\# mPW1PW91/6-31+g** scrf=(PCM,solvent=chloroform) n
 mr\\comment\\0,1\H,0,-0.240239,-1.041516,0.372681\C,0,-0.466307,-0.208
 522,-0.30656\C,0,-2.605309,-1.39829,-0.938001\C,0,-2.530762,0.164645,1
 .091782\C,0,-3.366994,-0.464783,-0.014777\C,0,-1.264604,0.820779,0.518
 267\C,0,-1.319678,-0.735253,-1.466485\H,0,-3.252355,-1.718186,-1.76191
 2\H,0,-3.123164,0.939503,1.598355\H,0,-0.641138,1.179745,1.350969\H,0,
 -0.737683,-1.456434,-2.050585\H,0,-2.345031,-2.299114,-0.366943\H,0,-1
 .562069,0.105506,-2.125923\C,0,-4.619029,0.179884,-0.425076\H,0,-4.913
 597,1.129828,0.019899\H,0,-5.013231,-0.007074,-1.424079\O,0,-4.642414,
 -0.954051,0.460724\O,0,-2.113509,-0.834228,2.020998\H,0,-2.921628,-1.2
 91828,2.307249\O,0,-1.732901,1.917524,-0.255107\C,0,-0.827884,3.000403
 ,-0.411046\H,0,0.014768,2.742693,-1.059572\H,0,-0.437278,3.333755,0.56
 3044\H,0,-1.400728,3.81837,-0.858118\O,0,0.737859,0.384783,-0.789017\S
 i,0,2.282194,-0.286274,-0.767132\C,0,2.20212,-2.120651,-1.230898\H,0,3
 .19977,-2.575474,-1.213279\H,0,1.803672,-2.24422,-2.244859\H,0,1.56728
 7,-2.701348,-0.551633\C,0,3.103879,-0.060208,0.956575\C,0,3.216678,0.6
 71442,-2.094832\H,0,4.252423,0.327069,-2.196416\H,0,3.240017,1.745114,
 -1.877223\H,0,2.725408,0.542861,-3.066172\C,0,3.109178,1.434767,1.3402
 74\H,0,3.685304,2.038128,0.628094\H,0,3.564704,1.576128,2.331329\H,0,2
 .094292,1.846808,1.380799\C,0,4.5618,-0.568497,0.903346\H,0,5.16344,-0
 .02175,0.166965\H,0,4.618728,-1.635915,0.656727\H,0,5.047778,-0.436646
 ,1.881136\C,0,2.342063,-0.853557,2.040875\H,0,2.829245,-0.726525,3.018
 876\H,0,2.323065,-1.92931,1.826984\H,0,1.304347,-0.517498,2.152021\\Ve
 rsion=EM64L-G09RevC.01\State=1-A\HF=-1140.6236065\RMSD=5.003e-09\Dipol
 e=0.5250943,0.2174617,-0.4603755\Quadrupole=-1.552476,1.8845966,-0.332
 1206,-4.0244734,2.3238375,2.00503\PG=C01 [X(C14H28O4Si1)]\\@


 IT IS THE BEHAVIOR AND DISTRIBUTION OF THE ELECTRONS 
 AROUND THE NUCLEUS THAT GIVES THE FUNDAMENTAL 
 CHARACTER OF AN ATOM:  IT MUST BE THE SAME FOR MOLECULES.

                               -- C. A. COULSON, 1951
 Job cpu time:  0 days  0 hours 41 minutes 55.7 seconds.
 File lengths (MBytes):  RWF=    297 Int=      0 D2E=      0 Chk=     16 Scr=      1
 Normal termination of Gaussian 09 at Tue Dec  6 21:31:15 2022.
