 Entering Gaussian System, Link 0=g09
 Input=/home/eluciano.iquir/todos_optB3L_MPW_B_PCM/01_epoxido28_013_optB3L_nmr_MPW_B_PCM.gjc
 Output=/home/eluciano.iquir/todos_optB3L_MPW_B_PCM/01_epoxido28_013_optB3L_nmr_MPW_B_PCM.log
 Initial command:
 /share/apps/Gaussian09/EM64T.SSE4.2-enabled/g09/l1.exe /tmp/Gau-46308.inp -scrdir=/tmp/
 Entering Link 1 = /share/apps/Gaussian09/EM64T.SSE4.2-enabled/g09/l1.exe PID=     46309.
  
 Copyright (c) 1988,1990,1992,1993,1995,1998,2003,2009,2011,
            Gaussian, Inc.  All Rights Reserved.
  
 This is part of the Gaussian(R) 09 program.  It is based on
 the Gaussian(R) 03 system (copyright 2003, Gaussian, Inc.),
 the Gaussian(R) 98 system (copyright 1998, Gaussian, Inc.),
 the Gaussian(R) 94 system (copyright 1995, Gaussian, Inc.),
 the Gaussian 92(TM) system (copyright 1992, Gaussian, Inc.),
 the Gaussian 90(TM) system (copyright 1990, Gaussian, Inc.),
 the Gaussian 88(TM) system (copyright 1988, Gaussian, Inc.),
 the Gaussian 86(TM) system (copyright 1986, Carnegie Mellon
 University), and the Gaussian 82(TM) system (copyright 1983,
 Carnegie Mellon University). Gaussian is a federally registered
 trademark of Gaussian, Inc.
  
 This software contains proprietary and confidential information,
 including trade secrets, belonging to Gaussian, Inc.
  
 This software is provided under written license and may be
 used, copied, transmitted, or stored only in accord with that
 written license.
  
 The following legend is applicable only to US Government
 contracts under FAR:
  
                    RESTRICTED RIGHTS LEGEND
  
 Use, reproduction and disclosure by the US Government is
 subject to restrictions as set forth in subparagraphs (a)
 and (c) of the Commercial Computer Software - Restricted
 Rights clause in FAR 52.227-19.
  
 Gaussian, Inc.
 340 Quinnipiac St., Bldg. 40, Wallingford CT 06492
  
  
 ---------------------------------------------------------------
 Warning -- This program may not be used in any manner that
 competes with the business of Gaussian, Inc. or will provide
 assistance to any competitor of Gaussian, Inc.  The licensee
 of this program is prohibited from giving any competitor of
 Gaussian, Inc. access to this program.  By using this program,
 the user acknowledges that Gaussian, Inc. is engaged in the
 business of creating and licensing software in the field of
 computational chemistry and represents and warrants to the
 licensee that it is not a competitor of Gaussian, Inc. and that
 it will not use this program in any manner prohibited above.
 ---------------------------------------------------------------
  

 Cite this work as:
 Gaussian 09, Revision C.01,
 M. J. Frisch, G. W. Trucks, H. B. Schlegel, G. E. Scuseria, 
 M. A. Robb, J. R. Cheeseman, G. Scalmani, V. Barone, B. Mennucci, 
 G. A. Petersson, H. Nakatsuji, M. Caricato, X. Li, H. P. Hratchian, 
 A. F. Izmaylov, J. Bloino, G. Zheng, J. L. Sonnenberg, M. Hada, 
 M. Ehara, K. Toyota, R. Fukuda, J. Hasegawa, M. Ishida, T. Nakajima, 
 Y. Honda, O. Kitao, H. Nakai, T. Vreven, J. A. Montgomery, Jr., 
 J. E. Peralta, F. Ogliaro, M. Bearpark, J. J. Heyd, E. Brothers, 
 K. N. Kudin, V. N. Staroverov, T. Keith, R. Kobayashi, J. Normand, 
 K. Raghavachari, A. Rendell, J. C. Burant, S. S. Iyengar, J. Tomasi, 
 M. Cossi, N. Rega, J. M. Millam, M. Klene, J. E. Knox, J. B. Cross, 
 V. Bakken, C. Adamo, J. Jaramillo, R. Gomperts, R. E. Stratmann, 
 O. Yazyev, A. J. Austin, R. Cammi, C. Pomelli, J. W. Ochterski, 
 R. L. Martin, K. Morokuma, V. G. Zakrzewski, G. A. Voth, 
 P. Salvador, J. J. Dannenberg, S. Dapprich, A. D. Daniels, 
 O. Farkas, J. B. Foresman, J. V. Ortiz, J. Cioslowski, 
 and D. J. Fox, Gaussian, Inc., Wallingford CT, 2010.
 
 ******************************************
 Gaussian 09:  EM64L-G09RevC.01 23-Sep-2011
                 6-Dec-2022 
 ******************************************
 %nprocshared=4
 Will use up to    4 processors via shared memory.
 %mem=80MW
 -----------------------------------------------------
 # mPW1PW91/6-31+g** scrf=(PCM,solvent=chloroform) nmr
 -----------------------------------------------------
 1/38=1/1;
 2/12=2,17=6,18=5,40=1/2;
 3/5=1,6=6,7=111,11=2,16=1,25=1,30=1,70=2201,72=7,74=-7/1,2,8,3;
 4//1;
 5/5=2,38=5,53=7/2;
 8/6=1,10=90,11=11/1;
 10/13=100,45=16/2;
 6/7=2,8=2,9=2,10=2,28=1/1;
 99/9=1/99;
 -------
 comment
 -------
 Charge =  0 Multiplicity = 1
 Symbolic Z-Matrix:
 1                     0.15254  -0.11488  -2.22392 
 6                     0.56046  -0.39456  -1.24319 
 6                     2.07157  -2.02592  -0.0381 
 6                     2.09977   0.48041   0.60197 
 6                     2.84653  -0.85836   0.53675 
 6                     1.41554   0.78699  -0.74985 
 6                     1.4253   -1.65489  -1.38031 
 1                     1.28626  -2.30779   0.67356 
 1                     1.32286   0.43232   1.37125 
 1                     2.20602   0.96086  -1.50072 
 1                     2.20661  -1.4758   -2.13079 
 1                     2.74247  -2.88423  -0.15168 
 1                     0.80457  -2.48083  -1.74481 
 6                     4.00078  -1.07851   1.41483 
 1                     4.27225  -0.32167   2.14755 
 1                     4.30479  -2.09822   1.65014 
 8                     4.2033   -0.69295   0.03672 
 8                     2.99088   1.51967   0.98481 
 1                     3.80745   1.3457    0.47885 
 8                     0.57065   1.92441  -0.67466 
 6                     1.20293   3.18108  -0.87576 
 1                     1.90406   3.41819  -0.07028 
 1                     0.40361   3.92694  -0.9024 
 1                     1.74019   3.20486  -1.83749 
 8                    -0.49127  -0.64366  -0.31871 
 14                   -2.15289  -0.47862  -0.55066 
 6                    -2.50781   0.70016  -1.98442 
 1                    -3.57048   0.97117  -2.01143 
 1                    -2.26559   0.25021  -2.95484 
 1                    -1.92169   1.61899  -1.88244 
 6                    -2.8574    0.18257   1.10218 
 6                    -2.85712  -2.18851  -0.95407 
 1                    -3.93838  -2.15248  -1.13425 
 1                    -2.67721  -2.90351  -0.14275 
 1                    -2.38753  -2.5939   -1.85899 
 6                    -2.31923  -0.66312   2.27636 
 1                    -2.61332  -1.71724   2.19287 
 1                    -2.71688  -0.2883    3.231 
 1                    -1.22596  -0.62501   2.3321 
 6                    -4.39936   0.09975   1.09002 
 1                    -4.7557   -0.93353   0.99985 
 1                    -4.83827   0.67887   0.26737 
 1                    -4.81044   0.50605   2.02557 
 6                    -2.43111   1.65323   1.30173 
 1                    -2.77092   2.01925   2.28195 
 1                    -2.87039   2.308     0.53909 
 1                    -1.34415   1.77491   1.25058 
 
                          Input orientation:                          
 ---------------------------------------------------------------------
 Center     Atomic      Atomic             Coordinates (Angstroms)
 Number     Number       Type             X           Y           Z
 ---------------------------------------------------------------------
      1          1           0        0.152535   -0.114877   -2.223918
      2          6           0        0.560460   -0.394563   -1.243191
      3          6           0        2.071571   -2.025916   -0.038097
      4          6           0        2.099772    0.480407    0.601974
      5          6           0        2.846527   -0.858355    0.536750
      6          6           0        1.415544    0.786986   -0.749846
      7          6           0        1.425300   -1.654886   -1.380307
      8          1           0        1.286263   -2.307787    0.673560
      9          1           0        1.322855    0.432321    1.371251
     10          1           0        2.206021    0.960859   -1.500723
     11          1           0        2.206614   -1.475804   -2.130795
     12          1           0        2.742471   -2.884229   -0.151680
     13          1           0        0.804566   -2.480825   -1.744814
     14          6           0        4.000783   -1.078508    1.414828
     15          1           0        4.272246   -0.321673    2.147554
     16          1           0        4.304793   -2.098219    1.650144
     17          8           0        4.203302   -0.692945    0.036717
     18          8           0        2.990881    1.519670    0.984814
     19          1           0        3.807452    1.345704    0.478849
     20          8           0        0.570652    1.924413   -0.674660
     21          6           0        1.202927    3.181084   -0.875758
     22          1           0        1.904064    3.418186   -0.070283
     23          1           0        0.403606    3.926941   -0.902396
     24          1           0        1.740191    3.204865   -1.837487
     25          8           0       -0.491269   -0.643662   -0.318712
     26         14           0       -2.152889   -0.478624   -0.550657
     27          6           0       -2.507807    0.700163   -1.984416
     28          1           0       -3.570475    0.971169   -2.011430
     29          1           0       -2.265585    0.250205   -2.954835
     30          1           0       -1.921694    1.618993   -1.882439
     31          6           0       -2.857402    0.182566    1.102184
     32          6           0       -2.857121   -2.188510   -0.954073
     33          1           0       -3.938384   -2.152483   -1.134251
     34          1           0       -2.677210   -2.903513   -0.142745
     35          1           0       -2.387533   -2.593903   -1.858986
     36          6           0       -2.319228   -0.663123    2.276364
     37          1           0       -2.613324   -1.717235    2.192866
     38          1           0       -2.716879   -0.288298    3.231003
     39          1           0       -1.225955   -0.625007    2.332096
     40          6           0       -4.399364    0.099753    1.090023
     41          1           0       -4.755704   -0.933530    0.999848
     42          1           0       -4.838265    0.678872    0.267372
     43          1           0       -4.810438    0.506048    2.025573
     44          6           0       -2.431105    1.653232    1.301730
     45          1           0       -2.770919    2.019246    2.281946
     46          1           0       -2.870389    2.307997    0.539092
     47          1           0       -1.344154    1.774913    1.250577
 ---------------------------------------------------------------------
                    Distance matrix (angstroms):
                    1          2          3          4          5
     1  H    0.000000
     2  C    1.098386   0.000000
     3  C    3.480314   2.529233   0.000000
     4  C    3.483068   2.557281   2.586917   0.000000
     5  C    3.928313   2.934177   1.514663   1.534334   0.000000
     6  C    2.140429   1.539680   2.974790   1.545825   2.531835
     7  C    2.168695   1.534654   1.535206   2.990623   2.515841
     8  H    3.806517   2.803774   1.096638   2.905331   2.134009
     9  H    3.820251   2.846101   2.930830   1.094395   2.164212
    10  H    2.428379   2.147408   3.328389   2.159504   2.805545
    11  H    2.465773   2.160265   2.168005   3.362470   2.811855
    12  H    4.321024   3.485829   1.095312   3.507397   2.142179
    13  H    2.500479   2.159561   2.173736   3.994229   3.465191
    14  C    5.383128   4.400985   2.594308   2.589361   1.466900
    15  H    6.010370   5.027904   3.538995   2.784204   2.217068
    16  H    6.015251   5.029300   2.800476   3.551069   2.214373
    17  O    4.674756   3.872660   2.515290   2.474087   1.455415
    18  O    4.585184   3.812511   3.802980   1.421517   2.424170
    19  H    4.774585   4.066560   3.827315   1.918351   2.405121
    20  O    2.594942   2.387673   4.273531   2.460316   3.793536
    21  C    3.712710   3.651441   5.345004   3.206506   4.584067
    22  H    4.493165   4.209280   5.446773   3.020062   4.421033
    23  H    4.259783   4.337758   6.242245   4.125373   5.562199
    24  H    3.700090   3.834167   5.541542   3.674635   4.834329
    25  O    2.079401   1.422268   2.925324   2.970638   3.452360
    26  Si   2.871775   2.801595   4.528012   4.509260   5.130381
    27  C    2.792682   3.340973   5.673656   5.288430   6.119979
    28  H    3.883999   4.418149   6.686497   6.262781   7.142709
    29  H    2.552416   3.366301   5.700790   5.635621   6.289178
    30  H    2.724948   3.259468   5.712541   4.862188   5.892848
    31  C    4.495681   4.185169   5.520182   4.991242   5.825636
    32  C    3.869172   3.870619   5.015721   5.840821   6.043465
    33  H    4.698386   4.831330   6.110412   6.812189   7.106478
    34  H    4.485000   4.241264   4.830326   5.901278   5.929254
    35  H    3.568009   3.729204   4.849933   5.970227   6.012243
    36  C    5.163596   4.555436   5.147140   4.861975   5.454301
    37  H    5.452110   4.860952   5.198146   5.438184   5.769781
    38  H    6.166018   5.547130   6.052734   5.541013   6.207693
    39  H    4.787247   4.003381   4.295816   3.908417   4.456773
    40  C    5.634541   5.503462   6.903921   6.528542   7.329872
    41  H    5.929053   5.795111   6.991589   7.011068   7.616694
    42  H    5.634239   5.707915   7.426643   6.948935   7.841662
    43  H    6.563141   6.351572   7.617849   7.055373   7.918794
    44  C    4.715040   4.429396   5.967023   4.732232   5.894630
    45  H    5.779609   5.417670   6.722771   5.377170   6.548435
    46  H    4.758425   4.717106   6.598403   5.295898   6.535206
    47  H    4.228889   3.814847   5.270119   3.735915   5.000546
                    6          7          8          9         10
     6  C    0.000000
     7  C    2.521967   0.000000
     8  H    3.408873   2.159625   0.000000
     9  H    2.152541   3.455141   2.827774   0.000000
    10  H    1.104039   2.732425   4.032060   3.050831   0.000000
    11  H    2.766411   1.098068   3.066537   4.084886   2.516807
    12  H    3.949222   2.180768   1.770268   3.915882   4.110036
    13  H    3.470136   1.095605   2.471944   4.297081   3.724090
    14  C    3.853484   3.844230   3.070704   3.075029   3.985050
    15  H    4.217203   4.725290   3.877293   3.141665   4.384530
    16  H    4.736256   4.203767   3.179490   3.920889   4.867316
    17  O    3.252764   3.263523   3.394466   3.368112   3.014618
    18  O    2.455109   4.257070   4.201432   2.028293   2.665740
    19  H    2.746467   4.258480   4.443231   2.793541   2.575149
    20  O    1.418885   3.746964   4.499035   2.641571   2.070084
    21  C    2.406816   4.867302   5.703949   3.552342   2.515189
    22  H    2.761100   5.261315   5.807043   3.366187   2.859334
    23  H    3.302515   5.694651   6.491113   4.269292   3.521979
    24  H    2.671048   4.891355   6.074598   4.261123   2.316456
    25  O    2.422512   2.413047   2.629360   2.702732   3.353656
    26  Si   3.791459   3.856857   4.083174   4.074843   4.687732
    27  C    4.113926   4.623909   5.523366   5.099629   4.745745
    28  H    5.146446   5.679106   6.445823   5.973070   5.799037
    29  H    4.324445   4.441975   5.685437   5.623619   4.755495
    30  H    3.621072   4.708799   5.678355   4.745713   4.197247
    31  C    4.696105   5.280201   4.853405   4.196346   5.746226
    32  C    5.210657   4.336538   4.453206   5.454181   5.987717
    33  H    6.119868   5.392333   5.530754   6.374903   6.897892
    34  H    5.544275   4.463319   4.090276   5.424066   6.373650
    35  H    5.208070   3.955829   4.471289   5.775763   5.819401
    36  C    5.020885   5.326943   4.274747   3.909475   6.114048
    37  H    5.582334   5.392767   4.226561   4.559512   6.636330
    38  H    5.837835   6.347392   5.161782   4.505266   6.941511
    39  H    4.297628   4.676723   3.448729   2.921917   5.383673
    40  C    6.137635   6.565668   6.188380   5.738770   7.147348
    41  H    6.641228   6.662605   6.204870   6.241183   7.635914
    42  H    6.336919   6.884295   6.826050   6.264083   7.268263
    43  H    6.822370   7.426579   6.849480   6.168538   7.865896
    44  C    4.444778   5.745331   5.468372   3.948123   5.462240
    45  H    5.313822   6.672301   6.145799   4.484047   6.340244
    46  H    4.726950   6.151543   6.212994   4.668398   5.634320
    47  H    3.548750   5.133707   4.890857   2.988319   4.564655
                   11         12         13         14         15
    11  H    0.000000
    12  H    2.487509   0.000000
    13  H    1.767707   2.540922   0.000000
    14  C    3.993536   2.701467   4.708039   0.000000
    15  H    4.889082   3.767410   5.642453   1.087832   0.000000
    16  H    4.368667   2.511022   4.891188   1.089773   1.845154
    17  O    3.049219   2.640312   4.233412   1.445290   2.144348
    18  O    4.392603   4.554959   5.313643   2.820522   2.526738
    19  H    4.163392   4.407276   5.348301   2.605808   2.404320
    20  O    4.044524   5.302202   4.539391   5.014907   5.168326
    21  C    4.926369   6.299405   5.742052   5.587388   5.552517
    22  H    5.318683   6.358458   6.229870   5.179000   4.951124
    23  H    5.826616   7.240573   6.475330   6.585114   6.505328
    24  H    4.712987   6.397154   5.762903   5.833962   5.893074
    25  O    3.354799   3.937653   2.662353   4.834541   5.373753
    26  Si   4.743044   5.469065   3.765815   6.487732   6.970462
    27  C    5.194422   6.616057   4.598686   7.555149   8.005401
    28  H    6.275084   7.627323   5.579277   8.559461   8.970890
    29  H    4.864022   6.539341   4.283515   7.754147   8.312921
    30  H    5.165499   6.710363   4.925438   7.295493   7.640152
    31  C    6.232704   6.506611   5.348744   6.980169   7.223499
    32  C    5.247289   5.699411   3.757482   7.339935   7.995814
    33  H    6.261948   6.792255   4.793346   8.407235   9.029759
    34  H    5.462823   5.419723   3.855912   7.095933   7.759272
    35  H    4.736054   5.414437   3.196141   7.336543   8.097410
    36  C    6.369203   6.037343   5.406663   6.391974   6.601569
    37  H    6.479517   5.961821   5.269760   6.690271   7.025719
    38  H    7.375624   6.927186   6.478156   7.003564   7.072683
    39  H    5.694188   5.198234   4.918157   5.325958   5.509653
    40  C    7.516315   7.839119   6.463480   8.488596   8.746016
    41  H    7.653029   7.832871   6.390923   8.767513   9.121156
    42  H    7.747526   8.386826   6.773044   9.084812   9.356152
    43  H    8.392982   8.560423   7.393612   8.973374   9.121138
    44  C    6.563652   7.033267   6.069714   6.988875   7.039217
    45  H    7.514219   7.769432   7.017801   7.496927   7.423216
    46  H    6.871783   7.677276   6.454017   7.710275   7.779431
    47  H    5.882924   6.354088   5.630335   6.061134   6.061699
                   16         17         18         19         20
    16  H    0.000000
    17  O    2.142018   0.000000
    18  O    3.906168   2.695277   0.000000
    19  H    3.671496   2.123268   0.976244   0.000000
    20  O    5.960712   4.533516   2.962293   3.484589   0.000000
    21  C    6.623654   4.984271   3.069007   3.462244   1.421068
    22  H    6.257323   4.711618   2.428737   2.866987   2.091558
    23  H    7.618220   6.054995   4.006308   4.489631   2.022347
    24  H    6.845689   4.977196   3.517029   3.618765   2.087952
    25  O    5.384639   4.708265   4.301692   4.803403   2.801675
    26  Si   7.012009   6.386870   5.727933   6.317731   3.634232
    27  C    8.212946   7.145958   6.302657   6.809324   3.562465
    28  H    9.211304   8.209494   7.233929   7.795869   4.454723
    29  H    8.360071   7.189257   6.690502   7.062017   4.005797
    30  H    8.066347   6.822301   5.688972   6.202700   2.786360
    31  C    7.536530   7.194114   6.000336   6.794241   4.235889
    32  C    7.621228   7.284775   7.190898   7.678572   5.361328
    33  H    8.700906   8.353949   8.123414   8.650860   6.096205
    34  H    7.253366   7.229126   7.277582   7.777729   5.842980
    35  H    7.572775   7.116631   7.344115   7.704792   5.528894
    36  C    6.806563   6.896398   5.884721   6.693478   4.873940
    37  H    6.949823   7.222502   6.583620   7.317501   5.623345
    38  H    7.421510   7.632569   6.394735   7.267132   5.564005
    39  H    5.764077   5.894931   4.918995   5.714316   4.332196
    40  C    8.994841   8.703085   7.526151   8.323326   5.580730
    41  H    9.158165   9.013839   8.125761   8.876598   6.272311
    42  H    9.655040   9.147952   7.906781   8.673973   5.629847
    43  H    9.487391   9.308095   7.935439   8.795761   6.185398
    44  C    7.717972   7.149836   5.432882   6.300103   3.604192
    45  H    8.210870   7.812605   5.927096   6.854180   4.462803
    46  H    8.493080   7.700334   5.930819   6.747088   3.668936
    47  H    6.860861   6.191773   4.350667   5.226742   2.719443
                   21         22         23         24         25
    21  C    0.000000
    22  H    1.093892   0.000000
    23  H    1.093584   1.789586   0.000000
    24  H    1.101881   1.787560   1.783886   0.000000
    25  O    4.220105   4.722070   4.693815   4.700771   0.000000
    26  Si   4.976008   5.645773   5.105721   5.511814   1.685828
    27  C    4.599308   5.524143   4.478749   4.933620   2.940555
    28  H    5.381342   6.302898   5.075418   5.763925   3.867103
    29  H    4.994316   5.978521   4.985526   5.101443   3.300960
    30  H    3.635491   4.599721   3.419668   3.990791   3.100156
    31  C    5.421221   5.874987   5.354704   6.238094   2.881004
    32  C    6.732211   7.408442   6.930639   7.141722   2.896117
    33  H    7.412613   8.142394   7.474358   7.838490   3.850227
    34  H    7.253626   7.807509   7.531507   7.726439   3.149004
    35  H    6.870853   7.600163   7.157299   7.117884   3.125972
    36  C    6.092567   6.324558   6.211846   6.954422   3.174308
    37  H    6.926309   7.204248   7.109095   7.708690   3.458858
    38  H    6.653343   6.781565   6.677623   7.599819   4.204771
    39  H    5.538603   5.649412   5.817013   6.391507   2.750799
    40  C    6.689137   7.217445   6.456440   7.477043   4.220238
    41  H    7.480189   8.027149   7.339018   8.208132   4.473034
    42  H    6.638058   7.285386   6.276585   7.354397   4.581372
    43  H    7.192642   7.612995   6.889250   8.069547   5.047051
    44  C    4.503551   4.877620   4.250119   5.446279   3.415336
    45  H    5.206958   5.417147   4.884357   6.222984   4.364780
    46  H    4.399544   4.939561   3.926565   5.264024   3.886944
    47  H    3.603642   3.872459   3.510154   4.592830   3.006590
                   26         27         28         29         30
    26  Si   0.000000
    27  C    1.889754   0.000000
    28  H    2.499061   1.097013   0.000000
    29  H    2.514749   1.096744   1.764239   0.000000
    30  H    2.495414   1.094612   1.776174   1.772533   0.000000
    31  C    1.914522   3.149162   3.290131   4.100515   3.441925
    32  C    1.892722   3.086755   3.407411   3.209407   4.029140
    33  H    2.516024   3.302563   3.265272   3.447563   4.341757
    34  H    2.514238   4.050547   4.393526   4.245377   4.904121
    35  H    2.498237   3.298647   3.759299   3.050362   4.238638
    36  C    2.837914   4.477539   4.756228   5.310602   4.760434
    37  H    3.045173   4.827487   5.081315   5.521827   5.311956
    38  H    3.828219   5.312378   5.458753   6.225612   5.515194
    39  H    3.031650   4.693772   5.187559   5.458797   4.825132
    40  C    2.841303   3.659324   3.326475   4.575645   4.157219
    41  H    3.063601   4.077723   3.755055   4.820938   4.780645
    42  H    3.036480   3.240685   2.624056   4.145486   3.743247
    43  H    3.830027   4.628153   4.248675   5.598767   4.985584
    44  C    2.837878   3.422423   3.569370   4.484889   3.224842
    45  H    3.826873   4.473372   4.491195   5.550562   4.268898
    46  H    3.076949   3.014082   2.963510   4.099734   2.690457
    47  H    2.996152   3.601993   4.030285   4.567194   3.189616
                   31         32         33         34         35
    31  C    0.000000
    32  C    3.138502   0.000000
    33  H    3.409196   1.096764   0.000000
    34  H    3.332597   1.096289   1.771353   0.000000
    35  H    4.086329   1.097144   1.767832   1.767839   0.000000
    36  C    1.543865   3.612735   4.058590   3.316563   4.564394
    37  H    2.204179   3.191357   3.607621   2.620385   4.151751
    38  H    2.184795   4.598406   4.901296   4.268852   5.597524
    39  H    2.196924   3.988001   4.658972   3.663682   4.773990
    40  C    1.544232   3.434092   3.198822   3.674934   4.472125
    41  H    2.204471   2.999567   2.590026   3.083259   4.066695
    42  H    2.206139   3.693066   3.284951   4.203788   4.608529
    43  H    2.184408   4.467033   4.220516   4.569176   5.529011
    44  C    1.544152   4.475390   4.763335   4.786544   5.294354
    45  H    2.184654   5.308904   5.516947   5.488302   6.210913
    46  H    2.198795   4.737963   4.882271   5.259473   5.478371
    47  H    2.201706   4.781033   5.276540   5.060243   5.463019
                   36         37         38         39         40
    36  C    0.000000
    37  H    1.097550   0.000000
    38  H    1.099980   1.769269   0.000000
    39  H    1.095356   1.771197   1.773206   0.000000
    40  C    2.513235   2.776265   2.750479   3.484042   0.000000
    41  H    2.763879   2.574350   3.090499   3.785393   1.096715
    42  H    3.490351   3.794630   3.770783   4.360272   1.097619
    43  H    2.763328   3.130221   2.543037   3.771175   1.099687
    44  C    2.515537   3.491042   2.751963   2.775683   2.516378
    45  H    2.720140   3.740864   2.495674   3.062924   2.785133
    46  H    3.485606   4.359305   3.743087   3.810714   2.741830
    47  H    2.819047   3.833249   3.172271   2.635009   3.488015
                   41         42         43         44         45
    41  H    0.000000
    42  H    1.772901   0.000000
    43  H    1.768472   1.766894   0.000000
    44  C    3.490878   2.795298   2.738833   0.000000
    45  H    3.781803   3.182614   2.552476   1.100120   0.000000
    46  H    3.778122   2.569127   3.036517   1.096952   1.769410
    47  H    4.363164   3.791676   3.771705   1.094936   1.777380
                   46         47
    46  H    0.000000
    47  H    1.766291   0.000000
 Stoichiometry    C14H28O4Si
 Framework group  C1[X(C14H28O4Si)]
 Deg. of freedom   135
 Full point group                 C1      NOp   1
 Largest Abelian subgroup         C1      NOp   1
 Largest concise Abelian subgroup C1      NOp   1
                         Standard orientation:                         
 ---------------------------------------------------------------------
 Center     Atomic      Atomic             Coordinates (Angstroms)
 Number     Number       Type             X           Y           Z
 ---------------------------------------------------------------------
      1          1           0        0.152535   -0.114877   -2.223918
      2          6           0        0.560460   -0.394563   -1.243191
      3          6           0        2.071571   -2.025916   -0.038097
      4          6           0        2.099772    0.480407    0.601974
      5          6           0        2.846527   -0.858355    0.536750
      6          6           0        1.415544    0.786986   -0.749846
      7          6           0        1.425300   -1.654886   -1.380307
      8          1           0        1.286263   -2.307787    0.673560
      9          1           0        1.322855    0.432321    1.371251
     10          1           0        2.206021    0.960859   -1.500723
     11          1           0        2.206614   -1.475804   -2.130795
     12          1           0        2.742471   -2.884229   -0.151680
     13          1           0        0.804566   -2.480825   -1.744814
     14          6           0        4.000783   -1.078508    1.414828
     15          1           0        4.272246   -0.321673    2.147554
     16          1           0        4.304793   -2.098219    1.650144
     17          8           0        4.203302   -0.692945    0.036717
     18          8           0        2.990881    1.519670    0.984814
     19          1           0        3.807452    1.345704    0.478849
     20          8           0        0.570652    1.924413   -0.674660
     21          6           0        1.202927    3.181084   -0.875758
     22          1           0        1.904064    3.418186   -0.070283
     23          1           0        0.403606    3.926941   -0.902396
     24          1           0        1.740191    3.204865   -1.837487
     25          8           0       -0.491269   -0.643662   -0.318712
     26         14           0       -2.152889   -0.478624   -0.550657
     27          6           0       -2.507807    0.700163   -1.984416
     28          1           0       -3.570475    0.971169   -2.011430
     29          1           0       -2.265585    0.250205   -2.954835
     30          1           0       -1.921694    1.618993   -1.882439
     31          6           0       -2.857402    0.182566    1.102184
     32          6           0       -2.857121   -2.188510   -0.954073
     33          1           0       -3.938384   -2.152483   -1.134251
     34          1           0       -2.677210   -2.903513   -0.142745
     35          1           0       -2.387533   -2.593903   -1.858986
     36          6           0       -2.319228   -0.663123    2.276364
     37          1           0       -2.613324   -1.717235    2.192866
     38          1           0       -2.716879   -0.288298    3.231003
     39          1           0       -1.225955   -0.625007    2.332096
     40          6           0       -4.399364    0.099753    1.090023
     41          1           0       -4.755704   -0.933530    0.999848
     42          1           0       -4.838265    0.678872    0.267372
     43          1           0       -4.810438    0.506048    2.025573
     44          6           0       -2.431105    1.653232    1.301730
     45          1           0       -2.770919    2.019246    2.281946
     46          1           0       -2.870389    2.307997    0.539092
     47          1           0       -1.344154    1.774913    1.250577
 ---------------------------------------------------------------------
 Rotational constants (GHZ):      0.5370469      0.2221731      0.2049768
 Standard basis: 6-31+G(d,p) (6D, 7F)
 There are   505 symmetry adapted basis functions of A   symmetry.
 Integral buffers will be    131072 words long.
 Raffenetti 2 integral format.
 Two-electron integral symmetry is turned on.
   505 basis functions,   828 primitive gaussians,   505 cartesian basis functions
    79 alpha electrons       79 beta electrons
       nuclear repulsion energy      1836.1122442601 Hartrees.
 NAtoms=   47 NActive=   47 NUniq=   47 SFac= 1.00D+00 NAtFMM=   60 NAOKFM=F Big=F
 ------------------------------------------------------------------------------
 Polarizable Continuum Model (PCM)
 =================================
 Model                : PCM.
 Atomic radii         : UFF (Universal Force Field).
 Polarization charges : Total charges.
 Charge compensation  : None.
 Solution method      : Matrix inversion.
 Cavity type          : Scaled VdW (van der Waals Surface) (Alpha=1.100).
 Cavity algorithm     : GePol (No added spheres)
                        Default sphere list used, NSphG=   47.
                        Lebedev-Laikov grids with approx.  5.0 points / Ang**2.
                        Smoothing algorithm: Karplus/York (Gamma=1.0000).
                        Polarization charges: spherical gaussians, with
                                              point-specific exponents (IZeta= 3).
                        Self-potential: point-specific (ISelfS= 7).
                        Self-field    : sphere-specific E.n sum rule (ISelfD= 2).
 Solvent              : Chloroform, Eps=   4.711300 Eps(inf)=   2.090627
 ------------------------------------------------------------------------------
 One-electron integrals computed using PRISM.
 NBasis=   505 RedAO= T  NBF=   505
 NBsUse=   505 1.00D-06 NBFU=   505
 Harris functional with IExCor=  908 diagonalized for initial guess.
 ExpMin= 3.31D-02 ExpMax= 1.61D+04 ExpMxC= 2.43D+03 IAcc=3 IRadAn=         5 AccDes= 0.00D+00
 HarFok:  IExCor=  908 AccDes= 0.00D+00 IRadAn=         5 IDoV= 1
 ScaDFX=  1.000000  1.000000  1.000000  1.000000
 FoFCou: FMM=F IPFlag=           0 FMFlag=      100000 FMFlg1=           0
         NFxFlg=           0 DoJE=T BraDBF=F KetDBF=T FulRan=T
         Omega=  0.000000  0.000000  1.000000  0.000000  0.000000 ICntrl=     500 IOpCl=  0
         NMat0=    1 NMatS0=    1 NMatT0=    0 NMatD0=    1 NMtDS0=    0 NMtDT0=    0
         I1Cent=           4 NGrid=           0.
 Petite list used in FoFCou.
 Initial guess orbital symmetries:
       Occupied  (A) (A) (A) (A) (A) (A) (A) (A) (A) (A) (A) (A)
                 (A) (A) (A) (A) (A) (A) (A) (A) (A) (A) (A) (A)
                 (A) (A) (A) (A) (A) (A) (A) (A) (A) (A) (A) (A)
                 (A) (A) (A) (A) (A) (A) (A) (A) (A) (A) (A) (A)
                 (A) (A) (A) (A) (A) (A) (A) (A) (A) (A) (A) (A)
                 (A) (A) (A) (A) (A) (A) (A) (A) (A) (A) (A) (A)
                 (A) (A) (A) (A) (A) (A) (A)
       Virtual   (A) (A) (A) (A) (A) (A) (A) (A) (A) (A) (A) (A)
                 (A) (A) (A) (A) (A) (A) (A) (A) (A) (A) (A) (A)
                 (A) (A) (A) (A) (A) (A) (A) (A) (A) (A) (A) (A)
                 (A) (A) (A) (A) (A) (A) (A) (A) (A) (A) (A) (A)
                 (A) (A) (A) (A) (A) (A) (A) (A) (A) (A) (A) (A)
                 (A) (A) (A) (A) (A) (A) (A) (A) (A) (A) (A) (A)
                 (A) (A) (A) (A) (A) (A) (A) (A) (A) (A) (A) (A)
                 (A) (A) (A) (A) (A) (A) (A) (A) (A) (A) (A) (A)
                 (A) (A) (A) (A) (A) (A) (A) (A) (A) (A) (A) (A)
                 (A) (A) (A) (A) (A) (A) (A) (A) (A) (A) (A) (A)
                 (A) (A) (A) (A) (A) (A) (A) (A) (A) (A) (A) (A)
                 (A) (A) (A) (A) (A) (A) (A) (A) (A) (A) (A) (A)
                 (A) (A) (A) (A) (A) (A) (A) (A) (A) (A) (A) (A)
                 (A) (A) (A) (A) (A) (A) (A) (A) (A) (A) (A) (A)
                 (A) (A) (A) (A) (A) (A) (A) (A) (A) (A) (A) (A)
                 (A) (A) (A) (A) (A) (A) (A) (A) (A) (A) (A) (A)
                 (A) (A) (A) (A) (A) (A) (A) (A) (A) (A) (A) (A)
                 (A) (A) (A) (A) (A) (A) (A) (A) (A) (A) (A) (A)
                 (A) (A) (A) (A) (A) (A) (A) (A) (A) (A) (A) (A)
                 (A) (A) (A) (A) (A) (A) (A) (A) (A) (A) (A) (A)
                 (A) (A) (A) (A) (A) (A) (A) (A) (A) (A) (A) (A)
                 (A) (A) (A) (A) (A) (A) (A) (A) (A) (A) (A) (A)
                 (A) (A) (A) (A) (A) (A) (A) (A) (A) (A) (A) (A)
                 (A) (A) (A) (A) (A) (A) (A) (A) (A) (A) (A) (A)
                 (A) (A) (A) (A) (A) (A) (A) (A) (A) (A) (A) (A)
                 (A) (A) (A) (A) (A) (A) (A) (A) (A) (A) (A) (A)
                 (A) (A) (A) (A) (A) (A) (A) (A) (A) (A) (A) (A)
                 (A) (A) (A) (A) (A) (A) (A) (A) (A) (A) (A) (A)
                 (A) (A) (A) (A) (A) (A) (A) (A) (A) (A) (A) (A)
                 (A) (A) (A) (A) (A) (A) (A) (A) (A) (A) (A) (A)
                 (A) (A) (A) (A) (A) (A) (A) (A) (A) (A) (A) (A)
                 (A) (A) (A) (A) (A) (A) (A) (A) (A) (A) (A) (A)
                 (A) (A) (A) (A) (A) (A) (A) (A) (A) (A) (A) (A)
                 (A) (A) (A) (A) (A) (A) (A) (A) (A) (A) (A) (A)
                 (A) (A) (A) (A) (A) (A) (A) (A) (A) (A) (A) (A)
                 (A) (A) (A) (A) (A) (A)
 The electronic state of the initial guess is 1-A.
 Requested convergence on RMS density matrix=1.00D-08 within 128 cycles.
 Requested convergence on MAX density matrix=1.00D-06.
 Requested convergence on             energy=1.00D-06.
 No special actions if energy rises.
 Error on total polarization charges =  0.01533
 SCF Done:  E(RmPW1PW91) =  -1140.62499626     A.U. after   13 cycles
             Convg  =    0.4975D-08             -V/T =  2.0080
 Range of M.O.s used for correlation:     1   505
 NBasis=   505 NAE=    79 NBE=    79 NFC=     0 NFV=     0
 NROrb=    505 NOA=    79 NOB=    79 NVA=   426 NVB=   426

 **** Warning!!: The largest alpha MO coefficient is  0.10035838D+03

 NEqPCM:  Using equilibrium solvation (IEInf=0, Eps=   4.7113, EpsInf=   2.0906)
          Differentiating once with respect to magnetic field using GIAOs.
          Electric field/nuclear overlap derivatives assumed to be zero.
 FoFCou: FMM=F IPFlag=           0 FMFlag=    10101102 FMFlg1=           0
         NFxFlg=    40000000 DoJE=F BraDBF=F KetDBF=T FulRan=T
         Omega=  0.000000  0.000000  1.000000  0.000000  0.000000 ICntrl=    6100 IOpCl=  0
         NMat0=    1 NMatS0=    1 NMatT0=    0 NMatD0=    1 NMtDS0=    0 NMtDT0=    0
         I1Cent=           7 NGrid=        2997.
 Symmetry not used in FoFCou.
          There are     3 degrees of freedom in the 1st order CPHF.  IDoFFX=0.
      3 vectors produced by pass  0 Test12= 1.12D-12 3.33D-08 XBig12= 1.74D+02 3.42D+00.
 AX will form     3 AO Fock derivatives at one time.
      3 vectors produced by pass  1 Test12= 1.12D-12 3.33D-08 XBig12= 4.36D-01 1.40D-01.
      3 vectors produced by pass  2 Test12= 1.12D-12 3.33D-08 XBig12= 1.12D-03 5.83D-03.
      3 vectors produced by pass  3 Test12= 1.12D-12 3.33D-08 XBig12= 6.44D-06 3.69D-04.
      3 vectors produced by pass  4 Test12= 1.12D-12 3.33D-08 XBig12= 2.22D-08 1.66D-05.
      3 vectors produced by pass  5 Test12= 1.12D-12 3.33D-08 XBig12= 6.95D-11 1.41D-06.
      3 vectors produced by pass  6 Test12= 1.12D-12 3.33D-08 XBig12= 2.54D-13 7.15D-08.
 Inverted reduced A of dimension    21 with in-core refinement.
 Calculating GIAO nuclear magnetic shielding tensors.
 SCF GIAO Magnetic shielding tensor (ppm):
      1  H    Isotropic =    27.3736   Anisotropy =     3.8313
   XX=    29.2040   YX=    -0.5645   ZX=    -1.6287
   XY=    -0.7068   YY=    23.5122   ZY=    -0.8063
   XZ=     0.4660   YZ=    -1.3623   ZZ=    29.4047
   Eigenvalues:    23.2299    28.9632    29.9279
      2  C    Isotropic =   122.3243   Anisotropy =    35.8794
   XX=   130.9952   YX=    10.2449   ZX=   -21.5812
   XY=     3.4237   YY=   121.6310   ZY=     1.1611
   XZ=   -18.4048   YZ=    -5.3741   ZZ=   114.3467
   Eigenvalues:   100.8037   119.9254   146.2439
      3  C    Isotropic =   167.4872   Anisotropy =    29.3565
   XX=   167.0418   YX=     4.7161   ZX=     7.6880
   XY=     3.8812   YY=   177.3983   ZY=     9.7084
   XZ=    12.4685   YZ=    14.9008   ZZ=   158.0214
   Eigenvalues:   148.8586   166.5448   187.0582
      4  C    Isotropic =   123.6335   Anisotropy =    38.3137
   XX=   123.1637   YX=    11.5214   ZX=    17.4508
   XY=    19.9123   YY=   134.8867   ZY=     4.2554
   XZ=    15.3679   YZ=    -1.7692   ZZ=   112.8502
   Eigenvalues:    98.6114   123.1133   149.1760
      5  C    Isotropic =   133.4771   Anisotropy =    59.9914
   XX=   110.2453   YX=     4.2079   ZX=   -27.9625
   XY=     9.8380   YY=   167.3388   ZY=    14.5209
   XZ=   -25.6618   YZ=    20.4253   ZZ=   122.8471
   Eigenvalues:    85.6674   141.2925   173.4713
      6  C    Isotropic =   110.6975   Anisotropy =    34.9127
   XX=   113.2639   YX=    -9.2841   ZX=     0.5989
   XY=   -18.3749   YY=   123.6346   ZY=     0.4805
   XZ=   -11.1986   YZ=     5.2871   ZZ=    95.1939
   Eigenvalues:    93.7195   104.4003   133.9726
      7  C    Isotropic =   164.0843   Anisotropy =    19.3285
   XX=   167.1317   YX=    -6.7516   ZX=    -4.6147
   XY=   -10.2566   YY=   169.0346   ZY=     5.7972
   XZ=     1.1432   YZ=    -1.8624   ZZ=   156.0866
   Eigenvalues:   155.7569   159.5261   176.9700
      8  H    Isotropic =    29.0089   Anisotropy =     6.7555
   XX=    31.3662   YX=     1.4609   ZX=    -1.1757
   XY=     2.1787   YY=    28.3334   ZY=    -3.6243
   XZ=    -1.2596   YZ=    -3.2506   ZZ=    27.3269
   Eigenvalues:    24.3447    29.1694    33.5125
      9  H    Isotropic =    27.1879   Anisotropy =     5.7616
   XX=    30.5790   YX=     1.4365   ZX=    -0.0596
   XY=     1.8454   YY=    24.6079   ZY=    -0.2804
   XZ=    -1.0371   YZ=     1.6404   ZZ=    26.3769
   Eigenvalues:    23.9268    26.6080    31.0290
     10  H    Isotropic =    28.7375   Anisotropy =     3.1228
   XX=    29.1513   YX=    -0.4345   ZX=    -0.6948
   XY=    -2.5536   YY=    29.4393   ZY=    -0.2018
   XZ=    -1.0839   YZ=    -2.0677   ZZ=    27.6220
   Eigenvalues:    26.2774    29.1158    30.8194
     11  H    Isotropic =    29.8315   Anisotropy =     8.8179
   XX=    30.5486   YX=    -1.3550   ZX=    -3.5827
   XY=    -1.3343   YY=    26.0947   ZY=     2.1165
   XZ=    -3.0775   YZ=     1.2798   ZZ=    32.8510
   Eigenvalues:    25.6036    28.1807    35.7101
     12  H    Isotropic =    30.4690   Anisotropy =    10.8370
   XX=    29.2613   YX=    -3.6728   ZX=     2.1573
   XY=    -3.7404   YY=    36.0516   ZY=     1.3491
   XZ=     2.2669   YZ=     1.3466   ZZ=    26.0941
   Eigenvalues:    24.1764    29.5369    37.6937
     13  H    Isotropic =    29.8965   Anisotropy =     9.0490
   XX=    29.7512   YX=     0.8538   ZX=     2.6722
   XY=     1.9217   YY=    31.5977   ZY=     4.6040
   XZ=     2.7701   YZ=     4.3099   ZZ=    28.3405
   Eigenvalues:    24.7429    29.0174    35.9291
     14  C    Isotropic =   146.2702   Anisotropy =    32.3755
   XX=   127.5248   YX=    11.7614   ZX=   -22.7985
   XY=     5.9737   YY=   165.7061   ZY=     7.7372
   XZ=   -24.5918   YZ=     0.1114   ZZ=   145.5798
   Eigenvalues:   109.5764   161.3804   167.8539
     15  H    Isotropic =    28.4933   Anisotropy =     9.0043
   XX=    25.2062   YX=    -1.8763   ZX=     4.1912
   XY=     1.3134   YY=    29.1665   ZY=     4.2467
   XZ=     4.7613   YZ=     1.1458   ZZ=    31.1071
   Eigenvalues:    22.4251    28.5586    34.4962
     16  H    Isotropic =    29.0570   Anisotropy =    11.2981
   XX=    25.9257   YX=    -1.0188   ZX=     2.7032
   XY=    -4.6250   YY=    33.1351   ZY=    -5.1108
   XZ=     2.6596   YZ=    -2.6633   ZZ=    28.1102
   Eigenvalues:    24.1168    26.4651    36.5891
     17  O    Isotropic =   314.0877   Anisotropy =   123.8255
   XX=   318.4576   YX=   -20.1954   ZX=    82.9981
   XY=   -35.2779   YY=   382.5914   ZY=    39.2475
   XZ=    85.2566   YZ=    53.4896   ZZ=   241.2141
   Eigenvalues:   173.3285   372.2965   396.6381
     18  O    Isotropic =   308.9071   Anisotropy =    39.3193
   XX=   332.8023   YX=    22.9560   ZX=    -6.1766
   XY=    -8.5152   YY=   280.2488   ZY=     1.0027
   XZ=    -6.0768   YZ=    11.0855   ZZ=   313.6703
   Eigenvalues:   277.9583   313.6431   335.1200
     19  H    Isotropic =    29.8804   Anisotropy =    14.1533
   XX=    36.4865   YX=    -1.2068   ZX=    -6.6519
   XY=     0.3052   YY=    30.5284   ZY=     2.2180
   XZ=    -6.6565   YZ=     1.6843   ZZ=    22.6264
   Eigenvalues:    19.6984    30.6268    39.3159
     20  O    Isotropic =   295.9967   Anisotropy =    71.4829
   XX=   324.3033   YX=   -38.1674   ZX=    -2.1091
   XY=   -27.4428   YY=   285.8600   ZY=     0.8485
   XZ=    -7.7018   YZ=     6.2034   ZZ=   277.8268
   Eigenvalues:   267.0228   277.3154   343.6520
     21  C    Isotropic =   136.2341   Anisotropy =    86.1627
   XX=   118.0113   YX=    26.8660   ZX=    -6.3050
   XY=    26.1659   YY=   181.7638   ZY=   -14.1035
   XZ=    -7.6385   YZ=   -10.6985   ZZ=   108.9273
   Eigenvalues:   105.0320   109.9944   193.6760
     22  H    Isotropic =    27.1468   Anisotropy =     8.8308
   XX=    25.9824   YX=     2.3380   ZX=     3.6902
   XY=     3.3210   YY=    31.6387   ZY=     1.2212
   XZ=     2.5807   YZ=    -0.8854   ZZ=    23.8194
   Eigenvalues:    21.3444    27.0621    33.0340
     23  H    Isotropic =    27.8894   Anisotropy =    10.4470
   XX=    25.8058   YX=     0.7471   ZX=    -0.2095
   XY=    -2.3627   YY=    34.5185   ZY=    -1.6676
   XZ=     0.0945   YZ=    -1.8256   ZZ=    23.3440
   Eigenvalues:    23.0655    25.7487    34.8541
     24  H    Isotropic =    28.3167   Anisotropy =    10.3027
   XX=    26.6120   YX=     2.5961   ZX=    -2.2872
   XY=     4.1421   YY=    30.1067   ZY=    -5.4849
   XZ=    -1.4737   YZ=    -2.9485   ZZ=    28.2313
   Eigenvalues:    24.2954    25.4694    35.1852
     25  O    Isotropic =   292.4847   Anisotropy =    27.4918
   XX=   289.6493   YX=     0.9897   ZX=    20.7566
   XY=    17.8599   YY=   300.7545   ZY=    -8.2091
   XZ=    18.7587   YZ=     1.7759   ZZ=   287.0504
   Eigenvalues:   266.2742   300.3673   310.8126
     26  Si   Isotropic =   378.6636   Anisotropy =    36.8501
   XX=   399.2817   YX=   -14.5264   ZX=     5.2577
   XY=    -7.6273   YY=   367.2691   ZY=    -0.1571
   XZ=   -12.6068   YZ=     3.9087   ZZ=   369.4400
   Eigenvalues:   363.7188   369.0417   403.2303
     27  C    Isotropic =   199.9057   Anisotropy =     7.7597
   XX=   200.8355   YX=     0.2290   ZX=     2.6036
   XY=     5.4279   YY=   203.1881   ZY=     0.9890
   XZ=     0.7033   YZ=    -3.6280   ZZ=   195.6934
   Eigenvalues:   194.6555   199.9827   205.0788
     28  H    Isotropic =    31.5909   Anisotropy =    10.4052
   XX=    36.9889   YX=    -3.6291   ZX=     1.8491
   XY=    -2.8862   YY=    27.7787   ZY=    -1.3666
   XZ=     1.5714   YZ=    -1.4928   ZZ=    30.0050
   Eigenvalues:    26.5146    29.7304    38.5277
     29  H    Isotropic =    31.4143   Anisotropy =     9.6557
   XX=    28.5907   YX=    -0.9046   ZX=    -0.3658
   XY=    -0.6789   YY=    28.3008   ZY=     2.1411
   XZ=    -0.5756   YZ=     2.0283   ZZ=    37.3513
   Eigenvalues:    27.4378    28.9535    37.8514
     30  H    Isotropic =    31.0127   Anisotropy =     9.0610
   XX=    31.0503   YX=     3.8996   ZX=     1.3259
   XY=     4.6851   YY=    33.9628   ZY=    -1.0044
   XZ=     1.0371   YZ=    -1.5528   ZZ=    28.0249
   Eigenvalues:    26.2884    29.6963    37.0533
     31  C    Isotropic =   172.3390   Anisotropy =     8.5122
   XX=   177.5772   YX=     0.7266   ZX=     1.5923
   XY=     0.7545   YY=   170.0582   ZY=     0.6948
   XZ=     1.7263   YZ=     1.5711   ZZ=   169.3816
   Eigenvalues:   168.4403   170.5629   178.0138
     32  C    Isotropic =   197.8687   Anisotropy =     8.0094
   XX=   201.8729   YX=     0.8164   ZX=    -1.4512
   XY=     2.2712   YY=   201.4222   ZY=    -1.0134
   XZ=     0.8974   YZ=     1.3798   ZZ=   190.3110
   Eigenvalues:   190.3000   200.0979   203.2083
     33  H    Isotropic =    31.6542   Anisotropy =    10.6859
   XX=    37.8356   YX=     2.0433   ZX=     1.9985
   XY=     1.9558   YY=    29.2109   ZY=     1.7572
   XZ=     1.9430   YZ=     1.8635   ZZ=    27.9160
   Eigenvalues:    26.6179    29.5665    38.7781
     34  H    Isotropic =    31.3912   Anisotropy =     8.6076
   XX=    27.6225   YX=     0.6183   ZX=     0.5099
   XY=     0.2880   YY=    34.9521   ZY=    -3.9312
   XZ=     0.5222   YZ=    -3.0066   ZZ=    31.5990
   Eigenvalues:    27.3946    29.6494    37.1296
     35  H    Isotropic =    31.6138   Anisotropy =     9.1737
   XX=    29.9401   YX=    -0.2269   ZX=    -2.5182
   XY=    -0.4690   YY=    31.4202   ZY=     4.8041
   XZ=    -2.2800   YZ=     4.3812   ZZ=    33.4811
   Eigenvalues:    27.1136    29.9982    37.7295
     36  C    Isotropic =   170.5368   Anisotropy =    37.3509
   XX=   162.5980   YX=    -9.0585   ZX=     7.2943
   XY=    -9.3719   YY=   170.9194   ZY=   -13.3396
   XZ=    11.3047   YZ=   -17.3657   ZZ=   178.0929
   Eigenvalues:   156.6003   159.5726   195.4374
     37  H    Isotropic =    30.5045   Anisotropy =     8.6042
   XX=    26.6045   YX=     0.2663   ZX=    -0.3943
   XY=     1.1775   YY=    35.1131   ZY=    -1.9921
   XZ=    -0.5989   YZ=    -3.1837   ZZ=    29.7960
   Eigenvalues:    26.5128    28.7601    36.2407
     38  H    Isotropic =    30.9833   Anisotropy =     9.4490
   XX=    28.2274   YX=    -0.5802   ZX=    -1.3811
   XY=    -0.4483   YY=    27.7735   ZY=    -0.5099
   XZ=    -2.0911   YZ=     0.1444   ZZ=    36.9491
   Eigenvalues:    27.2908    28.3765    37.2827
     39  H    Isotropic =    30.2452   Anisotropy =     8.3730
   XX=    35.1589   YX=    -1.4326   ZX=     0.4762
   XY=    -2.1343   YY=    25.3405   ZY=    -1.8256
   XZ=     1.7093   YZ=    -1.6771   ZZ=    30.2361
   Eigenvalues:    24.5953    30.3130    35.8271
     40  C    Isotropic =   170.0894   Anisotropy =    39.5739
   XX=   196.0089   YX=     4.5571   ZX=     4.8213
   XY=     2.3477   YY=   158.2361   ZY=     1.5943
   XZ=    -0.0084   YZ=    -0.0948   ZZ=   156.0233
   Eigenvalues:   155.7450   158.0513   196.4720
     41  H    Isotropic =    30.7257   Anisotropy =     9.2105
   XX=    33.4372   YX=     4.9414   ZX=    -1.1372
   XY=     3.4023   YY=    31.7845   ZY=     1.5183
   XZ=    -0.9487   YZ=     1.4887   ZZ=    26.9554
   Eigenvalues:    25.7013    29.6097    36.8660
     42  H    Isotropic =    30.7290   Anisotropy =     9.2839
   XX=    34.4284   YX=    -3.5304   ZX=     3.0323
   XY=    -2.2758   YY=    27.2082   ZY=    -1.9696
   XZ=     1.9806   YZ=    -2.0482   ZZ=    30.5505
   Eigenvalues:    25.8815    29.3873    36.9182
     43  H    Isotropic =    30.9314   Anisotropy =    10.0592
   XX=    33.7131   YX=    -1.7728   ZX=    -4.9513
   XY=    -1.2786   YY=    27.6937   ZY=     1.9455
   XZ=    -3.7659   YZ=     1.9260   ZZ=    31.3874
   Eigenvalues:    26.8318    28.3247    37.6375
     44  C    Isotropic =   170.3538   Anisotropy =    36.2264
   XX=   159.6088   YX=     9.9354   ZX=    -1.8549
   XY=    12.3759   YY=   190.8839   ZY=    -0.7410
   XZ=    -1.8827   YZ=     4.6524   ZZ=   160.5687
   Eigenvalues:   155.0134   161.5433   194.5047
     45  H    Isotropic =    31.0789   Anisotropy =     9.1113
   XX=    28.1688   YX=    -0.4044   ZX=    -1.6801
   XY=    -0.8333   YY=    32.2544   ZY=     4.6115
   XZ=    -1.7735   YZ=     3.9738   ZZ=    32.8136
   Eigenvalues:    27.3009    28.7827    37.1531
     46  H    Isotropic =    30.6630   Anisotropy =     7.7512
   XX=    27.5341   YX=    -1.4016   ZX=    -0.1570
   XY=    -1.9771   YY=    34.4105   ZY=    -3.2222
   XZ=     0.2994   YZ=    -1.7388   ZZ=    30.0444
   Eigenvalues:    27.0338    29.1247    35.8305
     47  H    Isotropic =    29.7763   Anisotropy =    10.3720
   XX=    34.9636   YX=     2.5223   ZX=    -2.8394
   XY=     4.1856   YY=    28.3083   ZY=     1.4230
   XZ=    -2.3514   YZ=     1.5572   ZZ=    26.0571
   Eigenvalues:    23.9120    28.7261    36.6910
 End of Minotr Frequency-dependent properties file   721 does not exist.
 End of Minotr Frequency-dependent properties file   722 does not exist.

 **********************************************************************

            Population analysis using the SCF density.

 **********************************************************************

 Orbital symmetries:
       Occupied  (A) (A) (A) (A) (A) (A) (A) (A) (A) (A) (A) (A)
                 (A) (A) (A) (A) (A) (A) (A) (A) (A) (A) (A) (A)
                 (A) (A) (A) (A) (A) (A) (A) (A) (A) (A) (A) (A)
                 (A) (A) (A) (A) (A) (A) (A) (A) (A) (A) (A) (A)
                 (A) (A) (A) (A) (A) (A) (A) (A) (A) (A) (A) (A)
                 (A) (A) (A) (A) (A) (A) (A) (A) (A) (A) (A) (A)
                 (A) (A) (A) (A) (A) (A) (A)
       Virtual   (A) (A) (A) (A) (A) (A) (A) (A) (A) (A) (A) (A)
                 (A) (A) (A) (A) (A) (A) (A) (A) (A) (A) (A) (A)
                 (A) (A) (A) (A) (A) (A) (A) (A) (A) (A) (A) (A)
                 (A) (A) (A) (A) (A) (A) (A) (A) (A) (A) (A) (A)
                 (A) (A) (A) (A) (A) (A) (A) (A) (A) (A) (A) (A)
                 (A) (A) (A) (A) (A) (A) (A) (A) (A) (A) (A) (A)
                 (A) (A) (A) (A) (A) (A) (A) (A) (A) (A) (A) (A)
                 (A) (A) (A) (A) (A) (A) (A) (A) (A) (A) (A) (A)
                 (A) (A) (A) (A) (A) (A) (A) (A) (A) (A) (A) (A)
                 (A) (A) (A) (A) (A) (A) (A) (A) (A) (A) (A) (A)
                 (A) (A) (A) (A) (A) (A) (A) (A) (A) (A) (A) (A)
                 (A) (A) (A) (A) (A) (A) (A) (A) (A) (A) (A) (A)
                 (A) (A) (A) (A) (A) (A) (A) (A) (A) (A) (A) (A)
                 (A) (A) (A) (A) (A) (A) (A) (A) (A) (A) (A) (A)
                 (A) (A) (A) (A) (A) (A) (A) (A) (A) (A) (A) (A)
                 (A) (A) (A) (A) (A) (A) (A) (A) (A) (A) (A) (A)
                 (A) (A) (A) (A) (A) (A) (A) (A) (A) (A) (A) (A)
                 (A) (A) (A) (A) (A) (A) (A) (A) (A) (A) (A) (A)
                 (A) (A) (A) (A) (A) (A) (A) (A) (A) (A) (A) (A)
                 (A) (A) (A) (A) (A) (A) (A) (A) (A) (A) (A) (A)
                 (A) (A) (A) (A) (A) (A) (A) (A) (A) (A) (A) (A)
                 (A) (A) (A) (A) (A) (A) (A) (A) (A) (A) (A) (A)
                 (A) (A) (A) (A) (A) (A) (A) (A) (A) (A) (A) (A)
                 (A) (A) (A) (A) (A) (A) (A) (A) (A) (A) (A) (A)
                 (A) (A) (A) (A) (A) (A) (A) (A) (A) (A) (A) (A)
                 (A) (A) (A) (A) (A) (A) (A) (A) (A) (A) (A) (A)
                 (A) (A) (A) (A) (A) (A) (A) (A) (A) (A) (A) (A)
                 (A) (A) (A) (A) (A) (A) (A) (A) (A) (A) (A) (A)
                 (A) (A) (A) (A) (A) (A) (A) (A) (A) (A) (A) (A)
                 (A) (A) (A) (A) (A) (A) (A) (A) (A) (A) (A) (A)
                 (A) (A) (A) (A) (A) (A) (A) (A) (A) (A) (A) (A)
                 (A) (A) (A) (A) (A) (A) (A) (A) (A) (A) (A) (A)
                 (A) (A) (A) (A) (A) (A) (A) (A) (A) (A) (A) (A)
                 (A) (A) (A) (A) (A) (A) (A) (A) (A) (A) (A) (A)
                 (A) (A) (A) (A) (A) (A) (A) (A) (A) (A) (A) (A)
                 (A) (A) (A) (A) (A) (A)
 The electronic state is 1-A.
 Alpha  occ. eigenvalues --  -66.30132 -19.27140 -19.25248 -19.24985 -19.23079
 Alpha  occ. eigenvalues --  -10.31860 -10.30692 -10.30546 -10.30282 -10.30137
 Alpha  occ. eigenvalues --  -10.28116 -10.25475 -10.25058 -10.24431 -10.23414
 Alpha  occ. eigenvalues --  -10.23125 -10.22717 -10.22079 -10.22075  -5.33511
 Alpha  occ. eigenvalues --   -3.67428  -3.67143  -3.67105  -1.11532  -1.07195
 Alpha  occ. eigenvalues --   -1.05215  -1.02862  -0.84501  -0.81877  -0.77397
 Alpha  occ. eigenvalues --   -0.75325  -0.71943  -0.70159  -0.69984  -0.69838
 Alpha  occ. eigenvalues --   -0.69206  -0.69015  -0.63767  -0.61923  -0.59228
 Alpha  occ. eigenvalues --   -0.56359  -0.55049  -0.52485  -0.51840  -0.50717
 Alpha  occ. eigenvalues --   -0.48294  -0.48035  -0.47465  -0.46571  -0.45615
 Alpha  occ. eigenvalues --   -0.44386  -0.44227  -0.43950  -0.42794  -0.41884
 Alpha  occ. eigenvalues --   -0.41481  -0.41161  -0.40603  -0.40339  -0.39943
 Alpha  occ. eigenvalues --   -0.39610  -0.38822  -0.38522  -0.38407  -0.38232
 Alpha  occ. eigenvalues --   -0.36884  -0.36456  -0.35263  -0.34027  -0.33548
 Alpha  occ. eigenvalues --   -0.33244  -0.32770  -0.32449  -0.31734  -0.30264
 Alpha  occ. eigenvalues --   -0.30014  -0.28552  -0.26637  -0.25492
 Alpha virt. eigenvalues --   -0.00223   0.00868   0.01399   0.01541   0.02432
 Alpha virt. eigenvalues --    0.02966   0.03207   0.03772   0.03923   0.04612
 Alpha virt. eigenvalues --    0.04828   0.05478   0.05764   0.06172   0.06357
 Alpha virt. eigenvalues --    0.07006   0.07148   0.07799   0.07983   0.08101
 Alpha virt. eigenvalues --    0.08202   0.08910   0.09116   0.09355   0.09623
 Alpha virt. eigenvalues --    0.10168   0.10507   0.10890   0.11421   0.11909
 Alpha virt. eigenvalues --    0.11971   0.12032   0.12372   0.12518   0.12820
 Alpha virt. eigenvalues --    0.13283   0.14062   0.14540   0.14683   0.15080
 Alpha virt. eigenvalues --    0.15339   0.15440   0.15678   0.16369   0.16411
 Alpha virt. eigenvalues --    0.16781   0.17096   0.17505   0.17783   0.17836
 Alpha virt. eigenvalues --    0.18175   0.18632   0.18820   0.19096   0.19599
 Alpha virt. eigenvalues --    0.19989   0.20434   0.20767   0.20793   0.21000
 Alpha virt. eigenvalues --    0.21270   0.22213   0.22440   0.22646   0.22725
 Alpha virt. eigenvalues --    0.23020   0.23267   0.23790   0.24036   0.24454
 Alpha virt. eigenvalues --    0.24787   0.25109   0.25610   0.25788   0.26264
 Alpha virt. eigenvalues --    0.26748   0.27114   0.27197   0.27498   0.27966
 Alpha virt. eigenvalues --    0.28215   0.28389   0.28950   0.29515   0.29861
 Alpha virt. eigenvalues --    0.29993   0.30203   0.30784   0.31546   0.31757
 Alpha virt. eigenvalues --    0.32046   0.32394   0.32560   0.33551   0.33768
 Alpha virt. eigenvalues --    0.34193   0.34697   0.35496   0.36108   0.36578
 Alpha virt. eigenvalues --    0.37104   0.37478   0.37792   0.38067   0.38756
 Alpha virt. eigenvalues --    0.39186   0.39712   0.40768   0.41016   0.41341
 Alpha virt. eigenvalues --    0.42188   0.42641   0.43584   0.44039   0.45067
 Alpha virt. eigenvalues --    0.46295   0.46624   0.47284   0.47874   0.48646
 Alpha virt. eigenvalues --    0.49647   0.50117   0.51422   0.53871   0.55291
 Alpha virt. eigenvalues --    0.57676   0.59168   0.62871   0.64082   0.66851
 Alpha virt. eigenvalues --    0.67276   0.68697   0.70003   0.70858   0.71767
 Alpha virt. eigenvalues --    0.72602   0.73336   0.73890   0.74052   0.75376
 Alpha virt. eigenvalues --    0.76023   0.77010   0.77483   0.78546   0.79054
 Alpha virt. eigenvalues --    0.79564   0.79934   0.80325   0.81452   0.82289
 Alpha virt. eigenvalues --    0.83133   0.83945   0.85239   0.85609   0.85997
 Alpha virt. eigenvalues --    0.87374   0.88426   0.89099   0.89901   0.89958
 Alpha virt. eigenvalues --    0.91110   0.91674   0.92041   0.92826   0.92955
 Alpha virt. eigenvalues --    0.94507   0.96208   0.96640   0.97191   0.97856
 Alpha virt. eigenvalues --    0.98884   1.00013   1.00468   1.01196   1.01488
 Alpha virt. eigenvalues --    1.02776   1.03573   1.04827   1.05115   1.05861
 Alpha virt. eigenvalues --    1.06684   1.06903   1.07706   1.07811   1.08358
 Alpha virt. eigenvalues --    1.08888   1.09146   1.10645   1.11336   1.13039
 Alpha virt. eigenvalues --    1.14440   1.15747   1.15831   1.16522   1.17478
 Alpha virt. eigenvalues --    1.17541   1.18703   1.19525   1.20751   1.22089
 Alpha virt. eigenvalues --    1.22750   1.24496   1.24697   1.25512   1.27010
 Alpha virt. eigenvalues --    1.27202   1.28958   1.30982   1.31643   1.33548
 Alpha virt. eigenvalues --    1.34387   1.34795   1.35972   1.37733   1.38053
 Alpha virt. eigenvalues --    1.38444   1.39878   1.40637   1.42182   1.43826
 Alpha virt. eigenvalues --    1.44347   1.45792   1.47471   1.48729   1.48986
 Alpha virt. eigenvalues --    1.50822   1.50948   1.52498   1.54271   1.55990
 Alpha virt. eigenvalues --    1.56461   1.58556   1.60388   1.61836   1.62389
 Alpha virt. eigenvalues --    1.63868   1.66573   1.67070   1.68395   1.69815
 Alpha virt. eigenvalues --    1.70406   1.71444   1.72801   1.74342   1.75711
 Alpha virt. eigenvalues --    1.77493   1.78212   1.78758   1.81236   1.82294
 Alpha virt. eigenvalues --    1.83700   1.84360   1.85588   1.86569   1.88828
 Alpha virt. eigenvalues --    1.90050   1.91427   1.91877   1.92025   1.93849
 Alpha virt. eigenvalues --    1.94502   1.95559   1.96646   1.96972   1.97420
 Alpha virt. eigenvalues --    1.98251   1.99069   2.00147   2.00915   2.02016
 Alpha virt. eigenvalues --    2.03614   2.04428   2.06253   2.06695   2.07057
 Alpha virt. eigenvalues --    2.07514   2.08212   2.08898   2.09144   2.09926
 Alpha virt. eigenvalues --    2.11311   2.11453   2.12467   2.12778   2.13726
 Alpha virt. eigenvalues --    2.14233   2.14771   2.15137   2.15899   2.16395
 Alpha virt. eigenvalues --    2.16872   2.17064   2.17784   2.18576   2.18764
 Alpha virt. eigenvalues --    2.19175   2.19543   2.20621   2.20856   2.21815
 Alpha virt. eigenvalues --    2.22265   2.22913   2.23924   2.26078   2.26656
 Alpha virt. eigenvalues --    2.27842   2.29412   2.31087   2.31659   2.35811
 Alpha virt. eigenvalues --    2.36311   2.37860   2.38349   2.39810   2.40165
 Alpha virt. eigenvalues --    2.40566   2.42041   2.42380   2.43804   2.44572
 Alpha virt. eigenvalues --    2.46024   2.46480   2.49576   2.51515   2.53601
 Alpha virt. eigenvalues --    2.54338   2.57277   2.57767   2.58267   2.59360
 Alpha virt. eigenvalues --    2.60177   2.61311   2.62995   2.63739   2.65730
 Alpha virt. eigenvalues --    2.67176   2.67541   2.69360   2.69494   2.70558
 Alpha virt. eigenvalues --    2.71306   2.72825   2.73647   2.73959   2.75639
 Alpha virt. eigenvalues --    2.76039   2.77091   2.78416   2.78770   2.79342
 Alpha virt. eigenvalues --    2.80622   2.81495   2.83671   2.84338   2.85213
 Alpha virt. eigenvalues --    2.86008   2.87050   2.87196   2.88031   2.88512
 Alpha virt. eigenvalues --    2.88769   2.89461   2.90182   2.90478   2.91689
 Alpha virt. eigenvalues --    2.92292   2.93432   2.95187   2.95955   2.98271
 Alpha virt. eigenvalues --    2.99087   2.99343   3.01505   3.03889   3.06512
 Alpha virt. eigenvalues --    3.11708   3.12503   3.20886   3.24940   3.27541
 Alpha virt. eigenvalues --    3.28097   3.28375   3.30443   3.31128   3.32419
 Alpha virt. eigenvalues --    3.33486   3.37481   3.37814   3.39846   3.45619
 Alpha virt. eigenvalues --    3.47819   3.48241   3.48822   3.49524   3.49854
 Alpha virt. eigenvalues --    3.50111   3.50354   3.50934   3.51256   3.52452
 Alpha virt. eigenvalues --    3.52882   3.53229   3.55970   3.56528   3.57458
 Alpha virt. eigenvalues --    3.57591   3.60338   3.63375   4.36364   4.42324
 Alpha virt. eigenvalues --    4.45528   4.51903   4.53794   4.55793   4.60480
 Alpha virt. eigenvalues --    4.60948   4.63203   4.64683   4.67889   4.69815
 Alpha virt. eigenvalues --    4.71633   4.76634   4.79438   4.83992   4.94476
 Alpha virt. eigenvalues --    4.99857
          Condensed to atoms (all electrons):
              1          2          3          4          5          6
     1  H    0.607767   0.191056  -0.002125   0.039983   0.028557   0.072509
     2  C    0.191056  13.024916   0.333714  -2.377366   0.877042  -5.377490
     3  C   -0.002125   0.333714   8.466492  -2.469085  -0.547085  -0.303527
     4  C    0.039983  -2.377366  -2.469085  14.285717  -4.327975   0.857192
     5  C    0.028557   0.877042  -0.547085  -4.327975  11.845967  -0.325759
     6  C    0.072509  -5.377490  -0.303527   0.857192  -0.325759  12.029756
     7  C   -0.046300  -1.619247   0.523372  -0.233266  -0.072768   0.744943
     8  H   -0.000050  -0.080513   0.397757   0.025249  -0.055198   0.060741
     9  H   -0.000215   0.088704  -0.009149   0.381122  -0.024189  -0.178073
    10  H   -0.005106   0.143423  -0.002662  -0.171146   0.084323   0.206571
    11  H   -0.002178  -0.159031  -0.028184   0.015251  -0.014715   0.070807
    12  H   -0.000116   0.067226   0.333599   0.069179  -0.041178  -0.006821
    13  H   -0.004974  -0.049491  -0.042774   0.009507   0.021466   0.014169
    14  C    0.006599   0.559180  -0.397983   0.558526  -2.082530  -1.042076
    15  H    0.000000  -0.004491  -0.038380   0.122574  -0.144328   0.005567
    16  H    0.000000   0.007953   0.048428  -0.025437  -0.143468  -0.014809
    17  O   -0.000499  -0.008556  -0.024697  -0.300506   0.307611   0.019885
    18  O   -0.000706   0.096538   0.094203   0.051438   0.145028  -0.152355
    19  H   -0.000009   0.026224   0.005392   0.082669  -0.065566  -0.081714
    20  O    0.004131   0.014462   0.014987  -0.353849   0.164654   0.213485
    21  C   -0.006675   0.069189   0.019857   0.043570  -0.101428  -0.135433
    22  H    0.000029  -0.050677  -0.006420   0.040199  -0.029391   0.067191
    23  H   -0.000023  -0.005147   0.000093  -0.005060   0.003779   0.013669
    24  H   -0.000137   0.067057   0.003404  -0.020431   0.009764  -0.083873
    25  O   -0.048979   0.035530  -0.049004  -0.033707   0.127888  -0.167227
    26  Si   0.028095  -0.656628   0.013375  -0.270211   0.093785   0.402416
    27  C   -0.000532   0.139269  -0.010949   0.017456   0.011596  -0.129549
    28  H    0.000059   0.000283   0.000044   0.000242   0.000112   0.002743
    29  H   -0.000139  -0.006565   0.000072   0.000811  -0.001097   0.005245
    30  H   -0.000570   0.001387  -0.000519  -0.001024   0.001065  -0.003710
    31  C    0.000916   0.129068  -0.007020  -0.094063   0.073413  -0.076295
    32  C   -0.000431   0.049768  -0.025412  -0.004751   0.016596  -0.026544
    33  H   -0.000006   0.003021   0.000533   0.000201  -0.000153   0.000270
    34  H    0.000003  -0.002863   0.001437  -0.000241  -0.001022   0.000493
    35  H   -0.000006   0.002076   0.001597   0.000583  -0.001247   0.003591
    36  C    0.000148  -0.100255   0.033695   0.071615  -0.077275   0.149621
    37  H   -0.000001   0.001232   0.000332  -0.000350  -0.000005  -0.002351
    38  H    0.000000  -0.002116   0.000539   0.001599  -0.001566   0.002463
    39  H   -0.000002   0.000216  -0.005418  -0.007371   0.008180  -0.001137
    40  C   -0.000038   0.051889  -0.007248  -0.021103   0.018439  -0.066330
    41  H    0.000000  -0.000062  -0.000012  -0.000111   0.000040  -0.000116
    42  H    0.000000   0.001018   0.000005   0.000087  -0.000006  -0.000310
    43  H    0.000000  -0.000715   0.000022   0.000047  -0.000051   0.000434
    44  C   -0.005105   0.062847  -0.002577   0.066352  -0.026604  -0.144134
    45  H    0.000000  -0.000900   0.000260   0.001316  -0.000724   0.002298
    46  H    0.000005  -0.002514  -0.000105  -0.000647   0.000086   0.003751
    47  H    0.000002   0.014896  -0.000114  -0.001774   0.003341  -0.028653
              7          8          9         10         11         12
     1  H   -0.046300  -0.000050  -0.000215  -0.005106  -0.002178  -0.000116
     2  C   -1.619247  -0.080513   0.088704   0.143423  -0.159031   0.067226
     3  C    0.523372   0.397757  -0.009149  -0.002662  -0.028184   0.333599
     4  C   -0.233266   0.025249   0.381122  -0.171146   0.015251   0.069179
     5  C   -0.072768  -0.055198  -0.024189   0.084323  -0.014715  -0.041178
     6  C    0.744943   0.060741  -0.178073   0.206571   0.070807  -0.006821
     7  C    6.733418  -0.028340   0.015953   0.011455   0.429124  -0.074201
     8  H   -0.028340   0.512257   0.000315  -0.000009   0.004412  -0.023602
     9  H    0.015953   0.000315   0.531391   0.004920  -0.000010  -0.000080
    10  H    0.011455  -0.000009   0.004920   0.589558   0.000362  -0.000040
    11  H    0.429124   0.004412  -0.000010   0.000362   0.528633  -0.003852
    12  H   -0.074201  -0.023602  -0.000080  -0.000040  -0.003852   0.527477
    13  H    0.393629  -0.003449  -0.000007   0.000049  -0.023099  -0.001616
    14  C   -0.263839  -0.023962   0.026170   0.021677  -0.009761  -0.010991
    15  H   -0.005515   0.000211  -0.000180  -0.000026   0.000002   0.000093
    16  H    0.003241  -0.000206   0.000198   0.000007  -0.000017   0.000623
    17  O    0.036237   0.008550   0.011042   0.005604   0.003583  -0.001116
    18  O   -0.006935  -0.000220  -0.051201  -0.003156  -0.000108  -0.000646
    19  H   -0.002249  -0.000035   0.006903   0.003081  -0.000031  -0.000011
    20  O    0.012636  -0.000728  -0.000802  -0.052072  -0.001564   0.000122
    21  C   -0.005781   0.000239  -0.001244  -0.005845   0.000835   0.000237
    22  H    0.001139   0.000000  -0.000004  -0.001608   0.000000   0.000000
    23  H   -0.001625   0.000000  -0.000004  -0.000030   0.000000   0.000000
    24  H    0.005329   0.000000   0.000012   0.009549  -0.000002   0.000000
    25  O   -0.036244   0.009479   0.010698   0.013571   0.013502  -0.002402
    26  Si   0.207233   0.003504  -0.004191   0.000055  -0.001467  -0.004405
    27  C   -0.067655   0.000144   0.000670   0.000341   0.000402   0.000143
    28  H    0.000553   0.000000   0.000000   0.000000   0.000000   0.000000
    29  H    0.000394   0.000000   0.000000   0.000003   0.000002   0.000000
    30  H    0.001558   0.000000   0.000001   0.000007   0.000000   0.000000
    31  C   -0.044536  -0.005022  -0.004821  -0.001341  -0.000191  -0.000018
    32  C   -0.025230   0.000569   0.000409   0.000223   0.000031   0.000404
    33  H   -0.000146   0.000000   0.000000   0.000000   0.000000   0.000000
    34  H    0.001953  -0.000001   0.000000   0.000000   0.000000   0.000000
    35  H   -0.003581  -0.000002   0.000000   0.000000   0.000002   0.000000
    36  C    0.001942   0.003861   0.002649   0.000269   0.000320   0.000049
    37  H    0.000537  -0.000018   0.000001   0.000000   0.000000   0.000000
    38  H   -0.000161   0.000000  -0.000012   0.000000   0.000000   0.000000
    39  H    0.001072   0.000197   0.001139   0.000001   0.000000   0.000000
    40  C   -0.005281  -0.000313   0.001146   0.000081  -0.000049   0.000000
    41  H   -0.000039   0.000000   0.000000   0.000000   0.000000   0.000000
    42  H   -0.000065   0.000000   0.000000   0.000000   0.000000   0.000000
    43  H    0.000022   0.000000   0.000000   0.000000   0.000000   0.000000
    44  C    0.011001  -0.000488   0.004276   0.000831  -0.000184   0.000090
    45  H    0.000118   0.000000  -0.000009   0.000000   0.000000   0.000000
    46  H   -0.000287   0.000000   0.000003   0.000000   0.000000   0.000000
    47  H    0.001320   0.000001   0.001020   0.000017   0.000000   0.000000
             13         14         15         16         17         18
     1  H   -0.004974   0.006599   0.000000   0.000000  -0.000499  -0.000706
     2  C   -0.049491   0.559180  -0.004491   0.007953  -0.008556   0.096538
     3  C   -0.042774  -0.397983  -0.038380   0.048428  -0.024697   0.094203
     4  C    0.009507   0.558526   0.122574  -0.025437  -0.300506   0.051438
     5  C    0.021466  -2.082530  -0.144328  -0.143468   0.307611   0.145028
     6  C    0.014169  -1.042076   0.005567  -0.014809   0.019885  -0.152355
     7  C    0.393629  -0.263839  -0.005515   0.003241   0.036237  -0.006935
     8  H   -0.003449  -0.023962   0.000211  -0.000206   0.008550  -0.000220
     9  H   -0.000007   0.026170  -0.000180   0.000198   0.011042  -0.051201
    10  H    0.000049   0.021677  -0.000026   0.000007   0.005604  -0.003156
    11  H   -0.023099  -0.009761   0.000002  -0.000017   0.003583  -0.000108
    12  H   -0.001616  -0.010991   0.000093   0.000623  -0.001116  -0.000646
    13  H    0.527517   0.000030   0.000001  -0.000001  -0.000015   0.000061
    14  C    0.000030   7.972383   0.439533   0.491610   0.027101  -0.110407
    15  H    0.000001   0.439533   0.508997  -0.031709  -0.035519   0.000778
    16  H   -0.000001   0.491610  -0.031709   0.518734  -0.031398   0.000590
    17  O   -0.000015   0.027101  -0.035519  -0.031398   8.341081   0.009390
    18  O    0.000061  -0.110407   0.000778   0.000590   0.009390   8.236515
    19  H    0.000001   0.000419  -0.001621   0.000212   0.031348   0.251287
    20  O   -0.000602  -0.004126  -0.000021   0.000037   0.002455   0.010961
    21  C    0.000481  -0.019587   0.000338  -0.000064  -0.000824  -0.013885
    22  H    0.000000   0.003987   0.000001   0.000000   0.000073  -0.018715
    23  H    0.000000   0.000041   0.000000   0.000000  -0.000010   0.001495
    24  H    0.000000  -0.001199   0.000000   0.000000   0.000003   0.003288
    25  O   -0.009384   0.030795  -0.000161  -0.000049   0.001070  -0.004520
    26  Si  -0.002407  -0.033953  -0.000286  -0.000076  -0.000725  -0.007765
    27  C   -0.001352   0.005647   0.000003   0.000003  -0.000013   0.000526
    28  H    0.000000   0.000003   0.000000   0.000000   0.000000   0.000000
    29  H    0.000011  -0.000036   0.000000   0.000000   0.000000  -0.000001
    30  H   -0.000002   0.000071   0.000000   0.000000  -0.000001  -0.000009
    31  C   -0.000788   0.004968  -0.000001   0.000046   0.000210   0.004258
    32  C    0.000126   0.003294   0.000006   0.000000  -0.000020   0.000054
    33  H    0.000004  -0.000002   0.000000   0.000000   0.000000   0.000000
    34  H   -0.000008  -0.000096   0.000000   0.000000   0.000000   0.000000
    35  H    0.000155  -0.000055   0.000000   0.000000   0.000000   0.000000
    36  C    0.000762  -0.010796  -0.000038  -0.000037  -0.000097  -0.002491
    37  H    0.000000   0.000107   0.000000   0.000000   0.000000   0.000001
    38  H    0.000000  -0.000110   0.000000   0.000000   0.000000  -0.000004
    39  H    0.000000   0.000576   0.000000   0.000000  -0.000006  -0.000003
    40  C   -0.000306   0.001905  -0.000002   0.000001   0.000016   0.000192
    41  H    0.000000   0.000001   0.000000   0.000000   0.000000   0.000000
    42  H    0.000000   0.000000   0.000000   0.000000   0.000000   0.000000
    43  H    0.000000  -0.000001   0.000000   0.000000   0.000000   0.000000
    44  C    0.000242   0.008727   0.000027   0.000006   0.000175  -0.000444
    45  H    0.000000  -0.000034   0.000000   0.000000   0.000000  -0.000010
    46  H    0.000000   0.000000   0.000000   0.000000   0.000000  -0.000004
    47  H    0.000000   0.000434   0.000000   0.000000   0.000004   0.000314
             19         20         21         22         23         24
     1  H   -0.000009   0.004131  -0.006675   0.000029  -0.000023  -0.000137
     2  C    0.026224   0.014462   0.069189  -0.050677  -0.005147   0.067057
     3  C    0.005392   0.014987   0.019857  -0.006420   0.000093   0.003404
     4  C    0.082669  -0.353849   0.043570   0.040199  -0.005060  -0.020431
     5  C   -0.065566   0.164654  -0.101428  -0.029391   0.003779   0.009764
     6  C   -0.081714   0.213485  -0.135433   0.067191   0.013669  -0.083873
     7  C   -0.002249   0.012636  -0.005781   0.001139  -0.001625   0.005329
     8  H   -0.000035  -0.000728   0.000239   0.000000   0.000000   0.000000
     9  H    0.006903  -0.000802  -0.001244  -0.000004  -0.000004   0.000012
    10  H    0.003081  -0.052072  -0.005845  -0.001608  -0.000030   0.009549
    11  H   -0.000031  -0.001564   0.000835   0.000000   0.000000  -0.000002
    12  H   -0.000011   0.000122   0.000237   0.000000   0.000000   0.000000
    13  H    0.000001  -0.000602   0.000481   0.000000   0.000000   0.000000
    14  C    0.000419  -0.004126  -0.019587   0.003987   0.000041  -0.001199
    15  H   -0.001621  -0.000021   0.000338   0.000001   0.000000   0.000000
    16  H    0.000212   0.000037  -0.000064   0.000000   0.000000   0.000000
    17  O    0.031348   0.002455  -0.000824   0.000073  -0.000010   0.000003
    18  O    0.251287   0.010961  -0.013885  -0.018715   0.001495   0.003288
    19  H    0.360524  -0.000834   0.000509  -0.000081  -0.000006  -0.000091
    20  O   -0.000834   8.351995  -0.058358  -0.062836  -0.073961  -0.053014
    21  C    0.000509  -0.058358   5.151441   0.411732   0.428581   0.415545
    22  H   -0.000081  -0.062836   0.411732   0.539490  -0.029070  -0.042154
    23  H   -0.000006  -0.073961   0.428581  -0.029070   0.534380  -0.027293
    24  H   -0.000091  -0.053014   0.415545  -0.042154  -0.027293   0.574492
    25  O    0.000313   0.042186  -0.013365   0.000260  -0.000264  -0.000337
    26  Si  -0.000472   0.073760  -0.020021   0.002941  -0.002272  -0.002446
    27  C    0.000010  -0.024532   0.004788  -0.000241   0.001226  -0.000845
    28  H    0.000000   0.000134  -0.000419   0.000000  -0.000001   0.000000
    29  H    0.000000  -0.000208   0.000107   0.000000  -0.000001   0.000000
    30  H    0.000000  -0.002194  -0.001432  -0.000001   0.000078   0.000003
    31  C   -0.000101  -0.013804   0.014664  -0.000419  -0.000110   0.000262
    32  C    0.000003   0.004563  -0.000766   0.000021  -0.000049   0.000014
    33  H    0.000000  -0.000015   0.000005   0.000000   0.000000   0.000000
    34  H    0.000000   0.000028   0.000025   0.000000   0.000000   0.000000
    35  H    0.000000  -0.000027   0.000022   0.000000   0.000000   0.000000
    36  C    0.000113  -0.001718  -0.001615  -0.000109  -0.000448   0.000186
    37  H    0.000000   0.000013   0.000040   0.000000   0.000000   0.000000
    38  H    0.000000  -0.000041   0.000010   0.000000   0.000000   0.000000
    39  H    0.000000   0.000040  -0.000082   0.000000   0.000000   0.000000
    40  C    0.000009   0.001152   0.000814  -0.000006   0.000114  -0.000005
    41  H    0.000000   0.000002  -0.000003   0.000000   0.000000   0.000000
    42  H    0.000000   0.000023   0.000023   0.000000   0.000000   0.000000
    43  H    0.000000  -0.000012  -0.000007   0.000000   0.000000   0.000000
    44  C    0.000160  -0.009677  -0.004159  -0.001075   0.001193   0.000168
    45  H    0.000000   0.000058  -0.000297   0.000000  -0.000002   0.000000
    46  H    0.000000   0.001519  -0.000245   0.000000  -0.000008   0.000000
    47  H    0.000001  -0.001016  -0.000383  -0.000012  -0.000004   0.000003
             25         26         27         28         29         30
     1  H   -0.048979   0.028095  -0.000532   0.000059  -0.000139  -0.000570
     2  C    0.035530  -0.656628   0.139269   0.000283  -0.006565   0.001387
     3  C   -0.049004   0.013375  -0.010949   0.000044   0.000072  -0.000519
     4  C   -0.033707  -0.270211   0.017456   0.000242   0.000811  -0.001024
     5  C    0.127888   0.093785   0.011596   0.000112  -0.001097   0.001065
     6  C   -0.167227   0.402416  -0.129549   0.002743   0.005245  -0.003710
     7  C   -0.036244   0.207233  -0.067655   0.000553   0.000394   0.001558
     8  H    0.009479   0.003504   0.000144   0.000000   0.000000   0.000000
     9  H    0.010698  -0.004191   0.000670   0.000000   0.000000   0.000001
    10  H    0.013571   0.000055   0.000341   0.000000   0.000003   0.000007
    11  H    0.013502  -0.001467   0.000402   0.000000   0.000002   0.000000
    12  H   -0.002402  -0.004405   0.000143   0.000000   0.000000   0.000000
    13  H   -0.009384  -0.002407  -0.001352   0.000000   0.000011  -0.000002
    14  C    0.030795  -0.033953   0.005647   0.000003  -0.000036   0.000071
    15  H   -0.000161  -0.000286   0.000003   0.000000   0.000000   0.000000
    16  H   -0.000049  -0.000076   0.000003   0.000000   0.000000   0.000000
    17  O    0.001070  -0.000725  -0.000013   0.000000   0.000000  -0.000001
    18  O   -0.004520  -0.007765   0.000526   0.000000  -0.000001  -0.000009
    19  H    0.000313  -0.000472   0.000010   0.000000   0.000000   0.000000
    20  O    0.042186   0.073760  -0.024532   0.000134  -0.000208  -0.002194
    21  C   -0.013365  -0.020021   0.004788  -0.000419   0.000107  -0.001432
    22  H    0.000260   0.002941  -0.000241   0.000000   0.000000  -0.000001
    23  H   -0.000264  -0.002272   0.001226  -0.000001  -0.000001   0.000078
    24  H   -0.000337  -0.002446  -0.000845   0.000000   0.000000   0.000003
    25  O    8.372535  -0.000049  -0.057844   0.009193  -0.007923   0.004043
    26  Si  -0.000049  13.421055   0.162959  -0.026503  -0.021643  -0.037368
    27  C   -0.057844   0.162959   5.529024   0.389499   0.386773   0.412606
    28  H    0.009193  -0.026503   0.389499   0.491881  -0.020865  -0.020973
    29  H   -0.007923  -0.021643   0.386773  -0.020865   0.495119  -0.022516
    30  H    0.004043  -0.037368   0.412606  -0.020973  -0.022516   0.468873
    31  C   -0.033963   0.231305  -0.035397  -0.017145   0.013221  -0.031942
    32  C   -0.041655   0.241326  -0.005346  -0.004237  -0.007548   0.006258
    33  H    0.010082  -0.038251  -0.007346   0.000032   0.000152   0.000014
    34  H   -0.009843  -0.022250   0.007587   0.000013   0.000005  -0.000016
    35  H   -0.002870  -0.028688  -0.009424   0.000089   0.000379   0.000011
    36  C   -0.006478  -0.226304  -0.008605   0.001203  -0.001190  -0.003058
    37  H   -0.005918   0.015642   0.000071   0.000000  -0.000001   0.000000
    38  H   -0.000461   0.012698  -0.001532   0.000000   0.000000   0.000000
    39  H    0.009610  -0.015873  -0.000168   0.000000   0.000000   0.000003
    40  C    0.012650  -0.082643   0.013990   0.000954   0.001822   0.004773
    41  H   -0.000040  -0.009959  -0.000215  -0.000001  -0.000005   0.000001
    42  H    0.000957  -0.018185   0.003562   0.000718  -0.000017   0.000013
    43  H   -0.000608   0.016970   0.000640   0.000001   0.000001  -0.000002
    44  C    0.037146  -0.044317   0.004187   0.005610   0.000048   0.016738
    45  H   -0.000931   0.019513  -0.000606   0.000002   0.000000   0.000011
    46  H   -0.000445  -0.036829   0.008896   0.000097   0.000039  -0.000386
    47  H    0.009655   0.022108  -0.004433   0.000043  -0.000003   0.000118
             31         32         33         34         35         36
     1  H    0.000916  -0.000431  -0.000006   0.000003  -0.000006   0.000148
     2  C    0.129068   0.049768   0.003021  -0.002863   0.002076  -0.100255
     3  C   -0.007020  -0.025412   0.000533   0.001437   0.001597   0.033695
     4  C   -0.094063  -0.004751   0.000201  -0.000241   0.000583   0.071615
     5  C    0.073413   0.016596  -0.000153  -0.001022  -0.001247  -0.077275
     6  C   -0.076295  -0.026544   0.000270   0.000493   0.003591   0.149621
     7  C   -0.044536  -0.025230  -0.000146   0.001953  -0.003581   0.001942
     8  H   -0.005022   0.000569   0.000000  -0.000001  -0.000002   0.003861
     9  H   -0.004821   0.000409   0.000000   0.000000   0.000000   0.002649
    10  H   -0.001341   0.000223   0.000000   0.000000   0.000000   0.000269
    11  H   -0.000191   0.000031   0.000000   0.000000   0.000002   0.000320
    12  H   -0.000018   0.000404   0.000000   0.000000   0.000000   0.000049
    13  H   -0.000788   0.000126   0.000004  -0.000008   0.000155   0.000762
    14  C    0.004968   0.003294  -0.000002  -0.000096  -0.000055  -0.010796
    15  H   -0.000001   0.000006   0.000000   0.000000   0.000000  -0.000038
    16  H    0.000046   0.000000   0.000000   0.000000   0.000000  -0.000037
    17  O    0.000210  -0.000020   0.000000   0.000000   0.000000  -0.000097
    18  O    0.004258   0.000054   0.000000   0.000000   0.000000  -0.002491
    19  H   -0.000101   0.000003   0.000000   0.000000   0.000000   0.000113
    20  O   -0.013804   0.004563  -0.000015   0.000028  -0.000027  -0.001718
    21  C    0.014664  -0.000766   0.000005   0.000025   0.000022  -0.001615
    22  H   -0.000419   0.000021   0.000000   0.000000   0.000000  -0.000109
    23  H   -0.000110  -0.000049   0.000000   0.000000   0.000000  -0.000448
    24  H    0.000262   0.000014   0.000000   0.000000   0.000000   0.000186
    25  O   -0.033963  -0.041655   0.010082  -0.009843  -0.002870  -0.006478
    26  Si   0.231305   0.241326  -0.038251  -0.022250  -0.028688  -0.226304
    27  C   -0.035397  -0.005346  -0.007346   0.007587  -0.009424  -0.008605
    28  H   -0.017145  -0.004237   0.000032   0.000013   0.000089   0.001203
    29  H    0.013221  -0.007548   0.000152   0.000005   0.000379  -0.001190
    30  H   -0.031942   0.006258   0.000014  -0.000016   0.000011  -0.003058
    31  C    8.546891  -0.147193  -0.016172  -0.015404   0.016878  -0.447871
    32  C   -0.147193   5.466771   0.403764   0.397738   0.387049  -0.041899
    33  H   -0.016172   0.403764   0.492625  -0.022275  -0.022035   0.007882
    34  H   -0.015404   0.397738  -0.022275   0.492255  -0.022822   0.013300
    35  H    0.016878   0.387049  -0.022035  -0.022822   0.499231   0.002163
    36  C   -0.447871  -0.041899   0.007882   0.013300   0.002163   6.365115
    37  H   -0.071533  -0.000849   0.000061   0.000307  -0.000010   0.410193
    38  H   -0.159401   0.000353  -0.000001  -0.000011   0.000001   0.477675
    39  H   -0.096002   0.001083  -0.000002   0.000028  -0.000004   0.456976
    40  C   -0.501408   0.049473   0.001933  -0.000591  -0.002249  -0.296050
    41  H   -0.080827   0.003057  -0.000210   0.000061   0.000026  -0.018117
    42  H   -0.086008  -0.000379   0.000010   0.000037  -0.000007   0.009206
    43  H   -0.156686  -0.000365   0.000033  -0.000010   0.000000   0.018967
    44  C   -0.482471   0.007499   0.000565  -0.002228  -0.001328  -0.242201
    45  H   -0.162985  -0.001598   0.000000   0.000000   0.000000   0.027616
    46  H   -0.035723   0.000165   0.000001   0.000000   0.000000   0.010373
    47  H   -0.127619  -0.000313  -0.000001   0.000001   0.000000  -0.023094
             37         38         39         40         41         42
     1  H   -0.000001   0.000000  -0.000002  -0.000038   0.000000   0.000000
     2  C    0.001232  -0.002116   0.000216   0.051889  -0.000062   0.001018
     3  C    0.000332   0.000539  -0.005418  -0.007248  -0.000012   0.000005
     4  C   -0.000350   0.001599  -0.007371  -0.021103  -0.000111   0.000087
     5  C   -0.000005  -0.001566   0.008180   0.018439   0.000040  -0.000006
     6  C   -0.002351   0.002463  -0.001137  -0.066330  -0.000116  -0.000310
     7  C    0.000537  -0.000161   0.001072  -0.005281  -0.000039  -0.000065
     8  H   -0.000018   0.000000   0.000197  -0.000313   0.000000   0.000000
     9  H    0.000001  -0.000012   0.001139   0.001146   0.000000   0.000000
    10  H    0.000000   0.000000   0.000001   0.000081   0.000000   0.000000
    11  H    0.000000   0.000000   0.000000  -0.000049   0.000000   0.000000
    12  H    0.000000   0.000000   0.000000   0.000000   0.000000   0.000000
    13  H    0.000000   0.000000   0.000000  -0.000306   0.000000   0.000000
    14  C    0.000107  -0.000110   0.000576   0.001905   0.000001   0.000000
    15  H    0.000000   0.000000   0.000000  -0.000002   0.000000   0.000000
    16  H    0.000000   0.000000   0.000000   0.000001   0.000000   0.000000
    17  O    0.000000   0.000000  -0.000006   0.000016   0.000000   0.000000
    18  O    0.000001  -0.000004  -0.000003   0.000192   0.000000   0.000000
    19  H    0.000000   0.000000   0.000000   0.000009   0.000000   0.000000
    20  O    0.000013  -0.000041   0.000040   0.001152   0.000002   0.000023
    21  C    0.000040   0.000010  -0.000082   0.000814  -0.000003   0.000023
    22  H    0.000000   0.000000   0.000000  -0.000006   0.000000   0.000000
    23  H    0.000000   0.000000   0.000000   0.000114   0.000000   0.000000
    24  H    0.000000   0.000000   0.000000  -0.000005   0.000000   0.000000
    25  O   -0.005918  -0.000461   0.009610   0.012650  -0.000040   0.000957
    26  Si   0.015642   0.012698  -0.015873  -0.082643  -0.009959  -0.018185
    27  C    0.000071  -0.001532  -0.000168   0.013990  -0.000215   0.003562
    28  H    0.000000   0.000000   0.000000   0.000954  -0.000001   0.000718
    29  H   -0.000001   0.000000   0.000000   0.001822  -0.000005  -0.000017
    30  H    0.000000   0.000000   0.000003   0.004773   0.000001   0.000013
    31  C   -0.071533  -0.159401  -0.096002  -0.501408  -0.080827  -0.086008
    32  C   -0.000849   0.000353   0.001083   0.049473   0.003057  -0.000379
    33  H    0.000061  -0.000001  -0.000002   0.001933  -0.000210   0.000010
    34  H    0.000307  -0.000011   0.000028  -0.000591   0.000061   0.000037
    35  H   -0.000010   0.000001  -0.000004  -0.002249   0.000026  -0.000007
    36  C    0.410193   0.477675   0.456976  -0.296050  -0.018117   0.009206
    37  H    0.537588  -0.028271  -0.026092  -0.003606   0.002755   0.000035
    38  H   -0.028271   0.545629  -0.027711   0.005437  -0.000336  -0.000010
    39  H   -0.026092  -0.027711   0.524103  -0.000692   0.000045  -0.000148
    40  C   -0.003606   0.005437  -0.000692   5.922890   0.455720   0.454461
    41  H    0.002755  -0.000336   0.000045   0.455720   0.530382  -0.027344
    42  H    0.000035  -0.000010  -0.000148   0.454461  -0.027344   0.537358
    43  H   -0.000325   0.005426   0.000011   0.451177  -0.027812  -0.027869
    44  C    0.007176   0.003628   0.000482   0.057214   0.003319  -0.013993
    45  H    0.000045   0.005740  -0.000384  -0.008945  -0.000004  -0.000287
    46  H   -0.000157   0.000038   0.000015   0.002293   0.000042   0.002796
    47  H    0.000011  -0.000273   0.002885   0.004236  -0.000143   0.000044
             43         44         45         46         47
     1  H    0.000000  -0.005105   0.000000   0.000005   0.000002
     2  C   -0.000715   0.062847  -0.000900  -0.002514   0.014896
     3  C    0.000022  -0.002577   0.000260  -0.000105  -0.000114
     4  C    0.000047   0.066352   0.001316  -0.000647  -0.001774
     5  C   -0.000051  -0.026604  -0.000724   0.000086   0.003341
     6  C    0.000434  -0.144134   0.002298   0.003751  -0.028653
     7  C    0.000022   0.011001   0.000118  -0.000287   0.001320
     8  H    0.000000  -0.000488   0.000000   0.000000   0.000001
     9  H    0.000000   0.004276  -0.000009   0.000003   0.001020
    10  H    0.000000   0.000831   0.000000   0.000000   0.000017
    11  H    0.000000  -0.000184   0.000000   0.000000   0.000000
    12  H    0.000000   0.000090   0.000000   0.000000   0.000000
    13  H    0.000000   0.000242   0.000000   0.000000   0.000000
    14  C   -0.000001   0.008727  -0.000034   0.000000   0.000434
    15  H    0.000000   0.000027   0.000000   0.000000   0.000000
    16  H    0.000000   0.000006   0.000000   0.000000   0.000000
    17  O    0.000000   0.000175   0.000000   0.000000   0.000004
    18  O    0.000000  -0.000444  -0.000010  -0.000004   0.000314
    19  H    0.000000   0.000160   0.000000   0.000000   0.000001
    20  O   -0.000012  -0.009677   0.000058   0.001519  -0.001016
    21  C   -0.000007  -0.004159  -0.000297  -0.000245  -0.000383
    22  H    0.000000  -0.001075   0.000000   0.000000  -0.000012
    23  H    0.000000   0.001193  -0.000002  -0.000008  -0.000004
    24  H    0.000000   0.000168   0.000000   0.000000   0.000003
    25  O   -0.000608   0.037146  -0.000931  -0.000445   0.009655
    26  Si   0.016970  -0.044317   0.019513  -0.036829   0.022108
    27  C    0.000640   0.004187  -0.000606   0.008896  -0.004433
    28  H    0.000001   0.005610   0.000002   0.000097   0.000043
    29  H    0.000001   0.000048   0.000000   0.000039  -0.000003
    30  H   -0.000002   0.016738   0.000011  -0.000386   0.000118
    31  C   -0.156686  -0.482471  -0.162985  -0.035723  -0.127619
    32  C   -0.000365   0.007499  -0.001598   0.000165  -0.000313
    33  H    0.000033   0.000565   0.000000   0.000001  -0.000001
    34  H   -0.000010  -0.002228   0.000000   0.000000   0.000001
    35  H    0.000000  -0.001328   0.000000   0.000000   0.000000
    36  C    0.018967  -0.242201   0.027616   0.010373  -0.023094
    37  H   -0.000325   0.007176   0.000045  -0.000157   0.000011
    38  H    0.005426   0.003628   0.005740   0.000038  -0.000273
    39  H    0.000011   0.000482  -0.000384   0.000015   0.002885
    40  C    0.451177   0.057214  -0.008945   0.002293   0.004236
    41  H   -0.027812   0.003319  -0.000004   0.000042  -0.000143
    42  H   -0.027869  -0.013993  -0.000287   0.002796   0.000044
    43  H    0.540544   0.010144   0.005294  -0.000384   0.000036
    44  C    0.010144   5.911829   0.460544   0.400788   0.484654
    45  H    0.005294   0.460544   0.552428  -0.028122  -0.026577
    46  H   -0.000384   0.400788  -0.028122   0.539601  -0.026239
    47  H    0.000036   0.484654  -0.026577  -0.026239   0.505881
 Mulliken atomic charges:
              1
     1  H    0.145063
     2  C    0.445443
     3  C   -0.312761
     4  C   -0.023009
     5  C    0.242590
     6  C   -0.601520
     7  C   -0.594893
     8  H    0.194670
     9  H    0.185447
    10  H    0.147066
    11  H    0.177175
    12  H    0.171854
    13  H    0.172065
    14  C   -0.152241
    15  H    0.184146
    16  H    0.175582
    17  O   -0.401436
    18  O   -0.533330
    19  H    0.383644
    20  O   -0.197396
    21  C   -0.171130
    22  H    0.175754
    23  H    0.160740
    24  H    0.142747
    25  O   -0.216493
    26  Si   0.647445
    27  C   -0.735435
    28  H    0.186637
    29  H    0.185554
    30  H    0.208088
    31  C   -0.081825
    32  C   -0.706032
    33  H    0.185428
    34  H    0.184409
    35  H    0.180502
    36  C   -0.556152
    37  H    0.163341
    38  H    0.160779
    39  H    0.174432
    40  C   -0.517913
    41  H    0.169903
    42  H    0.164274
    43  H    0.165077
    44  C   -0.586678
    45  H    0.157173
    46  H    0.161587
    47  H    0.189626
 Sum of Mulliken atomic charges =   0.00000
 Mulliken charges with hydrogens summed into heavy atoms:
              1
     2  C    0.590507
     3  C    0.053764
     4  C    0.162437
     5  C    0.242590
     6  C   -0.454453
     7  C   -0.245653
    14  C    0.207487
    17  O   -0.401436
    18  O   -0.149686
    20  O   -0.197396
    21  C    0.308111
    25  O   -0.216493
    26  Si   0.647445
    27  C   -0.155155
    31  C   -0.081825
    32  C   -0.155693
    36  C   -0.057599
    40  C   -0.018659
    44  C   -0.078293
 Sum of Mulliken charges with hydrogens summed into heavy atoms =   0.00000
 Electronic spatial extent (au):  <R**2>=           6101.3890
 Charge=              0.0000 electrons
 Dipole moment (field-independent basis, Debye):
    X=             -0.0844    Y=             -1.5546    Z=             -1.1738  Tot=              1.9498
 Quadrupole moment (field-independent basis, Debye-Ang):
   XX=           -127.9623   YY=           -122.9726   ZZ=           -123.1508
   XY=             -2.3349   XZ=              2.6749   YZ=             -4.7011
 Traceless Quadrupole moment (field-independent basis, Debye-Ang):
   XX=             -3.2670   YY=              1.7226   ZZ=              1.5444
   XY=             -2.3349   XZ=              2.6749   YZ=             -4.7011
 Octapole moment (field-independent basis, Debye-Ang**2):
  XXX=              8.7747  YYY=             11.6756  ZZZ=             -6.5632  XYY=             24.3913
  XXY=              0.6824  XXZ=             15.3865  XZZ=             20.8184  YZZ=             -4.9605
  YYZ=             -7.6906  XYZ=            -17.4607
 Hexadecapole moment (field-independent basis, Debye-Ang**3):
 XXXX=          -5381.4893 YYYY=          -1676.7505 ZZZZ=          -1258.7499 XXXY=             25.2924
 XXXZ=            151.3519 YYYX=            -18.9641 YYYZ=            -42.5651 ZZZX=             15.2520
 ZZZY=              5.5751 XXYY=          -1144.7431 XXZZ=          -1058.3286 YYZZ=           -505.7989
 XXYZ=            -64.8904 YYXZ=             -7.1244 ZZXY=            -15.3403
 N-N= 1.836112244260D+03 E-N=-6.343211291840D+03  KE= 1.131544676022D+03
 1\1\GINC-COMPUTE-8-19\SP\RmPW1PW91\6-31+G(d,p)\C14H28O4Si1\ELUCIANO.IQ
 UIR\06-Dec-2022\0\\# mPW1PW91/6-31+g** scrf=(PCM,solvent=chloroform) n
 mr\\comment\\0,1\H,0,0.152535,-0.114877,-2.223918\C,0,0.56046,-0.39456
 3,-1.243191\C,0,2.071571,-2.025916,-0.038097\C,0,2.099772,0.480407,0.6
 01974\C,0,2.846527,-0.858355,0.53675\C,0,1.415544,0.786986,-0.749846\C
 ,0,1.4253,-1.654886,-1.380307\H,0,1.286263,-2.307787,0.67356\H,0,1.322
 855,0.432321,1.371251\H,0,2.206021,0.960859,-1.500723\H,0,2.206614,-1.
 475804,-2.130795\H,0,2.742471,-2.884229,-0.15168\H,0,0.804566,-2.48082
 5,-1.744814\C,0,4.000783,-1.078508,1.414828\H,0,4.272246,-0.321673,2.1
 47554\H,0,4.304793,-2.098219,1.650144\O,0,4.203302,-0.692945,0.036717\
 O,0,2.990881,1.51967,0.984814\H,0,3.807452,1.345704,0.478849\O,0,0.570
 652,1.924413,-0.67466\C,0,1.202927,3.181084,-0.875758\H,0,1.904064,3.4
 18186,-0.070283\H,0,0.403606,3.926941,-0.902396\H,0,1.740191,3.204865,
 -1.837487\O,0,-0.491269,-0.643662,-0.318712\Si,0,-2.152889,-0.478624,-
 0.550657\C,0,-2.507807,0.700163,-1.984416\H,0,-3.570475,0.971169,-2.01
 143\H,0,-2.265585,0.250205,-2.954835\H,0,-1.921694,1.618993,-1.882439\
 C,0,-2.857402,0.182566,1.102184\C,0,-2.857121,-2.18851,-0.954073\H,0,-
 3.938384,-2.152483,-1.134251\H,0,-2.67721,-2.903513,-0.142745\H,0,-2.3
 87533,-2.593903,-1.858986\C,0,-2.319228,-0.663123,2.276364\H,0,-2.6133
 24,-1.717235,2.192866\H,0,-2.716879,-0.288298,3.231003\H,0,-1.225955,-
 0.625007,2.332096\C,0,-4.399364,0.099753,1.090023\H,0,-4.755704,-0.933
 53,0.999848\H,0,-4.838265,0.678872,0.267372\H,0,-4.810438,0.506048,2.0
 25573\C,0,-2.431105,1.653232,1.30173\H,0,-2.770919,2.019246,2.281946\H
 ,0,-2.870389,2.307997,0.539092\H,0,-1.344154,1.774913,1.250577\\Versio
 n=EM64L-G09RevC.01\State=1-A\HF=-1140.6249963\RMSD=4.975e-09\Dipole=-0
 .0332021,-0.6116301,-0.4618237\Quadrupole=-2.4289445,1.2807112,1.14823
 34,-1.7359041,1.9887553,-3.4951356\PG=C01 [X(C14H28O4Si1)]\\@


 LIVE PURE, SPEAK TRUE, RIGHT WRONG, FOLLOW THE KING...
 ELSE, WHEREFORE BORN......
           IDYLLS OF THE KING, TENNYSON
 Job cpu time:  0 days  3 hours 24 minutes 11.8 seconds.
 File lengths (MBytes):  RWF=    295 Int=      0 D2E=      0 Chk=     16 Scr=      1
 Normal termination of Gaussian 09 at Tue Dec  6 16:26:27 2022.
