 Entering Gaussian System, Link 0=g09
 Input=/home/eluciano.iquir/todos_optB3L_MPW_B_PCM/01_epoxido28_007_optB3L_nmr_MPW_B_PCM.gjc
 Output=/home/eluciano.iquir/todos_optB3L_MPW_B_PCM/01_epoxido28_007_optB3L_nmr_MPW_B_PCM.log
 Initial command:
 /share/apps/Gaussian09/EM64T.SSE4.2-enabled/g09/l1.exe /tmp/Gau-49814.inp -scrdir=/tmp/
 Entering Link 1 = /share/apps/Gaussian09/EM64T.SSE4.2-enabled/g09/l1.exe PID=     49815.
  
 Copyright (c) 1988,1990,1992,1993,1995,1998,2003,2009,2011,
            Gaussian, Inc.  All Rights Reserved.
  
 This is part of the Gaussian(R) 09 program.  It is based on
 the Gaussian(R) 03 system (copyright 2003, Gaussian, Inc.),
 the Gaussian(R) 98 system (copyright 1998, Gaussian, Inc.),
 the Gaussian(R) 94 system (copyright 1995, Gaussian, Inc.),
 the Gaussian 92(TM) system (copyright 1992, Gaussian, Inc.),
 the Gaussian 90(TM) system (copyright 1990, Gaussian, Inc.),
 the Gaussian 88(TM) system (copyright 1988, Gaussian, Inc.),
 the Gaussian 86(TM) system (copyright 1986, Carnegie Mellon
 University), and the Gaussian 82(TM) system (copyright 1983,
 Carnegie Mellon University). Gaussian is a federally registered
 trademark of Gaussian, Inc.
  
 This software contains proprietary and confidential information,
 including trade secrets, belonging to Gaussian, Inc.
  
 This software is provided under written license and may be
 used, copied, transmitted, or stored only in accord with that
 written license.
  
 The following legend is applicable only to US Government
 contracts under FAR:
  
                    RESTRICTED RIGHTS LEGEND
  
 Use, reproduction and disclosure by the US Government is
 subject to restrictions as set forth in subparagraphs (a)
 and (c) of the Commercial Computer Software - Restricted
 Rights clause in FAR 52.227-19.
  
 Gaussian, Inc.
 340 Quinnipiac St., Bldg. 40, Wallingford CT 06492
  
  
 ---------------------------------------------------------------
 Warning -- This program may not be used in any manner that
 competes with the business of Gaussian, Inc. or will provide
 assistance to any competitor of Gaussian, Inc.  The licensee
 of this program is prohibited from giving any competitor of
 Gaussian, Inc. access to this program.  By using this program,
 the user acknowledges that Gaussian, Inc. is engaged in the
 business of creating and licensing software in the field of
 computational chemistry and represents and warrants to the
 licensee that it is not a competitor of Gaussian, Inc. and that
 it will not use this program in any manner prohibited above.
 ---------------------------------------------------------------
  

 Cite this work as:
 Gaussian 09, Revision C.01,
 M. J. Frisch, G. W. Trucks, H. B. Schlegel, G. E. Scuseria, 
 M. A. Robb, J. R. Cheeseman, G. Scalmani, V. Barone, B. Mennucci, 
 G. A. Petersson, H. Nakatsuji, M. Caricato, X. Li, H. P. Hratchian, 
 A. F. Izmaylov, J. Bloino, G. Zheng, J. L. Sonnenberg, M. Hada, 
 M. Ehara, K. Toyota, R. Fukuda, J. Hasegawa, M. Ishida, T. Nakajima, 
 Y. Honda, O. Kitao, H. Nakai, T. Vreven, J. A. Montgomery, Jr., 
 J. E. Peralta, F. Ogliaro, M. Bearpark, J. J. Heyd, E. Brothers, 
 K. N. Kudin, V. N. Staroverov, T. Keith, R. Kobayashi, J. Normand, 
 K. Raghavachari, A. Rendell, J. C. Burant, S. S. Iyengar, J. Tomasi, 
 M. Cossi, N. Rega, J. M. Millam, M. Klene, J. E. Knox, J. B. Cross, 
 V. Bakken, C. Adamo, J. Jaramillo, R. Gomperts, R. E. Stratmann, 
 O. Yazyev, A. J. Austin, R. Cammi, C. Pomelli, J. W. Ochterski, 
 R. L. Martin, K. Morokuma, V. G. Zakrzewski, G. A. Voth, 
 P. Salvador, J. J. Dannenberg, S. Dapprich, A. D. Daniels, 
 O. Farkas, J. B. Foresman, J. V. Ortiz, J. Cioslowski, 
 and D. J. Fox, Gaussian, Inc., Wallingford CT, 2010.
 
 ******************************************
 Gaussian 09:  EM64L-G09RevC.01 23-Sep-2011
                 6-Dec-2022 
 ******************************************
 %nprocshared=4
 Will use up to    4 processors via shared memory.
 %mem=80MW
 -----------------------------------------------------
 # mPW1PW91/6-31+g** scrf=(PCM,solvent=chloroform) nmr
 -----------------------------------------------------
 1/38=1/1;
 2/12=2,17=6,18=5,40=1/2;
 3/5=1,6=6,7=111,11=2,16=1,25=1,30=1,70=2201,72=7,74=-7/1,2,8,3;
 4//1;
 5/5=2,38=5,53=7/2;
 8/6=1,10=90,11=11/1;
 10/13=100,45=16/2;
 6/7=2,8=2,9=2,10=2,28=1/1;
 99/9=1/99;
 -------
 comment
 -------
 Charge =  0 Multiplicity = 1
 Symbolic Z-Matrix:
 1                    -0.26086   1.00879   1.88281 
 6                    -0.61012   0.29433   1.12171 
 6                    -1.95435  -1.84866   0.80388 
 6                    -2.17012   0.04372  -0.86367 
 6                    -2.87719  -1.09137  -0.13578 
 6                    -1.60497   1.01051   0.18712 
 6                    -1.32177  -0.87819   1.81948 
 1                    -1.16427  -2.34381   0.22669 
 1                    -1.32617  -0.38443  -1.42623 
 1                    -2.45331   1.37489   0.78658 
 1                    -2.10836  -0.47914   2.47292 
 1                    -2.52428  -2.62471   1.3254 
 1                    -0.60228  -1.40415   2.45677 
 6                    -4.11326  -1.67623  -0.6666 
 1                    -4.52372  -1.296    -1.59955 
 1                    -4.36746  -2.70771  -0.41756 
 8                    -4.15741  -0.75159   0.43415 
 8                    -3.0576    0.71546  -1.73573 
 1                    -2.60367   1.54625  -1.95766 
 8                    -1.02701   2.10542  -0.52362 
 6                    -1.09901   3.34647   0.1586 
 1                    -2.14156   3.62861   0.36823 
 1                    -0.64868   4.0959   -0.49741 
 1                    -0.54273   3.33141   1.10628 
 8                     0.48797  -0.1989    0.36063 
 14                    2.11538   0.18008   0.55229 
 6                     2.3902    2.0478    0.44424 
 1                     3.46006   2.28946   0.45797 
 1                     1.93187   2.57019   1.29281 
 1                     1.9571    2.45956  -0.47299 
 6                     2.98985  -0.74112  -0.87679 
 6                     2.70947  -0.42068   2.24704 
 1                     3.75923  -0.15499   2.4215 
 1                     2.61719  -1.5077    2.35067 
 1                     2.12301   0.03737   3.05364 
 6                     2.67403  -2.25026  -0.80508 
 1                     3.03573  -2.70138   0.12725 
 1                     3.16149  -2.78254  -1.63493 
 1                     1.59717  -2.43939  -0.87378 
 6                     4.51768  -0.54     -0.77431 
 1                     4.92418  -0.93633   0.16444 
 1                     4.80055   0.51795  -0.84165 
 1                     5.02705  -1.064    -1.59588 
 6                     2.4969   -0.1897   -2.23204 
 1                     2.97907  -0.72763  -3.06138 
 1                     2.73343   0.87441  -2.35223 
 1                     1.41319  -0.3048   -2.34501 
 
                          Input orientation:                          
 ---------------------------------------------------------------------
 Center     Atomic      Atomic             Coordinates (Angstroms)
 Number     Number       Type             X           Y           Z
 ---------------------------------------------------------------------
      1          1           0       -0.260861    1.008786    1.882814
      2          6           0       -0.610122    0.294325    1.121706
      3          6           0       -1.954352   -1.848655    0.803877
      4          6           0       -2.170116    0.043715   -0.863667
      5          6           0       -2.877189   -1.091369   -0.135778
      6          6           0       -1.604974    1.010508    0.187115
      7          6           0       -1.321770   -0.878192    1.819479
      8          1           0       -1.164271   -2.343811    0.226686
      9          1           0       -1.326167   -0.384432   -1.426228
     10          1           0       -2.453308    1.374886    0.786577
     11          1           0       -2.108357   -0.479137    2.472915
     12          1           0       -2.524276   -2.624707    1.325400
     13          1           0       -0.602280   -1.404152    2.456774
     14          6           0       -4.113257   -1.676230   -0.666603
     15          1           0       -4.523715   -1.296004   -1.599546
     16          1           0       -4.367456   -2.707714   -0.417562
     17          8           0       -4.157410   -0.751585    0.434150
     18          8           0       -3.057603    0.715455   -1.735727
     19          1           0       -2.603674    1.546252   -1.957660
     20          8           0       -1.027008    2.105416   -0.523616
     21          6           0       -1.099005    3.346467    0.158598
     22          1           0       -2.141558    3.628610    0.368230
     23          1           0       -0.648683    4.095898   -0.497412
     24          1           0       -0.542727    3.331413    1.106278
     25          8           0        0.487965   -0.198898    0.360629
     26         14           0        2.115385    0.180079    0.552292
     27          6           0        2.390202    2.047799    0.444236
     28          1           0        3.460063    2.289461    0.457974
     29          1           0        1.931865    2.570192    1.292808
     30          1           0        1.957096    2.459557   -0.472991
     31          6           0        2.989846   -0.741116   -0.876789
     32          6           0        2.709470   -0.420678    2.247044
     33          1           0        3.759233   -0.154994    2.421497
     34          1           0        2.617194   -1.507702    2.350667
     35          1           0        2.123009    0.037366    3.053636
     36          6           0        2.674034   -2.250256   -0.805081
     37          1           0        3.035728   -2.701380    0.127246
     38          1           0        3.161486   -2.782541   -1.634930
     39          1           0        1.597171   -2.439385   -0.873781
     40          6           0        4.517683   -0.540001   -0.774308
     41          1           0        4.924181   -0.936325    0.164443
     42          1           0        4.800551    0.517949   -0.841651
     43          1           0        5.027052   -1.064004   -1.595877
     44          6           0        2.496895   -0.189695   -2.232037
     45          1           0        2.979069   -0.727633   -3.061381
     46          1           0        2.733425    0.874412   -2.352232
     47          1           0        1.413188   -0.304796   -2.345010
 ---------------------------------------------------------------------
                    Distance matrix (angstroms):
                    1          2          3          4          5
     1  H    0.000000
     2  C    1.100783   0.000000
     3  C    3.492418   2.549575   0.000000
     4  C    3.481347   2.537340   2.531466   0.000000
     5  C    3.915423   2.939559   1.519231   1.522560   0.000000
     6  C    2.163802   1.541463   2.945721   1.535649   2.478039
     7  C    2.165693   1.538872   1.540586   2.961229   2.507549
     8  H    3.846923   2.840406   1.096612   2.810849   2.152691
     9  H    3.745089   2.732288   2.740791   1.100924   2.137917
    10  H    2.478425   2.162697   3.261974   2.139046   2.666988
    11  H    2.444458   2.160721   2.164483   3.377864   2.787689
    12  H    4.316947   3.496602   1.095014   3.469571   2.147257
    13  H    2.503651   2.160392   2.181227   3.947120   3.463289
    14  C    5.343201   4.399215   2.617807   2.602468   1.466868
    15  H    5.967480   5.024994   3.561389   2.806384   2.212587
    16  H    5.997351   5.049668   2.837775   3.549320   2.216499
    17  O    4.514491   3.761637   2.488720   2.503232   1.441956
    18  O    4.582755   3.785821   3.773779   1.413986   2.420124
    19  H    4.530660   3.876089   4.424150   1.908510   3.217314
    20  O    2.753268   2.482122   4.272807   2.381794   3.713896
    21  C    3.023270   3.237616   5.304460   3.619458   4.789883
    22  H    3.562929   3.745728   5.497751   3.790760   4.803476
    23  H    3.917415   4.132189   6.223812   4.343856   5.657275
    24  H    2.465168   3.037875   5.377475   4.163897   5.153001
    25  O    2.082376   1.424185   2.980450   2.936521   3.516701
    26  Si   2.846680   2.786696   4.554318   4.515424   5.197674
    27  C    3.190171   3.540562   5.846952   5.150094   6.159237
    28  H    4.185161   4.581213   6.823455   6.203952   7.207171
    29  H    2.755747   3.416218   5.904909   5.278231   6.210868
    30  H    3.545968   3.717781   5.957391   4.798208   6.007753
    31  C    4.609193   4.245691   5.338200   5.219324   5.924008
    32  C    3.316459   3.577332   5.086559   5.805389   6.110518
    33  H    4.219682   4.580678   6.174968   6.781517   7.173462
    34  H    3.851597   3.895281   4.838165   5.971363   6.045162
    35  H    2.827953   3.356842   5.024277   5.811732   6.037250
    36  C    5.143903   4.579638   4.916501   5.360180   5.710259
    37  H    5.264490   4.822388   5.107433   5.968104   6.133833
    38  H    6.201705   5.593851   5.743842   6.083465   6.447722
    39  H    4.789675   4.040703   3.972004   4.512022   4.730929
    40  C    5.682739   5.530403   6.788997   6.713819   7.442839
    41  H    5.798355   5.749727   6.968173   7.235091   7.808684
    42  H    5.769014   5.760222   7.344201   6.986815   7.876284
    43  H    6.660313   6.403752   7.423914   7.318634   8.038014
    44  C    5.096428   4.597328   5.637599   4.869077   5.838501
    45  H    6.160955   5.605792   6.366754   5.651463   6.556464
    46  H    5.188393   4.856341   6.273067   5.191396   6.344758
    47  H    4.733121   4.058429   4.862028   3.893059   4.889452
                    6          7          8          9         10
     6  C    0.000000
     7  C    2.512370   0.000000
     8  H    3.383377   2.170215   0.000000
     9  H    2.150922   3.283052   2.568560   0.000000
    10  H    1.100816   2.724633   3.975400   3.043378   0.000000
    11  H    2.774404   1.097699   3.068200   3.977953   2.529847
    12  H    3.918622   2.177257   1.770788   3.745097   4.036349
    13  H    3.462272   1.095648   2.484368   4.079405   3.733486
    14  C    3.773444   3.822286   3.152800   3.164434   3.765166
    15  H    4.126888   4.702845   3.964705   3.329462   4.136885
    16  H    4.671415   4.198536   3.287533   3.957838   4.667069
    17  O    3.111419   3.158484   3.396632   3.407601   2.747735
    18  O    2.427861   4.265245   4.098156   2.074467   2.676199
    19  H    2.425795   4.667760   4.687839   2.375286   2.753691
    20  O    1.427588   3.805114   4.514135   2.665248   2.069930
    21  C    2.390298   4.544876   5.691060   4.059912   2.472979
    22  H    2.678653   4.805147   6.053506   4.470956   2.313325
    23  H    3.301924   5.528345   6.500769   4.625477   3.508448
    24  H    2.712901   4.340085   5.776519   4.564523   2.753276
    25  O    2.423461   2.421740   2.710807   2.553107   3.362932
    26  Si   3.829365   3.813100   4.151167   4.009675   4.728151
    27  C    4.135640   4.922545   5.654011   4.819313   4.901999
    28  H    5.231031   5.895222   6.550204   5.797234   5.992694
    29  H    4.020498   4.770207   5.905091   5.170854   4.573267
    30  H    3.901772   5.210273   5.771033   4.447106   4.713246
    31  C    5.031148   5.087110   4.587262   4.365441   6.072246
    32  C    4.990594   4.079587   4.773485   5.457161   5.657852
    33  H    5.926683   5.167401   5.817990   6.381138   6.603723
    34  H    5.371130   4.024162   4.416996   5.574654   6.038682
    35  H    4.802271   3.771988   4.946500   5.669560   5.279318
    36  C    5.470552   4.973663   3.975661   4.457435   6.478014
    37  H    5.942879   5.017515   4.216365   5.177611   6.868783
    38  H    6.358161   5.971522   4.729722   5.092496   7.394174
    39  H    4.825038   4.267457   2.974176   3.615790   5.806189
    40  C    6.388689   6.398540   6.044859   5.882158   7.395801
    41  H    6.813262   6.461767   6.249331   6.473150   7.756036
    42  H    6.506283   6.820091   6.701501   6.220345   7.483578
    43  H    7.174011   7.211569   6.579675   6.391713   8.220709
    44  C    4.911020   5.609903   4.908123   3.911912   6.005369
    45  H    5.881098   6.507125   5.530884   4.618070   6.981267
    46  H    5.028768   6.076134   5.674488   4.349995   6.083157
    47  H    4.153430   5.015152   4.173068   2.890427   5.251472
                   11         12         13         14         15
    11  H    0.000000
    12  H    2.468451   0.000000
    13  H    1.767535   2.542406   0.000000
    14  C    3.912701   2.718924   4.707066   0.000000
    15  H    4.804806   3.783982   5.642967   1.087856   0.000000
    16  H    4.292428   2.538133   4.913006   1.091145   1.847817
    17  O    2.903344   2.640083   4.141956   1.438254   2.136935
    18  O    4.476694   4.561975   5.300793   2.824463   2.492789
    19  H    4.896686   5.308643   5.674301   3.785506   3.448655
    20  O    4.102247   5.294784   4.623871   4.883260   4.995422
    21  C    4.583678   6.248819   5.300635   5.915586   6.030941
    22  H    4.615668   6.337714   5.662163   5.753243   5.813660
    23  H    5.646630   7.211590   6.243390   6.734193   6.730764
    24  H    4.340413   6.280917   4.924730   6.400647   6.677031
    25  O    3.358746   3.986092   2.652375   4.940542   5.492073
    26  Si   4.686508   5.476402   3.677301   6.612682   7.133504
    27  C    5.544184   6.838191   4.992116   7.576103   7.947346
    28  H    6.537004   7.791905   5.842997   8.622445   8.990532
    29  H    5.197543   6.844358   4.855113   7.642964   8.061495
    30  H    5.817404   7.011893   5.482898   7.347884   7.574581
    31  C    6.105802   6.229213   4.945263   7.167474   7.568611
    32  C    4.823473   5.753196   3.461054   7.524317   8.239018
    33  H    5.876761   6.839839   4.537007   8.592242   9.277819
    34  H    4.837739   5.360372   3.222886   7.377756   8.163429
    35  H    4.302147   5.627672   3.140290   7.461073   8.222464
    36  C    6.062457   5.630416   4.699981   6.812929   7.304065
    37  H    6.074713   5.688154   4.510499   7.265612   7.880487
    38  H    7.067624   6.412204   5.727821   7.421824   7.827730
    39  H    5.364129   4.675154   4.123335   5.764921   6.268915
    40  C    7.379198   7.638322   6.115609   8.706075   9.110403
    41  H    7.415838   7.725152   6.001284   9.105679   9.617888
    42  H    7.727454   8.259872   6.615487   9.181560   9.529258
    43  H    8.234756   8.245739   6.944715   9.207802   9.553585
    44  C    6.590045   6.617915   5.750195   6.953739   7.135330
    45  H    7.521442   7.289002   6.613152   7.545587   7.664971
    46  H    6.968285   7.308367   6.280551   7.498278   7.612051
    47  H    5.970266   5.861529   5.322389   5.936285   6.065066
                   16         17         18         19         20
    16  H    0.000000
    17  O    2.143822   0.000000
    18  O    3.895043   2.840801   0.000000
    19  H    4.855827   3.662636   0.972383   0.000000
    20  O    5.859698   4.345019   2.743086   2.203412   0.000000
    21  C    6.904190   5.120918   3.787717   3.159644   1.418029
    22  H    6.761737   4.822252   3.708402   3.155872   2.087518
    23  H    7.754017   6.056159   4.331710   3.529165   2.026286
    24  H    7.309015   5.494412   4.609211   4.101465   2.096223
    25  O    5.520403   4.678715   4.219218   4.240076   2.896014
    26  Si   7.162904   6.342705   5.681678   5.516866   3.839158
    27  C    8.308041   7.120946   6.017139   5.564122   3.552095
    28  H    9.327828   8.202099   7.054771   6.569365   4.596868
    29  H    8.394230   6.989332   6.124285   5.673192   3.502905
    30  H    8.167235   6.965739   5.457435   4.882519   3.005471
    31  C    7.629436   7.266494   6.279412   6.139039   4.935848
    32  C    7.900224   7.109861   7.100169   7.055342   5.293295
    33  H    8.978848   8.184052   8.031777   7.909351   6.057330
    34  H    7.608446   7.080961   7.337872   7.426020   5.881865
    35  H    7.855623   6.850388   7.087774   7.052046   5.195784
    36  C    7.066967   7.102840   6.520215   6.602735   5.722658
    37  H    7.423206   7.459030   7.230084   7.361526   6.327301
    38  H    7.627093   7.872237   7.136050   7.216625   6.532276
    39  H    5.988064   6.137960   5.688839   5.891281   5.259672
    40  C    9.152701   8.761414   7.738569   7.514419   6.148551
    41  H    9.476870   9.087473   8.369462   8.205797   6.718799
    42  H    9.728160   9.136983   7.911319   7.558137   6.048276
    43  H    9.609734   9.411321   8.279353   8.072936   6.917124
    44  C    7.533396   7.190553   5.649608   5.394868   4.539177
    45  H    8.054932   7.946612   6.346753   6.128276   5.524045
    46  H    8.185175   7.608640   5.825921   5.393671   4.358906
    47  H    6.550184   6.241387   4.626025   4.439775   3.883446
                   21         22         23         24         25
    21  C    0.000000
    22  H    1.100212   0.000000
    23  H    1.093063   1.787839   0.000000
    24  H    1.098986   1.785862   1.779743   0.000000
    25  O    3.889589   4.643734   4.524763   3.752521   0.000000
    26  Si   4.529162   5.481588   4.906688   4.159731   1.681920
    27  C    3.733992   4.800166   3.783680   3.269256   2.945020
    28  H    4.689562   5.760168   4.588875   4.186680   3.877470
    29  H    3.327944   4.309045   3.491689   2.595738   3.259089
    30  H    3.244267   4.344341   3.077059   3.082749   3.149707
    31  C    5.873590   6.853896   6.064612   5.744312   2.843345
    32  C    5.749563   6.592355   6.261684   5.094734   2.922812
    33  H    6.401829   7.304170   6.783792   5.691370   3.866562
    34  H    6.494479   7.277189   7.083632   5.911907   3.194814
    35  H    5.450942   6.188293   6.063324   4.663593   3.159347
    36  C    6.818197   7.689451   7.169992   6.719812   3.216496
    37  H    7.326217   8.181145   7.756808   7.082262   3.578824
    38  H    7.676800   8.557908   7.945078   7.656099   4.219619
    39  H    6.466162   7.234725   6.920653   6.465439   2.788169
    40  C    6.893630   7.939030   6.946911   6.643207   4.200364
    41  H    7.390610   8.414560   7.537780   6.999123   4.501366
    42  H    6.618593   7.702785   6.527968   6.345126   4.534065
    43  H    7.749775   8.790183   7.748883   7.592349   5.017931
    44  C    5.581225   6.546456   5.591949   5.725544   3.279909
    45  H    6.602821   7.547179   6.557513   6.800609   4.265596
    46  H    5.206039   6.225109   5.025633   5.360160   3.681535
    47  H    5.090274   5.955634   5.199138   5.381357   2.861422
                   26         27         28         29         30
    26  Si   0.000000
    27  C    1.890920   0.000000
    28  H    2.503307   1.096901   0.000000
    29  H    2.508921   1.096833   1.763844   0.000000
    30  H    2.504452   1.094729   1.776102   1.769441   0.000000
    31  C    1.911951   3.143680   3.344711   4.097711   3.387319
    32  C    1.893682   3.073341   3.333019   3.234276   4.032420
    33  H    2.511660   3.261304   3.149648   3.469849   4.296701
    34  H    2.516857   4.040742   4.325640   4.268250   4.914053
    35  H    2.505424   3.304875   3.687425   3.090673   4.281546
    36  C    2.839204   4.484934   4.777257   5.309301   4.775628
    37  H    3.054587   4.803320   5.019754   5.510583   5.306506
    38  H    3.828235   5.315072   5.494961   6.223774   5.502749
    39  H    3.027180   4.743510   5.254134   5.468271   4.928469
    40  C    2.837150   3.564791   3.262351   4.542326   3.955344
    41  H    3.047314   3.924835   3.554644   4.745822   4.554331
    42  H    3.044232   3.131091   2.573750   4.122739   3.462801
    43  H    3.826248   4.560522   4.233141   5.579611   4.806348
    44  C    2.834567   3.490014   3.782865   4.512291   3.225548
    45  H    3.824725   4.509893   4.660480   5.561587   4.231119
    46  H    3.049644   3.052028   3.229183   4.099327   2.578162
    47  H    3.020355   3.777453   4.333196   4.665651   3.382593
                   31         32         33         34         35
    31  C    0.000000
    32  C    3.152717   0.000000
    33  H    3.437177   1.096825   0.000000
    34  H    3.338113   1.095844   1.771747   0.000000
    35  H    4.099473   1.097420   1.764605   1.767942   0.000000
    36  C    1.543497   3.558662   3.997322   3.242432   4.519573
    37  H    2.202913   3.130749   3.503017   2.558054   4.110662
    38  H    2.184412   4.566447   4.869898   4.219769   5.568928
    39  H    2.196286   3.879682   4.555416   3.507926   4.672837
    40  C    1.544421   3.523129   3.307060   3.783355   4.552029
    41  H    2.205430   3.083515   2.657419   3.229278   4.140299
    42  H    2.205704   3.846255   3.490749   4.365914   4.751153
    43  H    2.184388   4.533552   4.309635   4.645373   5.591462
    44  C    1.543944   4.490068   4.821834   4.769988   5.303743
    45  H    2.184660   5.324123   5.567632   5.479938   6.221856
    46  H    2.202865   4.778198   4.990035   5.273067   5.504240
    47  H    2.198158   4.772917   5.314693   4.994597   5.455850
                   36         37         38         39         40
    36  C    0.000000
    37  H    1.097073   0.000000
    38  H    1.099812   1.768521   0.000000
    39  H    1.095501   1.772045   1.773185   0.000000
    40  C    2.514947   2.771380   2.758428   3.485247   0.000000
    41  H    2.780207   2.585161   3.123035   3.795536   1.097072
    42  H    3.490898   3.797031   3.769491   4.359874   1.097182
    43  H    2.751226   3.100891   2.536776   3.765260   1.099551
    44  C    2.512667   3.487853   2.742457   2.777673   2.516202
    45  H    2.739036   3.750497   2.508124   3.102472   2.762832
    46  H    3.487227   4.361821   3.751142   3.802386   2.770196
    47  H    2.783151   3.806350   3.114479   2.599006   3.487164
                   41         42         43         44         45
    41  H    0.000000
    42  H    1.772688   0.000000
    43  H    1.767940   1.767126   0.000000
    44  C    3.491746   2.782223   2.751511   0.000000
    45  H    3.772659   3.129932   2.540685   1.099855   0.000000
    46  H    3.796292   2.584943   3.096814   1.096685   1.769119
    47  H    4.361566   3.796212   3.767972   1.095642   1.773122
                   46         47
    46  H    0.000000
    47  H    1.770200   0.000000
 Stoichiometry    C14H28O4Si
 Framework group  C1[X(C14H28O4Si)]
 Deg. of freedom   135
 Full point group                 C1      NOp   1
 Largest Abelian subgroup         C1      NOp   1
 Largest concise Abelian subgroup C1      NOp   1
                         Standard orientation:                         
 ---------------------------------------------------------------------
 Center     Atomic      Atomic             Coordinates (Angstroms)
 Number     Number       Type             X           Y           Z
 ---------------------------------------------------------------------
      1          1           0       -0.260861    1.008786    1.882814
      2          6           0       -0.610122    0.294325    1.121706
      3          6           0       -1.954352   -1.848655    0.803877
      4          6           0       -2.170116    0.043715   -0.863667
      5          6           0       -2.877189   -1.091369   -0.135778
      6          6           0       -1.604974    1.010508    0.187115
      7          6           0       -1.321770   -0.878192    1.819479
      8          1           0       -1.164271   -2.343811    0.226686
      9          1           0       -1.326167   -0.384432   -1.426228
     10          1           0       -2.453308    1.374886    0.786577
     11          1           0       -2.108357   -0.479137    2.472915
     12          1           0       -2.524276   -2.624707    1.325400
     13          1           0       -0.602280   -1.404152    2.456774
     14          6           0       -4.113257   -1.676230   -0.666603
     15          1           0       -4.523715   -1.296004   -1.599546
     16          1           0       -4.367456   -2.707714   -0.417562
     17          8           0       -4.157410   -0.751585    0.434150
     18          8           0       -3.057603    0.715455   -1.735727
     19          1           0       -2.603674    1.546252   -1.957660
     20          8           0       -1.027008    2.105416   -0.523616
     21          6           0       -1.099005    3.346467    0.158598
     22          1           0       -2.141558    3.628610    0.368230
     23          1           0       -0.648683    4.095898   -0.497412
     24          1           0       -0.542727    3.331413    1.106278
     25          8           0        0.487965   -0.198898    0.360629
     26         14           0        2.115385    0.180079    0.552292
     27          6           0        2.390202    2.047799    0.444236
     28          1           0        3.460063    2.289461    0.457974
     29          1           0        1.931865    2.570192    1.292808
     30          1           0        1.957096    2.459557   -0.472991
     31          6           0        2.989846   -0.741116   -0.876789
     32          6           0        2.709470   -0.420678    2.247044
     33          1           0        3.759233   -0.154994    2.421497
     34          1           0        2.617194   -1.507702    2.350667
     35          1           0        2.123009    0.037366    3.053636
     36          6           0        2.674034   -2.250256   -0.805081
     37          1           0        3.035728   -2.701380    0.127246
     38          1           0        3.161486   -2.782541   -1.634930
     39          1           0        1.597171   -2.439385   -0.873781
     40          6           0        4.517683   -0.540001   -0.774308
     41          1           0        4.924181   -0.936325    0.164443
     42          1           0        4.800551    0.517949   -0.841651
     43          1           0        5.027052   -1.064004   -1.595877
     44          6           0        2.496895   -0.189695   -2.232037
     45          1           0        2.979069   -0.727633   -3.061381
     46          1           0        2.733425    0.874412   -2.352232
     47          1           0        1.413188   -0.304796   -2.345010
 ---------------------------------------------------------------------
 Rotational constants (GHZ):      0.5348082      0.2181499      0.2003586
 Standard basis: 6-31+G(d,p) (6D, 7F)
 There are   505 symmetry adapted basis functions of A   symmetry.
 Integral buffers will be    131072 words long.
 Raffenetti 2 integral format.
 Two-electron integral symmetry is turned on.
   505 basis functions,   828 primitive gaussians,   505 cartesian basis functions
    79 alpha electrons       79 beta electrons
       nuclear repulsion energy      1830.0399422035 Hartrees.
 NAtoms=   47 NActive=   47 NUniq=   47 SFac= 1.00D+00 NAtFMM=   60 NAOKFM=F Big=F
 ------------------------------------------------------------------------------
 Polarizable Continuum Model (PCM)
 =================================
 Model                : PCM.
 Atomic radii         : UFF (Universal Force Field).
 Polarization charges : Total charges.
 Charge compensation  : None.
 Solution method      : Matrix inversion.
 Cavity type          : Scaled VdW (van der Waals Surface) (Alpha=1.100).
 Cavity algorithm     : GePol (No added spheres)
                        Default sphere list used, NSphG=   47.
                        Lebedev-Laikov grids with approx.  5.0 points / Ang**2.
                        Smoothing algorithm: Karplus/York (Gamma=1.0000).
                        Polarization charges: spherical gaussians, with
                                              point-specific exponents (IZeta= 3).
                        Self-potential: point-specific (ISelfS= 7).
                        Self-field    : sphere-specific E.n sum rule (ISelfD= 2).
 Solvent              : Chloroform, Eps=   4.711300 Eps(inf)=   2.090627
 ------------------------------------------------------------------------------
 One-electron integrals computed using PRISM.
 NBasis=   505 RedAO= T  NBF=   505
 NBsUse=   505 1.00D-06 NBFU=   505
 Harris functional with IExCor=  908 diagonalized for initial guess.
 ExpMin= 3.31D-02 ExpMax= 1.61D+04 ExpMxC= 2.43D+03 IAcc=3 IRadAn=         5 AccDes= 0.00D+00
 HarFok:  IExCor=  908 AccDes= 0.00D+00 IRadAn=         5 IDoV= 1
 ScaDFX=  1.000000  1.000000  1.000000  1.000000
 FoFCou: FMM=F IPFlag=           0 FMFlag=      100000 FMFlg1=           0
         NFxFlg=           0 DoJE=T BraDBF=F KetDBF=T FulRan=T
         Omega=  0.000000  0.000000  1.000000  0.000000  0.000000 ICntrl=     500 IOpCl=  0
         NMat0=    1 NMatS0=    1 NMatT0=    0 NMatD0=    1 NMtDS0=    0 NMtDT0=    0
         I1Cent=           4 NGrid=           0.
 Petite list used in FoFCou.
 Initial guess orbital symmetries:
       Occupied  (A) (A) (A) (A) (A) (A) (A) (A) (A) (A) (A) (A)
                 (A) (A) (A) (A) (A) (A) (A) (A) (A) (A) (A) (A)
                 (A) (A) (A) (A) (A) (A) (A) (A) (A) (A) (A) (A)
                 (A) (A) (A) (A) (A) (A) (A) (A) (A) (A) (A) (A)
                 (A) (A) (A) (A) (A) (A) (A) (A) (A) (A) (A) (A)
                 (A) (A) (A) (A) (A) (A) (A) (A) (A) (A) (A) (A)
                 (A) (A) (A) (A) (A) (A) (A)
       Virtual   (A) (A) (A) (A) (A) (A) (A) (A) (A) (A) (A) (A)
                 (A) (A) (A) (A) (A) (A) (A) (A) (A) (A) (A) (A)
                 (A) (A) (A) (A) (A) (A) (A) (A) (A) (A) (A) (A)
                 (A) (A) (A) (A) (A) (A) (A) (A) (A) (A) (A) (A)
                 (A) (A) (A) (A) (A) (A) (A) (A) (A) (A) (A) (A)
                 (A) (A) (A) (A) (A) (A) (A) (A) (A) (A) (A) (A)
                 (A) (A) (A) (A) (A) (A) (A) (A) (A) (A) (A) (A)
                 (A) (A) (A) (A) (A) (A) (A) (A) (A) (A) (A) (A)
                 (A) (A) (A) (A) (A) (A) (A) (A) (A) (A) (A) (A)
                 (A) (A) (A) (A) (A) (A) (A) (A) (A) (A) (A) (A)
                 (A) (A) (A) (A) (A) (A) (A) (A) (A) (A) (A) (A)
                 (A) (A) (A) (A) (A) (A) (A) (A) (A) (A) (A) (A)
                 (A) (A) (A) (A) (A) (A) (A) (A) (A) (A) (A) (A)
                 (A) (A) (A) (A) (A) (A) (A) (A) (A) (A) (A) (A)
                 (A) (A) (A) (A) (A) (A) (A) (A) (A) (A) (A) (A)
                 (A) (A) (A) (A) (A) (A) (A) (A) (A) (A) (A) (A)
                 (A) (A) (A) (A) (A) (A) (A) (A) (A) (A) (A) (A)
                 (A) (A) (A) (A) (A) (A) (A) (A) (A) (A) (A) (A)
                 (A) (A) (A) (A) (A) (A) (A) (A) (A) (A) (A) (A)
                 (A) (A) (A) (A) (A) (A) (A) (A) (A) (A) (A) (A)
                 (A) (A) (A) (A) (A) (A) (A) (A) (A) (A) (A) (A)
                 (A) (A) (A) (A) (A) (A) (A) (A) (A) (A) (A) (A)
                 (A) (A) (A) (A) (A) (A) (A) (A) (A) (A) (A) (A)
                 (A) (A) (A) (A) (A) (A) (A) (A) (A) (A) (A) (A)
                 (A) (A) (A) (A) (A) (A) (A) (A) (A) (A) (A) (A)
                 (A) (A) (A) (A) (A) (A) (A) (A) (A) (A) (A) (A)
                 (A) (A) (A) (A) (A) (A) (A) (A) (A) (A) (A) (A)
                 (A) (A) (A) (A) (A) (A) (A) (A) (A) (A) (A) (A)
                 (A) (A) (A) (A) (A) (A) (A) (A) (A) (A) (A) (A)
                 (A) (A) (A) (A) (A) (A) (A) (A) (A) (A) (A) (A)
                 (A) (A) (A) (A) (A) (A) (A) (A) (A) (A) (A) (A)
                 (A) (A) (A) (A) (A) (A) (A) (A) (A) (A) (A) (A)
                 (A) (A) (A) (A) (A) (A) (A) (A) (A) (A) (A) (A)
                 (A) (A) (A) (A) (A) (A) (A) (A) (A) (A) (A) (A)
                 (A) (A) (A) (A) (A) (A) (A) (A) (A) (A) (A) (A)
                 (A) (A) (A) (A) (A) (A)
 The electronic state of the initial guess is 1-A.
 Requested convergence on RMS density matrix=1.00D-08 within 128 cycles.
 Requested convergence on MAX density matrix=1.00D-06.
 Requested convergence on             energy=1.00D-06.
 No special actions if energy rises.
 Error on total polarization charges =  0.01528
 SCF Done:  E(RmPW1PW91) =  -1140.62648128     A.U. after   13 cycles
             Convg  =    0.4040D-08             -V/T =  2.0080
 Range of M.O.s used for correlation:     1   505
 NBasis=   505 NAE=    79 NBE=    79 NFC=     0 NFV=     0
 NROrb=    505 NOA=    79 NOB=    79 NVA=   426 NVB=   426

 **** Warning!!: The largest alpha MO coefficient is  0.65452715D+02

 NEqPCM:  Using equilibrium solvation (IEInf=0, Eps=   4.7113, EpsInf=   2.0906)
          Differentiating once with respect to magnetic field using GIAOs.
          Electric field/nuclear overlap derivatives assumed to be zero.
 FoFCou: FMM=F IPFlag=           0 FMFlag=    10101102 FMFlg1=           0
         NFxFlg=    40000000 DoJE=F BraDBF=F KetDBF=T FulRan=T
         Omega=  0.000000  0.000000  1.000000  0.000000  0.000000 ICntrl=    6100 IOpCl=  0
         NMat0=    1 NMatS0=    1 NMatT0=    0 NMatD0=    1 NMtDS0=    0 NMtDT0=    0
         I1Cent=           7 NGrid=        3009.
 Symmetry not used in FoFCou.
          There are     3 degrees of freedom in the 1st order CPHF.  IDoFFX=0.
      3 vectors produced by pass  0 Test12= 1.12D-12 3.33D-08 XBig12= 1.35D+02 1.45D+00.
 AX will form     3 AO Fock derivatives at one time.
      3 vectors produced by pass  1 Test12= 1.12D-12 3.33D-08 XBig12= 3.53D-01 7.13D-02.
      3 vectors produced by pass  2 Test12= 1.12D-12 3.33D-08 XBig12= 7.55D-04 3.11D-03.
      3 vectors produced by pass  3 Test12= 1.12D-12 3.33D-08 XBig12= 3.48D-06 2.85D-04.
      3 vectors produced by pass  4 Test12= 1.12D-12 3.33D-08 XBig12= 1.33D-08 1.44D-05.
      3 vectors produced by pass  5 Test12= 1.12D-12 3.33D-08 XBig12= 4.21D-11 8.87D-07.
      2 vectors produced by pass  6 Test12= 1.12D-12 3.33D-08 XBig12= 1.28D-13 3.59D-08.
 Inverted reduced A of dimension    20 with in-core refinement.
 Calculating GIAO nuclear magnetic shielding tensors.
 SCF GIAO Magnetic shielding tensor (ppm):
      1  H    Isotropic =    27.1677   Anisotropy =     3.9162
   XX=    28.0149   YX=    -0.6821   ZX=    -1.5549
   XY=     0.2485   YY=    26.6326   ZY=     2.3137
   XZ=    -0.0300   YZ=     3.1506   ZZ=    26.8555
   Eigenvalues:    23.9706    27.7539    29.7785
      2  C    Isotropic =   128.0467   Anisotropy =    51.2820
   XX=   145.3571   YX=   -15.9208   ZX=   -25.5246
   XY=   -11.7650   YY=   118.6218   ZY=    -4.6213
   XZ=   -21.8229   YZ=    -0.3871   ZZ=   120.1613
   Eigenvalues:   100.6059   121.2996   162.2347
      3  C    Isotropic =   166.4311   Anisotropy =    30.0765
   XX=   168.2211   YX=    -4.6651   ZX=     8.5618
   XY=    -0.5924   YY=   163.7918   ZY=   -12.6261
   XZ=    12.9580   YZ=   -18.1563   ZZ=   167.2805
   Eigenvalues:   148.4377   164.3736   186.4822
      4  C    Isotropic =   128.1105   Anisotropy =    42.5615
   XX=   128.1038   YX=    -3.7970   ZX=    14.4896
   XY=   -16.8718   YY=   128.4183   ZY=   -21.3371
   XZ=    17.0536   YZ=   -11.1728   ZZ=   127.8093
   Eigenvalues:   109.9192   117.9274   156.4848
      5  C    Isotropic =   135.5092   Anisotropy =    59.8028
   XX=   107.3452   YX=   -20.7124   ZX=   -14.1631
   XY=   -22.8895   YY=   150.5051   ZY=   -25.0638
   XZ=   -15.4326   YZ=   -25.4082   ZZ=   148.6774
   Eigenvalues:    88.4690   142.6810   175.3778
      6  C    Isotropic =   109.5676   Anisotropy =    44.0698
   XX=   108.7013   YX=    12.6486   ZX=     0.2642
   XY=    20.0909   YY=   120.8271   ZY=   -10.3405
   XZ=   -12.4035   YZ=   -20.8811   ZZ=    99.1746
   Eigenvalues:    90.5308    99.2246   138.9475
      7  C    Isotropic =   164.4106   Anisotropy =    20.3880
   XX=   165.2240   YX=     4.8739   ZX=    -6.8163
   XY=    10.4087   YY=   167.6755   ZY=   -10.8570
   XZ=    -2.4141   YZ=    -2.8219   ZZ=   160.3324
   Eigenvalues:   156.2410   158.9883   178.0026
      8  H    Isotropic =    29.1267   Anisotropy =     7.1735
   XX=    31.7926   YX=    -1.7934   ZX=    -1.2002
   XY=    -2.4839   YY=    30.6391   ZY=     2.3707
   XZ=    -0.6991   YZ=     1.8626   ZZ=    24.9483
   Eigenvalues:    24.2397    29.2313    33.9090
      9  H    Isotropic =    27.1945   Anisotropy =     6.9514
   XX=    30.8126   YX=    -2.4257   ZX=     1.0332
   XY=    -2.7423   YY=    24.1710   ZY=     0.9172
   XZ=     0.8326   YZ=    -0.5346   ZZ=    26.6001
   Eigenvalues:    23.2133    26.5415    31.8288
     10  H    Isotropic =    28.4276   Anisotropy =     4.9943
   XX=    29.2620   YX=     0.6657   ZX=    -1.3794
   XY=     2.5067   YY=    30.2325   ZY=    -1.2065
   XZ=    -2.1546   YZ=     0.3317   ZZ=    25.7883
   Eigenvalues:    25.0380    28.4876    31.7571
     11  H    Isotropic =    29.7559   Anisotropy =     8.8226
   XX=    30.3452   YX=     0.4946   ZX=    -3.6377
   XY=     0.4285   YY=    25.7296   ZY=     0.6297
   XZ=    -3.4481   YZ=     1.6865   ZZ=    33.1929
   Eigenvalues:    25.2835    28.3465    35.6376
     12  H    Isotropic =    30.5582   Anisotropy =    10.9490
   XX=    28.7994   YX=     3.6304   ZX=     0.7861
   XY=     3.7523   YY=    34.1888   ZY=    -4.7700
   XZ=     0.8569   YZ=    -4.7740   ZZ=    28.6863
   Eigenvalues:    24.2624    29.5546    37.8575
     13  H    Isotropic =    29.8601   Anisotropy =     8.5287
   XX=    30.5188   YX=     0.8233   ZX=     3.2360
   XY=    -0.3706   YY=    27.4773   ZY=    -3.6775
   XZ=     3.8712   YZ=    -3.4782   ZZ=    31.5843
   Eigenvalues:    24.6138    29.4207    35.5459
     14  C    Isotropic =   145.8753   Anisotropy =    32.6305
   XX=   123.1442   YX=   -19.7047   ZX=   -12.1652
   XY=   -16.9836   YY=   158.7987   ZY=   -10.8626
   XZ=   -14.1807   YZ=    -6.3837   ZZ=   155.6830
   Eigenvalues:   110.1101   159.8868   167.6290
     15  H    Isotropic =    28.4062   Anisotropy =     9.4047
   XX=    26.5547   YX=     3.6511   ZX=     3.8332
   XY=     0.4095   YY=    26.8116   ZY=    -2.8659
   XZ=     5.6867   YZ=    -0.5141   ZZ=    31.8522
   Eigenvalues:    22.2588    28.2837    34.6760
     16  H    Isotropic =    29.0175   Anisotropy =    11.3479
   XX=    26.0486   YX=     1.9815   ZX=     2.2456
   XY=     5.4898   YY=    35.2426   ZY=     1.0728
   XZ=     0.3852   YZ=    -1.1968   ZZ=    25.7612
   Eigenvalues:    23.8749    26.5948    36.5827
     17  O    Isotropic =   311.5864   Anisotropy =   121.4285
   XX=   342.5275   YX=    38.4115   ZX=    58.6936
   XY=    67.3654   YY=   321.1965   ZY=   -93.1173
   XZ=    77.6414   YZ=   -93.0409   ZZ=   271.0352
   Eigenvalues:   159.1289   383.0915   392.5387
     18  O    Isotropic =   316.3995   Anisotropy =    39.6350
   XX=   314.9039   YX=    -6.1981   ZX=    14.2998
   XY=     5.0538   YY=   341.1391   ZY=   -16.5500
   XZ=    -6.2944   YZ=    -1.4064   ZZ=   293.1556
   Eigenvalues:   290.9162   315.4595   342.8229
     19  H    Isotropic =    29.2241   Anisotropy =    18.3140
   XX=    26.0585   YX=     6.3747   ZX=     2.8283
   XY=     8.7195   YY=    36.0254   ZY=    -6.5845
   XZ=     4.0271   YZ=    -6.9175   ZZ=    25.5884
   Eigenvalues:    17.0177    29.2212    41.4334
     20  O    Isotropic =   314.0919   Anisotropy =    61.7944
   XX=   311.4326   YX=    26.8516   ZX=   -35.7629
   XY=    10.9475   YY=   309.3439   ZY=    -9.9042
   XZ=   -24.1375   YZ=    -9.1843   ZZ=   321.4992
   Eigenvalues:   282.7843   304.2033   355.2881
     21  C    Isotropic =   138.8365   Anisotropy =    81.4970
   XX=   117.8573   YX=    -1.5372   ZX=    -6.4786
   XY=    -1.5887   YY=   179.3476   ZY=    30.8249
   XZ=    -5.6493   YZ=    32.5372   ZZ=   119.3045
   Eigenvalues:   103.9010   119.4406   193.1678
     22  H    Isotropic =    28.4222   Anisotropy =    10.5659
   XX=    28.6032   YX=    -3.0131   ZX=    -0.0423
   XY=    -5.2536   YY=    31.8352   ZY=     3.2318
   XZ=    -1.7251   YZ=     2.6360   ZZ=    24.8282
   Eigenvalues:    23.6515    26.1490    35.4661
     23  H    Isotropic =    27.9659   Anisotropy =    10.2057
   XX=    25.3740   YX=     0.7516   ZX=    -0.8411
   XY=     1.6979   YY=    34.4704   ZY=    -2.4655
   XZ=    -0.0701   YZ=     0.1403   ZZ=    24.0532
   Eigenvalues:    23.8511    25.2768    34.7697
     24  H    Isotropic =    28.0438   Anisotropy =     8.3198
   XX=    26.6075   YX=    -0.8537   ZX=     1.6630
   XY=     0.6906   YY=    30.3627   ZY=     5.5244
   XZ=     2.6266   YZ=     3.1557   ZZ=    27.1614
   Eigenvalues:    23.1542    27.3869    33.5904
     25  O    Isotropic =   289.6559   Anisotropy =    22.7610
   XX=   286.7716   YX=     7.0376   ZX=    13.7760
   XY=    -5.0973   YY=   292.5184   ZY=    -2.5155
   XZ=    18.8238   YZ=    -3.8780   ZZ=   289.6778
   Eigenvalues:   271.4663   292.6716   304.8299
     26  Si   Isotropic =   379.4096   Anisotropy =    38.5994
   XX=   401.8014   YX=     2.8681   ZX=    -5.8642
   XY=    -8.9941   YY=   368.0667   ZY=     4.0940
   XZ=   -14.6670   YZ=     3.8889   ZZ=   368.3608
   Eigenvalues:   363.3618   369.7245   405.1426
     27  C    Isotropic =   199.4787   Anisotropy =    10.9087
   XX=   203.3838   YX=    -0.2381   ZX=     2.5687
   XY=    -2.5371   YY=   200.9021   ZY=    -8.6890
   XZ=     3.2406   YZ=    -3.5153   ZZ=   194.1502
   Eigenvalues:   190.2957   201.3892   206.7512
     28  H    Isotropic =    31.6382   Anisotropy =    10.8352
   XX=    37.3178   YX=     3.7297   ZX=    -0.2114
   XY=     3.2445   YY=    30.9531   ZY=     0.8406
   XZ=    -0.0310   YZ=     0.9618   ZZ=    26.6437
   Eigenvalues:    26.3867    29.6663    38.8617
     29  H    Isotropic =    31.3281   Anisotropy =     8.1525
   XX=    30.3747   YX=    -1.2867   ZX=    -2.1198
   XY=    -1.5522   YY=    32.1273   ZY=     4.1328
   XZ=    -1.9323   YZ=     3.9199   ZZ=    31.4824
   Eigenvalues:    27.6296    29.5917    36.7631
     30  H    Isotropic =    31.2763   Anisotropy =     8.0560
   XX=    30.1848   YX=    -1.5251   ZX=     2.3006
   XY=    -2.2130   YY=    31.3473   ZY=    -4.0459
   XZ=     1.9064   YZ=    -3.0905   ZZ=    32.2969
   Eigenvalues:    28.2219    28.9600    36.6470
     31  C    Isotropic =   173.1194   Anisotropy =     7.7315
   XX=   176.9858   YX=     2.5860   ZX=     2.0983
   XY=     1.6315   YY=   171.0897   ZY=     1.1784
   XZ=     1.4801   YZ=     1.1631   ZZ=   171.2826
   Eigenvalues:   169.9815   171.1029   178.2737
     32  C    Isotropic =   200.1485   Anisotropy =     8.2429
   XX=   202.9092   YX=     1.0899   ZX=     1.2871
   XY=     3.1199   YY=   199.8568   ZY=    -4.7454
   XZ=     2.3565   YZ=    -8.6664   ZZ=   197.6796
   Eigenvalues:   191.3205   203.4812   205.6438
     33  H    Isotropic =    31.6720   Anisotropy =    10.9042
   XX=    37.2780   YX=     1.4809   ZX=     3.5965
   XY=     1.6847   YY=    27.0716   ZY=     0.3469
   XZ=     3.2598   YZ=     0.2132   ZZ=    30.6663
   Eigenvalues:    26.8115    29.2630    38.9415
     34  H    Isotropic =    31.4635   Anisotropy =     8.9286
   XX=    27.6378   YX=    -0.4327   ZX=     0.6396
   XY=    -0.4152   YY=    36.3731   ZY=    -2.1415
   XZ=     0.4074   YZ=    -3.1720   ZZ=    30.3797
   Eigenvalues:    27.5406    29.4341    37.4159
     35  H    Isotropic =    31.4019   Anisotropy =     8.6592
   XX=    30.7488   YX=    -2.1089   ZX=    -2.1406
   XY=    -1.7018   YY=    27.9060   ZY=     1.8657
   XZ=    -2.2408   YZ=     2.3606   ZZ=    35.5509
   Eigenvalues:    26.8326    30.1984    37.1747
     36  C    Isotropic =   170.5885   Anisotropy =    37.0640
   XX=   159.3347   YX=     6.8231   ZX=    -2.8724
   XY=     9.9851   YY=   192.9217   ZY=    -6.0848
   XZ=    -1.8742   YZ=    -0.4706   ZZ=   159.5090
   Eigenvalues:   156.4509   160.0168   195.2978
     37  H    Isotropic =    30.5231   Anisotropy =     8.4928
   XX=    26.7872   YX=    -1.5283   ZX=     0.4738
   XY=    -2.1790   YY=    33.4464   ZY=    -3.8933
   XZ=     0.8191   YZ=    -2.6049   ZZ=    31.3359
   Eigenvalues:    26.2959    29.0885    36.1850
     38  H    Isotropic =    30.9708   Anisotropy =     9.7071
   XX=    28.5316   YX=    -1.6798   ZX=    -1.9159
   XY=    -2.3210   YY=    33.9976   ZY=     4.4232
   XZ=    -2.0136   YZ=     3.6048   ZZ=    30.3831
   Eigenvalues:    27.1938    28.2763    37.4422
     39  H    Isotropic =    30.2181   Anisotropy =     8.3474
   XX=    34.2394   YX=     1.9716   ZX=    -1.1540
   XY=     3.3706   YY=    31.1515   ZY=     1.7517
   XZ=    -1.1316   YZ=     1.6004   ZZ=    25.2635
   Eigenvalues:    24.4660    30.4054    35.7830
     40  C    Isotropic =   170.4202   Anisotropy =    39.3452
   XX=   195.1134   YX=     7.7262   ZX=     6.2554
   XY=     4.8867   YY=   158.2748   ZY=     0.4715
   XZ=     2.3841   YZ=     0.5720   ZZ=   157.8724
   Eigenvalues:   157.0959   157.5144   196.6503
     41  H    Isotropic =    30.6814   Anisotropy =     9.2350
   XX=    34.1294   YX=    -2.4380   ZX=     3.7723
   XY=    -1.5442   YY=    26.1712   ZY=    -0.9930
   XZ=     2.6451   YZ=    -1.1897   ZZ=    31.7436
   Eigenvalues:    25.6788    29.5273    36.8381
     42  H    Isotropic =    30.6705   Anisotropy =     9.1349
   XX=    33.1939   YX=     4.5431   ZX=    -1.5409
   XY=     3.0351   YY=    32.6654   ZY=     0.5167
   XZ=    -1.1351   YZ=     0.6513   ZZ=    26.1522
   Eigenvalues:    25.6119    29.6392    36.7604
     43  H    Isotropic =    30.9011   Anisotropy =    10.1807
   XX=    34.4675   YX=    -2.5208   ZX=    -4.4852
   XY=    -1.7895   YY=    28.0635   ZY=     1.9384
   XZ=    -3.4392   YZ=     2.0576   ZZ=    30.1723
   Eigenvalues:    26.8460    28.1691    37.6883
     44  C    Isotropic =   170.2404   Anisotropy =    37.0074
   XX=   161.9129   YX=    -6.9418   ZX=     8.5425
   XY=    -7.1001   YY=   164.2262   ZY=    -9.3843
   XZ=    12.3329   YZ=   -14.8219   ZZ=   184.5822
   Eigenvalues:   155.9525   159.8568   194.9121
     45  H    Isotropic =    30.9903   Anisotropy =     9.6403
   XX=    28.3997   YX=    -1.1363   ZX=    -1.7443
   XY=    -1.1204   YY=    28.1214   ZY=     1.4177
   XZ=    -2.4719   YZ=     2.2239   ZZ=    36.4496
   Eigenvalues:    27.1235    28.4301    37.4172
     46  H    Isotropic =    30.5279   Anisotropy =     7.9242
   XX=    26.5887   YX=    -0.4925   ZX=    -0.8115
   XY=     0.0945   YY=    33.8886   ZY=    -2.3170
   XZ=    -1.1704   YZ=    -3.6647   ZZ=    31.1066
   Eigenvalues:    26.2713    29.5018    35.8107
     47  H    Isotropic =    30.2047   Anisotropy =     8.4155
   XX=    34.9635   YX=    -1.0339   ZX=     1.2404
   XY=    -1.5907   YY=    24.9165   ZY=    -0.0373
   XZ=     2.5370   YZ=     0.2333   ZZ=    30.7340
   Eigenvalues:    24.7278    30.0712    35.8150
 End of Minotr Frequency-dependent properties file   721 does not exist.
 End of Minotr Frequency-dependent properties file   722 does not exist.

 **********************************************************************

            Population analysis using the SCF density.

 **********************************************************************

 Orbital symmetries:
       Occupied  (A) (A) (A) (A) (A) (A) (A) (A) (A) (A) (A) (A)
                 (A) (A) (A) (A) (A) (A) (A) (A) (A) (A) (A) (A)
                 (A) (A) (A) (A) (A) (A) (A) (A) (A) (A) (A) (A)
                 (A) (A) (A) (A) (A) (A) (A) (A) (A) (A) (A) (A)
                 (A) (A) (A) (A) (A) (A) (A) (A) (A) (A) (A) (A)
                 (A) (A) (A) (A) (A) (A) (A) (A) (A) (A) (A) (A)
                 (A) (A) (A) (A) (A) (A) (A)
       Virtual   (A) (A) (A) (A) (A) (A) (A) (A) (A) (A) (A) (A)
                 (A) (A) (A) (A) (A) (A) (A) (A) (A) (A) (A) (A)
                 (A) (A) (A) (A) (A) (A) (A) (A) (A) (A) (A) (A)
                 (A) (A) (A) (A) (A) (A) (A) (A) (A) (A) (A) (A)
                 (A) (A) (A) (A) (A) (A) (A) (A) (A) (A) (A) (A)
                 (A) (A) (A) (A) (A) (A) (A) (A) (A) (A) (A) (A)
                 (A) (A) (A) (A) (A) (A) (A) (A) (A) (A) (A) (A)
                 (A) (A) (A) (A) (A) (A) (A) (A) (A) (A) (A) (A)
                 (A) (A) (A) (A) (A) (A) (A) (A) (A) (A) (A) (A)
                 (A) (A) (A) (A) (A) (A) (A) (A) (A) (A) (A) (A)
                 (A) (A) (A) (A) (A) (A) (A) (A) (A) (A) (A) (A)
                 (A) (A) (A) (A) (A) (A) (A) (A) (A) (A) (A) (A)
                 (A) (A) (A) (A) (A) (A) (A) (A) (A) (A) (A) (A)
                 (A) (A) (A) (A) (A) (A) (A) (A) (A) (A) (A) (A)
                 (A) (A) (A) (A) (A) (A) (A) (A) (A) (A) (A) (A)
                 (A) (A) (A) (A) (A) (A) (A) (A) (A) (A) (A) (A)
                 (A) (A) (A) (A) (A) (A) (A) (A) (A) (A) (A) (A)
                 (A) (A) (A) (A) (A) (A) (A) (A) (A) (A) (A) (A)
                 (A) (A) (A) (A) (A) (A) (A) (A) (A) (A) (A) (A)
                 (A) (A) (A) (A) (A) (A) (A) (A) (A) (A) (A) (A)
                 (A) (A) (A) (A) (A) (A) (A) (A) (A) (A) (A) (A)
                 (A) (A) (A) (A) (A) (A) (A) (A) (A) (A) (A) (A)
                 (A) (A) (A) (A) (A) (A) (A) (A) (A) (A) (A) (A)
                 (A) (A) (A) (A) (A) (A) (A) (A) (A) (A) (A) (A)
                 (A) (A) (A) (A) (A) (A) (A) (A) (A) (A) (A) (A)
                 (A) (A) (A) (A) (A) (A) (A) (A) (A) (A) (A) (A)
                 (A) (A) (A) (A) (A) (A) (A) (A) (A) (A) (A) (A)
                 (A) (A) (A) (A) (A) (A) (A) (A) (A) (A) (A) (A)
                 (A) (A) (A) (A) (A) (A) (A) (A) (A) (A) (A) (A)
                 (A) (A) (A) (A) (A) (A) (A) (A) (A) (A) (A) (A)
                 (A) (A) (A) (A) (A) (A) (A) (A) (A) (A) (A) (A)
                 (A) (A) (A) (A) (A) (A) (A) (A) (A) (A) (A) (A)
                 (A) (A) (A) (A) (A) (A) (A) (A) (A) (A) (A) (A)
                 (A) (A) (A) (A) (A) (A) (A) (A) (A) (A) (A) (A)
                 (A) (A) (A) (A) (A) (A) (A) (A) (A) (A) (A) (A)
                 (A) (A) (A) (A) (A) (A)
 The electronic state is 1-A.
 Alpha  occ. eigenvalues --  -66.30333 -19.26300 -19.25864 -19.25020 -19.23382
 Alpha  occ. eigenvalues --  -10.31282 -10.31067 -10.30424 -10.30355 -10.29612
 Alpha  occ. eigenvalues --  -10.29285 -10.25292 -10.25158 -10.24762 -10.23632
 Alpha  occ. eigenvalues --  -10.23316 -10.23236 -10.22408 -10.22289  -5.33734
 Alpha  occ. eigenvalues --   -3.67644  -3.67358  -3.67340  -1.10727  -1.08267
 Alpha  occ. eigenvalues --   -1.05263  -1.03254  -0.84694  -0.82189  -0.77526
 Alpha  occ. eigenvalues --   -0.75287  -0.72188  -0.70753  -0.70400  -0.70164
 Alpha  occ. eigenvalues --   -0.69473  -0.68473  -0.63944  -0.61552  -0.58629
 Alpha  occ. eigenvalues --   -0.56362  -0.54684  -0.52862  -0.52365  -0.50308
 Alpha  occ. eigenvalues --   -0.49362  -0.48317  -0.47665  -0.47148  -0.45414
 Alpha  occ. eigenvalues --   -0.45011  -0.44565  -0.44098  -0.43105  -0.42355
 Alpha  occ. eigenvalues --   -0.41669  -0.41118  -0.40629  -0.40399  -0.40014
 Alpha  occ. eigenvalues --   -0.39611  -0.38965  -0.38817  -0.38760  -0.38088
 Alpha  occ. eigenvalues --   -0.37192  -0.36340  -0.35431  -0.34660  -0.34019
 Alpha  occ. eigenvalues --   -0.33764  -0.32804  -0.32348  -0.31481  -0.29627
 Alpha  occ. eigenvalues --   -0.28823  -0.28240  -0.27446  -0.26800
 Alpha virt. eigenvalues --   -0.00376   0.00875   0.01083   0.01687   0.02667
 Alpha virt. eigenvalues --    0.02863   0.03305   0.03468   0.03800   0.04742
 Alpha virt. eigenvalues --    0.05077   0.05414   0.05556   0.06187   0.06296
 Alpha virt. eigenvalues --    0.06726   0.06995   0.07571   0.07759   0.08295
 Alpha virt. eigenvalues --    0.08629   0.08962   0.09025   0.09439   0.09699
 Alpha virt. eigenvalues --    0.10227   0.10543   0.10922   0.11333   0.11629
 Alpha virt. eigenvalues --    0.11732   0.11851   0.12299   0.12724   0.13108
 Alpha virt. eigenvalues --    0.13413   0.13686   0.13983   0.14082   0.14905
 Alpha virt. eigenvalues --    0.15014   0.15696   0.16049   0.16164   0.16306
 Alpha virt. eigenvalues --    0.16691   0.16917   0.17302   0.17812   0.17976
 Alpha virt. eigenvalues --    0.18192   0.18417   0.18939   0.19109   0.19658
 Alpha virt. eigenvalues --    0.20084   0.20108   0.20386   0.20896   0.21168
 Alpha virt. eigenvalues --    0.21331   0.21839   0.21955   0.22476   0.22853
 Alpha virt. eigenvalues --    0.23013   0.23280   0.23528   0.23939   0.24286
 Alpha virt. eigenvalues --    0.24577   0.24809   0.25701   0.25932   0.26350
 Alpha virt. eigenvalues --    0.26629   0.26968   0.27519   0.28197   0.28216
 Alpha virt. eigenvalues --    0.28449   0.28992   0.29158   0.29876   0.30354
 Alpha virt. eigenvalues --    0.30525   0.30632   0.31174   0.31445   0.31616
 Alpha virt. eigenvalues --    0.32126   0.32226   0.32438   0.32798   0.33118
 Alpha virt. eigenvalues --    0.33648   0.34432   0.35109   0.35886   0.36556
 Alpha virt. eigenvalues --    0.36761   0.37465   0.37683   0.38169   0.38517
 Alpha virt. eigenvalues --    0.38855   0.39407   0.40238   0.40873   0.41332
 Alpha virt. eigenvalues --    0.41519   0.41594   0.42669   0.43708   0.44026
 Alpha virt. eigenvalues --    0.44814   0.46164   0.46308   0.47314   0.48364
 Alpha virt. eigenvalues --    0.49558   0.50631   0.52118   0.53403   0.55560
 Alpha virt. eigenvalues --    0.56221   0.59017   0.63047   0.65994   0.67096
 Alpha virt. eigenvalues --    0.68656   0.69349   0.70677   0.71407   0.71849
 Alpha virt. eigenvalues --    0.72869   0.73500   0.74284   0.74660   0.75294
 Alpha virt. eigenvalues --    0.75659   0.76536   0.77439   0.78075   0.78277
 Alpha virt. eigenvalues --    0.78447   0.79256   0.80149   0.81001   0.82026
 Alpha virt. eigenvalues --    0.82710   0.83999   0.84462   0.86335   0.86510
 Alpha virt. eigenvalues --    0.86903   0.87498   0.88756   0.89350   0.89509
 Alpha virt. eigenvalues --    0.90395   0.91116   0.92013   0.92549   0.93926
 Alpha virt. eigenvalues --    0.95262   0.95429   0.96177   0.97044   0.97332
 Alpha virt. eigenvalues --    0.98841   0.99791   1.00215   1.01266   1.01968
 Alpha virt. eigenvalues --    1.02689   1.02918   1.04142   1.04997   1.05284
 Alpha virt. eigenvalues --    1.06173   1.06794   1.06868   1.07966   1.08533
 Alpha virt. eigenvalues --    1.08948   1.09631   1.10111   1.10709   1.12145
 Alpha virt. eigenvalues --    1.14391   1.14787   1.15752   1.16770   1.17582
 Alpha virt. eigenvalues --    1.18122   1.19278   1.19696   1.20185   1.21078
 Alpha virt. eigenvalues --    1.23194   1.23636   1.24987   1.25545   1.26671
 Alpha virt. eigenvalues --    1.27102   1.28353   1.29015   1.30565   1.32726
 Alpha virt. eigenvalues --    1.33682   1.35004   1.35941   1.36452   1.37161
 Alpha virt. eigenvalues --    1.38398   1.39643   1.41057   1.43114   1.44640
 Alpha virt. eigenvalues --    1.45463   1.46216   1.47308   1.48385   1.49587
 Alpha virt. eigenvalues --    1.50546   1.51281   1.52169   1.53588   1.55756
 Alpha virt. eigenvalues --    1.57011   1.58750   1.59164   1.60705   1.63018
 Alpha virt. eigenvalues --    1.63910   1.65385   1.65653   1.66533   1.67864
 Alpha virt. eigenvalues --    1.69195   1.71199   1.72759   1.74436   1.75927
 Alpha virt. eigenvalues --    1.77341   1.78664   1.80548   1.80940   1.82109
 Alpha virt. eigenvalues --    1.82839   1.83725   1.85268   1.86417   1.88000
 Alpha virt. eigenvalues --    1.89534   1.90251   1.91399   1.92896   1.93683
 Alpha virt. eigenvalues --    1.94694   1.95482   1.96045   1.96613   1.97668
 Alpha virt. eigenvalues --    1.98885   1.99516   2.00205   2.01718   2.02092
 Alpha virt. eigenvalues --    2.04073   2.04548   2.04781   2.05707   2.06239
 Alpha virt. eigenvalues --    2.06718   2.07765   2.08583   2.09545   2.10128
 Alpha virt. eigenvalues --    2.10629   2.11095   2.11743   2.12478   2.13214
 Alpha virt. eigenvalues --    2.13730   2.14033   2.14727   2.15441   2.16210
 Alpha virt. eigenvalues --    2.16330   2.16912   2.17449   2.17769   2.18263
 Alpha virt. eigenvalues --    2.18768   2.19773   2.20809   2.21456   2.21841
 Alpha virt. eigenvalues --    2.22996   2.23606   2.24823   2.25740   2.28133
 Alpha virt. eigenvalues --    2.28389   2.28774   2.30526   2.32080   2.34172
 Alpha virt. eigenvalues --    2.35184   2.38026   2.38727   2.39268   2.39475
 Alpha virt. eigenvalues --    2.40506   2.42002   2.42730   2.43237   2.43763
 Alpha virt. eigenvalues --    2.44742   2.46660   2.48759   2.50327   2.52030
 Alpha virt. eigenvalues --    2.53914   2.56684   2.57069   2.57829   2.58935
 Alpha virt. eigenvalues --    2.59729   2.60783   2.62157   2.65680   2.66533
 Alpha virt. eigenvalues --    2.67109   2.68222   2.69087   2.69369   2.70315
 Alpha virt. eigenvalues --    2.71930   2.73012   2.73612   2.74494   2.76585
 Alpha virt. eigenvalues --    2.76909   2.77951   2.78560   2.78906   2.79877
 Alpha virt. eigenvalues --    2.81141   2.82725   2.83199   2.84737   2.85349
 Alpha virt. eigenvalues --    2.86587   2.86804   2.86955   2.88096   2.88424
 Alpha virt. eigenvalues --    2.88534   2.89170   2.89799   2.90356   2.90968
 Alpha virt. eigenvalues --    2.92314   2.93736   2.94539   2.95675   2.97803
 Alpha virt. eigenvalues --    2.99056   2.99809   3.00752   3.04224   3.07018
 Alpha virt. eigenvalues --    3.09642   3.15154   3.19543   3.24570   3.26099
 Alpha virt. eigenvalues --    3.27665   3.28406   3.30243   3.30742   3.31619
 Alpha virt. eigenvalues --    3.32300   3.37428   3.38195   3.40188   3.45031
 Alpha virt. eigenvalues --    3.47359   3.47960   3.48180   3.48937   3.49212
 Alpha virt. eigenvalues --    3.50061   3.50511   3.50631   3.51427   3.51561
 Alpha virt. eigenvalues --    3.52275   3.52719   3.55891   3.56462   3.57072
 Alpha virt. eigenvalues --    3.58258   3.61039   3.63678   4.38447   4.43437
 Alpha virt. eigenvalues --    4.45849   4.51784   4.53586   4.54677   4.58669
 Alpha virt. eigenvalues --    4.60262   4.62848   4.63223   4.66302   4.68225
 Alpha virt. eigenvalues --    4.70846   4.74964   4.77942   4.84411   4.93927
 Alpha virt. eigenvalues --    5.06294
          Condensed to atoms (all electrons):
              1          2          3          4          5          6
     1  H    0.616429   0.158880   0.012484   0.017514   0.004194   0.098171
     2  C    0.158880  13.327761  -1.056751  -2.345172   1.907133  -5.574552
     3  C    0.012484  -1.056751   7.367125  -0.684678  -0.963890   0.615961
     4  C    0.017514  -2.345172  -0.684678  10.593092  -2.755109   1.987557
     5  C    0.004194   1.907133  -0.963890  -2.755109  10.891660  -2.064435
     6  C    0.098171  -5.574552   0.615961   1.987557  -2.064435  12.293363
     7  C   -0.004149  -1.948007   0.823297   0.065618  -0.405694   0.690193
     8  H   -0.000090  -0.044280   0.370276   0.038342  -0.059133   0.023100
     9  H   -0.000263   0.134991  -0.020733   0.242864   0.006382  -0.171966
    10  H   -0.004250   0.056104  -0.014315  -0.137284   0.107847   0.254968
    11  H   -0.002547  -0.118505  -0.066922   0.022530   0.003189   0.020455
    12  H   -0.000125   0.084751   0.352056   0.029716  -0.023447  -0.007488
    13  H   -0.004372  -0.036403  -0.056822   0.002408   0.038795   0.013824
    14  C    0.003311   0.799966  -0.296317  -0.602218  -1.202293  -1.184459
    15  H    0.000000  -0.005044  -0.024686   0.114343  -0.123164   0.009669
    16  H    0.000000   0.004704   0.046857  -0.028081  -0.130731  -0.015463
    17  O   -0.000427  -0.010017  -0.111739  -0.249894   0.325125   0.059068
    18  O   -0.000823   0.096788   0.095865   0.277297  -0.046857  -0.176593
    19  H   -0.000012   0.049298  -0.018487   0.001288   0.063472  -0.124483
    20  O   -0.003525   0.131008  -0.015585  -0.205676   0.128536   0.085411
    21  C   -0.003606   0.086319   0.013035  -0.033127  -0.015035  -0.163095
    22  H   -0.000061  -0.021045   0.002035   0.021530  -0.003006  -0.016471
    23  H   -0.000046   0.014001  -0.000829  -0.016029   0.003640   0.020420
    24  H    0.001426   0.021200   0.000082  -0.003321   0.003563  -0.029471
    25  O   -0.068557   0.071722  -0.027875  -0.045841   0.062920  -0.112808
    26  Si   0.059970   0.085483   0.047570  -0.236262   0.044826  -0.099749
    27  C   -0.013735   0.049682  -0.005194   0.007225   0.002452  -0.045044
    28  H   -0.000022   0.001093  -0.000016   0.000327   0.000126   0.002525
    29  H    0.000722  -0.004168   0.000219   0.000777  -0.000985  -0.001091
    30  H    0.000014  -0.013525   0.000167   0.001067  -0.000626   0.005289
    31  C    0.004921  -0.149927   0.003072   0.005523  -0.022380   0.135516
    32  C   -0.010413   0.052711  -0.002678  -0.006458   0.004522  -0.023568
    33  H   -0.000027   0.000212   0.000174   0.000227  -0.000009   0.000321
    34  H   -0.000003  -0.014119   0.000816  -0.000534   0.000320  -0.001361
    35  H    0.000655  -0.002677   0.000156   0.000085  -0.000442   0.001976
    36  C    0.000974  -0.150598  -0.007055   0.046125  -0.020990   0.084962
    37  H    0.000000   0.001882   0.001561  -0.000349  -0.000703  -0.000612
    38  H    0.000000  -0.000771   0.000652   0.000625  -0.000623   0.000630
    39  H    0.000000  -0.001965  -0.008835  -0.000202   0.004353  -0.001254
    40  C    0.000480  -0.002352  -0.001518  -0.007591   0.000974   0.009946
    41  H    0.000000   0.000438   0.000078   0.000010  -0.000042   0.000009
    42  H    0.000000   0.000325  -0.000006  -0.000041   0.000023  -0.000023
    43  H    0.000000  -0.000591   0.000002   0.000029  -0.000009   0.000130
    44  C   -0.000698   0.140310  -0.007519  -0.001599   0.028999  -0.142873
    45  H    0.000000   0.000388   0.000183   0.001001  -0.000358  -0.000718
    46  H    0.000001  -0.002618  -0.000102  -0.000222  -0.000343   0.003374
    47  H    0.000004   0.010593  -0.003662  -0.004814   0.007121  -0.016290
              7          8          9         10         11         12
     1  H   -0.004149  -0.000090  -0.000263  -0.004250  -0.002547  -0.000125
     2  C   -1.948007  -0.044280   0.134991   0.056104  -0.118505   0.084751
     3  C    0.823297   0.370276  -0.020733  -0.014315  -0.066922   0.352056
     4  C    0.065618   0.038342   0.242864  -0.137284   0.022530   0.029716
     5  C   -0.405694  -0.059133   0.006382   0.107847   0.003189  -0.023447
     6  C    0.690193   0.023100  -0.171966   0.254968   0.020455  -0.007488
     7  C    7.036950  -0.020289   0.004983  -0.003397   0.447657  -0.086726
     8  H   -0.020289   0.521531   0.000208  -0.000009   0.004442  -0.023189
     9  H    0.004983   0.000208   0.576919   0.005282  -0.000014   0.000027
    10  H   -0.003397  -0.000009   0.005282   0.575737   0.000432  -0.000027
    11  H    0.447657   0.004442  -0.000014   0.000432   0.524168  -0.003978
    12  H   -0.086726  -0.023189   0.000027  -0.000027  -0.003978   0.528524
    13  H    0.373693  -0.003331  -0.000015  -0.000087  -0.023343  -0.001440
    14  C   -0.328074  -0.017298   0.045152   0.031370  -0.003749  -0.017253
    15  H   -0.005337   0.000173  -0.000086  -0.000046   0.000002   0.000091
    16  H    0.008079  -0.000141   0.000225   0.000006  -0.000018   0.001081
    17  O    0.030218   0.010101   0.009292   0.005908   0.004613   0.000943
    18  O    0.016437  -0.000583  -0.033683   0.008339  -0.000425  -0.000452
    19  H   -0.006879   0.000001  -0.003759  -0.000724   0.000001   0.000003
    20  O    0.009489  -0.000566   0.007517  -0.060412  -0.001190   0.000134
    21  C   -0.053392  -0.000419  -0.002025  -0.011809  -0.001396   0.000257
    22  H    0.005569   0.000000   0.000006   0.009546   0.000006   0.000000
    23  H    0.000247   0.000000   0.000023   0.000138   0.000000   0.000000
    24  H   -0.011173   0.000000  -0.000009  -0.001897   0.000002   0.000000
    25  O   -0.061242   0.010487   0.011218   0.016203   0.014910  -0.002313
    26  Si  -0.058116   0.003267   0.017522  -0.001850  -0.003608  -0.001419
    27  C   -0.009344   0.000237   0.000262   0.001674   0.000327   0.000081
    28  H   -0.000073   0.000000   0.000000   0.000000   0.000000   0.000000
    29  H    0.002499   0.000000  -0.000002  -0.000007   0.000001   0.000000
    30  H   -0.004261   0.000000   0.000001   0.000001   0.000000   0.000000
    31  C   -0.000636  -0.000218  -0.004485  -0.000649   0.000429  -0.000174
    32  C   -0.010709   0.000320   0.000105   0.000177   0.000717   0.000226
    33  H    0.002392   0.000000   0.000000   0.000000   0.000000   0.000000
    34  H    0.011577   0.000000   0.000000   0.000000   0.000001   0.000000
    35  H   -0.001748   0.000000   0.000000   0.000001   0.000000   0.000000
    36  C    0.045534   0.000781  -0.003247  -0.000274   0.000112   0.000071
    37  H   -0.001681  -0.000013   0.000001   0.000000   0.000000   0.000000
    38  H   -0.000465  -0.000001  -0.000001   0.000000   0.000000   0.000000
    39  H    0.004459   0.000733   0.000191   0.000000   0.000000   0.000001
    40  C   -0.010801   0.000107   0.000392   0.000032   0.000005   0.000002
    41  H   -0.000209   0.000000   0.000000   0.000000   0.000000   0.000000
    42  H    0.000032   0.000000   0.000000   0.000000   0.000000   0.000000
    43  H    0.000037   0.000000   0.000000   0.000000   0.000000   0.000000
    44  C   -0.036494  -0.001706   0.001915   0.000485  -0.000330   0.000084
    45  H    0.000163   0.000000  -0.000005   0.000000   0.000000   0.000000
    46  H    0.000286   0.000000  -0.000007   0.000000   0.000000   0.000000
    47  H   -0.000699   0.000007   0.001423   0.000002   0.000000   0.000000
             13         14         15         16         17         18
     1  H   -0.004372   0.003311   0.000000   0.000000  -0.000427  -0.000823
     2  C   -0.036403   0.799966  -0.005044   0.004704  -0.010017   0.096788
     3  C   -0.056822  -0.296317  -0.024686   0.046857  -0.111739   0.095865
     4  C    0.002408  -0.602218   0.114343  -0.028081  -0.249894   0.277297
     5  C    0.038795  -1.202293  -0.123164  -0.130731   0.325125  -0.046857
     6  C    0.013824  -1.184459   0.009669  -0.015463   0.059068  -0.176593
     7  C    0.373693  -0.328074  -0.005337   0.008079   0.030218   0.016437
     8  H   -0.003331  -0.017298   0.000173  -0.000141   0.010101  -0.000583
     9  H   -0.000015   0.045152  -0.000086   0.000225   0.009292  -0.033683
    10  H   -0.000087   0.031370  -0.000046   0.000006   0.005908   0.008339
    11  H   -0.023343  -0.003749   0.000002  -0.000018   0.004613  -0.000425
    12  H   -0.001440  -0.017253   0.000091   0.001081   0.000943  -0.000452
    13  H    0.527278   0.003403   0.000001  -0.000001  -0.000137   0.000059
    14  C    0.003403   8.034591   0.411697   0.481052   0.018779  -0.179717
    15  H    0.000001   0.411697   0.513204  -0.034967  -0.032587  -0.004762
    16  H   -0.000001   0.481052  -0.034967   0.537240  -0.038362   0.001261
    17  O   -0.000137   0.018779  -0.032587  -0.038362   8.295120   0.031417
    18  O    0.000059  -0.179717  -0.004762   0.001261   0.031417   8.230645
    19  H    0.000000   0.032008   0.000082  -0.000008  -0.001811   0.224408
    20  O   -0.000309   0.019579  -0.000079   0.000044   0.003337  -0.002377
    21  C    0.000368  -0.025259   0.000063  -0.000057   0.001677  -0.000410
    22  H   -0.000001  -0.000996   0.000000   0.000000  -0.000044   0.002193
    23  H    0.000000   0.000439   0.000000   0.000000   0.000006   0.000340
    24  H    0.000007   0.000345   0.000000   0.000000   0.000001  -0.000682
    25  O   -0.005736   0.008939  -0.000108  -0.000036   0.001712  -0.003866
    26  Si   0.002558  -0.013866  -0.000102   0.000475   0.002024  -0.007417
    27  C   -0.000463   0.002021   0.000000  -0.000001   0.000075   0.001183
    28  H    0.000000   0.000004   0.000000   0.000000   0.000000   0.000000
    29  H    0.000001  -0.000035   0.000000   0.000000   0.000000  -0.000003
    30  H    0.000000  -0.000031   0.000000   0.000000   0.000000   0.000004
    31  C   -0.004166  -0.009196  -0.000010  -0.000031   0.000074  -0.001345
    32  C    0.000440   0.000839   0.000003  -0.000012  -0.000038   0.000126
    33  H    0.000008  -0.000001   0.000000   0.000000   0.000000   0.000000
    34  H    0.000020   0.000014   0.000000   0.000000   0.000000   0.000000
    35  H    0.000049  -0.000021   0.000000   0.000000   0.000000   0.000000
    36  C    0.002415   0.000298   0.000000  -0.000013  -0.000315  -0.000719
    37  H   -0.000002  -0.000034   0.000000   0.000000   0.000000   0.000000
    38  H    0.000000  -0.000035   0.000000   0.000000   0.000000   0.000000
    39  H   -0.000011   0.000759   0.000000   0.000000  -0.000002  -0.000009
    40  C   -0.000352  -0.000743  -0.000001  -0.000001  -0.000015  -0.000055
    41  H    0.000000  -0.000002   0.000000   0.000000   0.000000   0.000000
    42  H    0.000000   0.000000   0.000000   0.000000   0.000000   0.000000
    43  H    0.000000   0.000000   0.000000   0.000000   0.000000   0.000000
    44  C   -0.000364   0.011882   0.000005   0.000008  -0.000042   0.002441
    45  H    0.000000   0.000006   0.000000   0.000000   0.000000   0.000000
    46  H    0.000000  -0.000050   0.000000   0.000000   0.000000  -0.000019
    47  H    0.000000   0.001559   0.000000   0.000000   0.000001   0.000211
             19         20         21         22         23         24
     1  H   -0.000012  -0.003525  -0.003606  -0.000061  -0.000046   0.001426
     2  C    0.049298   0.131008   0.086319  -0.021045   0.014001   0.021200
     3  C   -0.018487  -0.015585   0.013035   0.002035  -0.000829   0.000082
     4  C    0.001288  -0.205676  -0.033127   0.021530  -0.016029  -0.003321
     5  C    0.063472   0.128536  -0.015035  -0.003006   0.003640   0.003563
     6  C   -0.124483   0.085411  -0.163095  -0.016471   0.020420  -0.029471
     7  C   -0.006879   0.009489  -0.053392   0.005569   0.000247  -0.011173
     8  H    0.000001  -0.000566  -0.000419   0.000000   0.000000   0.000000
     9  H   -0.003759   0.007517  -0.002025   0.000006   0.000023  -0.000009
    10  H   -0.000724  -0.060412  -0.011809   0.009546   0.000138  -0.001897
    11  H    0.000001  -0.001190  -0.001396   0.000006   0.000000   0.000002
    12  H    0.000003   0.000134   0.000257   0.000000   0.000000   0.000000
    13  H    0.000000  -0.000309   0.000368  -0.000001   0.000000   0.000007
    14  C    0.032008   0.019579  -0.025259  -0.000996   0.000439   0.000345
    15  H    0.000082  -0.000079   0.000063   0.000000   0.000000   0.000000
    16  H   -0.000008   0.000044  -0.000057   0.000000   0.000000   0.000000
    17  O   -0.001811   0.003337   0.001677  -0.000044   0.000006   0.000001
    18  O    0.224408  -0.002377  -0.000410   0.002193   0.000340  -0.000682
    19  H    0.370722   0.034910  -0.009795  -0.000194  -0.000056   0.000075
    20  O    0.034910   8.327153  -0.011503  -0.064529  -0.065856  -0.039504
    21  C   -0.009795  -0.011503   5.108063   0.419165   0.409598   0.406757
    22  H   -0.000194  -0.064529   0.419165   0.558223  -0.025811  -0.043029
    23  H   -0.000056  -0.065856   0.409598  -0.025811   0.520474  -0.029310
    24  H    0.000075  -0.039504   0.406757  -0.043029  -0.029310   0.560903
    25  O   -0.000324   0.018272  -0.011294   0.000173  -0.000135   0.001977
    26  Si   0.001124   0.008941   0.020291  -0.004209  -0.003339   0.017087
    27  C   -0.000159   0.000152  -0.002534   0.001325   0.002555  -0.009020
    28  H    0.000000   0.000184  -0.001075   0.000000   0.000001  -0.000008
    29  H    0.000000  -0.001453   0.002176   0.000001  -0.000073   0.001013
    30  H    0.000000  -0.002301   0.004544   0.000021  -0.000015   0.000055
    31  C   -0.000174  -0.016302   0.003181  -0.000286  -0.000147   0.000758
    32  C    0.000002   0.003100  -0.000076   0.000116   0.000072  -0.000925
    33  H    0.000000  -0.000013  -0.000067   0.000000   0.000000   0.000000
    34  H    0.000000   0.000020  -0.000108   0.000000   0.000000   0.000000
    35  H    0.000000   0.000063   0.000409   0.000000   0.000000   0.000000
    36  C    0.000035  -0.002331  -0.002089   0.000000  -0.000033   0.000037
    37  H    0.000000   0.000003   0.000023   0.000000   0.000000   0.000000
    38  H    0.000000  -0.000002   0.000008   0.000000   0.000000   0.000000
    39  H    0.000000   0.000011  -0.000062   0.000000   0.000000   0.000000
    40  C   -0.000001  -0.000017   0.000743  -0.000004   0.000030   0.000024
    41  H    0.000000  -0.000001   0.000007   0.000000   0.000000   0.000000
    42  H    0.000000   0.000004  -0.000015   0.000000   0.000000   0.000000
    43  H    0.000000   0.000000  -0.000001   0.000000   0.000000   0.000000
    44  C    0.000001   0.007610  -0.001574   0.000216   0.000124  -0.000383
    45  H    0.000000  -0.000017  -0.000011   0.000000   0.000000   0.000000
    46  H    0.000000  -0.000082  -0.000173   0.000000   0.000000   0.000000
    47  H   -0.000009   0.001195  -0.000508   0.000000   0.000001   0.000000
             25         26         27         28         29         30
     1  H   -0.068557   0.059970  -0.013735  -0.000022   0.000722   0.000014
     2  C    0.071722   0.085483   0.049682   0.001093  -0.004168  -0.013525
     3  C   -0.027875   0.047570  -0.005194  -0.000016   0.000219   0.000167
     4  C   -0.045841  -0.236262   0.007225   0.000327   0.000777   0.001067
     5  C    0.062920   0.044826   0.002452   0.000126  -0.000985  -0.000626
     6  C   -0.112808  -0.099749  -0.045044   0.002525  -0.001091   0.005289
     7  C   -0.061242  -0.058116  -0.009344  -0.000073   0.002499  -0.004261
     8  H    0.010487   0.003267   0.000237   0.000000   0.000000   0.000000
     9  H    0.011218   0.017522   0.000262   0.000000  -0.000002   0.000001
    10  H    0.016203  -0.001850   0.001674   0.000000  -0.000007   0.000001
    11  H    0.014910  -0.003608   0.000327   0.000000   0.000001   0.000000
    12  H   -0.002313  -0.001419   0.000081   0.000000   0.000000   0.000000
    13  H   -0.005736   0.002558  -0.000463   0.000000   0.000001   0.000000
    14  C    0.008939  -0.013866   0.002021   0.000004  -0.000035  -0.000031
    15  H   -0.000108  -0.000102   0.000000   0.000000   0.000000   0.000000
    16  H   -0.000036   0.000475  -0.000001   0.000000   0.000000   0.000000
    17  O    0.001712   0.002024   0.000075   0.000000   0.000000   0.000000
    18  O   -0.003866  -0.007417   0.001183   0.000000  -0.000003   0.000004
    19  H   -0.000324   0.001124  -0.000159   0.000000   0.000000   0.000000
    20  O    0.018272   0.008941   0.000152   0.000184  -0.001453  -0.002301
    21  C   -0.011294   0.020291  -0.002534  -0.001075   0.002176   0.004544
    22  H    0.000173  -0.004209   0.001325   0.000000   0.000001   0.000021
    23  H   -0.000135  -0.003339   0.002555   0.000001  -0.000073  -0.000015
    24  H    0.001977   0.017087  -0.009020  -0.000008   0.001013   0.000055
    25  O    8.414117  -0.006790  -0.057075   0.009460  -0.008285  -0.000254
    26  Si  -0.006790  13.248042   0.193455  -0.022904  -0.016675  -0.036657
    27  C   -0.057075   0.193455   5.468652   0.393457   0.383321   0.417356
    28  H    0.009460  -0.022904   0.393457   0.493421  -0.022539  -0.022156
    29  H   -0.008285  -0.016675   0.383321  -0.022539   0.501633  -0.022477
    30  H   -0.000254  -0.036657   0.417356  -0.022156  -0.022477   0.481779
    31  C   -0.103689   0.466319  -0.144261  -0.026193   0.017301  -0.026470
    32  C   -0.038508   0.186461   0.013593  -0.005911  -0.011132   0.006162
    33  H    0.009962  -0.037614  -0.007063   0.000043   0.000144   0.000024
    34  H   -0.007318  -0.023941   0.007679   0.000020   0.000000  -0.000017
    35  H   -0.005334  -0.016119  -0.012247   0.000122   0.000408   0.000002
    36  C    0.051321  -0.145685  -0.019073  -0.000288  -0.000812  -0.004190
    37  H   -0.004421   0.007028   0.000705   0.000001  -0.000001   0.000000
    38  H   -0.000654   0.016130  -0.001936   0.000000   0.000000   0.000000
    39  H    0.008251  -0.013417  -0.000509   0.000000   0.000000   0.000002
    40  C    0.016294  -0.122959   0.025331   0.007148  -0.001637   0.005744
    41  H    0.000491  -0.016079   0.000278   0.000000  -0.000006   0.000008
    42  H    0.000675  -0.013085   0.003186   0.000452  -0.000010   0.000002
    43  H   -0.000588   0.015628   0.000698   0.000013   0.000000  -0.000005
    44  C    0.040322  -0.122984   0.027590   0.007219   0.001037   0.015330
    45  H   -0.000795   0.019557  -0.000376   0.000000   0.000000  -0.000003
    46  H   -0.002698  -0.008932   0.003394   0.000045   0.000014  -0.000015
    47  H    0.009742  -0.008480   0.000612   0.000014  -0.000006   0.000049
             31         32         33         34         35         36
     1  H    0.004921  -0.010413  -0.000027  -0.000003   0.000655   0.000974
     2  C   -0.149927   0.052711   0.000212  -0.014119  -0.002677  -0.150598
     3  C    0.003072  -0.002678   0.000174   0.000816   0.000156  -0.007055
     4  C    0.005523  -0.006458   0.000227  -0.000534   0.000085   0.046125
     5  C   -0.022380   0.004522  -0.000009   0.000320  -0.000442  -0.020990
     6  C    0.135516  -0.023568   0.000321  -0.001361   0.001976   0.084962
     7  C   -0.000636  -0.010709   0.002392   0.011577  -0.001748   0.045534
     8  H   -0.000218   0.000320   0.000000   0.000000   0.000000   0.000781
     9  H   -0.004485   0.000105   0.000000   0.000000   0.000000  -0.003247
    10  H   -0.000649   0.000177   0.000000   0.000000   0.000001  -0.000274
    11  H    0.000429   0.000717   0.000000   0.000001   0.000000   0.000112
    12  H   -0.000174   0.000226   0.000000   0.000000   0.000000   0.000071
    13  H   -0.004166   0.000440   0.000008   0.000020   0.000049   0.002415
    14  C   -0.009196   0.000839  -0.000001   0.000014  -0.000021   0.000298
    15  H   -0.000010   0.000003   0.000000   0.000000   0.000000   0.000000
    16  H   -0.000031  -0.000012   0.000000   0.000000   0.000000  -0.000013
    17  O    0.000074  -0.000038   0.000000   0.000000   0.000000  -0.000315
    18  O   -0.001345   0.000126   0.000000   0.000000   0.000000  -0.000719
    19  H   -0.000174   0.000002   0.000000   0.000000   0.000000   0.000035
    20  O   -0.016302   0.003100  -0.000013   0.000020   0.000063  -0.002331
    21  C    0.003181  -0.000076  -0.000067  -0.000108   0.000409  -0.002089
    22  H   -0.000286   0.000116   0.000000   0.000000   0.000000   0.000000
    23  H   -0.000147   0.000072   0.000000   0.000000   0.000000  -0.000033
    24  H    0.000758  -0.000925   0.000000   0.000000   0.000000   0.000037
    25  O   -0.103689  -0.038508   0.009962  -0.007318  -0.005334   0.051321
    26  Si   0.466319   0.186461  -0.037614  -0.023941  -0.016119  -0.145685
    27  C   -0.144261   0.013593  -0.007063   0.007679  -0.012247  -0.019073
    28  H   -0.026193  -0.005911   0.000043   0.000020   0.000122  -0.000288
    29  H    0.017301  -0.011132   0.000144   0.000000   0.000408  -0.000812
    30  H   -0.026470   0.006162   0.000024  -0.000017   0.000002  -0.004190
    31  C    8.302018  -0.145302  -0.027438  -0.021672   0.018076  -0.395476
    32  C   -0.145302   5.445653   0.408234   0.404583   0.383913  -0.009644
    33  H   -0.027438   0.408234   0.487693  -0.021740  -0.021932   0.010319
    34  H   -0.021672   0.404583  -0.021740   0.490967  -0.023092   0.012995
    35  H    0.018076   0.383913  -0.021932  -0.023092   0.499078   0.000995
    36  C   -0.395476  -0.009644   0.010319   0.012995   0.000995   6.134137
    37  H   -0.062858  -0.000961   0.000060   0.000337  -0.000005   0.409476
    38  H   -0.162093   0.000622  -0.000001  -0.000012   0.000000   0.472799
    39  H   -0.096589   0.000962   0.000003   0.000035  -0.000006   0.462808
    40  C   -0.440935   0.033296   0.008692   0.002231  -0.002747  -0.028585
    41  H   -0.080173   0.004411   0.000028   0.000030   0.000005  -0.015713
    42  H   -0.081504  -0.000540   0.000018   0.000019  -0.000005   0.007571
    43  H   -0.155730   0.000177   0.000016  -0.000006   0.000000   0.012534
    44  C   -0.446396   0.006614  -0.001326  -0.003078  -0.001059  -0.382156
    45  H   -0.165343  -0.001509   0.000000   0.000000   0.000000   0.012554
    46  H   -0.053826   0.000273   0.000001   0.000000  -0.000001   0.003805
    47  H   -0.106917  -0.000403   0.000000   0.000002   0.000000  -0.008461
             37         38         39         40         41         42
     1  H    0.000000   0.000000   0.000000   0.000480   0.000000   0.000000
     2  C    0.001882  -0.000771  -0.001965  -0.002352   0.000438   0.000325
     3  C    0.001561   0.000652  -0.008835  -0.001518   0.000078  -0.000006
     4  C   -0.000349   0.000625  -0.000202  -0.007591   0.000010  -0.000041
     5  C   -0.000703  -0.000623   0.004353   0.000974  -0.000042   0.000023
     6  C   -0.000612   0.000630  -0.001254   0.009946   0.000009  -0.000023
     7  C   -0.001681  -0.000465   0.004459  -0.010801  -0.000209   0.000032
     8  H   -0.000013  -0.000001   0.000733   0.000107   0.000000   0.000000
     9  H    0.000001  -0.000001   0.000191   0.000392   0.000000   0.000000
    10  H    0.000000   0.000000   0.000000   0.000032   0.000000   0.000000
    11  H    0.000000   0.000000   0.000000   0.000005   0.000000   0.000000
    12  H    0.000000   0.000000   0.000001   0.000002   0.000000   0.000000
    13  H   -0.000002   0.000000  -0.000011  -0.000352   0.000000   0.000000
    14  C   -0.000034  -0.000035   0.000759  -0.000743  -0.000002   0.000000
    15  H    0.000000   0.000000   0.000000  -0.000001   0.000000   0.000000
    16  H    0.000000   0.000000   0.000000  -0.000001   0.000000   0.000000
    17  O    0.000000   0.000000  -0.000002  -0.000015   0.000000   0.000000
    18  O    0.000000   0.000000  -0.000009  -0.000055   0.000000   0.000000
    19  H    0.000000   0.000000   0.000000  -0.000001   0.000000   0.000000
    20  O    0.000003  -0.000002   0.000011  -0.000017  -0.000001   0.000004
    21  C    0.000023   0.000008  -0.000062   0.000743   0.000007  -0.000015
    22  H    0.000000   0.000000   0.000000  -0.000004   0.000000   0.000000
    23  H    0.000000   0.000000   0.000000   0.000030   0.000000   0.000000
    24  H    0.000000   0.000000   0.000000   0.000024   0.000000   0.000000
    25  O   -0.004421  -0.000654   0.008251   0.016294   0.000491   0.000675
    26  Si   0.007028   0.016130  -0.013417  -0.122959  -0.016079  -0.013085
    27  C    0.000705  -0.001936  -0.000509   0.025331   0.000278   0.003186
    28  H    0.000001   0.000000   0.000000   0.007148   0.000000   0.000452
    29  H   -0.000001   0.000000   0.000000  -0.001637  -0.000006  -0.000010
    30  H    0.000000   0.000000   0.000002   0.005744   0.000008   0.000002
    31  C   -0.062858  -0.162093  -0.096589  -0.440935  -0.080173  -0.081504
    32  C   -0.000961   0.000622   0.000962   0.033296   0.004411  -0.000540
    33  H    0.000060  -0.000001   0.000003   0.008692   0.000028   0.000018
    34  H    0.000337  -0.000012   0.000035   0.002231   0.000030   0.000019
    35  H   -0.000005   0.000000  -0.000006  -0.002747   0.000005  -0.000005
    36  C    0.409476   0.472799   0.462808  -0.028585  -0.015713   0.007571
    37  H    0.536382  -0.028152  -0.026028  -0.003977   0.002755   0.000029
    38  H   -0.028152   0.543267  -0.027238   0.010236  -0.000318  -0.000005
    39  H   -0.026028  -0.027238   0.521288  -0.000314   0.000039  -0.000147
    40  C   -0.003977   0.010236  -0.000314   5.654358   0.451536   0.449883
    41  H    0.002755  -0.000318   0.000039   0.451536   0.530901  -0.027305
    42  H    0.000029  -0.000005  -0.000147   0.449883  -0.027305   0.534045
    43  H   -0.000338   0.005385   0.000025   0.456549  -0.027545  -0.027526
    44  C    0.006150   0.004368  -0.006779   0.035170   0.007282  -0.015219
    45  H    0.000033   0.005505  -0.000290   0.005532  -0.000002  -0.000314
    46  H   -0.000154   0.000034   0.000026  -0.001364   0.000027   0.002743
    47  H    0.000026  -0.000333   0.003087   0.001794  -0.000146   0.000044
             43         44         45         46         47
     1  H    0.000000  -0.000698   0.000000   0.000001   0.000004
     2  C   -0.000591   0.140310   0.000388  -0.002618   0.010593
     3  C    0.000002  -0.007519   0.000183  -0.000102  -0.003662
     4  C    0.000029  -0.001599   0.001001  -0.000222  -0.004814
     5  C   -0.000009   0.028999  -0.000358  -0.000343   0.007121
     6  C    0.000130  -0.142873  -0.000718   0.003374  -0.016290
     7  C    0.000037  -0.036494   0.000163   0.000286  -0.000699
     8  H    0.000000  -0.001706   0.000000   0.000000   0.000007
     9  H    0.000000   0.001915  -0.000005  -0.000007   0.001423
    10  H    0.000000   0.000485   0.000000   0.000000   0.000002
    11  H    0.000000  -0.000330   0.000000   0.000000   0.000000
    12  H    0.000000   0.000084   0.000000   0.000000   0.000000
    13  H    0.000000  -0.000364   0.000000   0.000000   0.000000
    14  C    0.000000   0.011882   0.000006  -0.000050   0.001559
    15  H    0.000000   0.000005   0.000000   0.000000   0.000000
    16  H    0.000000   0.000008   0.000000   0.000000   0.000000
    17  O    0.000000  -0.000042   0.000000   0.000000   0.000001
    18  O    0.000000   0.002441   0.000000  -0.000019   0.000211
    19  H    0.000000   0.000001   0.000000   0.000000  -0.000009
    20  O    0.000000   0.007610  -0.000017  -0.000082   0.001195
    21  C   -0.000001  -0.001574  -0.000011  -0.000173  -0.000508
    22  H    0.000000   0.000216   0.000000   0.000000   0.000000
    23  H    0.000000   0.000124   0.000000   0.000000   0.000001
    24  H    0.000000  -0.000383   0.000000   0.000000   0.000000
    25  O   -0.000588   0.040322  -0.000795  -0.002698   0.009742
    26  Si   0.015628  -0.122984   0.019557  -0.008932  -0.008480
    27  C    0.000698   0.027590  -0.000376   0.003394   0.000612
    28  H    0.000013   0.007219   0.000000   0.000045   0.000014
    29  H    0.000000   0.001037   0.000000   0.000014  -0.000006
    30  H   -0.000005   0.015330  -0.000003  -0.000015   0.000049
    31  C   -0.155730  -0.446396  -0.165343  -0.053826  -0.106917
    32  C    0.000177   0.006614  -0.001509   0.000273  -0.000403
    33  H    0.000016  -0.001326   0.000000   0.000001   0.000000
    34  H   -0.000006  -0.003078   0.000000   0.000000   0.000002
    35  H    0.000000  -0.001059   0.000000  -0.000001   0.000000
    36  C    0.012534  -0.382156   0.012554   0.003805  -0.008461
    37  H   -0.000338   0.006150   0.000033  -0.000154   0.000026
    38  H    0.005385   0.004368   0.005505   0.000034  -0.000333
    39  H    0.000025  -0.006779  -0.000290   0.000026   0.003087
    40  C    0.456549   0.035170   0.005532  -0.001364   0.001794
    41  H   -0.027545   0.007282  -0.000002   0.000027  -0.000146
    42  H   -0.027526  -0.015219  -0.000314   0.002743   0.000044
    43  H    0.538002   0.011624   0.005337  -0.000310   0.000024
    44  C    0.011624   6.038952   0.468608   0.411263   0.468371
    45  H    0.005337   0.468608   0.543370  -0.027903  -0.027207
    46  H   -0.000310   0.411263  -0.027903   0.533926  -0.025697
    47  H    0.000024   0.468371  -0.027207  -0.025697   0.522172
 Mulliken atomic charges:
              1
     1  H    0.137601
     2  C    0.215346
     3  C   -0.357509
     4  C   -0.112621
     5  C    0.200135
     6  C   -0.442969
     7  C   -0.509816
     8  H    0.187151
     9  H    0.173399
    10  H    0.162789
    11  H    0.182027
    12  H    0.169984
    13  H    0.172026
    14  C   -0.026371
    15  H    0.181648
    16  H    0.166890
    17  O   -0.354062
    18  O   -0.528214
    19  H    0.389445
    20  O   -0.293042
    21  C   -0.126168
    22  H    0.159564
    23  H    0.169570
    24  H    0.153423
    25  O   -0.202621
    26  Si   0.578501
    27  C   -0.680523
    28  H    0.185506
    29  H    0.180129
    30  H    0.195381
    31  C   -0.004197
    32  C   -0.689641
    33  H    0.188660
    34  H    0.185338
    35  H    0.181440
    36  C   -0.574913
    37  H    0.163835
    38  H    0.162380
    39  H    0.176624
    40  C   -0.550564
    41  H    0.169207
    42  H    0.166691
    43  H    0.166440
    44  C   -0.571400
    45  H    0.162616
    46  H    0.165305
    47  H    0.175579
 Sum of Mulliken atomic charges =   0.00000
 Mulliken charges with hydrogens summed into heavy atoms:
              1
     2  C    0.352947
     3  C   -0.000374
     4  C    0.060778
     5  C    0.200135
     6  C   -0.280180
     7  C   -0.155762
    14  C    0.322167
    17  O   -0.354062
    18  O   -0.138770
    20  O   -0.293042
    21  C    0.356389
    25  O   -0.202621
    26  Si   0.578501
    27  C   -0.119506
    31  C   -0.004197
    32  C   -0.134203
    36  C   -0.072074
    40  C   -0.048226
    44  C   -0.067900
 Sum of Mulliken charges with hydrogens summed into heavy atoms =   0.00000
 Electronic spatial extent (au):  <R**2>=           6198.9194
 Charge=              0.0000 electrons
 Dipole moment (field-independent basis, Debye):
    X=              3.0779    Y=              0.7168    Z=              1.7881  Tot=              3.6311
 Quadrupole moment (field-independent basis, Debye-Ang):
   XX=           -140.7472   YY=           -114.1012   ZZ=           -125.6462
   XY=              2.9271   XZ=              0.7362   YZ=              2.3680
 Traceless Quadrupole moment (field-independent basis, Debye-Ang):
   XX=            -13.9157   YY=             12.7303   ZZ=              1.1854
   XY=              2.9271   XZ=              0.7362   YZ=              2.3680
 Octapole moment (field-independent basis, Debye-Ang**2):
  XXX=             55.6240  YYY=             30.1249  ZZZ=              1.5440  XYY=            -40.5853
  XXY=            -11.5755  XXZ=             -9.0842  XZZ=             -7.1937  YZZ=              6.6010
  YYZ=             -1.3689  XYZ=             -5.9805
 Hexadecapole moment (field-independent basis, Debye-Ang**3):
 XXXX=          -5742.6293 YYYY=          -1666.7595 ZZZZ=          -1243.8477 XXXY=             90.6137
 XXXZ=             94.7623 YYYX=             -4.3919 YYYZ=            -28.8207 ZZZX=             -1.8389
 ZZZY=            -10.3788 XXYY=          -1110.9662 XXZZ=          -1129.6148 YYZZ=           -481.7689
 XXYZ=             32.6851 YYXZ=             16.1121 ZZXY=             -6.4448
 N-N= 1.830039942204D+03 E-N=-6.330797749960D+03  KE= 1.131545138150D+03
 1\1\GINC-COMPUTE-8-11\SP\RmPW1PW91\6-31+G(d,p)\C14H28O4Si1\ELUCIANO.IQ
 UIR\06-Dec-2022\0\\# mPW1PW91/6-31+g** scrf=(PCM,solvent=chloroform) n
 mr\\comment\\0,1\H,0,-0.260861,1.008786,1.882814\C,0,-0.610122,0.29432
 5,1.121706\C,0,-1.954352,-1.848655,0.803877\C,0,-2.170116,0.043715,-0.
 863667\C,0,-2.877189,-1.091369,-0.135778\C,0,-1.604974,1.010508,0.1871
 15\C,0,-1.32177,-0.878192,1.819479\H,0,-1.164271,-2.343811,0.226686\H,
 0,-1.326167,-0.384432,-1.426228\H,0,-2.453308,1.374886,0.786577\H,0,-2
 .108357,-0.479137,2.472915\H,0,-2.524276,-2.624707,1.3254\H,0,-0.60228
 ,-1.404152,2.456774\C,0,-4.113257,-1.67623,-0.666603\H,0,-4.523715,-1.
 296004,-1.599546\H,0,-4.367456,-2.707714,-0.417562\O,0,-4.15741,-0.751
 585,0.43415\O,0,-3.057603,0.715455,-1.735727\H,0,-2.603674,1.546252,-1
 .95766\O,0,-1.027008,2.105416,-0.523616\C,0,-1.099005,3.346467,0.15859
 8\H,0,-2.141558,3.62861,0.36823\H,0,-0.648683,4.095898,-0.497412\H,0,-
 0.542727,3.331413,1.106278\O,0,0.487965,-0.198898,0.360629\Si,0,2.1153
 85,0.180079,0.552292\C,0,2.390202,2.047799,0.444236\H,0,3.460063,2.289
 461,0.457974\H,0,1.931865,2.570192,1.292808\H,0,1.957096,2.459557,-0.4
 72991\C,0,2.989846,-0.741116,-0.876789\C,0,2.70947,-0.420678,2.247044\
 H,0,3.759233,-0.154994,2.421497\H,0,2.617194,-1.507702,2.350667\H,0,2.
 123009,0.037366,3.053636\C,0,2.674034,-2.250256,-0.805081\H,0,3.035728
 ,-2.70138,0.127246\H,0,3.161486,-2.782541,-1.63493\H,0,1.597171,-2.439
 385,-0.873781\C,0,4.517683,-0.540001,-0.774308\H,0,4.924181,-0.936325,
 0.164443\H,0,4.800551,0.517949,-0.841651\H,0,5.027052,-1.064004,-1.595
 877\C,0,2.496895,-0.189695,-2.232037\H,0,2.979069,-0.727633,-3.061381\
 H,0,2.733425,0.874412,-2.352232\H,0,1.413188,-0.304796,-2.34501\\Versi
 on=EM64L-G09RevC.01\State=1-A\HF=-1140.6264813\RMSD=4.040e-09\Dipole=1
 .2109478,0.2820302,0.7034865\Quadrupole=-10.3459497,9.464666,0.8812837
 ,2.176196,0.5473477,1.7605744\PG=C01 [X(C14H28O4Si1)]\\@


 NOBODY LOSES ALL THE TIME
 I HAD AN UNCLE NAMED
 SOL WHO WAS A BORN FAILURE AND
 NEARLY EVERYBODY SAID HE SHOULD HAVE GONE
 INTO VAUDEVILLE PERHAPS BECAUSE MY UNCLE SOL COULD
 SING MCCANN HE WAS A DIVER ON XMAS EVE LIKE HELL ITSELF WHICH
 MAY OR MAY NOT ACCOUNT FOR THE FACT THAT MY UNCLE
 SOL INDULGED IN THAT POSSIBLY MOST INEXCUSABLE
 OF ALL TO USE A HIGHFALOOTIN PHRASE
 LUXURIES THAT IS OR TO
 WIT FARMING AND BE
 IT NEEDLESSLY
 ADDED
 MY UNCLE SOL'S FARM
 FAILED BECAUSE THE CHICKENS
 ATE THE VEGETABLES SO
 MY UNCLE SOL HAD A
 CHICKEN FARM TILL THE
 SKUNKS ATE THE CHICKENS WHEN 
 MY UNCLE SOL
 HAD A SKUNK FARM BUT
 THE SKUNKS CAUGHT COLD AND
 DIED AND SO
 MY UNCLE SOL IMITATED THE
 SKUNKS IN A SUBTLE MANNER
 OR BY DROWNING HIMSELF IN THE WATERTANK
 BUT SOMEBODY WHO'D GIVEN MY UNCLE SOL A VICTOR
 VICTROLA AND RECORDS WHILE HE LIVED PRESENTED TO
 HIM UPON THE AUSPICIOUS OCCASION OF HIS DECEASE A
 SCRUMPTIOUS NOT TO MENTION SPLENDIFEROUS FUNERAL WITH
 TALL BOYS IN BLACK GLOVES AND FLOWERS AND EVERYTHING AND
 I REMEMBER WE ALL CRIED LIKE THE MISSOURI
 WHEN MY UNCLE SOL'S COFFIN LURCHED BECAUSE
 SOMEBODY PRESSED A BUTTON
 (AND DOWN WENT
 MY UNCLE
 SOL
 AND STARTED A WORM FARM)
           E. E. CUMMINGS
 Job cpu time:  0 days  3 hours 49 minutes  0.5 seconds.
 File lengths (MBytes):  RWF=    296 Int=      0 D2E=      0 Chk=     16 Scr=      1
 Normal termination of Gaussian 09 at Tue Dec  6 16:10:58 2022.
