 Entering Gaussian System, Link 0=g09
 Input=/home/eluciano.iquir/todos_optB3L_MPW_B_PCM/02_epoxido28_018_optB3L_nmr_MPW_B_PCM.gjc
 Output=/home/eluciano.iquir/todos_optB3L_MPW_B_PCM/02_epoxido28_018_optB3L_nmr_MPW_B_PCM.log
 Initial command:
 /share/apps/Gaussian09/EM64T.SSE4.2-enabled/g09/l1.exe /tmp/Gau-105276.inp -scrdir=/tmp/
 Entering Link 1 = /share/apps/Gaussian09/EM64T.SSE4.2-enabled/g09/l1.exe PID=    105277.
  
 Copyright (c) 1988,1990,1992,1993,1995,1998,2003,2009,2011,
            Gaussian, Inc.  All Rights Reserved.
  
 This is part of the Gaussian(R) 09 program.  It is based on
 the Gaussian(R) 03 system (copyright 2003, Gaussian, Inc.),
 the Gaussian(R) 98 system (copyright 1998, Gaussian, Inc.),
 the Gaussian(R) 94 system (copyright 1995, Gaussian, Inc.),
 the Gaussian 92(TM) system (copyright 1992, Gaussian, Inc.),
 the Gaussian 90(TM) system (copyright 1990, Gaussian, Inc.),
 the Gaussian 88(TM) system (copyright 1988, Gaussian, Inc.),
 the Gaussian 86(TM) system (copyright 1986, Carnegie Mellon
 University), and the Gaussian 82(TM) system (copyright 1983,
 Carnegie Mellon University). Gaussian is a federally registered
 trademark of Gaussian, Inc.
  
 This software contains proprietary and confidential information,
 including trade secrets, belonging to Gaussian, Inc.
  
 This software is provided under written license and may be
 used, copied, transmitted, or stored only in accord with that
 written license.
  
 The following legend is applicable only to US Government
 contracts under FAR:
  
                    RESTRICTED RIGHTS LEGEND
  
 Use, reproduction and disclosure by the US Government is
 subject to restrictions as set forth in subparagraphs (a)
 and (c) of the Commercial Computer Software - Restricted
 Rights clause in FAR 52.227-19.
  
 Gaussian, Inc.
 340 Quinnipiac St., Bldg. 40, Wallingford CT 06492
  
  
 ---------------------------------------------------------------
 Warning -- This program may not be used in any manner that
 competes with the business of Gaussian, Inc. or will provide
 assistance to any competitor of Gaussian, Inc.  The licensee
 of this program is prohibited from giving any competitor of
 Gaussian, Inc. access to this program.  By using this program,
 the user acknowledges that Gaussian, Inc. is engaged in the
 business of creating and licensing software in the field of
 computational chemistry and represents and warrants to the
 licensee that it is not a competitor of Gaussian, Inc. and that
 it will not use this program in any manner prohibited above.
 ---------------------------------------------------------------
  

 Cite this work as:
 Gaussian 09, Revision C.01,
 M. J. Frisch, G. W. Trucks, H. B. Schlegel, G. E. Scuseria, 
 M. A. Robb, J. R. Cheeseman, G. Scalmani, V. Barone, B. Mennucci, 
 G. A. Petersson, H. Nakatsuji, M. Caricato, X. Li, H. P. Hratchian, 
 A. F. Izmaylov, J. Bloino, G. Zheng, J. L. Sonnenberg, M. Hada, 
 M. Ehara, K. Toyota, R. Fukuda, J. Hasegawa, M. Ishida, T. Nakajima, 
 Y. Honda, O. Kitao, H. Nakai, T. Vreven, J. A. Montgomery, Jr., 
 J. E. Peralta, F. Ogliaro, M. Bearpark, J. J. Heyd, E. Brothers, 
 K. N. Kudin, V. N. Staroverov, T. Keith, R. Kobayashi, J. Normand, 
 K. Raghavachari, A. Rendell, J. C. Burant, S. S. Iyengar, J. Tomasi, 
 M. Cossi, N. Rega, J. M. Millam, M. Klene, J. E. Knox, J. B. Cross, 
 V. Bakken, C. Adamo, J. Jaramillo, R. Gomperts, R. E. Stratmann, 
 O. Yazyev, A. J. Austin, R. Cammi, C. Pomelli, J. W. Ochterski, 
 R. L. Martin, K. Morokuma, V. G. Zakrzewski, G. A. Voth, 
 P. Salvador, J. J. Dannenberg, S. Dapprich, A. D. Daniels, 
 O. Farkas, J. B. Foresman, J. V. Ortiz, J. Cioslowski, 
 and D. J. Fox, Gaussian, Inc., Wallingford CT, 2010.
 
 ******************************************
 Gaussian 09:  EM64L-G09RevC.01 23-Sep-2011
                 6-Dec-2022 
 ******************************************
 %nprocshared=4
 Will use up to    4 processors via shared memory.
 %mem=80MW
 -----------------------------------------------------
 # mPW1PW91/6-31+g** scrf=(PCM,solvent=chloroform) nmr
 -----------------------------------------------------
 1/38=1/1;
 2/12=2,17=6,18=5,40=1/2;
 3/5=1,6=6,7=111,11=2,16=1,25=1,30=1,70=2201,72=7,74=-7/1,2,8,3;
 4//1;
 5/5=2,38=5,53=7/2;
 8/6=1,10=90,11=11/1;
 10/13=100,45=16/2;
 6/7=2,8=2,9=2,10=2,28=1/1;
 99/9=1/99;
 -------
 comment
 -------
 Charge =  0 Multiplicity = 1
 Symbolic Z-Matrix:
 1                    -0.22556   0.55241   2.19963 
 6                    -0.58931   0.11384   1.25866 
 6                    -1.82224  -1.88246   0.26462 
 6                    -2.36113   0.46297  -0.56079 
 6                    -2.87771  -0.95029  -0.30754 
 6                    -1.73303   1.00358   0.74011 
 6                    -1.16794  -1.29051   1.52492 
 1                    -1.05298  -2.05028  -0.4994 
 1                    -1.59148   0.39591  -1.34489 
 1                    -2.51602   0.96564   1.5089 
 1                    -1.90895  -1.21713   2.3327 
 1                    -2.27508  -2.85564   0.48153 
 1                    -0.37257  -1.95072   1.88438 
 8                    -3.70613  -1.50942  -1.33065 
 6                    -4.31124  -1.18169  -0.06703 
 8                    -3.40487   1.32599  -0.97988 
 1                    -3.19155   2.19487  -0.59656 
 8                    -1.4704    2.40523   0.651 
 6                    -0.51951   2.86672  -0.30805 
 1                     0.50071   2.5783   -0.04544 
 1                    -0.60192   3.95718  -0.29829 
 1                    -0.73893   2.50527  -1.32044 
 8                     0.47157   0.04435   0.30449 
 14                    2.11715  -0.12775   0.64285 
 6                     2.74002   1.39692   1.57614 
 1                     3.78073   1.26196   1.89482 
 1                     2.14648   1.57539   2.48123 
 1                     2.69388   2.30841   0.96997 
 6                     2.94367  -0.30932  -1.07223 
 6                     2.4379   -1.64122   1.73379 
 1                     3.51337  -1.76946   1.90817 
 1                     2.06228  -2.567     1.28442 
 1                     1.96563  -1.53166   2.71766 
 6                     2.44344  -1.59622  -1.76322 
 1                     2.70389  -2.4963   -1.1932 
 1                     2.89997  -1.69788  -2.75838 
 1                     1.35592  -1.58603  -1.89802 
 6                     4.47749  -0.3864   -0.90406 
 1                     4.78566  -1.24688  -0.29711 
 1                     4.88647   0.51776  -0.43647 
 1                     4.96214  -0.49245  -1.88509 
 6                     2.59612   0.90252  -1.96298 
 1                     3.07629   0.80159  -2.947 
 1                     2.94558   1.84707  -1.52769 
 1                     1.51648   0.98584  -2.12733 
 1                    -4.6222   -2.03746   0.53451 
 1                    -4.99896  -0.3401   -0.0962 
 
                          Input orientation:                          
 ---------------------------------------------------------------------
 Center     Atomic      Atomic             Coordinates (Angstroms)
 Number     Number       Type             X           Y           Z
 ---------------------------------------------------------------------
      1          1           0       -0.225555    0.552405    2.199634
      2          6           0       -0.589307    0.113843    1.258660
      3          6           0       -1.822236   -1.882463    0.264617
      4          6           0       -2.361129    0.462968   -0.560785
      5          6           0       -2.877709   -0.950291   -0.307541
      6          6           0       -1.733033    1.003579    0.740109
      7          6           0       -1.167943   -1.290512    1.524924
      8          1           0       -1.052981   -2.050278   -0.499395
      9          1           0       -1.591480    0.395914   -1.344894
     10          1           0       -2.516020    0.965641    1.508897
     11          1           0       -1.908946   -1.217128    2.332704
     12          1           0       -2.275075   -2.855640    0.481532
     13          1           0       -0.372565   -1.950721    1.884377
     14          8           0       -3.706126   -1.509417   -1.330654
     15          6           0       -4.311240   -1.181685   -0.067032
     16          8           0       -3.404869    1.325993   -0.979875
     17          1           0       -3.191549    2.194865   -0.596563
     18          8           0       -1.470404    2.405233    0.650998
     19          6           0       -0.519509    2.866719   -0.308053
     20          1           0        0.500712    2.578295   -0.045438
     21          1           0       -0.601920    3.957176   -0.298294
     22          1           0       -0.738931    2.505274   -1.320436
     23          8           0        0.471567    0.044349    0.304491
     24         14           0        2.117155   -0.127750    0.642850
     25          6           0        2.740022    1.396919    1.576142
     26          1           0        3.780731    1.261956    1.894818
     27          1           0        2.146477    1.575387    2.481231
     28          1           0        2.693881    2.308412    0.969967
     29          6           0        2.943668   -0.309317   -1.072227
     30          6           0        2.437899   -1.641222    1.733788
     31          1           0        3.513371   -1.769460    1.908168
     32          1           0        2.062279   -2.567000    1.284416
     33          1           0        1.965630   -1.531662    2.717661
     34          6           0        2.443439   -1.596219   -1.763218
     35          1           0        2.703885   -2.496297   -1.193199
     36          1           0        2.899973   -1.697884   -2.758383
     37          1           0        1.355919   -1.586032   -1.898021
     38          6           0        4.477492   -0.386402   -0.904064
     39          1           0        4.785664   -1.246884   -0.297112
     40          1           0        4.886469    0.517758   -0.436474
     41          1           0        4.962143   -0.492447   -1.885094
     42          6           0        2.596117    0.902522   -1.962984
     43          1           0        3.076294    0.801593   -2.947000
     44          1           0        2.945581    1.847066   -1.527693
     45          1           0        1.516477    0.985836   -2.127328
     46          1           0       -4.622199   -2.037464    0.534513
     47          1           0       -4.998961   -0.340099   -0.096197
 ---------------------------------------------------------------------
                    Distance matrix (angstroms):
                    1          2          3          4          5
     1  H    0.000000
     2  C    1.100038   0.000000
     3  C    3.496035   2.548229   0.000000
     4  C    3.491216   2.563517   2.544158   0.000000
     5  C    3.946890   2.970211   1.519978   1.525873   0.000000
     6  C    2.146220   1.539037   2.926310   1.542430   2.495088
     7  C    2.177079   1.542054   1.538466   2.974654   2.529225
     8  H    3.839707   2.826512   1.097100   2.833977   2.139255
     9  H    3.801831   2.803999   2.799067   1.100765   2.131374
    10  H    2.427779   2.121415   3.184535   2.135475   2.664782
    11  H    2.445968   2.160209   2.174206   3.376310   2.824995
    12  H    4.332110   3.501938   1.095075   3.479510   2.148525
    13  H    2.527180   2.168161   2.174817   3.969773   3.475789
    14  O    5.369210   4.365098   2.496617   2.508389   1.430265
    15  C    4.983740   4.157961   2.606956   2.598386   1.471869
    16  O    4.562428   3.795752   3.787833   1.417689   2.431337
    17  H    4.394714   3.813682   4.386485   1.921027   3.173962
    18  O    2.716780   2.529042   4.319423   2.456461   3.762824
    19  C    3.425048   3.168247   4.957800   3.038660   4.486722
    20  H    3.109991   2.993716   5.038907   3.595876   4.892172
    21  H    4.239547   4.146743   5.992280   3.920868   5.409486
    22  H    4.058096   3.520379   4.789382   2.716544   4.188228
    23  O    2.082226   1.428538   2.995952   2.991339   3.547047
    24  Si   2.893869   2.786131   4.329074   4.674688   5.150581
    25  C    3.145885   3.582110   5.769631   5.608963   6.373112
    26  H    4.080037   4.562904   6.628587   6.662643   7.353859
    27  H    2.598524   3.333962   5.711461   5.550662   6.276842
    28  H    3.621981   3.959646   6.201312   5.594818   6.579801
    29  C    4.635905   4.253706   5.193821   5.385060   5.906270
    30  C    3.481810   3.531285   4.512805   5.720433   5.735861
    31  H    4.410848   4.560774   5.584150   6.751979   6.813685
    32  H    3.975235   3.770741   4.074069   5.670274   5.436134
    33  H    3.068058   3.371064   4.526413   5.783390   5.740015
    34  C    5.238732   4.610163   4.731811   5.363765   5.554353
    35  H    5.421026   4.865137   4.794558   5.900133   5.859071
    36  H    6.278109   5.620860   5.609978   6.097369   6.320374
    37  H    4.885156   4.078984   3.855586   4.450061   4.566990
    38  C    5.712526   5.531733   6.579558   6.899711   7.400864
    39  H    5.880774   5.758673   6.662120   7.353215   7.669117
    40  H    5.751787   5.746368   7.159561   7.248871   7.902800
    41  H    6.684978   6.408539   7.251290   7.503128   8.010092
    42  C    5.041012   4.598688   5.678045   5.170460   6.011338
    43  H    6.119816   5.621139   6.443154   5.947626   6.744330
    44  H    5.062136   4.823200   6.312990   5.568825   6.574548
    45  H    4.684564   4.081619   5.009545   4.214650   5.135084
    46  H    5.367544   4.627821   2.817208   3.544612   2.221316
    47  H    5.371481   4.635380   3.549740   2.796233   2.217366
                    6          7          8          9         10
     6  C    0.000000
     7  C    2.489601   0.000000
     8  H    3.365246   2.165255   0.000000
     9  H    2.176357   3.355484   2.643616   0.000000
    10  H    1.097972   2.628268   3.907619   3.053438   0.000000
    11  H    2.738402   1.098626   3.073695   4.028327   2.410742
    12  H    3.905668   2.182667   1.761914   3.791535   3.964306
    13  H    3.447914   1.094399   2.480977   4.173804   3.638757
    14  O    3.807401   3.826829   2.832437   2.846439   3.950356
    15  C    3.474767   3.525122   3.399653   3.393942   3.212067
    16  O    2.420192   4.257224   4.142637   2.070426   2.667188
    17  H    2.309356   4.554508   4.754383   2.521199   2.529880
    18  O    1.428828   3.809693   4.620522   2.834715   1.975279
    19  C    2.458165   4.589427   4.949552   2.886007   3.301736
    20  H    2.843665   4.496456   4.903440   3.290690   3.757297
    21  H    3.328879   5.584150   6.027719   3.841509   3.984846
    22  H    2.736635   4.763204   4.639589   2.275266   3.678810
    23  O    2.443388   2.441168   2.712553   2.664626   3.350380
    24  Si   4.014139   3.594710   3.879510   4.240203   4.838580
    25  C    4.567482   4.743111   5.529728   5.319433   5.274135
    26  H    5.639300   5.580438   6.329923   6.332962   6.315521
    27  H    4.290579   4.484783   5.680327   5.477473   4.801677
    28  H    4.620930   5.307911   5.932637   5.232643   5.407083
    29  C    5.184572   4.961177   4.396849   4.597746   6.172189
    30  C    5.037762   3.628873   4.164214   5.464806   5.602466
    31  H    6.048046   4.721331   5.169796   6.428900   6.632779
    32  H    5.239246   3.481609   3.626821   5.389071   5.787121
    33  H    4.900843   3.361555   4.441894   5.733492   5.270941
    34  C    5.519829   4.893610   3.745447   4.519310   6.470402
    35  H    5.972692   4.881922   3.846341   5.180546   6.821565
    36  H    6.403288   5.921200   4.566514   5.153163   7.391686
    37  H    4.817410   4.263070   2.823912   3.594610   5.754132
    38  C    6.573125   6.211951   5.789505   6.135044   7.520612
    39  H    6.973795   6.226328   5.897129   6.668178   7.840378
    40  H    6.740785   6.616104   6.471154   6.542469   7.666936
    41  H    7.345418   7.059964   6.366217   6.635584   8.340750
    42  C    5.104749   5.580596   4.917015   4.263174   6.179958
    43  H    6.063431   6.510649   5.583444   4.951710   7.152336
    44  H    5.267241   6.006991   5.677604   4.766989   6.310854
    45  H    4.333800   5.072161   4.297705   3.258774   5.429878
    46  H    4.199701   3.670250   3.715972   4.317263   3.795267
    47  H    3.629210   4.267085   4.319495   3.702956   3.232070
                   11         12         13         14         15
    11  H    0.000000
    12  H    2.499122   0.000000
    13  H    1.760574   2.531086   0.000000
    14  O    4.090902   2.672871   4.652290   0.000000
    15  C    3.395733   2.692400   4.462351   1.438858   0.000000
    16  O    4.436038   4.571455   5.304306   2.872865   2.818375
    17  H    4.676256   5.244980   5.593534   3.811218   3.596554
    18  O    4.017705   5.324753   4.658413   4.924417   4.631619
    19  C    5.057859   6.037454   5.294910   5.509157   5.552017
    20  H    5.085985   6.124569   4.999878   6.004886   6.106783
    21  H    5.950117   7.058473   6.302373   6.370675   6.341958
    22  H    5.345151   5.860565   5.500995   4.992203   5.284513
    23  O    3.372212   3.998165   2.681213   4.747737   4.951407
    24  Si   4.500204   5.172919   3.326157   6.301930   6.552784
    25  C    5.386885   6.665855   4.581474   7.645200   7.685669
    26  H    6.221738   7.458201   5.250835   8.610296   8.677571
    27  H    4.926120   6.571371   4.374385   7.635407   7.469752
    28  H    5.955880   7.183072   5.327237   7.799280   7.894800
    29  C    5.997128   6.011090   4.736361   6.762158   7.375984
    30  C    4.408358   5.025443   2.831462   6.867112   7.000357
    31  H    5.466884   6.059801   3.890234   7.916990   8.091442
    32  H    4.323389   4.420472   2.582289   6.421181   6.660875
    33  H    3.906336   4.973607   2.517365   6.968369   6.875761
    34  C    5.988618   5.374888   4.621742   6.165371   6.976717
    35  H    5.945290   5.265348   4.385621   6.486992   7.225541
    36  H    7.019686   6.214384   5.685829   6.761248   7.714365
    37  H    5.356722   4.523085   4.174589   5.094318   5.969314
    38  C    7.207868   7.322170   5.809092   8.271321   8.864249
    39  H    7.192678   7.283434   5.644609   8.558483   9.100047
    40  H    7.540281   7.969333   6.255971   8.873651   9.360686
    41  H    8.094865   7.972636   6.692876   8.745314   9.475021
    42  C    6.575823   6.620268   5.635269   6.777578   7.459902
    43  H    7.536785   7.332621   6.543093   7.345377   8.173326
    44  H    6.917975   7.308056   6.088965   7.453188   7.998019
    45  H    6.039740   5.994911   5.318423   5.842650   6.550210
    46  H    3.356812   2.486204   4.459714   2.144032   1.091288
    47  H    4.027025   3.752502   5.283968   2.136027   1.087234
                   16         17         18         19         20
    16  O    0.000000
    17  H    0.973330   0.000000
    18  O    2.750756   2.136119   0.000000
    19  C    3.339234   2.770275   1.427217   0.000000
    20  H    4.206542   3.752805   2.097682   1.092248   0.000000
    21  H    3.904382   3.146567   2.015923   1.093610   1.783549
    22  H    2.934946   2.575982   2.105140   1.097136   1.779794
    23  O    4.280066   4.342239   3.076539   3.053394   2.558160
    24  Si   5.936274   5.925624   4.391657   4.101592   3.226346
    25  C    6.655670   6.367174   4.427220   4.041664   3.006606
    26  H    7.739561   7.462572   5.516211   5.091166   4.031856
    27  H    6.546670   6.192826   4.137659   4.068799   3.177802
    28  H    6.477791   6.091403   4.177605   3.502987   2.431846
    29  C    6.556424   6.643649   5.460981   4.760752   3.919264
    30  C    7.092691   7.199777   5.728967   5.765146   4.972189
    31  H    8.110775   8.182023   6.621673   6.532221   5.638764
    32  H    7.083228   7.335949   6.132224   6.223093   5.539049
    33  H    7.119004   7.174091   5.619303   5.888685   5.164537
    34  C    6.584501   6.891044   6.095755   5.551070   4.914420
    35  H    7.209180   7.557719   6.697070   6.319469   5.650027
    36  H    7.215120   7.545436   6.896350   6.207461   5.603769
    37  H    5.655792   6.055447   5.515052   5.086474   4.637355
    38  C    8.066577   8.097635   6.751956   5.992332   5.034029
    39  H    8.612241   8.693172   7.305837   6.713174   5.749448
    40  H    8.348342   8.251830   6.719746   5.895652   4.861439
    41  H    8.610054   8.681282   7.497064   6.619635   5.719979
    42  C    6.095709   6.085584   5.062374   4.037820   3.297866
    43  H    6.793383   6.837515   6.015789   4.915138   4.267242
    44  H    6.395298   6.217100   4.955721   3.812357   2.951129
    45  H    5.064781   5.096126   4.319171   3.315527   2.811044
    46  H    3.884341   4.608547   5.448388   6.449263   6.919956
    47  H    2.469388   3.153276   4.532754   5.513080   6.226235
                   21         22         23         24         25
    21  H    0.000000
    22  H    1.780889   0.000000
    23  O    4.101943   3.187765   0.000000
    24  Si   4.996573   4.352532   1.688806   0.000000
    25  C    4.608362   4.660658   2.931285   1.893043   0.000000
    26  H    5.592994   5.684280   3.868110   2.503236   1.096743
    27  H    4.577375   4.862401   3.144455   2.506228   1.096965
    28  H    3.897334   4.131452   3.241530   2.524778   1.095626
    29  C    5.601172   4.641666   2.851616   1.912480   3.156988
    30  C    6.686697   6.050947   2.958125   1.893045   3.057193
    31  H    7.389077   6.839540   3.887706   2.499132   3.276319
    32  H    7.222728   6.352952   3.210882   2.522808   4.032009
    33  H    6.768725   6.318048   3.246448   2.509735   3.237180
    34  C    6.500801   5.210161   3.294717   2.837609   4.494237
    35  H    7.305923   6.073293   3.698811   3.053742   4.777833
    36  H    7.091897   5.742460   4.279454   3.827076   5.328367
    37  H    6.092570   4.632579   2.879458   3.026895   4.783675
    38  C    6.710742   5.978815   4.206375   2.833908   3.514322
    39  H    7.490548   6.756259   4.543197   3.042520   3.831896
    40  H    6.478511   6.031313   4.501611   3.041500   3.070958
    41  H    7.299033   6.465865   5.024709   3.823279   4.526332
    42  C    4.725415   3.755559   3.223603   2.842751   3.576388
    43  H    5.522916   4.483769   4.234408   3.830228   4.574528
    44  H    4.306826   3.748576   3.567553   3.049171   3.143037
    45  H    4.081891   2.836659   2.809267   3.045451   3.921956
    46  H    7.265805   6.257561   5.507568   7.005543   8.190377
    47  H    6.151535   5.267140   5.498639   7.157541   8.105912
                   26         27         28         29         30
    26  H    0.000000
    27  H    1.764343   0.000000
    28  H    1.769650   1.766606   0.000000
    29  C    3.460192   4.100571   3.329483   0.000000
    30  C    3.202744   3.315143   4.030950   3.146982   0.000000
    31  H    3.043213   3.658525   4.263898   3.367393   1.097038
    32  H    4.241058   4.312636   4.926199   3.380495   1.095486
    33  H    3.431612   3.121275   4.281466   4.100480   1.096835
    34  C    4.831019   5.306846   4.772752   1.543961   3.497300
    35  H    4.981959   5.512781   5.269214   2.203409   3.060907
    36  H    5.584681   6.223794   5.476630   2.184754   4.516229
    37  H    5.326948   5.458699   5.018186   2.198382   3.789956
    38  C    3.322093   4.554390   3.735677   1.544939   3.562692
    39  H    3.479759   4.759171   4.315226   2.207438   3.129226
    40  H    2.685407   4.139944   3.161006   2.205155   3.920042
    41  H    4.331443   5.591843   4.597956   2.183697   4.559364
    42  C    4.051560   4.517297   3.253965   1.543630   4.490188
    43  H    4.914404   5.561385   4.214187   2.183228   5.318333
    44  H    3.571192   4.096810   2.552352   2.203960   4.802411
    45  H    4.623932   4.688634   3.567734   2.197165   4.760112
    46  H    9.129394   7.915641   8.520639   7.925304   7.172186
    47  H    9.144053   7.833869   8.205555   8.002433   7.768440
                   31         32         33         34         35
    31  H    0.000000
    32  H    1.769408   0.000000
    33  H    1.762762   1.770722   0.000000
    34  C    3.828034   3.221144   4.506744   0.000000
    35  H    3.286645   2.560319   4.095164   1.096765   0.000000
    36  H    4.707237   4.219161   5.557669   1.099596   1.767969
    37  H    4.378963   3.404284   4.656095   1.095890   1.772673
    38  C    3.278876   3.921442   4.553895   2.517772   2.771450
    39  H    2.599053   3.414786   4.137940   2.785232   2.588012
    40  H    3.551635   4.522526   4.762351   3.492498   3.797477
    41  H    4.256588   4.770616   5.589670   2.752642   3.097396
    42  C    4.792354   4.782068   5.313304   2.511359   3.486568
    43  H    5.511262   5.502774   6.226238   2.747972   3.753743
    44  H    5.020636   5.307745   5.513541   3.487668   4.362924
    45  H    5.278681   4.955859   5.478454   2.767461   3.795759
    46  H    8.255074   6.747222   6.958553   7.442950   7.541023
    47  H    8.861171   7.531686   7.605468   7.729561   8.073812
                   36         37         38         39         40
    36  H    0.000000
    37  H    1.771112   0.000000
    38  C    2.765330   3.488736   0.000000
    39  H    3.133223   3.800142   1.097174   0.000000
    40  H    3.774453   4.361976   1.096999   1.773004   0.000000
    41  H    2.543277   3.768414   1.099342   1.766920   1.767694
    42  C    2.736256   2.781225   2.514400   3.491302   2.779206
    43  H    2.512777   3.124228   2.747413   3.760334   3.108060
    44  H    3.752779   3.801359   2.779216   3.804308   2.593234
    45  H    3.084582   2.587057   3.485258   4.361458   3.799333
    46  H    8.218367   6.469846   9.359481   9.477579   9.893773
    47  H    8.445352   6.721861   9.510939   9.828607   9.928415
                   41         42         43         44         45
    41  H    0.000000
    42  C    2.747742   0.000000
    43  H    2.521629   1.099565   0.000000
    44  H    3.109273   1.097163   1.767635   0.000000
    45  H    3.757208   1.095250   1.771676   1.773025   0.000000
    46  H   10.005058   8.184442   8.913359   8.752917   7.342281
    47  H   10.121608   7.919230   8.639461   8.363529   6.952304
                   46         47
    46  H    0.000000
    47  H    1.849538   0.000000
 Stoichiometry    C14H28O4Si
 Framework group  C1[X(C14H28O4Si)]
 Deg. of freedom   135
 Full point group                 C1      NOp   1
 Largest Abelian subgroup         C1      NOp   1
 Largest concise Abelian subgroup C1      NOp   1
                         Standard orientation:                         
 ---------------------------------------------------------------------
 Center     Atomic      Atomic             Coordinates (Angstroms)
 Number     Number       Type             X           Y           Z
 ---------------------------------------------------------------------
      1          1           0        0.225555    0.552405   -2.199634
      2          6           0        0.589307    0.113843   -1.258660
      3          6           0        1.822236   -1.882463   -0.264617
      4          6           0        2.361129    0.462968    0.560785
      5          6           0        2.877709   -0.950291    0.307541
      6          6           0        1.733033    1.003579   -0.740109
      7          6           0        1.167943   -1.290512   -1.524924
      8          1           0        1.052981   -2.050278    0.499395
      9          1           0        1.591480    0.395914    1.344894
     10          1           0        2.516020    0.965641   -1.508897
     11          1           0        1.908946   -1.217128   -2.332704
     12          1           0        2.275075   -2.855640   -0.481532
     13          1           0        0.372565   -1.950721   -1.884377
     14          8           0        3.706126   -1.509417    1.330654
     15          6           0        4.311240   -1.181685    0.067032
     16          8           0        3.404869    1.325993    0.979875
     17          1           0        3.191549    2.194865    0.596563
     18          8           0        1.470404    2.405233   -0.650998
     19          6           0        0.519509    2.866719    0.308053
     20          1           0       -0.500712    2.578295    0.045438
     21          1           0        0.601920    3.957176    0.298294
     22          1           0        0.738931    2.505274    1.320436
     23          8           0       -0.471567    0.044349   -0.304491
     24         14           0       -2.117155   -0.127750   -0.642850
     25          6           0       -2.740022    1.396919   -1.576142
     26          1           0       -3.780731    1.261956   -1.894818
     27          1           0       -2.146477    1.575387   -2.481231
     28          1           0       -2.693881    2.308412   -0.969967
     29          6           0       -2.943668   -0.309317    1.072227
     30          6           0       -2.437899   -1.641222   -1.733788
     31          1           0       -3.513371   -1.769460   -1.908168
     32          1           0       -2.062279   -2.567000   -1.284416
     33          1           0       -1.965630   -1.531662   -2.717661
     34          6           0       -2.443439   -1.596219    1.763218
     35          1           0       -2.703885   -2.496297    1.193199
     36          1           0       -2.899973   -1.697884    2.758383
     37          1           0       -1.355919   -1.586032    1.898021
     38          6           0       -4.477492   -0.386402    0.904064
     39          1           0       -4.785664   -1.246884    0.297112
     40          1           0       -4.886469    0.517758    0.436474
     41          1           0       -4.962143   -0.492447    1.885094
     42          6           0       -2.596117    0.902522    1.962984
     43          1           0       -3.076294    0.801593    2.947000
     44          1           0       -2.945581    1.847066    1.527693
     45          1           0       -1.516477    0.985836    2.127328
     46          1           0        4.622199   -2.037464   -0.534513
     47          1           0        4.998961   -0.340099    0.096197
 ---------------------------------------------------------------------
 Rotational constants (GHZ):      0.5426274      0.2176117      0.2015395
 Standard basis: 6-31+G(d,p) (6D, 7F)
 There are   505 symmetry adapted basis functions of A   symmetry.
 Integral buffers will be    131072 words long.
 Raffenetti 2 integral format.
 Two-electron integral symmetry is turned on.
   505 basis functions,   828 primitive gaussians,   505 cartesian basis functions
    79 alpha electrons       79 beta electrons
       nuclear repulsion energy      1832.5858516246 Hartrees.
 NAtoms=   47 NActive=   47 NUniq=   47 SFac= 1.00D+00 NAtFMM=   60 NAOKFM=F Big=F
 ------------------------------------------------------------------------------
 Polarizable Continuum Model (PCM)
 =================================
 Model                : PCM.
 Atomic radii         : UFF (Universal Force Field).
 Polarization charges : Total charges.
 Charge compensation  : None.
 Solution method      : Matrix inversion.
 Cavity type          : Scaled VdW (van der Waals Surface) (Alpha=1.100).
 Cavity algorithm     : GePol (No added spheres)
                        Default sphere list used, NSphG=   47.
                        Lebedev-Laikov grids with approx.  5.0 points / Ang**2.
                        Smoothing algorithm: Karplus/York (Gamma=1.0000).
                        Polarization charges: spherical gaussians, with
                                              point-specific exponents (IZeta= 3).
                        Self-potential: point-specific (ISelfS= 7).
                        Self-field    : sphere-specific E.n sum rule (ISelfD= 2).
 Solvent              : Chloroform, Eps=   4.711300 Eps(inf)=   2.090627
 ------------------------------------------------------------------------------
 One-electron integrals computed using PRISM.
 NBasis=   505 RedAO= T  NBF=   505
 NBsUse=   505 1.00D-06 NBFU=   505
 Harris functional with IExCor=  908 diagonalized for initial guess.
 ExpMin= 3.31D-02 ExpMax= 1.61D+04 ExpMxC= 2.43D+03 IAcc=3 IRadAn=         5 AccDes= 0.00D+00
 HarFok:  IExCor=  908 AccDes= 0.00D+00 IRadAn=         5 IDoV= 1
 ScaDFX=  1.000000  1.000000  1.000000  1.000000
 FoFCou: FMM=F IPFlag=           0 FMFlag=      100000 FMFlg1=           0
         NFxFlg=           0 DoJE=T BraDBF=F KetDBF=T FulRan=T
         Omega=  0.000000  0.000000  1.000000  0.000000  0.000000 ICntrl=     500 IOpCl=  0
         NMat0=    1 NMatS0=    1 NMatT0=    0 NMatD0=    1 NMtDS0=    0 NMtDT0=    0
         I1Cent=           4 NGrid=           0.
 Petite list used in FoFCou.
 Initial guess orbital symmetries:
       Occupied  (A) (A) (A) (A) (A) (A) (A) (A) (A) (A) (A) (A)
                 (A) (A) (A) (A) (A) (A) (A) (A) (A) (A) (A) (A)
                 (A) (A) (A) (A) (A) (A) (A) (A) (A) (A) (A) (A)
                 (A) (A) (A) (A) (A) (A) (A) (A) (A) (A) (A) (A)
                 (A) (A) (A) (A) (A) (A) (A) (A) (A) (A) (A) (A)
                 (A) (A) (A) (A) (A) (A) (A) (A) (A) (A) (A) (A)
                 (A) (A) (A) (A) (A) (A) (A)
       Virtual   (A) (A) (A) (A) (A) (A) (A) (A) (A) (A) (A) (A)
                 (A) (A) (A) (A) (A) (A) (A) (A) (A) (A) (A) (A)
                 (A) (A) (A) (A) (A) (A) (A) (A) (A) (A) (A) (A)
                 (A) (A) (A) (A) (A) (A) (A) (A) (A) (A) (A) (A)
                 (A) (A) (A) (A) (A) (A) (A) (A) (A) (A) (A) (A)
                 (A) (A) (A) (A) (A) (A) (A) (A) (A) (A) (A) (A)
                 (A) (A) (A) (A) (A) (A) (A) (A) (A) (A) (A) (A)
                 (A) (A) (A) (A) (A) (A) (A) (A) (A) (A) (A) (A)
                 (A) (A) (A) (A) (A) (A) (A) (A) (A) (A) (A) (A)
                 (A) (A) (A) (A) (A) (A) (A) (A) (A) (A) (A) (A)
                 (A) (A) (A) (A) (A) (A) (A) (A) (A) (A) (A) (A)
                 (A) (A) (A) (A) (A) (A) (A) (A) (A) (A) (A) (A)
                 (A) (A) (A) (A) (A) (A) (A) (A) (A) (A) (A) (A)
                 (A) (A) (A) (A) (A) (A) (A) (A) (A) (A) (A) (A)
                 (A) (A) (A) (A) (A) (A) (A) (A) (A) (A) (A) (A)
                 (A) (A) (A) (A) (A) (A) (A) (A) (A) (A) (A) (A)
                 (A) (A) (A) (A) (A) (A) (A) (A) (A) (A) (A) (A)
                 (A) (A) (A) (A) (A) (A) (A) (A) (A) (A) (A) (A)
                 (A) (A) (A) (A) (A) (A) (A) (A) (A) (A) (A) (A)
                 (A) (A) (A) (A) (A) (A) (A) (A) (A) (A) (A) (A)
                 (A) (A) (A) (A) (A) (A) (A) (A) (A) (A) (A) (A)
                 (A) (A) (A) (A) (A) (A) (A) (A) (A) (A) (A) (A)
                 (A) (A) (A) (A) (A) (A) (A) (A) (A) (A) (A) (A)
                 (A) (A) (A) (A) (A) (A) (A) (A) (A) (A) (A) (A)
                 (A) (A) (A) (A) (A) (A) (A) (A) (A) (A) (A) (A)
                 (A) (A) (A) (A) (A) (A) (A) (A) (A) (A) (A) (A)
                 (A) (A) (A) (A) (A) (A) (A) (A) (A) (A) (A) (A)
                 (A) (A) (A) (A) (A) (A) (A) (A) (A) (A) (A) (A)
                 (A) (A) (A) (A) (A) (A) (A) (A) (A) (A) (A) (A)
                 (A) (A) (A) (A) (A) (A) (A) (A) (A) (A) (A) (A)
                 (A) (A) (A) (A) (A) (A) (A) (A) (A) (A) (A) (A)
                 (A) (A) (A) (A) (A) (A) (A) (A) (A) (A) (A) (A)
                 (A) (A) (A) (A) (A) (A) (A) (A) (A) (A) (A) (A)
                 (A) (A) (A) (A) (A) (A) (A) (A) (A) (A) (A) (A)
                 (A) (A) (A) (A) (A) (A) (A) (A) (A) (A) (A) (A)
                 (A) (A) (A) (A) (A) (A)
 The electronic state of the initial guess is 1-A.
 Requested convergence on RMS density matrix=1.00D-08 within 128 cycles.
 Requested convergence on MAX density matrix=1.00D-06.
 Requested convergence on             energy=1.00D-06.
 No special actions if energy rises.
 Error on total polarization charges =  0.01511
 SCF Done:  E(RmPW1PW91) =  -1140.62027605     A.U. after   13 cycles
             Convg  =    0.5098D-08             -V/T =  2.0080
 Range of M.O.s used for correlation:     1   505
 NBasis=   505 NAE=    79 NBE=    79 NFC=     0 NFV=     0
 NROrb=    505 NOA=    79 NOB=    79 NVA=   426 NVB=   426

 **** Warning!!: The largest alpha MO coefficient is  0.10934260D+03

 NEqPCM:  Using equilibrium solvation (IEInf=0, Eps=   4.7113, EpsInf=   2.0906)
          Differentiating once with respect to magnetic field using GIAOs.
          Electric field/nuclear overlap derivatives assumed to be zero.
 FoFCou: FMM=F IPFlag=           0 FMFlag=    10101102 FMFlg1=           0
         NFxFlg=    40000000 DoJE=F BraDBF=F KetDBF=T FulRan=T
         Omega=  0.000000  0.000000  1.000000  0.000000  0.000000 ICntrl=    6100 IOpCl=  0
         NMat0=    1 NMatS0=    1 NMatT0=    0 NMatD0=    1 NMtDS0=    0 NMtDT0=    0
         I1Cent=           7 NGrid=        2931.
 Symmetry not used in FoFCou.
          There are     3 degrees of freedom in the 1st order CPHF.  IDoFFX=0.
      3 vectors produced by pass  0 Test12= 1.12D-12 3.33D-08 XBig12= 1.95D+02 3.33D+00.
 AX will form     3 AO Fock derivatives at one time.
      3 vectors produced by pass  1 Test12= 1.12D-12 3.33D-08 XBig12= 4.97D-01 9.37D-02.
      3 vectors produced by pass  2 Test12= 1.12D-12 3.33D-08 XBig12= 1.03D-03 3.90D-03.
      3 vectors produced by pass  3 Test12= 1.12D-12 3.33D-08 XBig12= 4.63D-06 4.37D-04.
      3 vectors produced by pass  4 Test12= 1.12D-12 3.33D-08 XBig12= 2.23D-08 2.07D-05.
      3 vectors produced by pass  5 Test12= 1.12D-12 3.33D-08 XBig12= 5.96D-11 8.78D-07.
      2 vectors produced by pass  6 Test12= 1.12D-12 3.33D-08 XBig12= 1.68D-13 4.36D-08.
 Inverted reduced A of dimension    20 with in-core refinement.
 Calculating GIAO nuclear magnetic shielding tensors.
 SCF GIAO Magnetic shielding tensor (ppm):
      1  H    Isotropic =    27.1084   Anisotropy =     4.5761
   XX=    28.2456   YX=    -0.2686   ZX=    -2.3106
   XY=    -0.3435   YY=    24.0628   ZY=    -1.3962
   XZ=     0.1252   YZ=    -2.4941   ZZ=    29.0169
   Eigenvalues:    23.3034    27.8627    30.1591
      2  C    Isotropic =   122.5524   Anisotropy =    40.7339
   XX=   132.9228   YX=     9.2021   ZX=   -23.2662
   XY=     5.9776   YY=   117.3755   ZY=     4.4353
   XZ=   -21.9657   YZ=     1.2828   ZZ=   117.3589
   Eigenvalues:    98.7355   119.2134   149.7083
      3  C    Isotropic =   167.2094   Anisotropy =    32.1661
   XX=   168.0834   YX=     5.0654   ZX=    21.0724
   XY=     7.8100   YY=   174.5622   ZY=     6.9410
   XZ=    15.0462   YZ=     7.5891   ZZ=   158.9825
   Eigenvalues:   144.7941   168.1805   188.6534
      4  C    Isotropic =   132.4762   Anisotropy =    60.2720
   XX=   138.3144   YX=    22.4326   ZX=    11.6526
   XY=    25.8538   YY=   144.9839   ZY=    13.8309
   XZ=    15.1304   YZ=    15.1078   ZZ=   114.1304
   Eigenvalues:   107.4631   117.3080   172.6576
      5  C    Isotropic =   133.5496   Anisotropy =    61.7973
   XX=    92.0044   YX=    14.2409   ZX=    11.5462
   XY=    12.8790   YY=   169.4426   ZY=    10.9065
   XZ=    15.3431   YZ=     4.9702   ZZ=   139.2018
   Eigenvalues:    86.9157   138.9853   174.7478
      6  C    Isotropic =   113.4471   Anisotropy =    34.6933
   XX=   108.2984   YX=    -5.4610   ZX=    14.8304
   XY=   -14.7155   YY=   132.4539   ZY=     2.4364
   XZ=     2.9562   YZ=    12.3670   ZZ=    99.5891
   Eigenvalues:    90.7317   113.0337   136.5760
      7  C    Isotropic =   163.6455   Anisotropy =    20.6456
   XX=   164.3715   YX=    -7.3350   ZX=    -5.6330
   XY=    -8.5236   YY=   170.1054   ZY=     7.5408
   XZ=    -3.8828   YZ=     0.4818   ZZ=   156.4597
   Eigenvalues:   154.2207   159.3067   177.4093
      8  H    Isotropic =    29.1585   Anisotropy =     6.7640
   XX=    32.4207   YX=     0.7159   ZX=    -1.5341
   XY=     1.7463   YY=    27.6110   ZY=    -3.5655
   XZ=    -1.6753   YZ=    -2.2411   ZZ=    27.4437
   Eigenvalues:    24.6108    29.1968    33.6678
      9  H    Isotropic =    26.8022   Anisotropy =     5.4722
   XX=    30.1547   YX=     1.1591   ZX=    -0.9525
   XY=     1.0019   YY=    24.9151   ZY=     0.2267
   XZ=    -0.6743   YZ=     1.4453   ZZ=    25.3368
   Eigenvalues:    23.9682    25.9881    30.4504
     10  H    Isotropic =    28.2938   Anisotropy =     4.3471
   XX=    27.5467   YX=    -0.7058   ZX=    -2.5349
   XY=    -1.9030   YY=    30.2342   ZY=     0.8057
   XZ=    -2.7820   YZ=    -0.6525   ZZ=    27.1005
   Eigenvalues:    24.5319    29.1576    31.1918
     11  H    Isotropic =    30.0975   Anisotropy =     9.2496
   XX=    29.8551   YX=    -1.8625   ZX=    -3.1812
   XY=    -1.7072   YY=    26.5525   ZY=     2.2608
   XZ=    -3.0727   YZ=     1.6058   ZZ=    33.8848
   Eigenvalues:    25.7230    28.3056    36.2639
     12  H    Isotropic =    30.5630   Anisotropy =    10.3301
   XX=    29.1424   YX=    -2.1011   ZX=     1.6377
   XY=    -2.2410   YY=    36.5561   ZY=     2.3288
   XZ=     1.4965   YZ=     2.3071   ZZ=    25.9906
   Eigenvalues:    24.5912    29.6482    37.4498
     13  H    Isotropic =    29.8601   Anisotropy =     9.1994
   XX=    33.1289   YX=     0.8589   ZX=     3.2041
   XY=     2.0605   YY=    28.9205   ZY=     3.7667
   XZ=     3.5289   YZ=     3.4809   ZZ=    27.5308
   Eigenvalues:    24.1700    29.4173    35.9930
     14  O    Isotropic =   308.4663   Anisotropy =   113.8500
   XX=   376.3053   YX=    -0.6086   ZX=    20.4987
   XY=    -1.0430   YY=   359.1413   ZY=    64.4769
   XZ=    -1.3929   YZ=    73.1718   ZZ=   189.9523
   Eigenvalues:   165.0841   375.9484   384.3663
     15  C    Isotropic =   146.4911   Anisotropy =    35.6859
   XX=   112.6449   YX=    11.0551   ZX=     8.2780
   XY=     8.9283   YY=   164.8000   ZY=     0.5160
   XZ=     8.7959   YZ=     6.7624   ZZ=   162.0284
   Eigenvalues:   109.6447   159.5469   170.2817
     16  O    Isotropic =   313.6374   Anisotropy =    39.7833
   XX=   318.5364   YX=    14.3881   ZX=     9.6674
   XY=     7.1333   YY=   330.0004   ZY=   -14.1963
   XZ=   -14.4856   YZ=   -13.6233   ZZ=   292.3754
   Eigenvalues:   287.7502   313.0025   340.1596
     17  H    Isotropic =    29.2380   Anisotropy =    17.5071
   XX=    26.5969   YX=    -0.2419   ZX=     5.1034
   XY=    -0.6765   YY=    39.4245   ZY=    -4.8035
   XZ=     5.9546   YZ=    -4.8641   ZZ=    21.6927
   Eigenvalues:    17.4176    29.3870    40.9094
     18  O    Isotropic =   312.2857   Anisotropy =    56.4627
   XX=   297.8319   YX=    -2.7539   ZX=   -10.5528
   XY=    18.4464   YY=   341.3661   ZY=   -22.3568
   XZ=    -3.6914   YZ=   -14.4099   ZZ=   297.6590
   Eigenvalues:   288.7939   298.1357   349.9275
     19  C    Isotropic =   142.9224   Anisotropy =    67.9916
   XX=   152.5704   YX=   -12.4284   ZX=   -29.2377
   XY=   -16.2016   YY=   131.2748   ZY=    21.2053
   XZ=   -27.3804   YZ=    21.4723   ZZ=   144.9221
   Eigenvalues:   114.1687   126.3484   188.2502
     20  H    Isotropic =    27.7778   Anisotropy =     8.7736
   XX=    33.4137   YX=     1.8285   ZX=     0.2101
   XY=     0.2105   YY=    27.3699   ZY=     2.0375
   XZ=    -2.2667   YZ=     1.9866   ZZ=    22.5499
   Eigenvalues:    21.6725    28.0341    33.6268
     21  H    Isotropic =    28.2545   Anisotropy =     9.9425
   XX=    26.4108   YX=    -2.1624   ZX=    -1.6346
   XY=    -0.9199   YY=    33.5601   ZY=     1.7217
   XZ=    -1.3870   YZ=     4.1276   ZZ=    24.7926
   Eigenvalues:    23.5166    26.3641    34.8828
     22  H    Isotropic =    28.0245   Anisotropy =     7.0220
   XX=    27.5286   YX=    -0.8967   ZX=    -3.3440
   XY=    -1.1236   YY=    26.3528   ZY=     3.5383
   XZ=    -1.2361   YZ=     1.6470   ZZ=    30.1921
   Eigenvalues:    25.0357    26.3320    32.7058
     23  O    Isotropic =   284.0636   Anisotropy =    31.6852
   XX=   285.4438   YX=     1.7445   ZX=    16.2936
   XY=     4.6957   YY=   294.0340   ZY=     6.8940
   XZ=    24.7326   YZ=     8.1971   ZZ=   272.7128
   Eigenvalues:   257.1152   289.8884   305.1871
     24  Si   Isotropic =   379.4762   Anisotropy =    40.7969
   XX=   403.1195   YX=     4.7591   ZX=    -0.9191
   XY=     6.4569   YY=   362.6262   ZY=    -1.7781
   XZ=   -18.0065   YZ=    -3.5645   ZZ=   372.6828
   Eigenvalues:   361.6496   370.1048   406.6741
     25  C    Isotropic =   201.1122   Anisotropy =    11.0390
   XX=   203.0161   YX=     0.8407   ZX=     2.4072
   XY=     2.7310   YY=   207.4203   ZY=     3.5179
   XZ=     4.0983   YZ=    -0.6028   ZZ=   192.9003
   Eigenvalues:   191.8918   202.9733   208.4716
     26  H    Isotropic =    31.6561   Anisotropy =    11.0206
   XX=    37.2270   YX=    -0.6018   ZX=     4.0733
   XY=    -0.1333   YY=    28.1569   ZY=    -1.3641
   XZ=     3.8957   YZ=    -1.5363   ZZ=    29.5845
   Eigenvalues:    26.7930    29.1722    39.0032
     27  H    Isotropic =    31.1344   Anisotropy =     8.8375
   XX=    30.5815   YX=     0.0010   ZX=    -2.8829
   XY=     0.2265   YY=    28.4980   ZY=    -3.6116
   XZ=    -2.8668   YZ=    -3.2460   ZZ=    34.3235
   Eigenvalues:    26.5411    29.8359    37.0260
     28  H    Isotropic =    31.3775   Anisotropy =     8.8012
   XX=    27.8824   YX=    -0.7019   ZX=     0.7742
   XY=    -0.5605   YY=    36.3819   ZY=     2.9860
   XZ=     0.4030   YZ=     2.0014   ZZ=    29.8683
   Eigenvalues:    27.4887    29.3989    37.2450
     29  C    Isotropic =   173.0033   Anisotropy =     8.5337
   XX=   177.5799   YX=     0.5532   ZX=     2.8621
   XY=    -0.2590   YY=   169.6183   ZY=    -0.4508
   XZ=     2.6660   YZ=     0.4177   ZZ=   171.8116
   Eigenvalues:   169.6119   170.7056   178.6924
     30  C    Isotropic =   198.3777   Anisotropy =     7.1240
   XX=   202.3522   YX=     0.0164   ZX=     0.9367
   XY=    -2.0319   YY=   201.8010   ZY=    -0.1669
   XZ=     1.9149   YZ=     4.6428   ZZ=   190.9799
   Eigenvalues:   190.3231   201.6829   203.1270
     31  H    Isotropic =    31.5643   Anisotropy =    10.8679
   XX=    37.1301   YX=     2.7910   ZX=     2.4840
   XY=     2.5086   YY=    28.1981   ZY=     2.1445
   XZ=     2.4592   YZ=     2.2783   ZZ=    29.3646
   Eigenvalues:    26.4503    29.4330    38.8095
     32  H    Isotropic =    31.4103   Anisotropy =     8.0751
   XX=    28.9744   YX=    -1.7405   ZX=     0.8629
   XY=    -1.8398   YY=    36.1848   ZY=    -1.4898
   XZ=     0.6619   YZ=    -0.6293   ZZ=    29.0717
   Eigenvalues:    28.1976    29.2396    36.7937
     33  H    Isotropic =    31.3770   Anisotropy =     8.4142
   XX=    30.1085   YX=     0.7684   ZX=    -2.4515
   XY=     0.5433   YY=    28.0224   ZY=     1.7105
   XZ=    -2.2239   YZ=     1.3477   ZZ=    36.0002
   Eigenvalues:    27.2485    29.8961    36.9865
     34  C    Isotropic =   170.5809   Anisotropy =    37.6279
   XX=   162.2631   YX=   -11.0501   ZX=     3.0408
   XY=   -13.5402   YY=   184.6523   ZY=   -10.0643
   XZ=     5.4410   YZ=   -14.8561   ZZ=   164.8273
   Eigenvalues:   156.4234   159.6531   195.6661
     35  H    Isotropic =    30.5178   Anisotropy =     8.2222
   XX=    26.5657   YX=     0.3302   ZX=    -0.7197
   XY=     1.0684   YY=    35.8946   ZY=     1.2496
   XZ=    -0.4328   YZ=     0.0407   ZZ=    29.0931
   Eigenvalues:    26.3692    29.1849    35.9992
     36  H    Isotropic =    30.8840   Anisotropy =     9.6833
   XX=    28.2050   YX=     0.1690   ZX=    -1.9728
   XY=     0.6951   YY=    29.6603   ZY=    -4.2046
   XZ=    -2.3884   YZ=    -3.4794   ZZ=    34.7869
   Eigenvalues:    27.0233    28.2892    37.3396
     37  H    Isotropic =    30.1959   Anisotropy =     8.6030
   XX=    34.9973   YX=    -1.6781   ZX=     0.2216
   XY=    -2.8581   YY=    27.4963   ZY=    -3.2418
   XZ=     1.1179   YZ=    -2.7858   ZZ=    28.0942
   Eigenvalues:    24.6108    30.0458    35.9313
     38  C    Isotropic =   170.8195   Anisotropy =    39.0630
   XX=   195.6534   YX=     1.6809   ZX=     8.8884
   XY=     2.3613   YY=   157.7848   ZY=     0.2555
   XZ=     3.9989   YZ=     0.4563   ZZ=   159.0204
   Eigenvalues:   157.6766   157.9205   196.8616
     39  H    Isotropic =    30.6543   Anisotropy =     9.3583
   XX=    33.2918   YX=     4.6600   ZX=     1.6511
   XY=     3.2266   YY=    29.4271   ZY=     3.1211
   XZ=     1.1397   YZ=     3.2845   ZZ=    29.2439
   Eigenvalues:    25.5885    29.4811    36.8931
     40  H    Isotropic =    30.7074   Anisotropy =     9.0898
   XX=    34.1757   YX=    -4.2663   ZX=     1.2698
   XY=    -2.8188   YY=    29.4564   ZY=    -2.8601
   XZ=     0.9186   YZ=    -2.9326   ZZ=    28.4901
   Eigenvalues:    25.7154    29.6395    36.7672
     41  H    Isotropic =    30.9153   Anisotropy =    10.1666
   XX=    34.2668   YX=     0.8723   ZX=    -5.1425
   XY=     0.7796   YY=    26.9507   ZY=    -0.6424
   XZ=    -3.8347   YZ=    -0.6567   ZZ=    31.5285
   Eigenvalues:    26.8473    28.2056    37.6931
     42  C    Isotropic =   170.5368   Anisotropy =    36.9765
   XX=   160.1676   YX=     8.1905   ZX=     2.6507
   XY=    10.2705   YY=   182.5690   ZY=    12.3969
   XZ=     4.9771   YZ=    18.0764   ZZ=   168.8738
   Eigenvalues:   156.2930   160.1295   195.1878
     43  H    Isotropic =    30.9428   Anisotropy =     9.5299
   XX=    28.5260   YX=     0.1666   ZX=    -2.5513
   XY=    -0.3397   YY=    28.5692   ZY=     2.8348
   XZ=    -2.9469   YZ=     2.0578   ZZ=    35.7332
   Eigenvalues:    27.0676    28.4647    37.2961
     44  H    Isotropic =    30.5465   Anisotropy =     8.0192
   XX=    27.1944   YX=    -0.9572   ZX=    -0.7536
   XY=    -1.8937   YY=    35.6461   ZY=    -0.4649
   XZ=    -0.9165   YZ=     0.7933   ZZ=    28.7990
   Eigenvalues:    26.6616    29.0853    35.8926
     45  H    Isotropic =    30.1946   Anisotropy =     8.7167
   XX=    34.3905   YX=     2.9112   ZX=     0.1361
   XY=     3.6997   YY=    27.0804   ZY=     2.6746
   XZ=     1.1624   YZ=     2.2399   ZZ=    29.1130
   Eigenvalues:    24.7800    29.7981    36.0058
     46  H    Isotropic =    29.0635   Anisotropy =    10.8135
   XX=    28.6872   YX=    -0.6303   ZX=    -2.0937
   XY=    -4.8383   YY=    29.8522   ZY=     4.5738
   XZ=    -4.6034   YZ=     4.5683   ZZ=    28.6511
   Eigenvalues:    24.4232    26.4948    36.2725
     47  H    Isotropic =    28.1935   Anisotropy =     8.6425
   XX=    31.3898   YX=     1.0608   ZX=    -2.8551
   XY=     4.9724   YY=    30.1732   ZY=     0.2643
   XZ=    -0.9514   YZ=     1.2193   ZZ=    23.0176
   Eigenvalues:    22.3399    28.2854    33.9552
 End of Minotr Frequency-dependent properties file   721 does not exist.
 End of Minotr Frequency-dependent properties file   722 does not exist.

 **********************************************************************

            Population analysis using the SCF density.

 **********************************************************************

 Orbital symmetries:
       Occupied  (A) (A) (A) (A) (A) (A) (A) (A) (A) (A) (A) (A)
                 (A) (A) (A) (A) (A) (A) (A) (A) (A) (A) (A) (A)
                 (A) (A) (A) (A) (A) (A) (A) (A) (A) (A) (A) (A)
                 (A) (A) (A) (A) (A) (A) (A) (A) (A) (A) (A) (A)
                 (A) (A) (A) (A) (A) (A) (A) (A) (A) (A) (A) (A)
                 (A) (A) (A) (A) (A) (A) (A) (A) (A) (A) (A) (A)
                 (A) (A) (A) (A) (A) (A) (A)
       Virtual   (A) (A) (A) (A) (A) (A) (A) (A) (A) (A) (A) (A)
                 (A) (A) (A) (A) (A) (A) (A) (A) (A) (A) (A) (A)
                 (A) (A) (A) (A) (A) (A) (A) (A) (A) (A) (A) (A)
                 (A) (A) (A) (A) (A) (A) (A) (A) (A) (A) (A) (A)
                 (A) (A) (A) (A) (A) (A) (A) (A) (A) (A) (A) (A)
                 (A) (A) (A) (A) (A) (A) (A) (A) (A) (A) (A) (A)
                 (A) (A) (A) (A) (A) (A) (A) (A) (A) (A) (A) (A)
                 (A) (A) (A) (A) (A) (A) (A) (A) (A) (A) (A) (A)
                 (A) (A) (A) (A) (A) (A) (A) (A) (A) (A) (A) (A)
                 (A) (A) (A) (A) (A) (A) (A) (A) (A) (A) (A) (A)
                 (A) (A) (A) (A) (A) (A) (A) (A) (A) (A) (A) (A)
                 (A) (A) (A) (A) (A) (A) (A) (A) (A) (A) (A) (A)
                 (A) (A) (A) (A) (A) (A) (A) (A) (A) (A) (A) (A)
                 (A) (A) (A) (A) (A) (A) (A) (A) (A) (A) (A) (A)
                 (A) (A) (A) (A) (A) (A) (A) (A) (A) (A) (A) (A)
                 (A) (A) (A) (A) (A) (A) (A) (A) (A) (A) (A) (A)
                 (A) (A) (A) (A) (A) (A) (A) (A) (A) (A) (A) (A)
                 (A) (A) (A) (A) (A) (A) (A) (A) (A) (A) (A) (A)
                 (A) (A) (A) (A) (A) (A) (A) (A) (A) (A) (A) (A)
                 (A) (A) (A) (A) (A) (A) (A) (A) (A) (A) (A) (A)
                 (A) (A) (A) (A) (A) (A) (A) (A) (A) (A) (A) (A)
                 (A) (A) (A) (A) (A) (A) (A) (A) (A) (A) (A) (A)
                 (A) (A) (A) (A) (A) (A) (A) (A) (A) (A) (A) (A)
                 (A) (A) (A) (A) (A) (A) (A) (A) (A) (A) (A) (A)
                 (A) (A) (A) (A) (A) (A) (A) (A) (A) (A) (A) (A)
                 (A) (A) (A) (A) (A) (A) (A) (A) (A) (A) (A) (A)
                 (A) (A) (A) (A) (A) (A) (A) (A) (A) (A) (A) (A)
                 (A) (A) (A) (A) (A) (A) (A) (A) (A) (A) (A) (A)
                 (A) (A) (A) (A) (A) (A) (A) (A) (A) (A) (A) (A)
                 (A) (A) (A) (A) (A) (A) (A) (A) (A) (A) (A) (A)
                 (A) (A) (A) (A) (A) (A) (A) (A) (A) (A) (A) (A)
                 (A) (A) (A) (A) (A) (A) (A) (A) (A) (A) (A) (A)
                 (A) (A) (A) (A) (A) (A) (A) (A) (A) (A) (A) (A)
                 (A) (A) (A) (A) (A) (A) (A) (A) (A) (A) (A) (A)
                 (A) (A) (A) (A) (A) (A) (A) (A) (A) (A) (A) (A)
                 (A) (A) (A) (A) (A) (A)
 The electronic state is 1-A.
 Alpha  occ. eigenvalues --  -66.30793 -19.26674 -19.26076 -19.25196 -19.23939
 Alpha  occ. eigenvalues --  -10.31509 -10.31397 -10.31116 -10.30663 -10.29557
 Alpha  occ. eigenvalues --  -10.28869 -10.25600 -10.25393 -10.25067 -10.23812
 Alpha  occ. eigenvalues --  -10.23507 -10.23489 -10.22771 -10.22719  -5.34187
 Alpha  occ. eigenvalues --   -3.68100  -3.67815  -3.67788  -1.11012  -1.08356
 Alpha  occ. eigenvalues --   -1.05223  -1.03594  -0.85093  -0.82433  -0.77656
 Alpha  occ. eigenvalues --   -0.75386  -0.72678  -0.71226  -0.70687  -0.70371
 Alpha  occ. eigenvalues --   -0.69788  -0.68565  -0.64089  -0.62106  -0.58710
 Alpha  occ. eigenvalues --   -0.56626  -0.54756  -0.52936  -0.52207  -0.50408
 Alpha  occ. eigenvalues --   -0.49967  -0.48531  -0.47705  -0.46407  -0.45619
 Alpha  occ. eigenvalues --   -0.45427  -0.44776  -0.44459  -0.43701  -0.43086
 Alpha  occ. eigenvalues --   -0.41916  -0.41255  -0.40987  -0.40606  -0.40433
 Alpha  occ. eigenvalues --   -0.39529  -0.39240  -0.39093  -0.38669  -0.38044
 Alpha  occ. eigenvalues --   -0.37428  -0.37072  -0.36127  -0.34916  -0.33998
 Alpha  occ. eigenvalues --   -0.33856  -0.32604  -0.32353  -0.31784  -0.30867
 Alpha  occ. eigenvalues --   -0.28782  -0.28029  -0.27721  -0.27176
 Alpha virt. eigenvalues --   -0.00440   0.00766   0.01026   0.01495   0.02519
 Alpha virt. eigenvalues --    0.02653   0.03281   0.03584   0.03941   0.04706
 Alpha virt. eigenvalues --    0.04987   0.05300   0.05865   0.06055   0.06587
 Alpha virt. eigenvalues --    0.06810   0.06937   0.07531   0.07721   0.08282
 Alpha virt. eigenvalues --    0.08713   0.09071   0.09361   0.09550   0.09795
 Alpha virt. eigenvalues --    0.10218   0.10492   0.10810   0.10895   0.11274
 Alpha virt. eigenvalues --    0.11571   0.12033   0.12153   0.12522   0.12747
 Alpha virt. eigenvalues --    0.13435   0.13879   0.14088   0.14141   0.14633
 Alpha virt. eigenvalues --    0.15052   0.15287   0.15683   0.15950   0.16333
 Alpha virt. eigenvalues --    0.16575   0.17071   0.17474   0.17741   0.17863
 Alpha virt. eigenvalues --    0.18045   0.18234   0.18540   0.19028   0.19176
 Alpha virt. eigenvalues --    0.19702   0.20193   0.20380   0.20762   0.21196
 Alpha virt. eigenvalues --    0.21434   0.21852   0.22088   0.22367   0.22617
 Alpha virt. eigenvalues --    0.22723   0.23057   0.23351   0.23641   0.24094
 Alpha virt. eigenvalues --    0.24427   0.25301   0.25677   0.25739   0.26237
 Alpha virt. eigenvalues --    0.26606   0.26729   0.27041   0.27268   0.27844
 Alpha virt. eigenvalues --    0.28108   0.28396   0.28617   0.28903   0.29879
 Alpha virt. eigenvalues --    0.30207   0.30544   0.30665   0.31102   0.31357
 Alpha virt. eigenvalues --    0.31973   0.32038   0.32338   0.33361   0.33425
 Alpha virt. eigenvalues --    0.33479   0.33934   0.34766   0.35188   0.35576
 Alpha virt. eigenvalues --    0.36137   0.36751   0.37556   0.38187   0.38322
 Alpha virt. eigenvalues --    0.38677   0.39030   0.39778   0.40177   0.40819
 Alpha virt. eigenvalues --    0.41322   0.41950   0.42513   0.44036   0.44529
 Alpha virt. eigenvalues --    0.44746   0.46069   0.46498   0.46782   0.47862
 Alpha virt. eigenvalues --    0.48889   0.50222   0.51110   0.53714   0.54765
 Alpha virt. eigenvalues --    0.55644   0.58361   0.61993   0.65190   0.65684
 Alpha virt. eigenvalues --    0.67751   0.69161   0.70009   0.70192   0.70804
 Alpha virt. eigenvalues --    0.71679   0.72412   0.73405   0.74168   0.74564
 Alpha virt. eigenvalues --    0.76239   0.76598   0.77743   0.78595   0.78881
 Alpha virt. eigenvalues --    0.79341   0.79818   0.80449   0.80884   0.82667
 Alpha virt. eigenvalues --    0.83198   0.83517   0.84155   0.85397   0.85619
 Alpha virt. eigenvalues --    0.86592   0.87073   0.88038   0.88746   0.89408
 Alpha virt. eigenvalues --    0.89806   0.91035   0.91469   0.92107   0.93537
 Alpha virt. eigenvalues --    0.94656   0.95297   0.95540   0.96937   0.97877
 Alpha virt. eigenvalues --    0.98660   0.99261   0.99976   1.00514   1.01427
 Alpha virt. eigenvalues --    1.02817   1.04234   1.04695   1.04879   1.05198
 Alpha virt. eigenvalues --    1.05968   1.06061   1.06986   1.07625   1.08127
 Alpha virt. eigenvalues --    1.09029   1.09850   1.10788   1.11374   1.11802
 Alpha virt. eigenvalues --    1.13005   1.13916   1.15274   1.15933   1.17019
 Alpha virt. eigenvalues --    1.18779   1.19197   1.19796   1.20952   1.22093
 Alpha virt. eigenvalues --    1.22668   1.23409   1.23826   1.25217   1.26183
 Alpha virt. eigenvalues --    1.27459   1.29034   1.30525   1.31200   1.32279
 Alpha virt. eigenvalues --    1.34300   1.35198   1.36056   1.36540   1.37638
 Alpha virt. eigenvalues --    1.39358   1.40933   1.41877   1.43567   1.44069
 Alpha virt. eigenvalues --    1.44838   1.45813   1.47347   1.47986   1.48438
 Alpha virt. eigenvalues --    1.48945   1.50881   1.51013   1.52829   1.53999
 Alpha virt. eigenvalues --    1.54751   1.58271   1.59490   1.61731   1.63242
 Alpha virt. eigenvalues --    1.64991   1.65176   1.66515   1.68713   1.69456
 Alpha virt. eigenvalues --    1.71288   1.72141   1.72241   1.73276   1.75486
 Alpha virt. eigenvalues --    1.77631   1.77891   1.79347   1.80876   1.81541
 Alpha virt. eigenvalues --    1.82005   1.83548   1.87098   1.87438   1.87802
 Alpha virt. eigenvalues --    1.88500   1.89570   1.90640   1.90896   1.91928
 Alpha virt. eigenvalues --    1.93682   1.93743   1.94858   1.96160   1.96424
 Alpha virt. eigenvalues --    1.96986   1.98341   1.99314   1.99859   2.01497
 Alpha virt. eigenvalues --    2.02475   2.03495   2.05797   2.06283   2.06641
 Alpha virt. eigenvalues --    2.07135   2.07571   2.08990   2.09563   2.09748
 Alpha virt. eigenvalues --    2.10164   2.11313   2.12004   2.12440   2.12972
 Alpha virt. eigenvalues --    2.13107   2.13955   2.14563   2.15932   2.16187
 Alpha virt. eigenvalues --    2.16418   2.16771   2.17792   2.18098   2.18475
 Alpha virt. eigenvalues --    2.19419   2.19823   2.20152   2.21251   2.21931
 Alpha virt. eigenvalues --    2.22315   2.23062   2.24650   2.25050   2.26172
 Alpha virt. eigenvalues --    2.28924   2.29060   2.29514   2.32790   2.34029
 Alpha virt. eigenvalues --    2.35239   2.36413   2.37409   2.38695   2.39186
 Alpha virt. eigenvalues --    2.39534   2.40124   2.41274   2.42312   2.43589
 Alpha virt. eigenvalues --    2.45100   2.48154   2.48660   2.50008   2.51439
 Alpha virt. eigenvalues --    2.55087   2.56408   2.57199   2.57682   2.58357
 Alpha virt. eigenvalues --    2.59337   2.60263   2.63009   2.63622   2.65713
 Alpha virt. eigenvalues --    2.66885   2.67659   2.68365   2.69144   2.69661
 Alpha virt. eigenvalues --    2.70715   2.72470   2.73028   2.73949   2.75083
 Alpha virt. eigenvalues --    2.76631   2.77249   2.78542   2.78598   2.80540
 Alpha virt. eigenvalues --    2.80914   2.82991   2.83377   2.84127   2.84223
 Alpha virt. eigenvalues --    2.85810   2.86542   2.87260   2.87567   2.88223
 Alpha virt. eigenvalues --    2.88602   2.88891   2.88996   2.89764   2.90096
 Alpha virt. eigenvalues --    2.92049   2.92985   2.94444   2.96619   2.97500
 Alpha virt. eigenvalues --    2.98869   2.99317   2.99731   3.03085   3.07110
 Alpha virt. eigenvalues --    3.10192   3.18326   3.18785   3.24118   3.26148
 Alpha virt. eigenvalues --    3.27333   3.27666   3.29813   3.30642   3.31457
 Alpha virt. eigenvalues --    3.32361   3.37660   3.39308   3.41007   3.43894
 Alpha virt. eigenvalues --    3.47680   3.47881   3.48368   3.49440   3.49764
 Alpha virt. eigenvalues --    3.49963   3.50621   3.50734   3.51277   3.51604
 Alpha virt. eigenvalues --    3.52317   3.53539   3.55650   3.56320   3.56483
 Alpha virt. eigenvalues --    3.58384   3.61114   3.62482   4.34746   4.42403
 Alpha virt. eigenvalues --    4.44662   4.50579   4.52410   4.53961   4.56649
 Alpha virt. eigenvalues --    4.59836   4.60443   4.63956   4.66511   4.67235
 Alpha virt. eigenvalues --    4.69415   4.75112   4.78472   4.83497   4.92695
 Alpha virt. eigenvalues --    4.94622
          Condensed to atoms (all electrons):
              1          2          3          4          5          6
     1  H    0.604635   0.072739   0.018874   0.007416  -0.004174   0.133013
     2  C    0.072739  11.764461  -0.034515   0.264785   1.341636  -5.983551
     3  C    0.018874  -0.034515   8.494918  -1.556682  -1.177405  -0.572462
     4  C    0.007416   0.264785  -1.556682  13.366621  -4.631043  -2.084011
     5  C   -0.004174   1.341636  -1.177405  -4.631043  17.280487  -2.933496
     6  C    0.133013  -5.983551  -0.572462  -2.084011  -2.933496  17.044623
     7  C    0.064419  -1.285615   0.572301   0.040986  -1.056746   0.389166
     8  H   -0.000042  -0.001470   0.379103  -0.083659   0.135991  -0.031442
     9  H   -0.000265   0.004670  -0.092974   0.276256   0.112190   0.054851
    10  H   -0.005365   0.081026  -0.010013  -0.082672   0.146786   0.210676
    11  H   -0.002368  -0.075882  -0.082837  -0.020411   0.084333  -0.004360
    12  H   -0.000114   0.069135   0.352968   0.058065  -0.113672  -0.011188
    13  H   -0.004290  -0.002315  -0.015733  -0.015428   0.047718   0.036847
    14  O    0.000076  -0.076107  -0.169264  -0.078365   0.081199   0.114977
    15  C    0.001045  -0.496491  -0.032316  -0.238857  -2.714863   1.246904
    16  O   -0.001187   0.005888   0.059670   0.367360  -0.345923   0.005107
    17  H   -0.000009   0.029693  -0.020499  -0.040548   0.054750  -0.046416
    18  O   -0.010455   0.036998   0.035013   0.075399   0.065123  -0.066898
    19  C   -0.012605   0.233729   0.009762   0.340365  -0.140189  -0.737557
    20  H    0.000220  -0.016167  -0.000772   0.000104   0.003801   0.037456
    21  H   -0.000036   0.022520   0.000696   0.015270   0.004318  -0.053156
    22  H    0.000011  -0.017931   0.000114  -0.032843  -0.013371   0.029981
    23  O   -0.064242   0.170189  -0.038034  -0.006601   0.143158  -0.332840
    24  Si   0.074675  -0.522306  -0.090573  -0.298041   0.132610   0.363172
    25  C   -0.010634   0.052722   0.009210   0.031349  -0.003861  -0.097298
    26  H   -0.000059   0.005498   0.000224   0.000172  -0.000053   0.000285
    27  H    0.001368   0.007993   0.000075   0.001439  -0.000575  -0.009229
    28  H   -0.000071  -0.004266  -0.000427  -0.000241   0.000185   0.002564
    29  C    0.001272  -0.098647   0.014444  -0.049247  -0.003510   0.042840
    30  C   -0.013011   0.087171  -0.012293  -0.000007   0.007633   0.001284
    31  H   -0.000003   0.001208   0.001091   0.000094  -0.000101   0.001017
    32  H    0.000039  -0.027225   0.003770  -0.000482  -0.000059  -0.000396
    33  H    0.000143   0.010397  -0.000479  -0.000192   0.000452  -0.001430
    34  C   -0.000469  -0.056960  -0.010098   0.022402  -0.001829   0.044534
    35  H    0.000000   0.001274   0.000872  -0.000045  -0.000974  -0.000804
    36  H    0.000000   0.000323   0.000895   0.000457  -0.000591   0.000076
    37  H    0.000000  -0.005499  -0.008496  -0.002059   0.005931   0.004561
    38  C    0.000158  -0.002066   0.000147  -0.001298   0.003122  -0.005034
    39  H    0.000000   0.000766   0.000079   0.000016  -0.000031  -0.000016
    40  H    0.000000  -0.000129  -0.000001  -0.000041   0.000007   0.000059
    41  H    0.000000  -0.000274   0.000023   0.000013  -0.000006  -0.000030
    42  C   -0.001870   0.167243   0.018796   0.070632  -0.022028  -0.175401
    43  H    0.000000   0.001621   0.000429   0.001055  -0.000483  -0.001725
    44  H    0.000001  -0.004608  -0.000277  -0.000920   0.000210   0.003168
    45  H    0.000004   0.000267  -0.001861  -0.001530   0.001690  -0.000556
    46  H    0.000001  -0.005283   0.079559  -0.043023  -0.139817   0.008792
    47  H    0.000000  -0.007484  -0.027935   0.183994  -0.241732   0.004804
              7          8          9         10         11         12
     1  H    0.064419  -0.000042  -0.000265  -0.005365  -0.002368  -0.000114
     2  C   -1.285615  -0.001470   0.004670   0.081026  -0.075882   0.069135
     3  C    0.572301   0.379103  -0.092974  -0.010013  -0.082837   0.352968
     4  C    0.040986  -0.083659   0.276256  -0.082672  -0.020411   0.058065
     5  C   -1.056746   0.135991   0.112190   0.146786   0.084333  -0.113672
     6  C    0.389166  -0.031442   0.054851   0.210676  -0.004360  -0.011188
     7  C    6.741069  -0.058321  -0.013908  -0.022331   0.405107  -0.038594
     8  H   -0.058321   0.512996   0.002499   0.000102   0.004327  -0.027533
     9  H   -0.013908   0.002499   0.566481   0.004707   0.000022  -0.000180
    10  H   -0.022331   0.000102   0.004707   0.558507   0.001339  -0.000074
    11  H    0.405107   0.004327   0.000022   0.001339   0.532537  -0.004204
    12  H   -0.038594  -0.027533  -0.000180  -0.000074  -0.004204   0.531975
    13  H    0.295697  -0.003277   0.000001   0.000033  -0.023660  -0.002390
    14  O    0.067685  -0.013587  -0.014663  -0.002007  -0.001102   0.006399
    15  C    0.223862  -0.025648  -0.013904  -0.024537  -0.004382   0.014163
    16  O    0.014309  -0.000099  -0.049534   0.002231  -0.000257  -0.000622
    17  H   -0.001003  -0.000002   0.000574  -0.002136   0.000000   0.000003
    18  O   -0.004822  -0.000353  -0.020905  -0.057136  -0.000357   0.000109
    19  C    0.010201  -0.000904  -0.010814   0.009188  -0.000442   0.000403
    20  H   -0.005563   0.000001  -0.000484  -0.000361  -0.000001   0.000000
    21  H    0.000469   0.000000   0.000116  -0.000005   0.000000   0.000000
    22  H    0.006989   0.000003   0.001222  -0.000049   0.000000   0.000000
    23  O   -0.013267   0.012920   0.012802   0.017234   0.015245  -0.002251
    24  Si   0.123690   0.010337   0.006278  -0.008960  -0.000025  -0.004649
    25  C   -0.010003   0.000300   0.000200   0.001540   0.000270   0.000049
    26  H   -0.001362   0.000000   0.000000   0.000000   0.000000   0.000000
    27  H   -0.001526   0.000000   0.000000  -0.000001   0.000003   0.000000
    28  H   -0.000673   0.000000   0.000000   0.000000   0.000000   0.000000
    29  C    0.062867  -0.004071   0.001668   0.000924   0.000320  -0.000264
    30  C   -0.055123   0.000376   0.000449   0.000467   0.001147   0.001174
    31  H   -0.000794  -0.000001   0.000000   0.000000  -0.000001   0.000000
    32  H    0.014285   0.000062   0.000000   0.000000   0.000012  -0.000006
    33  H   -0.003186   0.000002   0.000000   0.000001   0.000003  -0.000001
    34  C    0.012986   0.001579  -0.001369  -0.000104   0.000016   0.000421
    35  H   -0.000505  -0.000008   0.000000   0.000000   0.000000   0.000000
    36  H   -0.000564  -0.000001   0.000000   0.000000   0.000000   0.000000
    37  H    0.003802   0.000950   0.000198   0.000000   0.000000   0.000000
    38  C    0.005636   0.000370   0.000954   0.000084   0.000024   0.000017
    39  H   -0.000325   0.000000   0.000000   0.000000   0.000000   0.000000
    40  H   -0.000040   0.000000   0.000000   0.000000   0.000000   0.000000
    41  H    0.000068   0.000000   0.000000   0.000000   0.000000   0.000000
    42  C   -0.039141  -0.000362  -0.000698   0.000050  -0.000272  -0.000025
    43  H   -0.000072   0.000000  -0.000001   0.000000   0.000000   0.000000
    44  H    0.000428   0.000000  -0.000002   0.000000   0.000000   0.000000
    45  H   -0.000063   0.000010   0.000476   0.000001   0.000000   0.000000
    46  H    0.010134   0.000026  -0.000098  -0.000134  -0.000091   0.000982
    47  H    0.001370  -0.000132  -0.000075  -0.000135  -0.000065   0.000188
             13         14         15         16         17         18
     1  H   -0.004290   0.000076   0.001045  -0.001187  -0.000009  -0.010455
     2  C   -0.002315  -0.076107  -0.496491   0.005888   0.029693   0.036998
     3  C   -0.015733  -0.169264  -0.032316   0.059670  -0.020499   0.035013
     4  C   -0.015428  -0.078365  -0.238857   0.367360  -0.040548   0.075399
     5  C    0.047718   0.081199  -2.714863  -0.345923   0.054750   0.065123
     6  C    0.036847   0.114977   1.246904   0.005107  -0.046416  -0.066898
     7  C    0.295697   0.067685   0.223862   0.014309  -0.001003  -0.004822
     8  H   -0.003277  -0.013587  -0.025648  -0.000099  -0.000002  -0.000353
     9  H    0.000001  -0.014663  -0.013904  -0.049534   0.000574  -0.020905
    10  H    0.000033  -0.002007  -0.024537   0.002231  -0.002136  -0.057136
    11  H   -0.023660  -0.001102  -0.004382  -0.000257   0.000000  -0.000357
    12  H   -0.002390   0.006399   0.014163  -0.000622   0.000003   0.000109
    13  H    0.533979  -0.000518  -0.002349   0.000070   0.000000  -0.000664
    14  O   -0.000518   8.294131   0.165514   0.028971  -0.000233  -0.002071
    15  C   -0.002349   0.165514   7.148234  -0.025737   0.021513  -0.026380
    16  O    0.000070   0.028971  -0.025737   8.262764   0.219132  -0.025625
    17  H    0.000000  -0.000233   0.021513   0.219132   0.375191   0.037253
    18  O   -0.000664  -0.002071  -0.026380  -0.025625   0.037253   8.325517
    19  C   -0.000861  -0.000415  -0.009714   0.017600  -0.012890   0.100688
    20  H    0.000006   0.000000   0.000499  -0.001730   0.000312  -0.043278
    21  H    0.000000  -0.000006  -0.000445   0.000367  -0.000215  -0.064085
    22  H   -0.000001   0.000129   0.000574   0.007819  -0.001988  -0.054578
    23  O   -0.003325  -0.002348  -0.008691  -0.003485  -0.001024   0.019993
    24  Si  -0.006294  -0.000479   0.015038  -0.005041   0.001607  -0.048464
    25  C   -0.000233  -0.000098  -0.002774   0.000218  -0.000168   0.011860
    26  H    0.000001   0.000000  -0.000002   0.000000   0.000000  -0.000049
    27  H    0.000007   0.000000  -0.000011  -0.000002   0.000000   0.000303
    28  H    0.000000   0.000000   0.000004   0.000000   0.000000   0.000309
    29  C   -0.004693   0.000362   0.003988   0.000336  -0.000177   0.003357
    30  C    0.001065  -0.000256   0.000264   0.000010   0.000001   0.000386
    31  H    0.000127   0.000000   0.000000   0.000000   0.000000  -0.000002
    32  H   -0.000096   0.000001   0.000021   0.000000   0.000000  -0.000008
    33  H   -0.000200   0.000000   0.000007   0.000000   0.000000   0.000029
    34  C    0.001367  -0.000026  -0.000801  -0.000209  -0.000024  -0.000158
    35  H   -0.000003   0.000001  -0.000001   0.000000   0.000000   0.000001
    36  H    0.000000   0.000000  -0.000014   0.000000   0.000000   0.000000
    37  H    0.000001  -0.000036  -0.000121  -0.000020   0.000000  -0.000040
    38  C   -0.000377  -0.000055  -0.000298  -0.000036  -0.000006  -0.000111
    39  H    0.000000   0.000000   0.000000   0.000000   0.000000   0.000000
    40  H    0.000000   0.000000   0.000000   0.000000   0.000000   0.000000
    41  H    0.000000   0.000000   0.000000   0.000000   0.000000   0.000000
    42  C    0.000153  -0.000178  -0.003436   0.000319   0.000172   0.004249
    43  H    0.000000   0.000000  -0.000010   0.000000   0.000000   0.000000
    44  H    0.000000   0.000000   0.000005  -0.000001   0.000000  -0.000032
    45  H    0.000000  -0.000007   0.000022  -0.000011   0.000000  -0.000142
    46  H   -0.000014  -0.035760   0.451060   0.001445   0.000010   0.000002
    47  H   -0.000001  -0.025230   0.456911  -0.005170  -0.000426  -0.000223
             19         20         21         22         23         24
     1  H   -0.012605   0.000220  -0.000036   0.000011  -0.064242   0.074675
     2  C    0.233729  -0.016167   0.022520  -0.017931   0.170189  -0.522306
     3  C    0.009762  -0.000772   0.000696   0.000114  -0.038034  -0.090573
     4  C    0.340365   0.000104   0.015270  -0.032843  -0.006601  -0.298041
     5  C   -0.140189   0.003801   0.004318  -0.013371   0.143158   0.132610
     6  C   -0.737557   0.037456  -0.053156   0.029981  -0.332840   0.363172
     7  C    0.010201  -0.005563   0.000469   0.006989  -0.013267   0.123690
     8  H   -0.000904   0.000001   0.000000   0.000003   0.012920   0.010337
     9  H   -0.010814  -0.000484   0.000116   0.001222   0.012802   0.006278
    10  H    0.009188  -0.000361  -0.000005  -0.000049   0.017234  -0.008960
    11  H   -0.000442  -0.000001   0.000000   0.000000   0.015245  -0.000025
    12  H    0.000403   0.000000   0.000000   0.000000  -0.002251  -0.004649
    13  H   -0.000861   0.000006   0.000000  -0.000001  -0.003325  -0.006294
    14  O   -0.000415   0.000000  -0.000006   0.000129  -0.002348  -0.000479
    15  C   -0.009714   0.000499  -0.000445   0.000574  -0.008691   0.015038
    16  O    0.017600  -0.001730   0.000367   0.007819  -0.003485  -0.005041
    17  H   -0.012890   0.000312  -0.000215  -0.001988  -0.001024   0.001607
    18  O    0.100688  -0.043278  -0.064085  -0.054578   0.019993  -0.048464
    19  C    5.171558   0.382786   0.436496   0.417239   0.013125  -0.074253
    20  H    0.382786   0.560373  -0.030879  -0.042481  -0.011140   0.034007
    21  H    0.436496  -0.030879   0.530426  -0.027910   0.001920  -0.008088
    22  H    0.417239  -0.042481  -0.027910   0.562112   0.000691   0.012017
    23  O    0.013125  -0.011140   0.001920   0.000691   8.435631  -0.000477
    24  Si  -0.074253   0.034007  -0.008088   0.012017  -0.000477  13.879133
    25  C    0.008446  -0.013556   0.002616  -0.001445  -0.030361   0.157979
    26  H    0.000408   0.000053   0.000000   0.000000   0.009422  -0.040042
    27  H    0.003210   0.000083  -0.000009  -0.000002  -0.004160  -0.040625
    28  H   -0.002065   0.001255   0.000001  -0.000002  -0.009262  -0.002899
    29  C   -0.011292  -0.016158   0.001145   0.000119  -0.094330   0.367227
    30  C    0.000196  -0.000237   0.000083  -0.000218  -0.064678   0.192159
    31  H   -0.000038   0.000000   0.000000   0.000000   0.009462  -0.026132
    32  H   -0.000079   0.000000   0.000000   0.000000  -0.001842  -0.022974
    33  H    0.000240   0.000000   0.000000   0.000000  -0.007588  -0.043647
    34  C    0.002494  -0.000445   0.000034  -0.000530   0.042113  -0.218749
    35  H   -0.000021   0.000000   0.000000   0.000000  -0.002679   0.003958
    36  H    0.000078   0.000000   0.000000   0.000000  -0.000582   0.012764
    37  H   -0.000375   0.000002   0.000000  -0.000003   0.009534  -0.009974
    38  C    0.001046  -0.001977   0.000184  -0.000201   0.008356  -0.190256
    39  H   -0.000018   0.000000   0.000000   0.000000   0.000737  -0.010229
    40  H    0.000081   0.000002   0.000000   0.000000   0.000371  -0.018188
    41  H    0.000031   0.000000   0.000000   0.000000  -0.000578   0.011419
    42  C    0.018256   0.007392  -0.000464  -0.001754   0.036993  -0.168721
    43  H    0.000500   0.000023  -0.000001   0.000002  -0.000569  -0.000150
    44  H   -0.000086   0.000055   0.000007  -0.000061  -0.004987   0.021494
    45  H   -0.002352  -0.000335   0.000026   0.000257   0.008347  -0.000064
    46  H   -0.000071   0.000000   0.000000   0.000000  -0.000059   0.000432
    47  H    0.001097   0.000000   0.000000   0.000000  -0.000124  -0.000313
             25         26         27         28         29         30
     1  H   -0.010634  -0.000059   0.001368  -0.000071   0.001272  -0.013011
     2  C    0.052722   0.005498   0.007993  -0.004266  -0.098647   0.087171
     3  C    0.009210   0.000224   0.000075  -0.000427   0.014444  -0.012293
     4  C    0.031349   0.000172   0.001439  -0.000241  -0.049247  -0.000007
     5  C   -0.003861  -0.000053  -0.000575   0.000185  -0.003510   0.007633
     6  C   -0.097298   0.000285  -0.009229   0.002564   0.042840   0.001284
     7  C   -0.010003  -0.001362  -0.001526  -0.000673   0.062867  -0.055123
     8  H    0.000300   0.000000   0.000000   0.000000  -0.004071   0.000376
     9  H    0.000200   0.000000   0.000000   0.000000   0.001668   0.000449
    10  H    0.001540   0.000000  -0.000001   0.000000   0.000924   0.000467
    11  H    0.000270   0.000000   0.000003   0.000000   0.000320   0.001147
    12  H    0.000049   0.000000   0.000000   0.000000  -0.000264   0.001174
    13  H   -0.000233   0.000001   0.000007   0.000000  -0.004693   0.001065
    14  O   -0.000098   0.000000   0.000000   0.000000   0.000362  -0.000256
    15  C   -0.002774  -0.000002  -0.000011   0.000004   0.003988   0.000264
    16  O    0.000218   0.000000  -0.000002   0.000000   0.000336   0.000010
    17  H   -0.000168   0.000000   0.000000   0.000000  -0.000177   0.000001
    18  O    0.011860  -0.000049   0.000303   0.000309   0.003357   0.000386
    19  C    0.008446   0.000408   0.003210  -0.002065  -0.011292   0.000196
    20  H   -0.013556   0.000053   0.000083   0.001255  -0.016158  -0.000237
    21  H    0.002616   0.000000  -0.000009   0.000001   0.001145   0.000083
    22  H   -0.001445   0.000000  -0.000002  -0.000002   0.000119  -0.000218
    23  O   -0.030361   0.009422  -0.004160  -0.009262  -0.094330  -0.064678
    24  Si   0.157979  -0.040042  -0.040625  -0.002899   0.367227   0.192159
    25  C    5.442531   0.408964   0.397189   0.388446  -0.109373  -0.005182
    26  H    0.408964   0.483229  -0.021607  -0.021306  -0.028502  -0.005621
    27  H    0.397189  -0.021607   0.497027  -0.023013   0.020556  -0.012546
    28  H    0.388446  -0.021306  -0.023013   0.494595  -0.020689   0.008064
    29  C   -0.109373  -0.028502   0.020556  -0.020689   8.352690  -0.139534
    30  C   -0.005182  -0.005621  -0.012546   0.008064  -0.139534   5.466001
    31  H   -0.006942   0.000084   0.000134   0.000027  -0.025199   0.396432
    32  H    0.007541   0.000029   0.000001  -0.000018  -0.022457   0.402733
    33  H   -0.007507   0.000140   0.000402   0.000000   0.020092   0.394614
    34  C    0.005976   0.000410  -0.000565  -0.003316  -0.356509   0.013604
    35  H   -0.000031   0.000001  -0.000001   0.000000  -0.064699   0.000185
    36  H   -0.001402   0.000000   0.000000   0.000000  -0.162892   0.000739
    37  H    0.000016   0.000000  -0.000001   0.000001  -0.105313  -0.000343
    38  C    0.050036   0.008017  -0.001253  -0.000034  -0.498803   0.031655
    39  H   -0.001246   0.000028  -0.000005   0.000022  -0.080941   0.003000
    40  H    0.004648   0.000006   0.000011   0.000011  -0.083426  -0.000098
    41  H    0.000890   0.000015   0.000000  -0.000007  -0.160741   0.000955
    42  C   -0.018024   0.010151   0.001846   0.009202  -0.482948  -0.014116
    43  H    0.002403  -0.000001   0.000001  -0.000016  -0.162159  -0.001428
    44  H   -0.004898   0.000057  -0.000003   0.000342  -0.059451   0.000449
    45  H   -0.001232   0.000001  -0.000004   0.000017  -0.103265  -0.000810
    46  H   -0.000003   0.000000   0.000000   0.000000   0.000008  -0.000003
    47  H    0.000000   0.000000   0.000000   0.000000  -0.000001   0.000002
             31         32         33         34         35         36
     1  H   -0.000003   0.000039   0.000143  -0.000469   0.000000   0.000000
     2  C    0.001208  -0.027225   0.010397  -0.056960   0.001274   0.000323
     3  C    0.001091   0.003770  -0.000479  -0.010098   0.000872   0.000895
     4  C    0.000094  -0.000482  -0.000192   0.022402  -0.000045   0.000457
     5  C   -0.000101  -0.000059   0.000452  -0.001829  -0.000974  -0.000591
     6  C    0.001017  -0.000396  -0.001430   0.044534  -0.000804   0.000076
     7  C   -0.000794   0.014285  -0.003186   0.012986  -0.000505  -0.000564
     8  H   -0.000001   0.000062   0.000002   0.001579  -0.000008  -0.000001
     9  H    0.000000   0.000000   0.000000  -0.001369   0.000000   0.000000
    10  H    0.000000   0.000000   0.000001  -0.000104   0.000000   0.000000
    11  H   -0.000001   0.000012   0.000003   0.000016   0.000000   0.000000
    12  H    0.000000  -0.000006  -0.000001   0.000421   0.000000   0.000000
    13  H    0.000127  -0.000096  -0.000200   0.001367  -0.000003   0.000000
    14  O    0.000000   0.000001   0.000000  -0.000026   0.000001   0.000000
    15  C    0.000000   0.000021   0.000007  -0.000801  -0.000001  -0.000014
    16  O    0.000000   0.000000   0.000000  -0.000209   0.000000   0.000000
    17  H    0.000000   0.000000   0.000000  -0.000024   0.000000   0.000000
    18  O   -0.000002  -0.000008   0.000029  -0.000158   0.000001   0.000000
    19  C   -0.000038  -0.000079   0.000240   0.002494  -0.000021   0.000078
    20  H    0.000000   0.000000   0.000000  -0.000445   0.000000   0.000000
    21  H    0.000000   0.000000   0.000000   0.000034   0.000000   0.000000
    22  H    0.000000   0.000000   0.000000  -0.000530   0.000000   0.000000
    23  O    0.009462  -0.001842  -0.007588   0.042113  -0.002679  -0.000582
    24  Si  -0.026132  -0.022974  -0.043647  -0.218749   0.003958   0.012764
    25  C   -0.006942   0.007541  -0.007507   0.005976  -0.000031  -0.001402
    26  H    0.000084   0.000029   0.000140   0.000410   0.000001   0.000000
    27  H    0.000134   0.000001   0.000402  -0.000565  -0.000001   0.000000
    28  H    0.000027  -0.000018   0.000000  -0.003316   0.000000   0.000000
    29  C   -0.025199  -0.022457   0.020092  -0.356509  -0.064699  -0.162892
    30  C    0.396432   0.402733   0.394614   0.013604   0.000185   0.000739
    31  H    0.486432  -0.021374  -0.020940   0.007952   0.000054  -0.000001
    32  H   -0.021374   0.489583  -0.023089   0.011344   0.000061  -0.000003
    33  H   -0.020940  -0.023089   0.493846   0.001289   0.000006   0.000000
    34  C    0.007952   0.011344   0.001289   5.902558   0.417460   0.466034
    35  H    0.000054   0.000061   0.000006   0.417460   0.534697  -0.027616
    36  H   -0.000001  -0.000003   0.000000   0.466034  -0.027616   0.539411
    37  H    0.000011   0.000054  -0.000006   0.468043  -0.026250  -0.026709
    38  C    0.007318   0.004983  -0.001066   0.067974  -0.005503   0.012591
    39  H    0.000399   0.000014  -0.000007  -0.015428   0.002724  -0.000305
    40  H    0.000012   0.000009  -0.000005   0.006648   0.000025   0.000000
    41  H    0.000011  -0.000004   0.000000   0.013498  -0.000332   0.005292
    42  C   -0.000466  -0.003810  -0.000698  -0.284257   0.003237   0.011784
    43  H    0.000000   0.000000   0.000000   0.011289   0.000026   0.005369
    44  H    0.000001   0.000000  -0.000001  -0.000025  -0.000154   0.000031
    45  H    0.000000   0.000002   0.000000  -0.005668   0.000032  -0.000303
    46  H    0.000000   0.000000   0.000000  -0.000021   0.000000   0.000000
    47  H    0.000000   0.000000   0.000000   0.000010   0.000000   0.000000
             37         38         39         40         41         42
     1  H    0.000000   0.000158   0.000000   0.000000   0.000000  -0.001870
     2  C   -0.005499  -0.002066   0.000766  -0.000129  -0.000274   0.167243
     3  C   -0.008496   0.000147   0.000079  -0.000001   0.000023   0.018796
     4  C   -0.002059  -0.001298   0.000016  -0.000041   0.000013   0.070632
     5  C    0.005931   0.003122  -0.000031   0.000007  -0.000006  -0.022028
     6  C    0.004561  -0.005034  -0.000016   0.000059  -0.000030  -0.175401
     7  C    0.003802   0.005636  -0.000325  -0.000040   0.000068  -0.039141
     8  H    0.000950   0.000370   0.000000   0.000000   0.000000  -0.000362
     9  H    0.000198   0.000954   0.000000   0.000000   0.000000  -0.000698
    10  H    0.000000   0.000084   0.000000   0.000000   0.000000   0.000050
    11  H    0.000000   0.000024   0.000000   0.000000   0.000000  -0.000272
    12  H    0.000000   0.000017   0.000000   0.000000   0.000000  -0.000025
    13  H    0.000001  -0.000377   0.000000   0.000000   0.000000   0.000153
    14  O   -0.000036  -0.000055   0.000000   0.000000   0.000000  -0.000178
    15  C   -0.000121  -0.000298   0.000000   0.000000   0.000000  -0.003436
    16  O   -0.000020  -0.000036   0.000000   0.000000   0.000000   0.000319
    17  H    0.000000  -0.000006   0.000000   0.000000   0.000000   0.000172
    18  O   -0.000040  -0.000111   0.000000   0.000000   0.000000   0.004249
    19  C   -0.000375   0.001046  -0.000018   0.000081   0.000031   0.018256
    20  H    0.000002  -0.001977   0.000000   0.000002   0.000000   0.007392
    21  H    0.000000   0.000184   0.000000   0.000000   0.000000  -0.000464
    22  H   -0.000003  -0.000201   0.000000   0.000000   0.000000  -0.001754
    23  O    0.009534   0.008356   0.000737   0.000371  -0.000578   0.036993
    24  Si  -0.009974  -0.190256  -0.010229  -0.018188   0.011419  -0.168721
    25  C    0.000016   0.050036  -0.001246   0.004648   0.000890  -0.018024
    26  H    0.000000   0.008017   0.000028   0.000006   0.000015   0.010151
    27  H   -0.000001  -0.001253  -0.000005   0.000011   0.000000   0.001846
    28  H    0.000001  -0.000034   0.000022   0.000011  -0.000007   0.009202
    29  C   -0.105313  -0.498803  -0.080941  -0.083426  -0.160741  -0.482948
    30  C   -0.000343   0.031655   0.003000  -0.000098   0.000955  -0.014116
    31  H    0.000011   0.007318   0.000399   0.000012   0.000011  -0.000466
    32  H    0.000054   0.004983   0.000014   0.000009  -0.000004  -0.003810
    33  H   -0.000006  -0.001066  -0.000007  -0.000005   0.000000  -0.000698
    34  C    0.468043   0.067974  -0.015428   0.006648   0.013498  -0.284257
    35  H   -0.026250  -0.005503   0.002724   0.000025  -0.000332   0.003237
    36  H   -0.026709   0.012591  -0.000305   0.000000   0.005292   0.011784
    37  H    0.521024  -0.001404   0.000040  -0.000145   0.000026  -0.006681
    38  C   -0.001404   5.710731   0.446375   0.458026   0.460885  -0.032167
    39  H    0.000040   0.446375   0.532337  -0.027248  -0.027326   0.008908
    40  H   -0.000145   0.458026  -0.027248   0.529290  -0.027139  -0.015708
    41  H    0.000026   0.460885  -0.027326  -0.027139   0.535953   0.013970
    42  C   -0.006681  -0.032167   0.008908  -0.015708   0.013970   6.120407
    43  H   -0.000272   0.016012   0.000007  -0.000329   0.005427   0.471472
    44  H    0.000030  -0.002459   0.000022   0.002698  -0.000322   0.403280
    45  H    0.003182  -0.004396  -0.000147   0.000040   0.000035   0.463641
    46  H    0.000000   0.000000   0.000000   0.000000   0.000000  -0.000003
    47  H    0.000000   0.000000   0.000000   0.000000   0.000000   0.000002
             43         44         45         46         47
     1  H    0.000000   0.000001   0.000004   0.000001   0.000000
     2  C    0.001621  -0.004608   0.000267  -0.005283  -0.007484
     3  C    0.000429  -0.000277  -0.001861   0.079559  -0.027935
     4  C    0.001055  -0.000920  -0.001530  -0.043023   0.183994
     5  C   -0.000483   0.000210   0.001690  -0.139817  -0.241732
     6  C   -0.001725   0.003168  -0.000556   0.008792   0.004804
     7  C   -0.000072   0.000428  -0.000063   0.010134   0.001370
     8  H    0.000000   0.000000   0.000010   0.000026  -0.000132
     9  H   -0.000001  -0.000002   0.000476  -0.000098  -0.000075
    10  H    0.000000   0.000000   0.000001  -0.000134  -0.000135
    11  H    0.000000   0.000000   0.000000  -0.000091  -0.000065
    12  H    0.000000   0.000000   0.000000   0.000982   0.000188
    13  H    0.000000   0.000000   0.000000  -0.000014  -0.000001
    14  O    0.000000   0.000000  -0.000007  -0.035760  -0.025230
    15  C   -0.000010   0.000005   0.000022   0.451060   0.456911
    16  O    0.000000  -0.000001  -0.000011   0.001445  -0.005170
    17  H    0.000000   0.000000   0.000000   0.000010  -0.000426
    18  O    0.000000  -0.000032  -0.000142   0.000002  -0.000223
    19  C    0.000500  -0.000086  -0.002352  -0.000071   0.001097
    20  H    0.000023   0.000055  -0.000335   0.000000   0.000000
    21  H   -0.000001   0.000007   0.000026   0.000000   0.000000
    22  H    0.000002  -0.000061   0.000257   0.000000   0.000000
    23  O   -0.000569  -0.004987   0.008347  -0.000059  -0.000124
    24  Si  -0.000150   0.021494  -0.000064   0.000432  -0.000313
    25  C    0.002403  -0.004898  -0.001232  -0.000003   0.000000
    26  H   -0.000001   0.000057   0.000001   0.000000   0.000000
    27  H    0.000001  -0.000003  -0.000004   0.000000   0.000000
    28  H   -0.000016   0.000342   0.000017   0.000000   0.000000
    29  C   -0.162159  -0.059451  -0.103265   0.000008  -0.000001
    30  C   -0.001428   0.000449  -0.000810  -0.000003   0.000002
    31  H    0.000000   0.000001   0.000000   0.000000   0.000000
    32  H    0.000000   0.000000   0.000002   0.000000   0.000000
    33  H    0.000000  -0.000001   0.000000   0.000000   0.000000
    34  C    0.011289  -0.000025  -0.005668  -0.000021   0.000010
    35  H    0.000026  -0.000154   0.000032   0.000000   0.000000
    36  H    0.005369   0.000031  -0.000303   0.000000   0.000000
    37  H   -0.000272   0.000030   0.003182   0.000000   0.000000
    38  C    0.016012  -0.002459  -0.004396   0.000000   0.000000
    39  H    0.000007   0.000022  -0.000147   0.000000   0.000000
    40  H   -0.000329   0.002698   0.000040   0.000000   0.000000
    41  H    0.005427  -0.000322   0.000035   0.000000   0.000000
    42  C    0.471472   0.403280   0.463641  -0.000003   0.000002
    43  H    0.540985  -0.027703  -0.026633   0.000000   0.000000
    44  H   -0.027703   0.535230  -0.026644   0.000000   0.000000
    45  H   -0.026633  -0.026644   0.517543   0.000000   0.000000
    46  H    0.000000   0.000000   0.000000   0.541240  -0.034439
    47  H    0.000000   0.000000   0.000000  -0.034439   0.511036
 Mulliken atomic charges:
              1
     1  H    0.151160
     2  C    0.290838
     3  C   -0.097087
     4  C    0.143997
     5  C   -0.106800
     6  C   -0.631463
     7  C   -0.453979
     8  H    0.188959
     9  H    0.173263
    10  H    0.181125
    11  H    0.176011
    12  H    0.169717
    13  H    0.169650
    14  O   -0.336634
    15  C   -0.117846
    16  O   -0.528925
    17  H    0.387552
    18  O   -0.289752
    19  C   -0.162185
    20  H    0.157132
    21  H    0.168605
    22  H    0.156090
    23  O   -0.258720
    24  Si   0.440615
    25  C   -0.659127
    26  H    0.191408
    27  H    0.183490
    28  H    0.183262
    29  C    0.055080
    30  C   -0.686794
    31  H    0.190128
    32  H    0.189375
    33  H    0.188379
    34  C   -0.564475
    35  H    0.165009
    36  H    0.165139
    37  H    0.176341
    38  C   -0.545900
    39  H    0.167800
    40  H    0.170552
    41  H    0.168249
    42  C   -0.568925
    43  H    0.164929
    44  H    0.165124
    45  H    0.180431
    46  H    0.165128
    47  H    0.184072
 Sum of Mulliken atomic charges =   0.00000
 Mulliken charges with hydrogens summed into heavy atoms:
              1
     2  C    0.441998
     3  C    0.261589
     4  C    0.317260
     5  C   -0.106800
     6  C   -0.450338
     7  C   -0.108319
    14  O   -0.336634
    15  C    0.231355
    16  O   -0.141373
    18  O   -0.289752
    19  C    0.319642
    23  O   -0.258720
    24  Si   0.440615
    25  C   -0.100967
    29  C    0.055080
    30  C   -0.118912
    34  C   -0.057986
    38  C   -0.039299
    42  C   -0.058441
 Sum of Mulliken charges with hydrogens summed into heavy atoms =   0.00000
 Electronic spatial extent (au):  <R**2>=           6154.0423
 Charge=              0.0000 electrons
 Dipole moment (field-independent basis, Debye):
    X=             -3.8533    Y=              0.0359    Z=             -4.0076  Tot=              5.5597
 Quadrupole moment (field-independent basis, Debye-Ang):
   XX=           -133.3913   YY=           -124.7099   ZZ=           -129.3346
   XY=             -0.4097   XZ=            -12.8876   YZ=              7.0794
 Traceless Quadrupole moment (field-independent basis, Debye-Ang):
   XX=             -4.2460   YY=              4.4354   ZZ=             -0.1893
   XY=             -0.4097   XZ=            -12.8876   YZ=              7.0794
 Octapole moment (field-independent basis, Debye-Ang**2):
  XXX=             -9.2849  YYY=             21.9302  ZZZ=            -12.8560  XYY=              6.5439
  XXY=              0.7737  XXZ=            -57.7998  XZZ=            -11.0648  YZZ=              4.1009
  YYZ=              3.1912  XYZ=             16.1172
 Hexadecapole moment (field-independent basis, Debye-Ang**3):
 XXXX=          -5420.9963 YYYY=          -1616.9715 ZZZZ=          -1235.4632 XXXY=              1.5157
 XXXZ=           -170.1313 YYYX=             20.8449 YYYZ=             53.0259 ZZZX=            -26.9091
 ZZZY=             -1.9849 XXYY=          -1188.7428 XXZZ=          -1181.0344 YYZZ=           -522.0167
 XXYZ=             49.7610 YYXZ=            -13.1351 ZZXY=             14.5074
 N-N= 1.832585851625D+03 E-N=-6.335121581574D+03  KE= 1.131525212923D+03
 1\1\GINC-COMPUTE-8-30\SP\RmPW1PW91\6-31+G(d,p)\C14H28O4Si1\ELUCIANO.IQ
 UIR\06-Dec-2022\0\\# mPW1PW91/6-31+g** scrf=(PCM,solvent=chloroform) n
 mr\\comment\\0,1\H,0,-0.225555,0.552405,2.199634\C,0,-0.589307,0.11384
 3,1.25866\C,0,-1.822236,-1.882463,0.264617\C,0,-2.361129,0.462968,-0.5
 60785\C,0,-2.877709,-0.950291,-0.307541\C,0,-1.733033,1.003579,0.74010
 9\C,0,-1.167943,-1.290512,1.524924\H,0,-1.052981,-2.050278,-0.499395\H
 ,0,-1.59148,0.395914,-1.344894\H,0,-2.51602,0.965641,1.508897\H,0,-1.9
 08946,-1.217128,2.332704\H,0,-2.275075,-2.85564,0.481532\H,0,-0.372565
 ,-1.950721,1.884377\O,0,-3.706126,-1.509417,-1.330654\C,0,-4.31124,-1.
 181685,-0.067032\O,0,-3.404869,1.325993,-0.979875\H,0,-3.191549,2.1948
 65,-0.596563\O,0,-1.470404,2.405233,0.650998\C,0,-0.519509,2.866719,-0
 .308053\H,0,0.500712,2.578295,-0.045438\H,0,-0.60192,3.957176,-0.29829
 4\H,0,-0.738931,2.505274,-1.320436\O,0,0.471567,0.044349,0.304491\Si,0
 ,2.117155,-0.12775,0.64285\C,0,2.740022,1.396919,1.576142\H,0,3.780731
 ,1.261956,1.894818\H,0,2.146477,1.575387,2.481231\H,0,2.693881,2.30841
 2,0.969967\C,0,2.943668,-0.309317,-1.072227\C,0,2.437899,-1.641222,1.7
 33788\H,0,3.513371,-1.76946,1.908168\H,0,2.062279,-2.567,1.284416\H,0,
 1.96563,-1.531662,2.717661\C,0,2.443439,-1.596219,-1.763218\H,0,2.7038
 85,-2.496297,-1.193199\H,0,2.899973,-1.697884,-2.758383\H,0,1.355919,-
 1.586032,-1.898021\C,0,4.477492,-0.386402,-0.904064\H,0,4.785664,-1.24
 6884,-0.297112\H,0,4.886469,0.517758,-0.436474\H,0,4.962143,-0.492447,
 -1.885094\C,0,2.596117,0.902522,-1.962984\H,0,3.076294,0.801593,-2.947
 \H,0,2.945581,1.847066,-1.527693\H,0,1.516477,0.985836,-2.127328\H,0,-
 4.622199,-2.037464,0.534513\H,0,-4.998961,-0.340099,-0.096197\\Version
 =EM64L-G09RevC.01\State=1-A\HF=-1140.620276\RMSD=5.098e-09\Dipole=1.51
 60155,0.0141418,1.5767077\Quadrupole=-3.1568247,3.2975904,-0.1407657,0
 .3045892,-9.5816137,-5.2633541\PG=C01 [X(C14H28O4Si1)]\\@


 HE WHO LAUGHS LAST PROBABLY DIDN'T GET THE JOKE.
 Job cpu time:  0 days  1 hours  8 minutes  3.8 seconds.
 File lengths (MBytes):  RWF=    288 Int=      0 D2E=      0 Chk=     16 Scr=      1
 Normal termination of Gaussian 09 at Tue Dec  6 22:11:50 2022.
