 Entering Gaussian System, Link 0=g09
 Input=/home/eluciano.iquir/todos_optB3L_MPW_B_PCM/02_epoxido28_017_optB3L_nmr_MPW_B_PCM.gjc
 Output=/home/eluciano.iquir/todos_optB3L_MPW_B_PCM/02_epoxido28_017_optB3L_nmr_MPW_B_PCM.log
 Initial command:
 /share/apps/Gaussian09/EM64T.SSE4.2-enabled/g09/l1.exe /tmp/Gau-100812.inp -scrdir=/tmp/
 Entering Link 1 = /share/apps/Gaussian09/EM64T.SSE4.2-enabled/g09/l1.exe PID=    100813.
  
 Copyright (c) 1988,1990,1992,1993,1995,1998,2003,2009,2011,
            Gaussian, Inc.  All Rights Reserved.
  
 This is part of the Gaussian(R) 09 program.  It is based on
 the Gaussian(R) 03 system (copyright 2003, Gaussian, Inc.),
 the Gaussian(R) 98 system (copyright 1998, Gaussian, Inc.),
 the Gaussian(R) 94 system (copyright 1995, Gaussian, Inc.),
 the Gaussian 92(TM) system (copyright 1992, Gaussian, Inc.),
 the Gaussian 90(TM) system (copyright 1990, Gaussian, Inc.),
 the Gaussian 88(TM) system (copyright 1988, Gaussian, Inc.),
 the Gaussian 86(TM) system (copyright 1986, Carnegie Mellon
 University), and the Gaussian 82(TM) system (copyright 1983,
 Carnegie Mellon University). Gaussian is a federally registered
 trademark of Gaussian, Inc.
  
 This software contains proprietary and confidential information,
 including trade secrets, belonging to Gaussian, Inc.
  
 This software is provided under written license and may be
 used, copied, transmitted, or stored only in accord with that
 written license.
  
 The following legend is applicable only to US Government
 contracts under FAR:
  
                    RESTRICTED RIGHTS LEGEND
  
 Use, reproduction and disclosure by the US Government is
 subject to restrictions as set forth in subparagraphs (a)
 and (c) of the Commercial Computer Software - Restricted
 Rights clause in FAR 52.227-19.
  
 Gaussian, Inc.
 340 Quinnipiac St., Bldg. 40, Wallingford CT 06492
  
  
 ---------------------------------------------------------------
 Warning -- This program may not be used in any manner that
 competes with the business of Gaussian, Inc. or will provide
 assistance to any competitor of Gaussian, Inc.  The licensee
 of this program is prohibited from giving any competitor of
 Gaussian, Inc. access to this program.  By using this program,
 the user acknowledges that Gaussian, Inc. is engaged in the
 business of creating and licensing software in the field of
 computational chemistry and represents and warrants to the
 licensee that it is not a competitor of Gaussian, Inc. and that
 it will not use this program in any manner prohibited above.
 ---------------------------------------------------------------
  

 Cite this work as:
 Gaussian 09, Revision C.01,
 M. J. Frisch, G. W. Trucks, H. B. Schlegel, G. E. Scuseria, 
 M. A. Robb, J. R. Cheeseman, G. Scalmani, V. Barone, B. Mennucci, 
 G. A. Petersson, H. Nakatsuji, M. Caricato, X. Li, H. P. Hratchian, 
 A. F. Izmaylov, J. Bloino, G. Zheng, J. L. Sonnenberg, M. Hada, 
 M. Ehara, K. Toyota, R. Fukuda, J. Hasegawa, M. Ishida, T. Nakajima, 
 Y. Honda, O. Kitao, H. Nakai, T. Vreven, J. A. Montgomery, Jr., 
 J. E. Peralta, F. Ogliaro, M. Bearpark, J. J. Heyd, E. Brothers, 
 K. N. Kudin, V. N. Staroverov, T. Keith, R. Kobayashi, J. Normand, 
 K. Raghavachari, A. Rendell, J. C. Burant, S. S. Iyengar, J. Tomasi, 
 M. Cossi, N. Rega, J. M. Millam, M. Klene, J. E. Knox, J. B. Cross, 
 V. Bakken, C. Adamo, J. Jaramillo, R. Gomperts, R. E. Stratmann, 
 O. Yazyev, A. J. Austin, R. Cammi, C. Pomelli, J. W. Ochterski, 
 R. L. Martin, K. Morokuma, V. G. Zakrzewski, G. A. Voth, 
 P. Salvador, J. J. Dannenberg, S. Dapprich, A. D. Daniels, 
 O. Farkas, J. B. Foresman, J. V. Ortiz, J. Cioslowski, 
 and D. J. Fox, Gaussian, Inc., Wallingford CT, 2010.
 
 ******************************************
 Gaussian 09:  EM64L-G09RevC.01 23-Sep-2011
                 6-Dec-2022 
 ******************************************
 %nprocshared=4
 Will use up to    4 processors via shared memory.
 %mem=80MW
 -----------------------------------------------------
 # mPW1PW91/6-31+g** scrf=(PCM,solvent=chloroform) nmr
 -----------------------------------------------------
 1/38=1/1;
 2/12=2,17=6,18=5,40=1/2;
 3/5=1,6=6,7=111,11=2,16=1,25=1,30=1,70=2201,72=7,74=-7/1,2,8,3;
 4//1;
 5/5=2,38=5,53=7/2;
 8/6=1,10=90,11=11/1;
 10/13=100,45=16/2;
 6/7=2,8=2,9=2,10=2,28=1/1;
 99/9=1/99;
 -------
 comment
 -------
 Charge =  0 Multiplicity = 1
 Symbolic Z-Matrix:
 1                    -0.73898  -1.39383   1.4477 
 6                    -0.52665  -0.74064   0.59274 
 6                    -2.48556  -1.82172  -0.59346 
 6                    -2.84855   0.18749   0.95489 
 6                    -3.32869  -0.60628  -0.25517 
 6                    -1.34777   0.5391    0.83145 
 6                    -0.99308  -1.45701  -0.68545 
 1                    -2.83875  -2.25587  -1.53493 
 1                    -3.43821   1.11316   1.01995 
 1                    -1.02586   1.00649   1.7752 
 1                    -0.39007  -2.36136  -0.82287 
 1                    -2.6342   -2.57264   0.19393 
 1                    -0.82756  -0.80994  -1.55192 
 8                    -3.7462    0.21367  -1.36393 
 6                    -4.74601  -0.52352  -0.64955 
 8                    -2.97858  -0.57189   2.15842 
 1                    -3.91758  -0.78833   2.27014 
 8                    -1.09774   1.41553  -0.25651 
 6                    -1.63447   2.7221   -0.13864 
 1                    -2.7123    2.74061  -0.3429 
 1                    -1.12857   3.33714  -0.88766 
 1                    -1.44473   3.1474    0.8586 
 8                     0.86868  -0.52206   0.61722 
 14                    1.99781   0.42162  -0.18775 
 6                     1.64114   0.6127   -2.03414 
 1                     2.41413   1.22596  -2.51399 
 1                     0.67759   1.10973  -2.18238 
 1                     1.60941  -0.34973  -2.55697 
 6                     3.63349  -0.54404   0.09361 
 6                     2.12098   2.13691   0.60215 
 1                     3.00061   2.68022   0.23503 
 1                     2.20363   2.07165   1.69315 
 1                     1.2378    2.73949   0.36771 
 6                     3.93224  -0.63859   1.60532 
 1                     4.07476   0.35116   2.05632 
 1                     4.85458  -1.21252   1.78032 
 1                     3.1204   -1.1389    2.14478 
 6                     4.80682   0.1745   -0.60733 
 1                     4.9521    1.19464  -0.23041 
 1                     4.66272   0.2363   -1.69324 
 1                     5.74694  -0.37025  -0.43569 
 6                     3.50867  -1.97242  -0.47745 
 1                     4.43623  -2.53841  -0.30483 
 1                     3.3289   -1.96775  -1.56 
 1                     2.68883  -2.52313  -0.0033 
 1                    -5.19944  -1.34966  -1.1982 
 1                    -5.44631   0.08217  -0.07035 
 
                          Input orientation:                          
 ---------------------------------------------------------------------
 Center     Atomic      Atomic             Coordinates (Angstroms)
 Number     Number       Type             X           Y           Z
 ---------------------------------------------------------------------
      1          1           0       -0.738980   -1.393828    1.447699
      2          6           0       -0.526653   -0.740640    0.592737
      3          6           0       -2.485559   -1.821719   -0.593456
      4          6           0       -2.848550    0.187493    0.954889
      5          6           0       -3.328693   -0.606279   -0.255174
      6          6           0       -1.347768    0.539096    0.831452
      7          6           0       -0.993078   -1.457012   -0.685450
      8          1           0       -2.838746   -2.255868   -1.534929
      9          1           0       -3.438213    1.113158    1.019952
     10          1           0       -1.025859    1.006495    1.775204
     11          1           0       -0.390074   -2.361358   -0.822869
     12          1           0       -2.634202   -2.572643    0.193932
     13          1           0       -0.827556   -0.809936   -1.551917
     14          8           0       -3.746202    0.213665   -1.363928
     15          6           0       -4.746014   -0.523516   -0.649548
     16          8           0       -2.978584   -0.571888    2.158416
     17          1           0       -3.917576   -0.788328    2.270135
     18          8           0       -1.097736    1.415532   -0.256506
     19          6           0       -1.634466    2.722097   -0.138644
     20          1           0       -2.712301    2.740614   -0.342897
     21          1           0       -1.128570    3.337143   -0.887661
     22          1           0       -1.444734    3.147400    0.858602
     23          8           0        0.868684   -0.522061    0.617215
     24         14           0        1.997807    0.421620   -0.187754
     25          6           0        1.641141    0.612704   -2.034142
     26          1           0        2.414127    1.225960   -2.513993
     27          1           0        0.677586    1.109727   -2.182376
     28          1           0        1.609410   -0.349728   -2.556965
     29          6           0        3.633485   -0.544035    0.093607
     30          6           0        2.120983    2.136910    0.602153
     31          1           0        3.000610    2.680217    0.235032
     32          1           0        2.203632    2.071646    1.693148
     33          1           0        1.237796    2.739492    0.367707
     34          6           0        3.932236   -0.638588    1.605319
     35          1           0        4.074762    0.351164    2.056322
     36          1           0        4.854578   -1.212515    1.780317
     37          1           0        3.120404   -1.138898    2.144777
     38          6           0        4.806820    0.174496   -0.607330
     39          1           0        4.952100    1.194645   -0.230406
     40          1           0        4.662715    0.236295   -1.693241
     41          1           0        5.746939   -0.370252   -0.435688
     42          6           0        3.508674   -1.972421   -0.477452
     43          1           0        4.436229   -2.538409   -0.304831
     44          1           0        3.328899   -1.967745   -1.560000
     45          1           0        2.688826   -2.523134   -0.003299
     46          1           0       -5.199438   -1.349658   -1.198196
     47          1           0       -5.446313    0.082168   -0.070348
 ---------------------------------------------------------------------
                    Distance matrix (angstroms):
                    1          2          3          4          5
     1  H    0.000000
     2  C    1.096676   0.000000
     3  C    2.720284   2.532410   0.000000
     4  C    2.682112   2.526616   2.562434   0.000000
     5  C    3.197909   2.930603   1.517433   1.524750   0.000000
     6  C    2.118154   1.539136   2.983015   1.546353   2.533121
     7  C    2.149159   1.537694   1.539147   2.972858   2.522693
     8  H    3.748093   3.488360   1.095262   3.488453   2.144520
     9  H    3.708612   3.477968   3.481973   1.099450   2.143456
    10  H    2.439490   2.167929   3.967376   2.160066   3.467927
    11  H    2.492655   2.156228   2.175982   3.962470   3.469591
    12  H    2.559962   2.820823   1.098163   2.871124   2.133214
    13  H    3.057200   2.166768   2.165947   3.370958   2.824660
    14  O    4.419577   3.886481   2.515082   2.486640   1.440818
    15  C    4.605671   4.403796   2.607323   2.584593   1.473492
    16  O    2.489283   2.914068   3.062344   1.429002   2.439093
    17  H    3.338638   3.783424   3.364331   1.955739   2.599444
    18  O    3.305378   2.386719   3.538274   2.457826   3.010796
    19  C    4.501024   3.708465   4.645156   3.015631   3.736585
    20  H    4.918723   4.215637   4.574831   2.867270   3.404310
    21  H    5.290347   4.379748   5.342456   4.034057   4.559732
    22  H    4.633344   4.003800   5.280524   3.277350   4.345101
    23  O    2.008548   1.412566   3.795495   3.799384   4.287905
    24  Si   3.668864   2.886679   5.029685   4.984739   5.425193
    25  C    4.670585   3.664883   5.003163   5.410401   5.417554
    26  H    5.700910   4.708235   6.081425   6.388061   6.437340
    27  H    4.631619   3.546167   4.596034   4.809011   4.765402
    28  H    4.758405   3.825729   4.773981   5.700450   5.454257
    29  C    4.655552   4.194584   6.288659   6.579796   6.971187
    30  C    4.621736   3.910289   6.190352   5.349851   6.161093
    31  H    5.661531   4.926642   7.145059   6.398792   7.148527
    32  H    4.552880   4.071156   6.509636   5.442389   6.447780
    33  H    4.707267   3.908355   5.965891   4.853422   5.695172
    34  C    4.734500   4.573557   6.886400   6.861817   7.495570
    35  H    5.156310   4.950468   7.401389   7.012289   7.814785
    36  H    5.606371   5.530882   7.738446   7.872708   8.454388
    37  H    3.930108   3.983524   6.276224   6.229250   6.901761
    38  C    6.118716   5.542885   7.560678   7.813155   8.180476
    39  H    6.473378   5.868529   8.034241   7.954208   8.474401
    40  H    6.457640   5.754097   7.519493   7.964551   8.163368
    41  H    6.830959   6.368108   8.360961   8.725091   9.080495
    42  C    4.699313   4.352752   5.997249   6.865211   6.976055
    43  H    5.582492   5.354232   6.964776   7.879432   8.001850
    44  H    5.091490   4.583159   5.896054   7.009322   6.919515
    45  H    3.889805   3.724493   5.254953   6.239243   6.320467
    46  H    5.186366   5.041157   2.820229   3.539108   2.222969
    47  H    5.161590   5.031873   3.558721   2.794741   2.234376
                    6          7          8          9         10
     6  C    0.000000
     7  C    2.532043   0.000000
     8  H    3.954061   2.183180   0.000000
     9  H    2.176015   3.936096   4.270493   0.000000
    10  H    1.101252   3.482063   4.988642   2.530066   0.000000
    11  H    3.473700   1.095600   2.552284   4.975882   4.300772
    12  H    3.426990   2.170538   1.769504   3.861848   4.230534
    13  H    2.787643   1.094016   2.477074   4.138639   3.795850
    14  O    3.267734   3.291077   2.636534   2.566482   4.228829
    15  C    3.856239   3.867458   2.724448   2.678857   4.696798
    16  O    2.377957   3.579560   4.061544   2.084883   2.539937
    17  H    3.230445   4.211331   4.218538   2.325596   3.439240
    18  O    1.419263   2.906279   4.259655   2.683022   2.073722
    19  C    2.405987   4.263253   5.308487   2.680398   2.641308
    20  H    2.843893   4.548971   5.138264   2.243417   3.215215
    21  H    3.291271   4.800330   5.884338   3.730891   3.540243
    22  H    2.610247   4.877366   6.071867   2.852741   2.366240
    23  O    2.466700   2.457077   4.624159   4.624446   2.695685
    24  Si   3.499350   3.566841   5.689997   5.611336   3.652101
    25  C    4.141331   3.611344   5.342968   5.947922   4.666806
    26  H    5.080909   4.706480   6.377646   6.837498   5.502625
    27  H    3.675709   3.408820   4.910296   5.214855   4.309852
    28  H    4.584352   3.391399   4.946112   6.357112   5.248969
    29  C    5.150774   4.779701   6.890013   7.322111   5.190510
    30  C    3.825941   4.926619   6.961503   5.668094   3.543515
    31  H    4.883493   5.823529   7.848298   6.673096   4.624492
    32  H    3.962786   5.322416   7.387383   5.762144   3.401601
    33  H    3.426652   4.867914   6.722488   4.993540   3.179381
    34  C    5.464819   5.493283   7.636946   7.598341   5.226650
    35  H    5.562325   6.039024   8.215248   7.622302   5.150225
    36  H    6.514413   6.350974   8.441959   8.646230   6.285187
    37  H    4.950257   5.003211   7.092202   7.025129   4.683032
    38  C    6.331033   6.025507   8.076001   8.456341   6.355221
    39  H    6.422276   6.525603   8.620041   8.483359   6.308238
    40  H    6.526229   5.989234   7.906191   8.588093   6.706951
    41  H    7.264119   6.831637   8.858773   9.417346   7.256326
    42  C    5.621919   4.535932   6.441144   7.747403   5.874554
    43  H    6.649571   5.549024   7.383646   8.780423   6.835737
    44  H    5.820181   4.439051   6.174422   7.870319   6.239680
    45  H    5.134993   3.893374   5.742071   7.197935   5.424043
    46  H    4.745759   4.238856   2.550975   3.753339   5.640153
    47  H    4.221386   4.751708   3.796158   2.506823   4.878612
                   11         12         13         14         15
    11  H    0.000000
    12  H    2.472779   0.000000
    13  H    1.769127   3.069054   0.000000
    14  O    4.264632   3.380382   3.098644   0.000000
    15  C    4.730953   3.061067   4.031206   1.432968   0.000000
    16  O    4.334818   2.825034   4.295365   3.689612   3.318254
    17  H    4.948168   3.023483   4.914954   3.773562   3.046471
    18  O    3.884128   4.297576   2.589169   3.112112   4.150219
    19  C    5.278086   5.398551   3.888920   3.500426   4.525125
    20  H    5.626120   5.340879   4.197666   2.914949   3.858052
    21  H    5.746520   6.193734   4.210714   4.103041   5.295969
    22  H    5.855431   5.880095   4.674614   4.340875   5.162227
    23  O    2.653550   4.080964   2.768616   5.075765   5.755825
    24  Si   3.721601   5.528725   3.370511   5.866879   6.825369
    25  C    3.799745   5.778348   2.889794   5.443518   6.633539
    26  H    4.857190   6.873708   3.947021   6.347995   7.602923
    27  H    3.877704   5.493144   2.519531   4.587231   5.867920
    28  H    3.324407   5.524222   2.675951   5.515735   6.637760
    29  C    4.509060   6.588567   4.762283   7.560311   8.412414
    30  C    5.345139   6.705096   4.692313   6.479831   7.469958
    31  H    6.167120   7.703592   5.479891   7.359349   8.429506
    32  H    5.719194   6.871805   5.293587   6.942502   7.779503
    33  H    5.485080   6.575815   4.533109   5.849666   6.891155
    34  C    5.248466   6.989327   5.714291   8.276544   8.967145
    35  H    5.965088   7.551645   6.196795   8.537242   9.267842
    36  H    5.966808   7.774856   6.599432   9.267884   9.927252
    37  H    4.756552   6.243149   5.418501   7.828839   8.370632
    38  C    5.786598   7.972302   5.797201   8.586510   9.578394
    39  H    6.444765   8.480831   6.258527   8.826531   9.858051
    40  H    5.747697   8.043417   5.590854   8.415393   9.496883
    41  H    6.463539   8.688525   6.683059   9.556271  10.496251
    42  C    3.933296   6.208538   4.616139   7.628764   8.382650
    43  H    4.857253   7.088084   5.678933   8.697573   9.407030
    44  H    3.811700   6.245058   4.314708   7.406352   8.253420
    45  H    3.190218   5.326911   4.206924   7.123971   7.726122
    46  H    4.928934   3.164514   4.419250   2.140874   1.090467
    47  H    5.665921   3.876317   4.931918   2.140331   1.092128
                   16         17         18         19         20
    16  O    0.000000
    17  H    0.970069   0.000000
    18  O    3.649558   4.380914   0.000000
    19  C    4.234793   4.830931   1.417421   0.000000
    20  H    4.159344   4.553466   2.090485   1.097174   0.000000
    21  H    5.289769   5.896587   2.022844   1.093270   1.777869
    22  H    4.227921   4.857708   2.088837   1.100627   1.793265
    23  O    4.144786   5.070634   2.895594   4.166731   4.938655
    24  Si   5.590710   6.518968   3.251919   4.299769   5.252325
    25  C    6.350013   7.168614   3.362435   4.332673   5.132326
    26  H    7.358328   8.187533   4.179159   4.926643   5.769584
    27  H    5.919281   6.674053   2.637093   3.481690   4.187459
    28  H    6.582846   7.351247   3.966975   5.080071   5.755823
    29  C    6.927025   7.862282   5.132926   6.202650   7.158803
    30  C    5.980395   6.913999   3.408494   3.872289   4.961674
    31  H    7.072931   8.002109   4.317115   4.650303   5.742386
    32  H    5.836104   6.780970   3.889816   4.302272   5.362779
    33  H    5.652410   6.530131   2.756306   2.916605   4.013505
    34  C    6.933239   7.879337   5.743381   6.732294   7.704831
    35  H    7.114221   8.075991   5.765136   6.560067   7.584850
    36  H    7.868404   8.796053   6.818014   7.827597   8.797325
    37  H    6.125303   7.047821   5.484886   6.536825   7.433679
    38  C    8.295719   9.236987   6.043760   6.942629   7.949344
    39  H    8.468935   9.426348   6.053923   6.761981   7.819573
    40  H    8.595224   9.506818   6.052900   6.946256   7.904803
    41  H    9.105206  10.044855   7.076066   8.008495   9.013592
    42  C    7.140995   8.006279   5.722417   6.971741   7.805853
    43  H    8.056938   8.915116   6.801526   8.034543   8.886564
    44  H    7.453816   8.280843   5.721954   6.974945   7.755390
    45  H    6.371806   7.198792   5.469484   6.798648   7.549473
    46  H    4.099264   3.739998   5.035575   5.514605   4.862891
    47  H    3.388933   2.927911   4.552212   4.637248   3.823145
                   21         22         23         24         25
    21  H    0.000000
    22  H    1.784768   0.000000
    23  O    4.598601   4.344550   0.000000
    24  Si   4.331787   4.513959   1.677328   0.000000
    25  C    4.050714   4.931052   2.985645   1.890204   0.000000
    26  H    4.433142   5.473311   3.904924   2.496332   1.097200
    27  H    3.146406   4.231300   3.246068   2.488974   1.094278
    28  H    4.886321   5.764009   3.264015   2.521704   1.095731
    29  C    6.221222   6.324573   2.814031   1.920181   3.136048
    30  C    3.770902   3.714996   2.939151   1.892444   3.082775
    31  H    4.329217   4.513112   3.865974   2.507114   3.357368
    32  H    4.400639   3.894135   3.109185   2.510526   4.041980
    33  H    2.744599   2.757414   3.291842   2.501736   3.233387
    34  C    6.901677   6.618391   3.221068   2.842739   4.478898
    35  H    6.682647   6.302246   3.621117   3.058526   4.766845
    36  H    7.975936   7.716200   4.209143   3.834689   5.311092
    37  H    6.876366   6.392737   2.790014   3.022605   4.766518
    38  C    6.731254   7.075948   4.182537   2.850907   3.499906
    39  H    6.480496   6.776332   4.509970   3.054052   3.815045
    40  H    6.618399   7.231001   4.506438   3.066361   3.063953
    41  H    7.824428   8.109823   4.992897   3.839860   4.514292
    42  C    7.061429   7.248024   3.204900   2.845712   3.548779
    43  H    8.113494   8.262429   4.200382   3.836845   4.553301
    44  H    6.961530   7.402832   3.589279   3.060054   3.119624
    45  H    7.049642   7.069947   2.775292   3.030364   3.880135
    46  H    6.215666   6.209006   6.387702   7.480558   7.165416
    47  H    5.468617   5.125547   6.380989   7.452780   7.373599
                   26         27         28         29         30
    26  H    0.000000
    27  H    1.771738   0.000000
    28  H    1.769805   1.771616   0.000000
    29  C    3.379245   4.080731   3.340684   0.000000
    30  C    3.259774   3.300318   4.052789   3.119895   0.000000
    31  H    3.164801   3.702262   4.348707   3.288819   1.097134
    32  H    4.296455   4.274785   4.927435   3.383016   1.096066
    33  H    3.461030   3.077806   4.270256   4.073820   1.094573
    34  C    4.769688   5.291123   4.775308   1.543848   3.462711
    35  H    4.940724   5.484777   5.277464   2.201898   3.020058
    36  H    5.508453   6.208301   5.485210   2.186990   4.480989
    37  H    5.272146   5.454166   5.001227   2.196455   3.756255
    38  C    3.235107   4.517300   3.781444   1.544123   3.539440
    39  H    3.414243   4.699880   4.355633   2.206068   3.097780
    40  H    2.590216   4.108940   3.226781   2.204780   3.916832
    41  H    4.239679   5.562337   4.649665   2.185644   4.528856
    42  C    3.946539   4.519011   3.250340   1.543364   4.469657
    43  H    4.810381   5.564303   4.225321   2.186476   5.295431
    44  H    3.456394   4.109458   2.562920   2.203211   4.793971
    45  H    4.520481   4.689471   3.522789   2.195132   4.733395
    46  H    8.144415   6.446441   7.014736   8.963164   8.305780
    47  H    8.310606   6.558863   7.493532   9.102843   7.870082
                   31         32         33         34         35
    31  H    0.000000
    32  H    1.769643   0.000000
    33  H    1.768793   1.770777   0.000000
    34  C    3.709458   3.215766   4.494788   0.000000
    35  H    3.145694   2.567700   4.074789   1.096962   0.000000
    36  H    4.580225   4.221472   5.540301   1.100332   1.769006
    37  H    4.271664   3.369278   4.663057   1.095626   1.771696
    38  C    3.201657   3.958278   4.501981   2.514323   2.768061
    39  H    2.496371   3.467458   4.066982   2.787607   2.590426
    40  H    3.528964   4.569818   4.716309   3.489917   3.797118
    41  H    4.159032   4.801024   5.536093   2.744241   3.086540
    42  C    4.734216   4.771700   5.298425   2.509273   3.484180
    43  H    5.439348   5.498092   6.207940   2.740803   3.749044
    44  H    4.993342   5.307153   5.499713   3.485673   4.360210
    45  H    5.218129   4.921925   5.471596   2.772225   3.797953
    46  H    9.248504   8.652782   7.785318   9.578768   9.974742
    47  H    8.842716   8.098741   7.206287   9.554294   9.759403
                   36         37         38         39         40
    36  H    0.000000
    37  H    1.773587   0.000000
    38  C    2.761691   3.484694   0.000000
    39  H    3.137983   3.800267   1.097216   0.000000
    40  H    3.768483   4.358929   1.097173   1.772587   0.000000
    41  H    2.533060   3.761423   1.100016   1.767148   1.767733
    42  C    2.736135   2.778777   2.512231   3.489243   2.772793
    43  H    2.506163   3.112974   2.754759   3.769264   3.110942
    44  H    3.749105   3.802082   2.771467   3.795170   2.579653
    45  H    3.096690   2.591640   3.482522   4.358425   3.790329
    46  H   10.486829   8.968816  10.138904  10.510177  10.001119
    47  H   10.545592   8.932325  10.267600  10.458978  10.239628
                   41         42         43         44         45
    41  H    0.000000
    42  C    2.752911   0.000000
    43  H    2.536925   1.100227   0.000000
    44  H    3.108533   1.097384   1.768414   0.000000
    45  H    3.764826   1.095562   1.773294   1.772419   0.000000
    46  H   11.016525   8.760053   9.749734   8.558356   8.064089
    47  H   11.208347   9.196677  10.226781   9.133759   8.542399
                   46         47
    46  H    0.000000
    47  H    1.839324   0.000000
 Stoichiometry    C14H28O4Si
 Framework group  C1[X(C14H28O4Si)]
 Deg. of freedom   135
 Full point group                 C1      NOp   1
 Largest Abelian subgroup         C1      NOp   1
 Largest concise Abelian subgroup C1      NOp   1
                         Standard orientation:                         
 ---------------------------------------------------------------------
 Center     Atomic      Atomic             Coordinates (Angstroms)
 Number     Number       Type             X           Y           Z
 ---------------------------------------------------------------------
      1          1           0       -0.738980   -1.393828    1.447699
      2          6           0       -0.526653   -0.740640    0.592737
      3          6           0       -2.485559   -1.821719   -0.593456
      4          6           0       -2.848550    0.187493    0.954889
      5          6           0       -3.328693   -0.606279   -0.255174
      6          6           0       -1.347768    0.539096    0.831452
      7          6           0       -0.993078   -1.457012   -0.685450
      8          1           0       -2.838746   -2.255868   -1.534929
      9          1           0       -3.438213    1.113158    1.019952
     10          1           0       -1.025859    1.006495    1.775204
     11          1           0       -0.390074   -2.361358   -0.822869
     12          1           0       -2.634202   -2.572643    0.193932
     13          1           0       -0.827556   -0.809936   -1.551917
     14          8           0       -3.746202    0.213665   -1.363928
     15          6           0       -4.746014   -0.523516   -0.649548
     16          8           0       -2.978584   -0.571888    2.158416
     17          1           0       -3.917576   -0.788328    2.270135
     18          8           0       -1.097736    1.415532   -0.256506
     19          6           0       -1.634466    2.722097   -0.138644
     20          1           0       -2.712301    2.740614   -0.342897
     21          1           0       -1.128570    3.337143   -0.887661
     22          1           0       -1.444734    3.147400    0.858602
     23          8           0        0.868684   -0.522061    0.617215
     24         14           0        1.997807    0.421620   -0.187754
     25          6           0        1.641141    0.612704   -2.034142
     26          1           0        2.414127    1.225960   -2.513993
     27          1           0        0.677586    1.109727   -2.182376
     28          1           0        1.609410   -0.349728   -2.556965
     29          6           0        3.633485   -0.544035    0.093607
     30          6           0        2.120983    2.136910    0.602153
     31          1           0        3.000610    2.680217    0.235032
     32          1           0        2.203632    2.071646    1.693148
     33          1           0        1.237796    2.739492    0.367707
     34          6           0        3.932236   -0.638588    1.605319
     35          1           0        4.074762    0.351164    2.056322
     36          1           0        4.854578   -1.212515    1.780317
     37          1           0        3.120404   -1.138898    2.144777
     38          6           0        4.806820    0.174496   -0.607330
     39          1           0        4.952100    1.194645   -0.230406
     40          1           0        4.662715    0.236295   -1.693241
     41          1           0        5.746939   -0.370252   -0.435688
     42          6           0        3.508674   -1.972421   -0.477452
     43          1           0        4.436229   -2.538409   -0.304831
     44          1           0        3.328899   -1.967745   -1.560000
     45          1           0        2.688826   -2.523134   -0.003299
     46          1           0       -5.199438   -1.349658   -1.198196
     47          1           0       -5.446313    0.082168   -0.070348
 ---------------------------------------------------------------------
 Rotational constants (GHZ):      0.6883416      0.1932034      0.1841097
 Standard basis: 6-31+G(d,p) (6D, 7F)
 There are   505 symmetry adapted basis functions of A   symmetry.
 Integral buffers will be    131072 words long.
 Raffenetti 2 integral format.
 Two-electron integral symmetry is turned on.
   505 basis functions,   828 primitive gaussians,   505 cartesian basis functions
    79 alpha electrons       79 beta electrons
       nuclear repulsion energy      1828.2803329563 Hartrees.
 NAtoms=   47 NActive=   47 NUniq=   47 SFac= 1.00D+00 NAtFMM=   60 NAOKFM=F Big=F
 ------------------------------------------------------------------------------
 Polarizable Continuum Model (PCM)
 =================================
 Model                : PCM.
 Atomic radii         : UFF (Universal Force Field).
 Polarization charges : Total charges.
 Charge compensation  : None.
 Solution method      : Matrix inversion.
 Cavity type          : Scaled VdW (van der Waals Surface) (Alpha=1.100).
 Cavity algorithm     : GePol (No added spheres)
                        Default sphere list used, NSphG=   47.
                        Lebedev-Laikov grids with approx.  5.0 points / Ang**2.
                        Smoothing algorithm: Karplus/York (Gamma=1.0000).
                        Polarization charges: spherical gaussians, with
                                              point-specific exponents (IZeta= 3).
                        Self-potential: point-specific (ISelfS= 7).
                        Self-field    : sphere-specific E.n sum rule (ISelfD= 2).
 Solvent              : Chloroform, Eps=   4.711300 Eps(inf)=   2.090627
 ------------------------------------------------------------------------------
 One-electron integrals computed using PRISM.
 NBasis=   505 RedAO= T  NBF=   505
 NBsUse=   505 1.00D-06 NBFU=   505
 Harris functional with IExCor=  908 diagonalized for initial guess.
 ExpMin= 3.31D-02 ExpMax= 1.61D+04 ExpMxC= 2.43D+03 IAcc=3 IRadAn=         5 AccDes= 0.00D+00
 HarFok:  IExCor=  908 AccDes= 0.00D+00 IRadAn=         5 IDoV= 1
 ScaDFX=  1.000000  1.000000  1.000000  1.000000
 FoFCou: FMM=F IPFlag=           0 FMFlag=      100000 FMFlg1=           0
         NFxFlg=           0 DoJE=T BraDBF=F KetDBF=T FulRan=T
         Omega=  0.000000  0.000000  1.000000  0.000000  0.000000 ICntrl=     500 IOpCl=  0
         NMat0=    1 NMatS0=    1 NMatT0=    0 NMatD0=    1 NMtDS0=    0 NMtDT0=    0
         I1Cent=           4 NGrid=           0.
 Petite list used in FoFCou.
 Initial guess orbital symmetries:
       Occupied  (A) (A) (A) (A) (A) (A) (A) (A) (A) (A) (A) (A)
                 (A) (A) (A) (A) (A) (A) (A) (A) (A) (A) (A) (A)
                 (A) (A) (A) (A) (A) (A) (A) (A) (A) (A) (A) (A)
                 (A) (A) (A) (A) (A) (A) (A) (A) (A) (A) (A) (A)
                 (A) (A) (A) (A) (A) (A) (A) (A) (A) (A) (A) (A)
                 (A) (A) (A) (A) (A) (A) (A) (A) (A) (A) (A) (A)
                 (A) (A) (A) (A) (A) (A) (A)
       Virtual   (A) (A) (A) (A) (A) (A) (A) (A) (A) (A) (A) (A)
                 (A) (A) (A) (A) (A) (A) (A) (A) (A) (A) (A) (A)
                 (A) (A) (A) (A) (A) (A) (A) (A) (A) (A) (A) (A)
                 (A) (A) (A) (A) (A) (A) (A) (A) (A) (A) (A) (A)
                 (A) (A) (A) (A) (A) (A) (A) (A) (A) (A) (A) (A)
                 (A) (A) (A) (A) (A) (A) (A) (A) (A) (A) (A) (A)
                 (A) (A) (A) (A) (A) (A) (A) (A) (A) (A) (A) (A)
                 (A) (A) (A) (A) (A) (A) (A) (A) (A) (A) (A) (A)
                 (A) (A) (A) (A) (A) (A) (A) (A) (A) (A) (A) (A)
                 (A) (A) (A) (A) (A) (A) (A) (A) (A) (A) (A) (A)
                 (A) (A) (A) (A) (A) (A) (A) (A) (A) (A) (A) (A)
                 (A) (A) (A) (A) (A) (A) (A) (A) (A) (A) (A) (A)
                 (A) (A) (A) (A) (A) (A) (A) (A) (A) (A) (A) (A)
                 (A) (A) (A) (A) (A) (A) (A) (A) (A) (A) (A) (A)
                 (A) (A) (A) (A) (A) (A) (A) (A) (A) (A) (A) (A)
                 (A) (A) (A) (A) (A) (A) (A) (A) (A) (A) (A) (A)
                 (A) (A) (A) (A) (A) (A) (A) (A) (A) (A) (A) (A)
                 (A) (A) (A) (A) (A) (A) (A) (A) (A) (A) (A) (A)
                 (A) (A) (A) (A) (A) (A) (A) (A) (A) (A) (A) (A)
                 (A) (A) (A) (A) (A) (A) (A) (A) (A) (A) (A) (A)
                 (A) (A) (A) (A) (A) (A) (A) (A) (A) (A) (A) (A)
                 (A) (A) (A) (A) (A) (A) (A) (A) (A) (A) (A) (A)
                 (A) (A) (A) (A) (A) (A) (A) (A) (A) (A) (A) (A)
                 (A) (A) (A) (A) (A) (A) (A) (A) (A) (A) (A) (A)
                 (A) (A) (A) (A) (A) (A) (A) (A) (A) (A) (A) (A)
                 (A) (A) (A) (A) (A) (A) (A) (A) (A) (A) (A) (A)
                 (A) (A) (A) (A) (A) (A) (A) (A) (A) (A) (A) (A)
                 (A) (A) (A) (A) (A) (A) (A) (A) (A) (A) (A) (A)
                 (A) (A) (A) (A) (A) (A) (A) (A) (A) (A) (A) (A)
                 (A) (A) (A) (A) (A) (A) (A) (A) (A) (A) (A) (A)
                 (A) (A) (A) (A) (A) (A) (A) (A) (A) (A) (A) (A)
                 (A) (A) (A) (A) (A) (A) (A) (A) (A) (A) (A) (A)
                 (A) (A) (A) (A) (A) (A) (A) (A) (A) (A) (A) (A)
                 (A) (A) (A) (A) (A) (A) (A) (A) (A) (A) (A) (A)
                 (A) (A) (A) (A) (A) (A) (A) (A) (A) (A) (A) (A)
                 (A) (A) (A) (A) (A) (A)
 The electronic state of the initial guess is 1-A.
 Requested convergence on RMS density matrix=1.00D-08 within 128 cycles.
 Requested convergence on MAX density matrix=1.00D-06.
 Requested convergence on             energy=1.00D-06.
 No special actions if energy rises.
 Error on total polarization charges =  0.01546
 SCF Done:  E(RmPW1PW91) =  -1140.61831508     A.U. after   13 cycles
             Convg  =    0.4124D-08             -V/T =  2.0080
 Range of M.O.s used for correlation:     1   505
 NBasis=   505 NAE=    79 NBE=    79 NFC=     0 NFV=     0
 NROrb=    505 NOA=    79 NOB=    79 NVA=   426 NVB=   426

 **** Warning!!: The largest alpha MO coefficient is  0.94986624D+02

 NEqPCM:  Using equilibrium solvation (IEInf=0, Eps=   4.7113, EpsInf=   2.0906)
          Differentiating once with respect to magnetic field using GIAOs.
          Electric field/nuclear overlap derivatives assumed to be zero.
 FoFCou: FMM=F IPFlag=           0 FMFlag=    10101102 FMFlg1=           0
         NFxFlg=    40000000 DoJE=F BraDBF=F KetDBF=T FulRan=T
         Omega=  0.000000  0.000000  1.000000  0.000000  0.000000 ICntrl=    6100 IOpCl=  0
         NMat0=    1 NMatS0=    1 NMatT0=    0 NMatD0=    1 NMtDS0=    0 NMtDT0=    0
         I1Cent=           7 NGrid=        2956.
 Symmetry not used in FoFCou.
          There are     3 degrees of freedom in the 1st order CPHF.  IDoFFX=0.
      3 vectors produced by pass  0 Test12= 1.12D-12 3.33D-08 XBig12= 1.59D+02 2.27D+00.
 AX will form     3 AO Fock derivatives at one time.
      3 vectors produced by pass  1 Test12= 1.12D-12 3.33D-08 XBig12= 3.97D-01 8.21D-02.
      3 vectors produced by pass  2 Test12= 1.12D-12 3.33D-08 XBig12= 7.22D-04 4.22D-03.
      3 vectors produced by pass  3 Test12= 1.12D-12 3.33D-08 XBig12= 3.07D-06 3.49D-04.
      3 vectors produced by pass  4 Test12= 1.12D-12 3.33D-08 XBig12= 1.67D-08 2.51D-05.
      3 vectors produced by pass  5 Test12= 1.12D-12 3.33D-08 XBig12= 5.57D-11 1.06D-06.
      2 vectors produced by pass  6 Test12= 1.12D-12 3.33D-08 XBig12= 1.74D-13 4.76D-08.
 Inverted reduced A of dimension    20 with in-core refinement.
 Calculating GIAO nuclear magnetic shielding tensors.
 SCF GIAO Magnetic shielding tensor (ppm):
      1  H    Isotropic =    27.0625   Anisotropy =     6.9043
   XX=    31.0337   YX=     1.7598   ZX=    -1.9935
   XY=    -0.1500   YY=    24.2273   ZY=    -3.2303
   XZ=    -0.3109   YZ=    -3.4919   ZZ=    25.9264
   Eigenvalues:    21.6095    27.9126    31.6654
      2  C    Isotropic =   123.0956   Anisotropy =    59.3461
   XX=   157.2757   YX=     8.5818   ZX=    -0.7948
   XY=    25.2803   YY=   109.1494   ZY=     4.4335
   XZ=    -4.2711   YZ=     3.5904   ZZ=   102.8617
   Eigenvalues:    98.7005   107.9266   162.6596
      3  C    Isotropic =   165.4286   Anisotropy =    22.2428
   XX=   173.5127   YX=    -9.9151   ZX=     5.8347
   XY=    -7.5406   YY=   166.8594   ZY=     8.9764
   XZ=     0.6312   YZ=    13.2383   ZZ=   155.9136
   Eigenvalues:   146.8763   169.1523   180.2571
      4  C    Isotropic =   121.5591   Anisotropy =    38.4419
   XX=   102.5495   YX=     3.4361   ZX=     4.6299
   XY=     4.7696   YY=   117.7586   ZY=    -6.1304
   XZ=     2.0102   YZ=   -11.7646   ZZ=   144.3691
   Eigenvalues:   100.7844   116.7058   147.1870
      5  C    Isotropic =   137.3896   Anisotropy =    60.2843
   XX=    91.7981   YX=     0.8699   ZX=   -19.1270
   XY=    -0.6023   YY=   162.4009   ZY=    17.1369
   XZ=   -20.0779   YZ=    13.2320   ZZ=   157.9699
   Eigenvalues:    86.1936   148.3962   177.5792
      6  C    Isotropic =   113.1137   Anisotropy =    46.8552
   XX=    98.1397   YX=    11.5121   ZX=   -11.2902
   XY=    -3.3902   YY=   117.1362   ZY=   -22.8934
   XZ=     3.7047   YZ=   -22.7628   ZZ=   124.0651
   Eigenvalues:    96.8924    98.0980   144.3505
      7  C    Isotropic =   166.9192   Anisotropy =    26.3141
   XX=   180.1110   YX=     3.5693   ZX=     0.8439
   XY=     7.2604   YY=   158.1408   ZY=    11.8390
   XZ=     9.0032   YZ=    11.7304   ZZ=   162.5058
   Eigenvalues:   148.3035   167.9922   184.4619
      8  H    Isotropic =    30.5695   Anisotropy =    10.5016
   XX=    30.7988   YX=     1.7011   ZX=     3.0160
   XY=     1.1764   YY=    30.7577   ZY=     5.9579
   XZ=     1.9488   YZ=     6.0031   ZZ=    30.1520
   Eigenvalues:    24.3545    29.7835    37.5705
      9  H    Isotropic =    27.9167   Anisotropy =     3.8150
   XX=    27.1363   YX=    -1.5960   ZX=    -1.8392
   XY=    -0.2958   YY=    30.1203   ZY=     0.9819
   XZ=    -0.9854   YZ=    -0.8113   ZZ=    26.4934
   Eigenvalues:    25.3069    27.9831    30.4600
     10  H    Isotropic =    27.9077   Anisotropy =     3.2080
   XX=    28.2335   YX=     0.7957   ZX=    -0.8281
   XY=     1.7674   YY=    25.6354   ZY=    -0.7599
   XZ=    -0.3494   YZ=     1.4697   ZZ=    29.8541
   Eigenvalues:    25.0457    28.6309    30.0463
     11  H    Isotropic =    29.9677   Anisotropy =     8.2714
   XX=    33.0190   YX=    -2.2038   ZX=    -0.2727
   XY=    -2.3812   YY=    32.2298   ZY=     2.6526
   XZ=    -1.2051   YZ=     2.8599   ZZ=    24.6543
   Eigenvalues:    23.7576    30.6635    35.4820
     12  H    Isotropic =    29.2115   Anisotropy =     8.2725
   XX=    28.1389   YX=     1.6682   ZX=    -1.0219
   XY=     0.7134   YY=    33.5078   ZY=    -3.3029
   XZ=    -1.1408   YZ=    -2.1680   ZZ=    25.9877
   Eigenvalues:    24.9508    27.9571    34.7265
     13  H    Isotropic =    29.2936   Anisotropy =     6.1102
   XX=    31.1313   YX=     2.7681   ZX=    -1.6318
   XY=     2.0911   YY=    26.9185   ZY=    -0.4773
   XZ=    -2.0547   YZ=    -1.0590   ZZ=    29.8311
   Eigenvalues:    25.8080    28.7057    33.3671
     14  O    Isotropic =   298.6260   Anisotropy =   131.5291
   XX=   325.0109   YX=   -70.5313   ZX=    80.5775
   XY=   -34.7214   YY=   294.8706   ZY=   106.4282
   XZ=    53.3333   YZ=    91.4842   ZZ=   275.9966
   Eigenvalues:   145.7444   363.8216   386.3121
     15  C    Isotropic =   146.5458   Anisotropy =    43.1548
   XX=   117.2345   YX=    -0.5660   ZX=   -15.3955
   XY=    -2.0589   YY=   166.7397   ZY=    11.5976
   XZ=    -8.0497   YZ=    12.1818   ZZ=   155.6631
   Eigenvalues:   113.8643   150.4575   175.3156
     16  O    Isotropic =   292.8212   Anisotropy =    63.1099
   XX=   321.1102   YX=    35.7832   ZX=   -20.3345
   XY=    20.9774   YY=   262.0494   ZY=   -10.3066
   XZ=     3.1789   YZ=     1.1902   ZZ=   295.3039
   Eigenvalues:   250.5986   292.9705   334.8944
     17  H    Isotropic =    30.4370   Anisotropy =    19.1290
   XX=    39.7097   YX=     4.2083   ZX=    -5.0980
   XY=     5.2451   YY=    22.4569   ZY=    -2.9366
   XZ=    -4.6899   YZ=    -4.0190   ZZ=    29.1443
   Eigenvalues:    20.5846    27.5367    43.1897
     18  O    Isotropic =   312.6572   Anisotropy =    48.5218
   XX=   300.8269   YX=    13.7449   ZX=   -17.0665
   XY=    -1.9395   YY=   302.1916   ZY=     5.9403
   XZ=   -25.0291   YZ=     1.6966   ZZ=   334.9532
   Eigenvalues:   287.4865   305.4801   345.0051
     19  C    Isotropic =   140.2193   Anisotropy =    79.9166
   XX=   119.2160   YX=   -24.8952   ZX=     3.7834
   XY=   -23.3516   YY=   185.1930   ZY=     7.9067
   XZ=     1.7767   YZ=     5.9394   ZZ=   116.2489
   Eigenvalues:   108.3003   118.8606   193.4971
     20  H    Isotropic =    27.9239   Anisotropy =     9.1155
   XX=    30.0336   YX=    -2.0241   ZX=     1.6471
   XY=    -4.1085   YY=    31.1935   ZY=    -1.2195
   XZ=     1.4157   YZ=    -0.7739   ZZ=    22.5447
   Eigenvalues:    22.2242    27.5466    34.0009
     21  H    Isotropic =    27.8337   Anisotropy =     9.9023
   XX=    25.6510   YX=    -1.5879   ZX=    -0.1564
   XY=     0.3053   YY=    33.0722   ZY=    -4.5651
   XZ=    -0.8064   YZ=    -2.6259   ZZ=    24.7780
   Eigenvalues:    23.2455    25.8205    34.4352
     22  H    Isotropic =    28.6192   Anisotropy =     9.6595
   XX=    26.8974   YX=    -1.5761   ZX=    -0.4735
   XY=    -0.4388   YY=    32.8955   ZY=     5.7382
   XZ=     0.1064   YZ=     2.7794   ZZ=    26.0646
   Eigenvalues:    23.9949    26.8038    35.0589
     23  O    Isotropic =   280.5938   Anisotropy =    55.5729
   XX=   265.2862   YX=   -10.5698   ZX=    18.4765
   XY=     0.9292   YY=   285.0232   ZY=    19.1424
   XZ=    35.7358   YZ=    25.3712   ZZ=   291.4721
   Eigenvalues:   241.8202   282.3189   317.6424
     24  Si   Isotropic =   383.7534   Anisotropy =    30.8897
   XX=   398.8686   YX=    12.9205   ZX=   -19.9353
   XY=    -3.3588   YY=   379.1108   ZY=    -6.5946
   XZ=    -1.1208   YZ=    -5.2387   ZZ=   373.2809
   Eigenvalues:   367.9348   378.9789   404.3465
     25  C    Isotropic =   197.9973   Anisotropy =     7.1358
   XX=   199.5363   YX=     4.7268   ZX=    -0.8213
   XY=     5.2447   YY=   192.8291   ZY=    -0.7771
   XZ=    -1.8110   YZ=     2.5760   ZZ=   201.6265
   Eigenvalues:   190.0017   201.2356   202.7545
     26  H    Isotropic =    31.7126   Anisotropy =    10.5355
   XX=    33.0875   YX=     3.2484   ZX=    -3.4441
   XY=     2.9745   YY=    29.7294   ZY=    -3.9967
   XZ=    -3.1147   YZ=    -3.8627   ZZ=    32.3210
   Eigenvalues:    26.7951    29.6065    38.7363
     27  H    Isotropic =    30.8512   Anisotropy =     9.4906
   XX=    35.8401   YX=    -3.5370   ZX=    -0.3250
   XY=    -3.6718   YY=    27.2983   ZY=    -1.2382
   XZ=     0.1753   YZ=    -1.4694   ZZ=    29.4152
   Eigenvalues:    25.5444    29.8310    37.1783
     28  H    Isotropic =    31.4220   Anisotropy =     7.8392
   XX=    29.2301   YX=     0.1189   ZX=     0.2228
   XY=    -0.3754   YY=    32.6464   ZY=     3.6756
   XZ=     0.3386   YZ=     4.5779   ZZ=    32.3896
   Eigenvalues:    28.2984    29.3196    36.6482
     29  C    Isotropic =   172.6352   Anisotropy =     7.9138
   XX=   173.6284   YX=     3.1867   ZX=    -3.0105
   XY=     2.5363   YY=   173.7200   ZY=    -1.7321
   XZ=    -1.3973   YZ=    -2.8530   ZZ=   170.5572
   Eigenvalues:   169.1815   170.8130   177.9110
     30  C    Isotropic =   198.3362   Anisotropy =     7.9340
   XX=   197.6603   YX=     2.6864   ZX=    -2.5450
   XY=     6.1104   YY=   199.6769   ZY=     4.8889
   XZ=    -2.4150   YZ=     2.4958   ZZ=   197.6715
   Eigenvalues:   191.2763   200.1069   203.6256
     31  H    Isotropic =    31.6507   Anisotropy =    10.4882
   XX=    34.5412   YX=     4.1698   ZX=    -2.0902
   XY=     4.2601   YY=    33.5103   ZY=    -0.6148
   XZ=    -2.2560   YZ=    -0.7446   ZZ=    26.9005
   Eigenvalues:    26.2915    30.0177    38.6428
     32  H    Isotropic =    31.4802   Anisotropy =     8.4819
   XX=    28.8773   YX=    -0.4213   ZX=     1.3313
   XY=    -0.5269   YY=    29.1759   ZY=     2.4441
   XZ=     1.6669   YZ=     1.6109   ZZ=    36.3874
   Eigenvalues:    27.8252    29.4806    37.1348
     33  H    Isotropic =    31.3236   Anisotropy =     9.9067
   XX=    35.8093   YX=    -2.9810   ZX=     2.0730
   XY=    -3.6860   YY=    32.0102   ZY=     0.0576
   XZ=     1.5280   YZ=     0.3549   ZZ=    26.1515
   Eigenvalues:    25.7074    30.3354    37.9281
     34  C    Isotropic =   170.1287   Anisotropy =    38.5640
   XX=   158.7865   YX=    -2.2809   ZX=     8.2615
   XY=    -3.1395   YY=   156.6140   ZY=    -1.8850
   XZ=     2.9093   YZ=     1.4184   ZZ=   194.9854
   Eigenvalues:   154.5456   160.0024   195.8380
     35  H    Isotropic =    30.5744   Anisotropy =     8.4242
   XX=    28.2416   YX=    -0.2607   ZX=     2.9243
   XY=    -0.4304   YY=    31.0228   ZY=     3.1227
   XZ=     2.8046   YZ=     4.5856   ZZ=    32.4587
   Eigenvalues:    25.7366    29.7960    36.1905
     36  H    Isotropic =    31.0744   Anisotropy =     9.8894
   XX=    33.0500   YX=    -3.3265   ZX=     3.3913
   XY=    -3.2530   YY=    29.0238   ZY=    -1.6445
   XZ=     4.2226   YZ=    -2.1584   ZZ=    31.1493
   Eigenvalues:    27.1554    28.4004    37.6673
     37  H    Isotropic =    30.2582   Anisotropy =     7.7178
   XX=    30.9964   YX=     0.6443   ZX=    -0.8502
   XY=     0.9662   YY=    26.6075   ZY=    -3.1560
   XZ=    -2.3454   YZ=    -3.8229   ZZ=    33.1708
   Eigenvalues:    25.0970    30.2743    35.4034
     38  C    Isotropic =   170.0200   Anisotropy =    39.4974
   XX=   177.9410   YX=    16.0475   ZX=   -14.4139
   XY=    12.1408   YY=   166.3232   ZY=    -9.8457
   XZ=   -11.8257   YZ=   -10.4639   ZZ=   165.7959
   Eigenvalues:   155.8518   157.8567   196.3516
     39  H    Isotropic =    30.6956   Anisotropy =     8.8428
   XX=    31.7167   YX=     3.7786   ZX=    -0.3859
   XY=     2.7915   YY=    34.3728   ZY=     1.2344
   XZ=    -1.1046   YZ=     0.1779   ZZ=    25.9973
   Eigenvalues:    25.7232    29.7727    36.5908
     40  H    Isotropic =    30.7569   Anisotropy =     8.6418
   XX=    30.9237   YX=     0.4343   ZX=    -2.8848
   XY=     0.4524   YY=    26.4773   ZY=    -3.0729
   XZ=    -1.5839   YZ=    -2.0736   ZZ=    34.8698
   Eigenvalues:    25.7442    30.0084    36.5181
     41  H    Isotropic =    30.9631   Anisotropy =    10.1535
   XX=    37.4291   YX=    -1.9893   ZX=    -0.6885
   XY=    -0.9056   YY=    28.0274   ZY=    -0.5917
   XZ=    -1.3418   YZ=    -0.3380   ZZ=    27.4327
   Eigenvalues:    26.9281    28.2291    37.7320
     42  C    Isotropic =   170.1394   Anisotropy =    37.9248
   XX=   159.4448   YX=     1.0537   ZX=     2.8589
   XY=     6.4175   YY=   188.7377   ZY=    14.9197
   XZ=     4.1110   YZ=    13.1214   ZZ=   162.2357
   Eigenvalues:   155.3495   159.6461   195.4226
     43  H    Isotropic =    31.0662   Anisotropy =     9.8062
   XX=    31.9721   YX=    -4.1862   ZX=     0.4230
   XY=    -5.0123   YY=    33.8139   ZY=     0.6310
   XZ=     0.0774   YZ=     0.9492   ZZ=    27.4127
   Eigenvalues:    26.9943    28.6007    37.6037
     44  H    Isotropic =    30.5809   Anisotropy =     7.9730
   XX=    28.1616   YX=    -1.4561   ZX=     1.6217
   XY=    -1.0403   YY=    29.8427   ZY=     4.2505
   XZ=     1.5342   YZ=     2.8145   ZZ=    33.7383
   Eigenvalues:    26.0469    29.7995    35.8962
     45  H    Isotropic =    30.2719   Anisotropy =     7.6707
   XX=    32.0927   YX=     1.7152   ZX=    -1.5016
   XY=     2.9923   YY=    33.4657   ZY=    -0.9810
   XZ=    -1.1261   YZ=    -0.1624   ZZ=    25.2574
   Eigenvalues:    25.0112    30.4188    35.3858
     46  H    Isotropic =    29.0730   Anisotropy =    11.4956
   XX=    30.7701   YX=     2.4634   ZX=     0.4740
   XY=     6.5768   YY=    30.3992   ZY=     4.2362
   XZ=     3.2912   YZ=     3.7565   ZZ=    26.0498
   Eigenvalues:    23.5719    26.9103    36.7368
     47  H    Isotropic =    29.0421   Anisotropy =    10.9669
   XX=    33.3724   YX=    -0.5766   ZX=    -2.2653
   XY=    -4.1917   YY=    26.7940   ZY=     2.5823
   XZ=    -5.2907   YZ=     3.2473   ZZ=    26.9598
   Eigenvalues:    23.8264    26.9464    36.3533
 End of Minotr Frequency-dependent properties file   721 does not exist.
 End of Minotr Frequency-dependent properties file   722 does not exist.

 **********************************************************************

            Population analysis using the SCF density.

 **********************************************************************

 Orbital symmetries:
       Occupied  (A) (A) (A) (A) (A) (A) (A) (A) (A) (A) (A) (A)
                 (A) (A) (A) (A) (A) (A) (A) (A) (A) (A) (A) (A)
                 (A) (A) (A) (A) (A) (A) (A) (A) (A) (A) (A) (A)
                 (A) (A) (A) (A) (A) (A) (A) (A) (A) (A) (A) (A)
                 (A) (A) (A) (A) (A) (A) (A) (A) (A) (A) (A) (A)
                 (A) (A) (A) (A) (A) (A) (A) (A) (A) (A) (A) (A)
                 (A) (A) (A) (A) (A) (A) (A)
       Virtual   (A) (A) (A) (A) (A) (A) (A) (A) (A) (A) (A) (A)
                 (A) (A) (A) (A) (A) (A) (A) (A) (A) (A) (A) (A)
                 (A) (A) (A) (A) (A) (A) (A) (A) (A) (A) (A) (A)
                 (A) (A) (A) (A) (A) (A) (A) (A) (A) (A) (A) (A)
                 (A) (A) (A) (A) (A) (A) (A) (A) (A) (A) (A) (A)
                 (A) (A) (A) (A) (A) (A) (A) (A) (A) (A) (A) (A)
                 (A) (A) (A) (A) (A) (A) (A) (A) (A) (A) (A) (A)
                 (A) (A) (A) (A) (A) (A) (A) (A) (A) (A) (A) (A)
                 (A) (A) (A) (A) (A) (A) (A) (A) (A) (A) (A) (A)
                 (A) (A) (A) (A) (A) (A) (A) (A) (A) (A) (A) (A)
                 (A) (A) (A) (A) (A) (A) (A) (A) (A) (A) (A) (A)
                 (A) (A) (A) (A) (A) (A) (A) (A) (A) (A) (A) (A)
                 (A) (A) (A) (A) (A) (A) (A) (A) (A) (A) (A) (A)
                 (A) (A) (A) (A) (A) (A) (A) (A) (A) (A) (A) (A)
                 (A) (A) (A) (A) (A) (A) (A) (A) (A) (A) (A) (A)
                 (A) (A) (A) (A) (A) (A) (A) (A) (A) (A) (A) (A)
                 (A) (A) (A) (A) (A) (A) (A) (A) (A) (A) (A) (A)
                 (A) (A) (A) (A) (A) (A) (A) (A) (A) (A) (A) (A)
                 (A) (A) (A) (A) (A) (A) (A) (A) (A) (A) (A) (A)
                 (A) (A) (A) (A) (A) (A) (A) (A) (A) (A) (A) (A)
                 (A) (A) (A) (A) (A) (A) (A) (A) (A) (A) (A) (A)
                 (A) (A) (A) (A) (A) (A) (A) (A) (A) (A) (A) (A)
                 (A) (A) (A) (A) (A) (A) (A) (A) (A) (A) (A) (A)
                 (A) (A) (A) (A) (A) (A) (A) (A) (A) (A) (A) (A)
                 (A) (A) (A) (A) (A) (A) (A) (A) (A) (A) (A) (A)
                 (A) (A) (A) (A) (A) (A) (A) (A) (A) (A) (A) (A)
                 (A) (A) (A) (A) (A) (A) (A) (A) (A) (A) (A) (A)
                 (A) (A) (A) (A) (A) (A) (A) (A) (A) (A) (A) (A)
                 (A) (A) (A) (A) (A) (A) (A) (A) (A) (A) (A) (A)
                 (A) (A) (A) (A) (A) (A) (A) (A) (A) (A) (A) (A)
                 (A) (A) (A) (A) (A) (A) (A) (A) (A) (A) (A) (A)
                 (A) (A) (A) (A) (A) (A) (A) (A) (A) (A) (A) (A)
                 (A) (A) (A) (A) (A) (A) (A) (A) (A) (A) (A) (A)
                 (A) (A) (A) (A) (A) (A) (A) (A) (A) (A) (A) (A)
                 (A) (A) (A) (A) (A) (A) (A) (A) (A) (A) (A) (A)
                 (A) (A) (A) (A) (A) (A)
 The electronic state is 1-A.
 Alpha  occ. eigenvalues --  -66.29936 -19.26779 -19.26498 -19.25608 -19.22782
 Alpha  occ. eigenvalues --  -10.31738 -10.31279 -10.30513 -10.30415 -10.30261
 Alpha  occ. eigenvalues --  -10.28856 -10.25419 -10.24329 -10.24057 -10.23193
 Alpha  occ. eigenvalues --  -10.22855 -10.22834 -10.21610 -10.21580  -5.33232
 Alpha  occ. eigenvalues --   -3.67155  -3.66859  -3.66841  -1.11495  -1.07775
 Alpha  occ. eigenvalues --   -1.06604  -1.02608  -0.84281  -0.81665  -0.77699
 Alpha  occ. eigenvalues --   -0.75049  -0.71676  -0.70595  -0.69895  -0.69742
 Alpha  occ. eigenvalues --   -0.68884  -0.68827  -0.64512  -0.62749  -0.58133
 Alpha  occ. eigenvalues --   -0.56569  -0.54574  -0.53895  -0.51329  -0.50332
 Alpha  occ. eigenvalues --   -0.48627  -0.48464  -0.47633  -0.46491  -0.44457
 Alpha  occ. eigenvalues --   -0.44219  -0.44081  -0.43508  -0.43369  -0.42967
 Alpha  occ. eigenvalues --   -0.42129  -0.41374  -0.40615  -0.40268  -0.39625
 Alpha  occ. eigenvalues --   -0.39322  -0.38913  -0.38496  -0.38308  -0.38095
 Alpha  occ. eigenvalues --   -0.36783  -0.36307  -0.35783  -0.34264  -0.33343
 Alpha  occ. eigenvalues --   -0.33120  -0.32175  -0.31776  -0.31434  -0.30069
 Alpha  occ. eigenvalues --   -0.28543  -0.27749  -0.27568  -0.26028
 Alpha virt. eigenvalues --    0.00017   0.00327   0.01265   0.01525   0.02326
 Alpha virt. eigenvalues --    0.02861   0.03171   0.04071   0.04357   0.04545
 Alpha virt. eigenvalues --    0.04875   0.05219   0.05772   0.06095   0.06468
 Alpha virt. eigenvalues --    0.07188   0.07358   0.07711   0.07851   0.08354
 Alpha virt. eigenvalues --    0.08449   0.08676   0.09310   0.09473   0.09756
 Alpha virt. eigenvalues --    0.10240   0.10600   0.11264   0.11387   0.11840
 Alpha virt. eigenvalues --    0.12394   0.12515   0.12725   0.12857   0.13218
 Alpha virt. eigenvalues --    0.13399   0.13840   0.14558   0.14766   0.15015
 Alpha virt. eigenvalues --    0.15198   0.15321   0.15695   0.16217   0.16640
 Alpha virt. eigenvalues --    0.16757   0.17193   0.17592   0.17760   0.17855
 Alpha virt. eigenvalues --    0.18511   0.18913   0.19166   0.19330   0.19882
 Alpha virt. eigenvalues --    0.20306   0.20747   0.20928   0.20980   0.21413
 Alpha virt. eigenvalues --    0.21782   0.22134   0.22661   0.22879   0.23054
 Alpha virt. eigenvalues --    0.23272   0.23386   0.24081   0.24487   0.24541
 Alpha virt. eigenvalues --    0.24735   0.25307   0.25650   0.25876   0.26237
 Alpha virt. eigenvalues --    0.26712   0.27142   0.27564   0.27969   0.28096
 Alpha virt. eigenvalues --    0.28424   0.28535   0.29075   0.29123   0.29668
 Alpha virt. eigenvalues --    0.29950   0.30332   0.30594   0.30842   0.31335
 Alpha virt. eigenvalues --    0.31852   0.32134   0.32903   0.33215   0.33817
 Alpha virt. eigenvalues --    0.34221   0.34676   0.35184   0.35989   0.36139
 Alpha virt. eigenvalues --    0.36566   0.36974   0.37580   0.37818   0.38692
 Alpha virt. eigenvalues --    0.38788   0.39573   0.39814   0.40792   0.41176
 Alpha virt. eigenvalues --    0.42629   0.42744   0.43513   0.43860   0.45214
 Alpha virt. eigenvalues --    0.46139   0.47211   0.48098   0.48727   0.49707
 Alpha virt. eigenvalues --    0.50109   0.51481   0.52475   0.54647   0.54674
 Alpha virt. eigenvalues --    0.55175   0.60502   0.63902   0.65418   0.66526
 Alpha virt. eigenvalues --    0.67403   0.69101   0.70286   0.70428   0.71544
 Alpha virt. eigenvalues --    0.72461   0.72999   0.73833   0.74141   0.74920
 Alpha virt. eigenvalues --    0.75587   0.75840   0.76809   0.77775   0.78988
 Alpha virt. eigenvalues --    0.80004   0.80169   0.80463   0.81376   0.82058
 Alpha virt. eigenvalues --    0.82899   0.83297   0.83788   0.84806   0.86002
 Alpha virt. eigenvalues --    0.86929   0.87838   0.88458   0.88519   0.90139
 Alpha virt. eigenvalues --    0.91243   0.92295   0.93373   0.93978   0.94687
 Alpha virt. eigenvalues --    0.95000   0.95418   0.96866   0.97991   0.98983
 Alpha virt. eigenvalues --    0.99713   1.00527   1.01005   1.01943   1.02318
 Alpha virt. eigenvalues --    1.03811   1.03903   1.04788   1.05509   1.05821
 Alpha virt. eigenvalues --    1.06309   1.06891   1.07705   1.08284   1.08417
 Alpha virt. eigenvalues --    1.08942   1.09931   1.10955   1.11212   1.11894
 Alpha virt. eigenvalues --    1.12923   1.14693   1.15675   1.16627   1.17021
 Alpha virt. eigenvalues --    1.18874   1.18941   1.20104   1.21253   1.21332
 Alpha virt. eigenvalues --    1.22637   1.24066   1.24704   1.26068   1.26430
 Alpha virt. eigenvalues --    1.27722   1.29895   1.31197   1.31757   1.33905
 Alpha virt. eigenvalues --    1.34771   1.35712   1.36180   1.36957   1.37930
 Alpha virt. eigenvalues --    1.38575   1.39693   1.41903   1.43242   1.44248
 Alpha virt. eigenvalues --    1.47240   1.47886   1.48063   1.48454   1.49850
 Alpha virt. eigenvalues --    1.50154   1.52346   1.52936   1.53781   1.55804
 Alpha virt. eigenvalues --    1.56752   1.59278   1.59648   1.61943   1.62416
 Alpha virt. eigenvalues --    1.63240   1.65311   1.66412   1.68985   1.69787
 Alpha virt. eigenvalues --    1.71028   1.71862   1.73201   1.73825   1.77399
 Alpha virt. eigenvalues --    1.78099   1.78840   1.80340   1.81180   1.82863
 Alpha virt. eigenvalues --    1.83891   1.84706   1.85186   1.86185   1.88006
 Alpha virt. eigenvalues --    1.88709   1.90154   1.90947   1.91941   1.93257
 Alpha virt. eigenvalues --    1.94454   1.95647   1.96387   1.96746   1.96995
 Alpha virt. eigenvalues --    1.97976   1.98843   2.00544   2.01784   2.02456
 Alpha virt. eigenvalues --    2.03654   2.03854   2.04647   2.06167   2.06551
 Alpha virt. eigenvalues --    2.07333   2.08153   2.08879   2.09689   2.10836
 Alpha virt. eigenvalues --    2.11118   2.11678   2.11932   2.12601   2.13152
 Alpha virt. eigenvalues --    2.13545   2.14565   2.15454   2.15711   2.16581
 Alpha virt. eigenvalues --    2.16803   2.17281   2.17838   2.18449   2.19200
 Alpha virt. eigenvalues --    2.20064   2.20368   2.21133   2.21530   2.22101
 Alpha virt. eigenvalues --    2.22238   2.23334   2.25542   2.26050   2.27287
 Alpha virt. eigenvalues --    2.28529   2.29980   2.30754   2.34684   2.35754
 Alpha virt. eigenvalues --    2.36301   2.36754   2.38548   2.40337   2.40569
 Alpha virt. eigenvalues --    2.42127   2.42761   2.43949   2.44631   2.45343
 Alpha virt. eigenvalues --    2.46682   2.47174   2.49020   2.49994   2.51151
 Alpha virt. eigenvalues --    2.54201   2.56215   2.57306   2.57642   2.58945
 Alpha virt. eigenvalues --    2.60593   2.61283   2.61689   2.64264   2.64953
 Alpha virt. eigenvalues --    2.66889   2.68426   2.68860   2.70121   2.70483
 Alpha virt. eigenvalues --    2.71623   2.73322   2.73470   2.74213   2.75062
 Alpha virt. eigenvalues --    2.76572   2.77171   2.78386   2.78968   2.79701
 Alpha virt. eigenvalues --    2.81333   2.82352   2.83275   2.84749   2.85533
 Alpha virt. eigenvalues --    2.86481   2.86591   2.87770   2.88332   2.88853
 Alpha virt. eigenvalues --    2.89176   2.89375   2.89610   2.90958   2.91410
 Alpha virt. eigenvalues --    2.91964   2.94236   2.95728   2.97307   2.97884
 Alpha virt. eigenvalues --    2.99434   2.99812   3.00372   3.03449   3.05987
 Alpha virt. eigenvalues --    3.10259   3.16805   3.19855   3.25988   3.27749
 Alpha virt. eigenvalues --    3.28841   3.29569   3.30051   3.30912   3.31941
 Alpha virt. eigenvalues --    3.32111   3.35610   3.39049   3.39879   3.47137
 Alpha virt. eigenvalues --    3.48095   3.48187   3.48275   3.48812   3.49348
 Alpha virt. eigenvalues --    3.50064   3.51039   3.51347   3.52018   3.52457
 Alpha virt. eigenvalues --    3.53097   3.53799   3.55466   3.55990   3.56538
 Alpha virt. eigenvalues --    3.57652   3.59682   3.63128   4.35584   4.43686
 Alpha virt. eigenvalues --    4.46628   4.48324   4.54781   4.57044   4.61556
 Alpha virt. eigenvalues --    4.63365   4.64312   4.65672   4.68016   4.70346
 Alpha virt. eigenvalues --    4.72290   4.75502   4.81284   4.87812   4.97731
 Alpha virt. eigenvalues --    5.06410
          Condensed to atoms (all electrons):
              1          2          3          4          5          6
     1  H    0.576119   0.340083  -0.026648   0.054171  -0.001637  -0.100340
     2  C    0.340083  11.525554  -0.454742  -0.042707   0.380920  -3.272303
     3  C   -0.026648  -0.454742   8.308271  -1.818135  -0.478607   0.841708
     4  C    0.054171  -0.042707  -1.818135  11.426492  -2.663903  -1.941717
     5  C   -0.001637   0.380920  -0.478607  -2.663903  11.454256   0.075472
     6  C   -0.100340  -3.272303   0.841708  -1.941717   0.075472  10.811018
     7  C    0.015295  -1.066530  -0.156772   0.440988  -0.214488  -0.461337
     8  H   -0.000060   0.048065   0.400463   0.039041  -0.044375  -0.011206
     9  H   -0.000155  -0.020975   0.047214   0.144218  -0.004503   0.147249
    10  H   -0.004331   0.208923  -0.046322   0.009651   0.044216   0.060661
    11  H   -0.005837  -0.062243   0.011308  -0.017256   0.025491   0.100223
    12  H    0.002829   0.005412   0.339323   0.066731  -0.078304  -0.015071
    13  H    0.004732  -0.031695  -0.069478   0.030333  -0.009299  -0.050480
    14  O    0.000126   0.002421  -0.091777  -0.149286   0.245476   0.038269
    15  C    0.008893  -0.323955  -0.001990  -0.418367  -2.334153   0.145626
    16  O   -0.000892  -0.008918   0.031704   0.107788   0.037747  -0.042438
    17  H    0.000084  -0.017566  -0.012506   0.043758  -0.001097   0.035279
    18  O    0.016503  -0.213804  -0.144774   0.110347   0.099399  -0.066304
    19  C    0.002374  -0.008549  -0.039024   0.190001  -0.212121  -0.100111
    20  H    0.000003  -0.020540   0.004477  -0.069148  -0.009031   0.080017
    21  H    0.000003  -0.000243   0.002123   0.013631  -0.000011  -0.009563
    22  H    0.000000   0.015966  -0.002809   0.023609   0.000094  -0.054250
    23  O   -0.047521  -0.284785   0.053976   0.130148  -0.065764  -0.047069
    24  Si  -0.004365  -0.611370  -0.063239   0.047988  -0.024444   0.177635
    25  C   -0.002239   0.147491   0.015851  -0.027137   0.004531  -0.059950
    26  H    0.000001   0.001504   0.000084   0.000227   0.000077  -0.000813
    27  H   -0.000001  -0.015668   0.002797   0.000696   0.001128   0.009219
    28  H   -0.000002  -0.032845  -0.000488  -0.001337  -0.000124   0.014496
    29  C    0.006307  -0.288248  -0.009085   0.007599   0.004992   0.059163
    30  C   -0.001232   0.202759  -0.007721   0.005190   0.003459  -0.104696
    31  H    0.000001   0.002225   0.000201   0.000226  -0.000310  -0.001403
    32  H    0.000002   0.001981  -0.000168   0.000219  -0.000097  -0.004443
    33  H    0.000002  -0.019826  -0.000206   0.001755   0.000800   0.005822
    34  C   -0.001493   0.061598   0.010135   0.000575  -0.000672  -0.006032
    35  H   -0.000001  -0.000386  -0.000080  -0.000032  -0.000020  -0.000775
    36  H   -0.000001  -0.001525   0.000034   0.000016   0.000006   0.000759
    37  H   -0.000015   0.011850   0.000490  -0.000364   0.000200  -0.000995
    38  C    0.000091  -0.004998  -0.000590  -0.003168   0.001072   0.001748
    39  H    0.000000   0.000552  -0.000012   0.000008  -0.000010  -0.000141
    40  H    0.000000   0.000600  -0.000014  -0.000011   0.000010  -0.000204
    41  H    0.000000  -0.001239   0.000006  -0.000006   0.000000   0.000182
    42  C   -0.001980  -0.023320  -0.001269  -0.023175   0.011367   0.036796
    43  H    0.000000  -0.001098   0.000122   0.000019  -0.000013   0.000132
    44  H    0.000000  -0.001826   0.000098   0.000013   0.000306   0.000027
    45  H   -0.000033   0.011032   0.000324  -0.000396   0.000380  -0.003618
    46  H    0.000000   0.001582   0.055501  -0.025739  -0.135402  -0.006908
    47  H    0.000000  -0.004658  -0.026600   0.098422  -0.102139   0.006406
              7          8          9         10         11         12
     1  H    0.015295  -0.000060  -0.000155  -0.004331  -0.005837   0.002829
     2  C   -1.066530   0.048065  -0.020975   0.208923  -0.062243   0.005412
     3  C   -0.156772   0.400463   0.047214  -0.046322   0.011308   0.339323
     4  C    0.440988   0.039041   0.144218   0.009651  -0.017256   0.066731
     5  C   -0.214488  -0.044375  -0.004503   0.044216   0.025491  -0.078304
     6  C   -0.461337  -0.011206   0.147249   0.060661   0.100223  -0.015071
     7  C    6.783946  -0.037736  -0.037276   0.019367   0.282018  -0.005727
     8  H   -0.037736   0.524354  -0.000112   0.000011  -0.001774  -0.022179
     9  H   -0.037276  -0.000112   0.592054  -0.005724   0.000014  -0.000096
    10  H    0.019367   0.000011  -0.005724   0.590686  -0.000106  -0.000020
    11  H    0.282018  -0.001774   0.000014  -0.000106   0.538688  -0.004678
    12  H   -0.005727  -0.022179  -0.000096  -0.000020  -0.004678   0.525417
    13  H    0.446757  -0.003765  -0.000064  -0.000054  -0.028110   0.004393
    14  O    0.031994   0.000671   0.007448  -0.000397  -0.000064   0.011029
    15  C   -0.174245  -0.066617   0.029573   0.011579   0.003637  -0.017188
    16  O   -0.034780   0.000376  -0.031066   0.002449   0.000422   0.002258
    17  H    0.015264  -0.000030  -0.007987  -0.000169  -0.000005   0.000073
    18  O    0.142067   0.000609  -0.018330  -0.036711  -0.002707   0.001176
    19  C   -0.007661   0.000210   0.007694   0.000446  -0.000084   0.001089
    20  H    0.001092   0.000001   0.000492  -0.001268  -0.000001  -0.000001
    21  H    0.001780   0.000000   0.000068  -0.000009   0.000000   0.000000
    22  H   -0.001904   0.000000  -0.000670   0.010137   0.000000   0.000000
    23  O    0.076230  -0.000930  -0.001073  -0.011350  -0.007730  -0.001360
    24  Si   0.057695   0.001659   0.000093  -0.008708  -0.003604  -0.000523
    25  C   -0.023710  -0.000403   0.000020  -0.001206   0.000785  -0.000157
    26  H    0.001201   0.000000   0.000000   0.000000  -0.000003   0.000000
    27  H    0.003687   0.000000  -0.000001   0.000020   0.000004   0.000000
    28  H    0.007231   0.000001   0.000000  -0.000001   0.000073   0.000000
    29  C    0.081464  -0.000087  -0.000069  -0.000910  -0.003252   0.000030
    30  C   -0.041969  -0.000041   0.000187   0.003601  -0.000033   0.000046
    31  H    0.000055   0.000000   0.000000  -0.000001   0.000000   0.000000
    32  H    0.001169   0.000000   0.000000   0.000002   0.000000   0.000000
    33  H    0.004684   0.000000   0.000000   0.000082   0.000000   0.000000
    34  C   -0.002824   0.000032   0.000027   0.000265   0.000554  -0.000001
    35  H   -0.000371   0.000000   0.000000   0.000001   0.000000   0.000000
    36  H    0.000524   0.000000   0.000000   0.000000   0.000000   0.000000
    37  H   -0.002416   0.000000   0.000000  -0.000001   0.000001   0.000000
    38  C    0.004302  -0.000005  -0.000002  -0.000020  -0.000319   0.000001
    39  H   -0.000255   0.000000   0.000000   0.000000   0.000000   0.000000
    40  H    0.000018   0.000000   0.000000   0.000000   0.000000   0.000000
    41  H    0.000315   0.000000   0.000000   0.000000   0.000000   0.000000
    42  C    0.006679   0.000040   0.000002   0.000036   0.002766  -0.000032
    43  H    0.001175   0.000000   0.000000   0.000000   0.000001   0.000000
    44  H    0.001522   0.000000   0.000000   0.000000  -0.000016   0.000000
    45  H   -0.005005   0.000000   0.000000   0.000000   0.000182   0.000000
    46  H    0.005146   0.000397   0.000156   0.000001  -0.000001  -0.000275
    47  H   -0.001665   0.000064   0.001310   0.000001   0.000001   0.000244
             13         14         15         16         17         18
     1  H    0.004732   0.000126   0.008893  -0.000892   0.000084   0.016503
     2  C   -0.031695   0.002421  -0.323955  -0.008918  -0.017566  -0.213804
     3  C   -0.069478  -0.091777  -0.001990   0.031704  -0.012506  -0.144774
     4  C    0.030333  -0.149286  -0.418367   0.107788   0.043758   0.110347
     5  C   -0.009299   0.245476  -2.334153   0.037747  -0.001097   0.099399
     6  C   -0.050480   0.038269   0.145626  -0.042438   0.035279  -0.066304
     7  C    0.446757   0.031994  -0.174245  -0.034780   0.015264   0.142067
     8  H   -0.003765   0.000671  -0.066617   0.000376  -0.000030   0.000609
     9  H   -0.000064   0.007448   0.029573  -0.031066  -0.007987  -0.018330
    10  H   -0.000054  -0.000397   0.011579   0.002449  -0.000169  -0.036711
    11  H   -0.028110  -0.000064   0.003637   0.000422  -0.000005  -0.002707
    12  H    0.004393   0.011029  -0.017188   0.002258   0.000073   0.001176
    13  H    0.508222   0.004989  -0.007355   0.000412   0.000002   0.013645
    14  O    0.004989   8.225023   0.052950   0.015197  -0.000449  -0.011411
    15  C   -0.007355   0.052950   8.261458  -0.076272  -0.037265  -0.004871
    16  O    0.000412   0.015197  -0.076272   8.310872   0.210747   0.015782
    17  H    0.000002  -0.000449  -0.037265   0.210747   0.385306  -0.000709
    18  O    0.013645  -0.011411  -0.004871   0.015782  -0.000709   8.429083
    19  C    0.004015  -0.012849   0.027538   0.000114  -0.000192  -0.020294
    20  H    0.000001   0.002028   0.018351  -0.000430   0.000020  -0.063637
    21  H    0.000002   0.000308  -0.001784   0.000076   0.000000  -0.068774
    22  H   -0.000004  -0.000036   0.000849  -0.000227  -0.000003  -0.049126
    23  O    0.001862   0.000283  -0.000328  -0.002462   0.000248   0.057492
    24  Si  -0.008008   0.001209  -0.044776  -0.020720   0.002037   0.160082
    25  C   -0.004480  -0.000808   0.008544   0.001013  -0.000070  -0.052664
    26  H    0.000111   0.000005   0.000052   0.000000   0.000000   0.000885
    27  H    0.000050   0.000007   0.000695   0.000001   0.000000  -0.001061
    28  H   -0.000365  -0.000034  -0.000079   0.000000   0.000000  -0.001288
    29  C    0.001784  -0.000164   0.000173  -0.000631   0.000022   0.012329
    30  C   -0.000286   0.000113   0.000365   0.002374  -0.000142  -0.044582
    31  H    0.000000   0.000000  -0.000002  -0.000001   0.000000   0.000721
    32  H    0.000000   0.000000  -0.000009   0.000007   0.000000  -0.000041
    33  H    0.000003   0.000000   0.000148   0.000000   0.000000  -0.000293
    34  C    0.000139   0.000063   0.000751   0.000055  -0.000008   0.003235
    35  H    0.000000   0.000000  -0.000001   0.000000   0.000000  -0.000021
    36  H    0.000000   0.000000   0.000000   0.000000   0.000000   0.000002
    37  H    0.000000   0.000000   0.000009   0.000002   0.000000  -0.000027
    38  C    0.000340  -0.000021  -0.000170  -0.000004   0.000000  -0.000426
    39  H    0.000000   0.000000   0.000000   0.000000   0.000000  -0.000005
    40  H    0.000000   0.000000   0.000000   0.000000   0.000000  -0.000003
    41  H    0.000000   0.000000   0.000000   0.000000   0.000000   0.000001
    42  C   -0.000826  -0.000066   0.001394   0.000187   0.000005  -0.004024
    43  H    0.000000   0.000000   0.000000   0.000000   0.000000   0.000003
    44  H   -0.000002   0.000000   0.000011   0.000000   0.000000  -0.000012
    45  H   -0.000006   0.000000   0.000014   0.000002   0.000000  -0.000031
    46  H   -0.000020  -0.035967   0.480163   0.000573  -0.000058  -0.000121
    47  H    0.000004  -0.034033   0.392460   0.000116  -0.000218   0.000469
             19         20         21         22         23         24
     1  H    0.002374   0.000003   0.000003   0.000000  -0.047521  -0.004365
     2  C   -0.008549  -0.020540  -0.000243   0.015966  -0.284785  -0.611370
     3  C   -0.039024   0.004477   0.002123  -0.002809   0.053976  -0.063239
     4  C    0.190001  -0.069148   0.013631   0.023609   0.130148   0.047988
     5  C   -0.212121  -0.009031  -0.000011   0.000094  -0.065764  -0.024444
     6  C   -0.100111   0.080017  -0.009563  -0.054250  -0.047069   0.177635
     7  C   -0.007661   0.001092   0.001780  -0.001904   0.076230   0.057695
     8  H    0.000210   0.000001   0.000000   0.000000  -0.000930   0.001659
     9  H    0.007694   0.000492   0.000068  -0.000670  -0.001073   0.000093
    10  H    0.000446  -0.001268  -0.000009   0.010137  -0.011350  -0.008708
    11  H   -0.000084  -0.000001   0.000000   0.000000  -0.007730  -0.003604
    12  H    0.001089  -0.000001   0.000000   0.000000  -0.001360  -0.000523
    13  H    0.004015   0.000001   0.000002  -0.000004   0.001862  -0.008008
    14  O   -0.012849   0.002028   0.000308  -0.000036   0.000283   0.001209
    15  C    0.027538   0.018351  -0.001784   0.000849  -0.000328  -0.044776
    16  O    0.000114  -0.000430   0.000076  -0.000227  -0.002462  -0.020720
    17  H   -0.000192   0.000020   0.000000  -0.000003   0.000248   0.002037
    18  O   -0.020294  -0.063637  -0.068774  -0.049126   0.057492   0.160082
    19  C    5.142199   0.410583   0.432324   0.414061   0.004528  -0.056352
    20  H    0.410583   0.550072  -0.029701  -0.040577  -0.000141   0.005808
    21  H    0.432324  -0.029701   0.523883  -0.026499  -0.000013  -0.011676
    22  H    0.414061  -0.040577  -0.026499   0.559915   0.000220   0.001436
    23  O    0.004528  -0.000141  -0.000013   0.000220   8.466396   0.191264
    24  Si  -0.056352   0.005808  -0.011676   0.001436   0.191264  13.330085
    25  C    0.009421  -0.000793   0.002919  -0.001263  -0.066078   0.092368
    26  H    0.000180   0.000000  -0.000012   0.000000   0.009743  -0.037093
    27  H    0.001559  -0.000030   0.000415   0.000019  -0.004419  -0.061858
    28  H   -0.000975   0.000000  -0.000001   0.000000  -0.006098   0.003411
    29  C   -0.001452   0.000014  -0.000066   0.000365  -0.074642   0.530664
    30  C    0.014901  -0.000881   0.002839  -0.000471  -0.042927   0.095383
    31  H    0.000543   0.000000  -0.000005   0.000003   0.007612  -0.023704
    32  H    0.001824   0.000000   0.000000  -0.000017  -0.002455  -0.040177
    33  H    0.003815   0.000038   0.000198   0.000162  -0.005036  -0.030116
    34  C    0.003173   0.000029   0.000001  -0.000131   0.006815  -0.180836
    35  H   -0.000054   0.000000   0.000000   0.000000  -0.002012   0.004836
    36  H    0.000008   0.000000   0.000000   0.000000  -0.000863   0.021322
    37  H   -0.000052   0.000000   0.000000   0.000000   0.005884  -0.041580
    38  C   -0.000441   0.000002  -0.000020  -0.000028   0.013019  -0.086179
    39  H   -0.000018   0.000000   0.000000   0.000000   0.000671  -0.004439
    40  H    0.000018   0.000000   0.000000   0.000000   0.000653  -0.017514
    41  H    0.000004   0.000000   0.000000   0.000000  -0.000737   0.020060
    42  C   -0.004130   0.000008  -0.000023  -0.000049   0.025531  -0.145234
    43  H    0.000008   0.000000   0.000000   0.000000  -0.000848   0.016383
    44  H    0.000002   0.000000   0.000000   0.000000  -0.002736   0.000578
    45  H   -0.000062   0.000000   0.000000   0.000000   0.004935  -0.019596
    46  H   -0.000599   0.000004   0.000000   0.000000  -0.000007  -0.000175
    47  H    0.002686  -0.000011   0.000000  -0.000002  -0.000004   0.000079
             25         26         27         28         29         30
     1  H   -0.002239   0.000001  -0.000001  -0.000002   0.006307  -0.001232
     2  C    0.147491   0.001504  -0.015668  -0.032845  -0.288248   0.202759
     3  C    0.015851   0.000084   0.002797  -0.000488  -0.009085  -0.007721
     4  C   -0.027137   0.000227   0.000696  -0.001337   0.007599   0.005190
     5  C    0.004531   0.000077   0.001128  -0.000124   0.004992   0.003459
     6  C   -0.059950  -0.000813   0.009219   0.014496   0.059163  -0.104696
     7  C   -0.023710   0.001201   0.003687   0.007231   0.081464  -0.041969
     8  H   -0.000403   0.000000   0.000000   0.000001  -0.000087  -0.000041
     9  H    0.000020   0.000000  -0.000001   0.000000  -0.000069   0.000187
    10  H   -0.001206   0.000000   0.000020  -0.000001  -0.000910   0.003601
    11  H    0.000785  -0.000003   0.000004   0.000073  -0.003252  -0.000033
    12  H   -0.000157   0.000000   0.000000   0.000000   0.000030   0.000046
    13  H   -0.004480   0.000111   0.000050  -0.000365   0.001784  -0.000286
    14  O   -0.000808   0.000005   0.000007  -0.000034  -0.000164   0.000113
    15  C    0.008544   0.000052   0.000695  -0.000079   0.000173   0.000365
    16  O    0.001013   0.000000   0.000001   0.000000  -0.000631   0.002374
    17  H   -0.000070   0.000000   0.000000   0.000000   0.000022  -0.000142
    18  O   -0.052664   0.000885  -0.001061  -0.001288   0.012329  -0.044582
    19  C    0.009421   0.000180   0.001559  -0.000975  -0.001452   0.014901
    20  H   -0.000793   0.000000  -0.000030   0.000000   0.000014  -0.000881
    21  H    0.002919  -0.000012   0.000415  -0.000001  -0.000066   0.002839
    22  H   -0.001263   0.000000   0.000019   0.000000   0.000365  -0.000471
    23  O   -0.066078   0.009743  -0.004419  -0.006098  -0.074642  -0.042927
    24  Si   0.092368  -0.037093  -0.061858   0.003411   0.530664   0.095383
    25  C    5.549965   0.398325   0.419889   0.385687  -0.164289   0.050164
    26  H    0.398325   0.498573  -0.021669  -0.021947  -0.022980  -0.007552
    27  H    0.419889  -0.021669   0.472404  -0.022113   0.014786  -0.008633
    28  H    0.385687  -0.021947  -0.022113   0.496874  -0.013094   0.004253
    29  C   -0.164289  -0.022980   0.014786  -0.013094   8.098418  -0.166810
    30  C    0.050164  -0.007552  -0.008633   0.004253  -0.166810   5.605448
    31  H   -0.008411   0.000123   0.000073   0.000014  -0.018113   0.389032
    32  H    0.007881   0.000026   0.000006  -0.000017  -0.018954   0.411729
    33  H   -0.007190   0.000113   0.000518   0.000005   0.013463   0.394832
    34  C   -0.004410   0.001326  -0.000860  -0.004914  -0.370013  -0.019963
    35  H   -0.000985   0.000001  -0.000001   0.000000  -0.062291   0.002213
    36  H   -0.001193   0.000000   0.000000   0.000000  -0.159876  -0.001192
    37  H    0.000239   0.000000  -0.000001   0.000001  -0.108549   0.002699
    38  C    0.017299   0.011887  -0.001161   0.002501  -0.315150   0.010665
    39  H   -0.001703   0.000014  -0.000006   0.000020  -0.084008   0.002698
    40  H    0.004655   0.000068   0.000010   0.000007  -0.080111   0.000267
    41  H    0.000787   0.000019   0.000000  -0.000005  -0.155908  -0.000122
    42  C    0.015140   0.006594   0.002078   0.008454  -0.378285  -0.010195
    43  H    0.001184  -0.000002   0.000000  -0.000008  -0.159521  -0.001773
    44  H    0.000180   0.000074   0.000006   0.000126  -0.062561  -0.000009
    45  H    0.000066   0.000004  -0.000004   0.000018  -0.107483  -0.000849
    46  H    0.000044   0.000000   0.000000   0.000000  -0.000002   0.000002
    47  H   -0.000013   0.000000   0.000000   0.000000   0.000000   0.000002
             31         32         33         34         35         36
     1  H    0.000001   0.000002   0.000002  -0.001493  -0.000001  -0.000001
     2  C    0.002225   0.001981  -0.019826   0.061598  -0.000386  -0.001525
     3  C    0.000201  -0.000168  -0.000206   0.010135  -0.000080   0.000034
     4  C    0.000226   0.000219   0.001755   0.000575  -0.000032   0.000016
     5  C   -0.000310  -0.000097   0.000800  -0.000672  -0.000020   0.000006
     6  C   -0.001403  -0.004443   0.005822  -0.006032  -0.000775   0.000759
     7  C    0.000055   0.001169   0.004684  -0.002824  -0.000371   0.000524
     8  H    0.000000   0.000000   0.000000   0.000032   0.000000   0.000000
     9  H    0.000000   0.000000   0.000000   0.000027   0.000000   0.000000
    10  H   -0.000001   0.000002   0.000082   0.000265   0.000001   0.000000
    11  H    0.000000   0.000000   0.000000   0.000554   0.000000   0.000000
    12  H    0.000000   0.000000   0.000000  -0.000001   0.000000   0.000000
    13  H    0.000000   0.000000   0.000003   0.000139   0.000000   0.000000
    14  O    0.000000   0.000000   0.000000   0.000063   0.000000   0.000000
    15  C   -0.000002  -0.000009   0.000148   0.000751  -0.000001   0.000000
    16  O   -0.000001   0.000007   0.000000   0.000055   0.000000   0.000000
    17  H    0.000000   0.000000   0.000000  -0.000008   0.000000   0.000000
    18  O    0.000721  -0.000041  -0.000293   0.003235  -0.000021   0.000002
    19  C    0.000543   0.001824   0.003815   0.003173  -0.000054   0.000008
    20  H    0.000000   0.000000   0.000038   0.000029   0.000000   0.000000
    21  H   -0.000005   0.000000   0.000198   0.000001   0.000000   0.000000
    22  H    0.000003  -0.000017   0.000162  -0.000131   0.000000   0.000000
    23  O    0.007612  -0.002455  -0.005036   0.006815  -0.002012  -0.000863
    24  Si  -0.023704  -0.040177  -0.030116  -0.180836   0.004836   0.021322
    25  C   -0.008411   0.007881  -0.007190  -0.004410  -0.000985  -0.001193
    26  H    0.000123   0.000026   0.000113   0.001326   0.000001   0.000000
    27  H    0.000073   0.000006   0.000518  -0.000860  -0.000001   0.000000
    28  H    0.000014  -0.000017   0.000005  -0.004914   0.000000   0.000000
    29  C   -0.018113  -0.018954   0.013463  -0.370013  -0.062291  -0.159876
    30  C    0.389032   0.411729   0.394832  -0.019963   0.002213  -0.001192
    31  H    0.503680  -0.022988  -0.022706   0.011102  -0.000001  -0.000001
    32  H   -0.022988   0.494495  -0.021912   0.012664  -0.000132   0.000002
    33  H   -0.022706  -0.021912   0.492781   0.002049   0.000023   0.000000
    34  C    0.011102   0.012664   0.002049   6.070635   0.414394   0.467045
    35  H   -0.000001  -0.000132   0.000023   0.414394   0.537210  -0.028530
    36  H   -0.000001   0.000002   0.000000   0.467045  -0.028530   0.548507
    37  H    0.000018   0.000040  -0.000006   0.487552  -0.026161  -0.027376
    38  C    0.004685   0.000738  -0.000639  -0.057400  -0.002516   0.008409
    39  H    0.000554   0.000038  -0.000010  -0.018820   0.002743  -0.000305
    40  H   -0.000018   0.000007  -0.000006   0.003919   0.000031   0.000003
    41  H    0.000020  -0.000006   0.000001   0.013977  -0.000366   0.005537
    42  C   -0.001231  -0.003603  -0.001169  -0.328622  -0.000707   0.004655
    43  H    0.000000   0.000000   0.000000   0.008534   0.000032   0.005623
    44  H    0.000001   0.000000  -0.000001   0.001498  -0.000155   0.000030
    45  H    0.000000   0.000002   0.000000  -0.001667   0.000024  -0.000319
    46  H    0.000000   0.000000   0.000000   0.000000   0.000000   0.000000
    47  H    0.000000   0.000000   0.000000   0.000000   0.000000   0.000000
             37         38         39         40         41         42
     1  H   -0.000015   0.000091   0.000000   0.000000   0.000000  -0.001980
     2  C    0.011850  -0.004998   0.000552   0.000600  -0.001239  -0.023320
     3  C    0.000490  -0.000590  -0.000012  -0.000014   0.000006  -0.001269
     4  C   -0.000364  -0.003168   0.000008  -0.000011  -0.000006  -0.023175
     5  C    0.000200   0.001072  -0.000010   0.000010   0.000000   0.011367
     6  C   -0.000995   0.001748  -0.000141  -0.000204   0.000182   0.036796
     7  C   -0.002416   0.004302  -0.000255   0.000018   0.000315   0.006679
     8  H    0.000000  -0.000005   0.000000   0.000000   0.000000   0.000040
     9  H    0.000000  -0.000002   0.000000   0.000000   0.000000   0.000002
    10  H   -0.000001  -0.000020   0.000000   0.000000   0.000000   0.000036
    11  H    0.000001  -0.000319   0.000000   0.000000   0.000000   0.002766
    12  H    0.000000   0.000001   0.000000   0.000000   0.000000  -0.000032
    13  H    0.000000   0.000340   0.000000   0.000000   0.000000  -0.000826
    14  O    0.000000  -0.000021   0.000000   0.000000   0.000000  -0.000066
    15  C    0.000009  -0.000170   0.000000   0.000000   0.000000   0.001394
    16  O    0.000002  -0.000004   0.000000   0.000000   0.000000   0.000187
    17  H    0.000000   0.000000   0.000000   0.000000   0.000000   0.000005
    18  O   -0.000027  -0.000426  -0.000005  -0.000003   0.000001  -0.004024
    19  C   -0.000052  -0.000441  -0.000018   0.000018   0.000004  -0.004130
    20  H    0.000000   0.000002   0.000000   0.000000   0.000000   0.000008
    21  H    0.000000  -0.000020   0.000000   0.000000   0.000000  -0.000023
    22  H    0.000000  -0.000028   0.000000   0.000000   0.000000  -0.000049
    23  O    0.005884   0.013019   0.000671   0.000653  -0.000737   0.025531
    24  Si  -0.041580  -0.086179  -0.004439  -0.017514   0.020060  -0.145234
    25  C    0.000239   0.017299  -0.001703   0.004655   0.000787   0.015140
    26  H    0.000000   0.011887   0.000014   0.000068   0.000019   0.006594
    27  H   -0.000001  -0.001161  -0.000006   0.000010   0.000000   0.002078
    28  H    0.000001   0.002501   0.000020   0.000007  -0.000005   0.008454
    29  C   -0.108549  -0.315150  -0.084008  -0.080111  -0.155908  -0.378285
    30  C    0.002699   0.010665   0.002698   0.000267  -0.000122  -0.010195
    31  H    0.000018   0.004685   0.000554  -0.000018   0.000020  -0.001231
    32  H    0.000040   0.000738   0.000038   0.000007  -0.000006  -0.003603
    33  H   -0.000006  -0.000639  -0.000010  -0.000006   0.000001  -0.001169
    34  C    0.487552  -0.057400  -0.018820   0.003919   0.013977  -0.328622
    35  H   -0.026161  -0.002516   0.002743   0.000031  -0.000366  -0.000707
    36  H   -0.027376   0.008409  -0.000305   0.000003   0.005537   0.004655
    37  H    0.517978   0.001674   0.000037  -0.000145   0.000026  -0.002297
    38  C    0.001674   5.539437   0.449694   0.453033   0.454382   0.028980
    39  H    0.000037   0.449694   0.537511  -0.027461  -0.028292   0.007467
    40  H   -0.000145   0.453033  -0.027461   0.533661  -0.028142  -0.012688
    41  H    0.000026   0.454382  -0.028292  -0.028142   0.544531   0.007369
    42  C   -0.002297   0.028980   0.007467  -0.012688   0.007369   5.993481
    43  H   -0.000288   0.010831   0.000001  -0.000334   0.005432   0.462497
    44  H    0.000027  -0.005250   0.000025   0.002818  -0.000336   0.419153
    45  H    0.003028  -0.000001  -0.000147   0.000041   0.000023   0.476381
    46  H    0.000000   0.000000   0.000000   0.000000   0.000000   0.000001
    47  H    0.000000   0.000000   0.000000   0.000000   0.000000   0.000000
             43         44         45         46         47
     1  H    0.000000   0.000000  -0.000033   0.000000   0.000000
     2  C   -0.001098  -0.001826   0.011032   0.001582  -0.004658
     3  C    0.000122   0.000098   0.000324   0.055501  -0.026600
     4  C    0.000019   0.000013  -0.000396  -0.025739   0.098422
     5  C   -0.000013   0.000306   0.000380  -0.135402  -0.102139
     6  C    0.000132   0.000027  -0.003618  -0.006908   0.006406
     7  C    0.001175   0.001522  -0.005005   0.005146  -0.001665
     8  H    0.000000   0.000000   0.000000   0.000397   0.000064
     9  H    0.000000   0.000000   0.000000   0.000156   0.001310
    10  H    0.000000   0.000000   0.000000   0.000001   0.000001
    11  H    0.000001  -0.000016   0.000182  -0.000001   0.000001
    12  H    0.000000   0.000000   0.000000  -0.000275   0.000244
    13  H    0.000000  -0.000002  -0.000006  -0.000020   0.000004
    14  O    0.000000   0.000000   0.000000  -0.035967  -0.034033
    15  C    0.000000   0.000011   0.000014   0.480163   0.392460
    16  O    0.000000   0.000000   0.000002   0.000573   0.000116
    17  H    0.000000   0.000000   0.000000  -0.000058  -0.000218
    18  O    0.000003  -0.000012  -0.000031  -0.000121   0.000469
    19  C    0.000008   0.000002  -0.000062  -0.000599   0.002686
    20  H    0.000000   0.000000   0.000000   0.000004  -0.000011
    21  H    0.000000   0.000000   0.000000   0.000000   0.000000
    22  H    0.000000   0.000000   0.000000   0.000000  -0.000002
    23  O   -0.000848  -0.002736   0.004935  -0.000007  -0.000004
    24  Si   0.016383   0.000578  -0.019596  -0.000175   0.000079
    25  C    0.001184   0.000180   0.000066   0.000044  -0.000013
    26  H   -0.000002   0.000074   0.000004   0.000000   0.000000
    27  H    0.000000   0.000006  -0.000004   0.000000   0.000000
    28  H   -0.000008   0.000126   0.000018   0.000000   0.000000
    29  C   -0.159521  -0.062561  -0.107483  -0.000002   0.000000
    30  C   -0.001773  -0.000009  -0.000849   0.000002   0.000002
    31  H    0.000000   0.000001   0.000000   0.000000   0.000000
    32  H    0.000000   0.000000   0.000002   0.000000   0.000000
    33  H    0.000000  -0.000001   0.000000   0.000000   0.000000
    34  C    0.008534   0.001498  -0.001667   0.000000   0.000000
    35  H    0.000032  -0.000155   0.000024   0.000000   0.000000
    36  H    0.005623   0.000030  -0.000319   0.000000   0.000000
    37  H   -0.000288   0.000027   0.003028   0.000000   0.000000
    38  C    0.010831  -0.005250  -0.000001   0.000000   0.000000
    39  H    0.000001   0.000025  -0.000147   0.000000   0.000000
    40  H   -0.000334   0.002818   0.000041   0.000000   0.000000
    41  H    0.005432  -0.000336   0.000023   0.000000   0.000000
    42  C    0.462497   0.419153   0.476381   0.000001   0.000000
    43  H    0.549181  -0.028737  -0.027458   0.000000   0.000000
    44  H   -0.028737   0.539362  -0.026051   0.000000   0.000000
    45  H   -0.027458  -0.026051   0.519353   0.000000   0.000000
    46  H    0.000000   0.000000   0.000000   0.522330  -0.034919
    47  H    0.000000   0.000000   0.000000  -0.034919   0.533067
 Mulliken atomic charges:
              1
     1  H    0.171166
     2  C   -0.133953
     3  C   -0.673156
     4  C    0.208023
     5  C   -0.010875
     6  C   -0.285738
     7  C   -0.156996
     8  H    0.173323
     9  H    0.150281
    10  H    0.155171
    11  H    0.171652
    12  H    0.185563
    13  H    0.192499
    14  O   -0.302248
    15  C    0.064192
    16  O   -0.521433
    17  H    0.385629
    18  O   -0.257779
    19  C   -0.210293
    20  H    0.163148
    21  H    0.167829
    22  H    0.151229
    23  O   -0.378125
    24  Si   0.784208
    25  C   -0.705292
    26  H    0.180854
    27  H    0.207416
    28  H    0.182565
    29  C   -0.004970
    30  C   -0.743141
    31  H    0.178006
    32  H    0.182188
    33  H    0.187824
    34  C   -0.583477
    35  H    0.164089
    36  H    0.158699
    37  H    0.178519
    38  C   -0.536283
    39  H    0.163599
    40  H    0.166831
    41  H    0.162485
    42  C   -0.574134
    43  H    0.158924
    44  H    0.161834
    45  H    0.176919
    46  H    0.174295
    47  H    0.168933
 Sum of Mulliken atomic charges =   0.00000
 Mulliken charges with hydrogens summed into heavy atoms:
              1
     2  C    0.037213
     3  C   -0.314271
     4  C    0.358305
     5  C   -0.010875
     6  C   -0.130567
     7  C    0.207155
    14  O   -0.302248
    15  C    0.407420
    16  O   -0.135805
    18  O   -0.257779
    19  C    0.271913
    23  O   -0.378125
    24  Si   0.784208
    25  C   -0.134457
    29  C   -0.004970
    30  C   -0.195123
    34  C   -0.082170
    38  C   -0.043367
    42  C   -0.076457
 Sum of Mulliken charges with hydrogens summed into heavy atoms =   0.00000
 Electronic spatial extent (au):  <R**2>=           6523.4274
 Charge=              0.0000 electrons
 Dipole moment (field-independent basis, Debye):
    X=             -4.0102    Y=              0.0934    Z=              0.7092  Tot=              4.0735
 Quadrupole moment (field-independent basis, Debye-Ang):
   XX=           -108.2065   YY=           -119.9133   ZZ=           -132.8805
   XY=              5.7609   XZ=             -8.6747   YZ=              3.4822
 Traceless Quadrupole moment (field-independent basis, Debye-Ang):
   XX=             12.1269   YY=              0.4201   ZZ=            -12.5471
   XY=              5.7609   XZ=             -8.6747   YZ=              3.4822
 Octapole moment (field-independent basis, Debye-Ang**2):
  XXX=           -166.3174  YYY=             12.9687  ZZZ=              2.9133  XYY=            -32.1791
  XXY=            -18.8901  XXZ=             33.4227  XZZ=             -5.7661  YZZ=             -1.0706
  YYZ=             -1.6686  XYZ=             -7.7572
 Hexadecapole moment (field-independent basis, Debye-Ang**3):
 XXXX=          -5882.3412 YYYY=          -1384.5706 ZZZZ=          -1037.7288 XXXY=            128.2894
 XXXZ=           -160.2799 YYYX=             -8.4932 YYYZ=            -20.6948 ZZZX=            -25.4723
 ZZZY=              3.0265 XXYY=          -1274.6469 XXZZ=          -1256.1111 YYZZ=           -392.5538
 XXYZ=             16.0397 YYXZ=             -0.9576 ZZXY=             23.9518
 N-N= 1.828280332956D+03 E-N=-6.327834157784D+03  KE= 1.131534821876D+03
 1\1\GINC-COMPUTE-8-30\SP\RmPW1PW91\6-31+G(d,p)\C14H28O4Si1\ELUCIANO.IQ
 UIR\06-Dec-2022\0\\# mPW1PW91/6-31+g** scrf=(PCM,solvent=chloroform) n
 mr\\comment\\0,1\H,0,-0.73898,-1.393828,1.447699\C,0,-0.526653,-0.7406
 4,0.592737\C,0,-2.485559,-1.821719,-0.593456\C,0,-2.84855,0.187493,0.9
 54889\C,0,-3.328693,-0.606279,-0.255174\C,0,-1.347768,0.539096,0.83145
 2\C,0,-0.993078,-1.457012,-0.68545\H,0,-2.838746,-2.255868,-1.534929\H
 ,0,-3.438213,1.113158,1.019952\H,0,-1.025859,1.006495,1.775204\H,0,-0.
 390074,-2.361358,-0.822869\H,0,-2.634202,-2.572643,0.193932\H,0,-0.827
 556,-0.809936,-1.551917\O,0,-3.746202,0.213665,-1.363928\C,0,-4.746014
 ,-0.523516,-0.649548\O,0,-2.978584,-0.571888,2.158416\H,0,-3.917576,-0
 .788328,2.270135\O,0,-1.097736,1.415532,-0.256506\C,0,-1.634466,2.7220
 97,-0.138644\H,0,-2.712301,2.740614,-0.342897\H,0,-1.12857,3.337143,-0
 .887661\H,0,-1.444734,3.1474,0.858602\O,0,0.868684,-0.522061,0.617215\
 Si,0,1.997807,0.42162,-0.187754\C,0,1.641141,0.612704,-2.034142\H,0,2.
 414127,1.22596,-2.513993\H,0,0.677586,1.109727,-2.182376\H,0,1.60941,-
 0.349728,-2.556965\C,0,3.633485,-0.544035,0.093607\C,0,2.120983,2.1369
 1,0.602153\H,0,3.00061,2.680217,0.235032\H,0,2.203632,2.071646,1.69314
 8\H,0,1.237796,2.739492,0.367707\C,0,3.932236,-0.638588,1.605319\H,0,4
 .074762,0.351164,2.056322\H,0,4.854578,-1.212515,1.780317\H,0,3.120404
 ,-1.138898,2.144777\C,0,4.80682,0.174496,-0.60733\H,0,4.9521,1.194645,
 -0.230406\H,0,4.662715,0.236295,-1.693241\H,0,5.746939,-0.370252,-0.43
 5688\C,0,3.508674,-1.972421,-0.477452\H,0,4.436229,-2.538409,-0.304831
 \H,0,3.328899,-1.967745,-1.56\H,0,2.688826,-2.523134,-0.003299\H,0,-5.
 199438,-1.349658,-1.198196\H,0,-5.446313,0.082168,-0.070348\\Version=E
 M64L-G09RevC.01\State=1-A\HF=-1140.6183151\RMSD=4.124e-09\Dipole=-1.57
 77478,0.0367328,0.2790396\Quadrupole=9.0160752,0.3123548,-9.32843,4.28
 31134,-6.4494333,2.5889373\PG=C01 [X(C14H28O4Si1)]\\@


 Make no judgements where you have no compassion.
                               -- Anne McCaffrey
 Job cpu time:  0 days  1 hours  5 minutes  7.3 seconds.
 File lengths (MBytes):  RWF=    291 Int=      0 D2E=      0 Chk=     16 Scr=      1
 Normal termination of Gaussian 09 at Tue Dec  6 21:54:46 2022.
