 Entering Gaussian System, Link 0=g09
 Input=/home/eluciano.iquir/todos_optB3L_MPW_B_PCM/02_epoxido28_015_optB3L_nmr_MPW_B_PCM.gjc
 Output=/home/eluciano.iquir/todos_optB3L_MPW_B_PCM/02_epoxido28_015_optB3L_nmr_MPW_B_PCM.log
 Initial command:
 /share/apps/Gaussian09/EM64T.SSE4.2-enabled/g09/l1.exe /tmp/Gau-91268.inp -scrdir=/tmp/
 Entering Link 1 = /share/apps/Gaussian09/EM64T.SSE4.2-enabled/g09/l1.exe PID=     91269.
  
 Copyright (c) 1988,1990,1992,1993,1995,1998,2003,2009,2011,
            Gaussian, Inc.  All Rights Reserved.
  
 This is part of the Gaussian(R) 09 program.  It is based on
 the Gaussian(R) 03 system (copyright 2003, Gaussian, Inc.),
 the Gaussian(R) 98 system (copyright 1998, Gaussian, Inc.),
 the Gaussian(R) 94 system (copyright 1995, Gaussian, Inc.),
 the Gaussian 92(TM) system (copyright 1992, Gaussian, Inc.),
 the Gaussian 90(TM) system (copyright 1990, Gaussian, Inc.),
 the Gaussian 88(TM) system (copyright 1988, Gaussian, Inc.),
 the Gaussian 86(TM) system (copyright 1986, Carnegie Mellon
 University), and the Gaussian 82(TM) system (copyright 1983,
 Carnegie Mellon University). Gaussian is a federally registered
 trademark of Gaussian, Inc.
  
 This software contains proprietary and confidential information,
 including trade secrets, belonging to Gaussian, Inc.
  
 This software is provided under written license and may be
 used, copied, transmitted, or stored only in accord with that
 written license.
  
 The following legend is applicable only to US Government
 contracts under FAR:
  
                    RESTRICTED RIGHTS LEGEND
  
 Use, reproduction and disclosure by the US Government is
 subject to restrictions as set forth in subparagraphs (a)
 and (c) of the Commercial Computer Software - Restricted
 Rights clause in FAR 52.227-19.
  
 Gaussian, Inc.
 340 Quinnipiac St., Bldg. 40, Wallingford CT 06492
  
  
 ---------------------------------------------------------------
 Warning -- This program may not be used in any manner that
 competes with the business of Gaussian, Inc. or will provide
 assistance to any competitor of Gaussian, Inc.  The licensee
 of this program is prohibited from giving any competitor of
 Gaussian, Inc. access to this program.  By using this program,
 the user acknowledges that Gaussian, Inc. is engaged in the
 business of creating and licensing software in the field of
 computational chemistry and represents and warrants to the
 licensee that it is not a competitor of Gaussian, Inc. and that
 it will not use this program in any manner prohibited above.
 ---------------------------------------------------------------
  

 Cite this work as:
 Gaussian 09, Revision C.01,
 M. J. Frisch, G. W. Trucks, H. B. Schlegel, G. E. Scuseria, 
 M. A. Robb, J. R. Cheeseman, G. Scalmani, V. Barone, B. Mennucci, 
 G. A. Petersson, H. Nakatsuji, M. Caricato, X. Li, H. P. Hratchian, 
 A. F. Izmaylov, J. Bloino, G. Zheng, J. L. Sonnenberg, M. Hada, 
 M. Ehara, K. Toyota, R. Fukuda, J. Hasegawa, M. Ishida, T. Nakajima, 
 Y. Honda, O. Kitao, H. Nakai, T. Vreven, J. A. Montgomery, Jr., 
 J. E. Peralta, F. Ogliaro, M. Bearpark, J. J. Heyd, E. Brothers, 
 K. N. Kudin, V. N. Staroverov, T. Keith, R. Kobayashi, J. Normand, 
 K. Raghavachari, A. Rendell, J. C. Burant, S. S. Iyengar, J. Tomasi, 
 M. Cossi, N. Rega, J. M. Millam, M. Klene, J. E. Knox, J. B. Cross, 
 V. Bakken, C. Adamo, J. Jaramillo, R. Gomperts, R. E. Stratmann, 
 O. Yazyev, A. J. Austin, R. Cammi, C. Pomelli, J. W. Ochterski, 
 R. L. Martin, K. Morokuma, V. G. Zakrzewski, G. A. Voth, 
 P. Salvador, J. J. Dannenberg, S. Dapprich, A. D. Daniels, 
 O. Farkas, J. B. Foresman, J. V. Ortiz, J. Cioslowski, 
 and D. J. Fox, Gaussian, Inc., Wallingford CT, 2010.
 
 ******************************************
 Gaussian 09:  EM64L-G09RevC.01 23-Sep-2011
                 6-Dec-2022 
 ******************************************
 %nprocshared=4
 Will use up to    4 processors via shared memory.
 %mem=80MW
 -----------------------------------------------------
 # mPW1PW91/6-31+g** scrf=(PCM,solvent=chloroform) nmr
 -----------------------------------------------------
 1/38=1/1;
 2/12=2,17=6,18=5,40=1/2;
 3/5=1,6=6,7=111,11=2,16=1,25=1,30=1,70=2201,72=7,74=-7/1,2,8,3;
 4//1;
 5/5=2,38=5,53=7/2;
 8/6=1,10=90,11=11/1;
 10/13=100,45=16/2;
 6/7=2,8=2,9=2,10=2,28=1/1;
 99/9=1/99;
 -------
 comment
 -------
 Charge =  0 Multiplicity = 1
 Symbolic Z-Matrix:
 1                    -0.52602  -0.88449   1.05685 
 6                    -0.57852  -0.28096   0.13899 
 6                    -2.64255  -1.59106  -0.479 
 6                    -2.83034   0.51285   0.97905 
 6                    -3.5049   -0.43542  -0.00523 
 6                    -1.43569   0.95373   0.47641 
 6                    -1.2598   -1.11057  -0.95582 
 1                    -3.16612  -2.11977  -1.28261 
 1                    -3.45496   1.41077   1.07872 
 1                    -0.92853   1.52232   1.27745 
 1                    -0.63476  -1.97412  -1.21249 
 1                    -2.52033  -2.29476   0.35527 
 1                    -1.36201  -0.49368  -1.85495 
 8                    -4.30091   0.21451  -1.01077 
 6                    -4.96913  -0.5426    0.00778 
 8                    -2.73057  -0.19692   2.21723 
 1                    -2.31619   0.39615   2.8638 
 8                    -1.6767    1.7998   -0.63206 
 6                    -0.66672   2.74683  -0.94054 
 1                    -0.34075   3.28899  -0.03884 
 1                    -1.1174    3.45976  -1.63724 
 1                     0.20855   2.28172  -1.40454 
 8                     0.73191   0.14737  -0.22327 
 14                    2.14683  -0.7653   -0.21985 
 6                     1.99181  -2.20126   1.0041 
 1                     2.92198  -2.78135   1.03538 
 1                     1.19106  -2.89313   0.7164 
 1                     1.78207  -1.85945   2.02416 
 6                     3.53634   0.44565   0.30137 
 6                     2.46827  -1.45376  -1.95099 
 1                     3.42042  -1.99603  -1.99986 
 1                     2.49926  -0.65441  -2.69997 
 1                     1.67725  -2.15141  -2.24988 
 6                     3.60916   1.62804  -0.68894 
 1                     3.83866   1.29677  -1.70909 
 1                     4.40159   2.32916  -0.38841 
 1                     2.66725   2.18709  -0.72164 
 6                     4.8977   -0.28372   0.31157 
 1                     5.16385  -0.67369  -0.6785 
 1                     4.91237  -1.12318   1.01786 
 1                     5.69806   0.40748   0.61304 
 6                     3.2486    0.99687   1.71411 
 1                     4.02802   1.71298   2.01296 
 1                     3.23198   0.20122   2.46927 
 1                     2.28557   1.5187    1.7536 
 1                    -5.44212  -1.46628  -0.32785 
 1                    -5.54958   0.0411    0.72293 
 
                          Input orientation:                          
 ---------------------------------------------------------------------
 Center     Atomic      Atomic             Coordinates (Angstroms)
 Number     Number       Type             X           Y           Z
 ---------------------------------------------------------------------
      1          1           0       -0.526020   -0.884486    1.056847
      2          6           0       -0.578524   -0.280964    0.138985
      3          6           0       -2.642553   -1.591064   -0.479003
      4          6           0       -2.830337    0.512846    0.979048
      5          6           0       -3.504896   -0.435419   -0.005232
      6          6           0       -1.435692    0.953727    0.476408
      7          6           0       -1.259801   -1.110567   -0.955822
      8          1           0       -3.166119   -2.119772   -1.282612
      9          1           0       -3.454964    1.410769    1.078717
     10          1           0       -0.928526    1.522315    1.277447
     11          1           0       -0.634756   -1.974122   -1.212491
     12          1           0       -2.520332   -2.294763    0.355268
     13          1           0       -1.362010   -0.493675   -1.854953
     14          8           0       -4.300905    0.214505   -1.010774
     15          6           0       -4.969134   -0.542601    0.007781
     16          8           0       -2.730571   -0.196915    2.217225
     17          1           0       -2.316192    0.396149    2.863803
     18          8           0       -1.676696    1.799797   -0.632064
     19          6           0       -0.666721    2.746830   -0.940541
     20          1           0       -0.340748    3.288993   -0.038836
     21          1           0       -1.117401    3.459759   -1.637235
     22          1           0        0.208553    2.281722   -1.404536
     23          8           0        0.731908    0.147365   -0.223268
     24         14           0        2.146830   -0.765298   -0.219846
     25          6           0        1.991809   -2.201256    1.004097
     26          1           0        2.921981   -2.781350    1.035383
     27          1           0        1.191061   -2.893134    0.716401
     28          1           0        1.782073   -1.859451    2.024165
     29          6           0        3.536340    0.445652    0.301368
     30          6           0        2.468266   -1.453755   -1.950990
     31          1           0        3.420417   -1.996032   -1.999860
     32          1           0        2.499259   -0.654412   -2.699969
     33          1           0        1.677245   -2.151411   -2.249881
     34          6           0        3.609158    1.628042   -0.688941
     35          1           0        3.838655    1.296765   -1.709086
     36          1           0        4.401586    2.329163   -0.388411
     37          1           0        2.667246    2.187088   -0.721640
     38          6           0        4.897704   -0.283715    0.311568
     39          1           0        5.163853   -0.673692   -0.678504
     40          1           0        4.912370   -1.123178    1.017857
     41          1           0        5.698061    0.407477    0.613043
     42          6           0        3.248604    0.996867    1.714114
     43          1           0        4.028017    1.712977    2.012965
     44          1           0        3.231977    0.201221    2.469274
     45          1           0        2.285573    1.518700    1.753601
     46          1           0       -5.442120   -1.466283   -0.327845
     47          1           0       -5.549581    0.041098    0.722933
 ---------------------------------------------------------------------
                    Distance matrix (angstroms):
                    1          2          3          4          5
     1  H    0.000000
     2  C    1.099757   0.000000
     3  C    2.708837   2.521604   0.000000
     4  C    2.696009   2.531107   2.566635   0.000000
     5  C    3.194272   2.933992   1.517765   1.524153   0.000000
     6  C    2.131535   1.540472   2.974102   1.546628   2.538367
     7  C    2.154155   1.533291   1.539557   2.974185   2.529802
     8  H    3.737529   3.478189   1.095190   3.486909   2.140914
     9  H    3.721208   3.466838   3.478147   1.098344   2.141459
    10  H    2.450177   2.161114   3.964358   2.173696   3.480757
    11  H    2.519727   2.167126   2.171632   3.975982   3.473152
    12  H    2.541333   2.805848   1.098243   2.892728   2.134593
    13  H    3.054536   2.152878   2.176532   3.346734   2.831399
    14  O    4.442139   3.927283   2.508583   2.492182   1.437757
    15  C    4.578066   4.400355   2.597925   2.575224   1.468213
    16  O    2.584430   2.992900   3.036617   1.430663   2.365540
    17  H    2.847777   3.301909   3.902548   1.957106   3.214947
    18  O    3.373700   2.475897   3.529057   2.362798   2.954898
    19  C    4.146783   3.215695   4.788972   3.654687   4.365404
    20  H    4.318886   3.582283   5.413595   3.865376   4.887147
    21  H    5.145899   4.175926   5.401704   4.296904   4.851389
    22  H    4.077116   3.093430   4.897335   4.247970   4.809429
    23  O    2.070216   1.425456   3.804540   3.777397   4.282252
    24  Si   2.964503   2.791217   4.866954   5.276665   5.665411
    25  C    2.841853   3.323034   4.904002   5.533540   5.860946
    26  H    3.935386   4.394200   5.888479   6.629032   6.920334
    27  H    2.664383   3.207534   4.221489   5.276488   5.349124
    28  H    2.685806   3.408510   5.090697   5.290972   5.839380
    29  C    4.340828   4.181680   6.552550   6.402995   7.102767
    30  C    4.282161   3.876385   5.320345   6.366148   6.364090
    31  H    5.114035   4.848468   6.263913   7.364801   7.373874
    32  H    4.828966   4.203793   5.678753   6.580445   6.584789
    33  H    4.170603   3.780707   4.702197   6.151629   5.902344
    34  C    5.143955   4.676157   7.034956   6.744846   7.438756
    35  H    5.608799   5.041435   7.201300   7.232983   7.735071
    36  H    6.057855   5.647336   8.062027   7.580875   8.384641
    37  H    4.774362   4.167371   6.521294   5.993233   6.744340
    38  C    5.507554   5.478947   7.693480   7.797606   8.409938
    39  H    5.952355   5.813555   7.862655   8.249995   8.698119
    40  H    5.443765   5.624203   7.715981   7.913760   8.507061
    41  H    6.372230   6.331998   8.645957   8.536898   9.262136
    42  C    4.268404   4.331373   6.798006   6.142322   7.114588
    43  H    5.329186   5.357968   7.850038   7.038915   8.089098
    44  H    4.158876   4.492512   6.812835   6.250563   7.205133
    45  H    3.763751   3.748176   6.240319   5.271073   6.359371
    46  H    5.140418   5.027671   2.806420   3.527936   2.218016
    47  H    5.119020   5.015588   3.543926   2.771720   2.222168
                    6          7          8          9         10
     6  C    0.000000
     7  C    2.518637   0.000000
     8  H    3.941437   2.181590   0.000000
     9  H    2.156182   3.913467   4.257232   0.000000
    10  H    1.105519   3.468328   4.982522   2.536696   0.000000
    11  H    3.473640   1.096489   2.536519   4.965954   4.302460
    12  H    3.426924   2.170303   1.769269   3.889458   4.237257
    13  H    2.745113   1.095189   2.495311   4.076001   3.750207
    14  O    3.311737   3.317702   2.609690   2.551987   4.280101
    15  C    3.865724   3.874309   2.720927   2.693561   4.711947
    16  O    2.455836   3.614713   4.016957   2.098951   2.662011
    17  H    2.604962   4.239775   4.923920   2.347933   2.389643
    18  O    1.415142   2.957844   4.243185   2.498070   2.069538
    19  C    2.411282   3.902754   5.481589   3.692799   2.547047
    20  H    2.630180   4.587118   6.227715   3.804601   2.280183
    21  H    3.293781   4.623038   5.954340   4.127827   3.504959
    22  H    2.829322   3.723578   5.547650   4.510705   3.010429
    23  O    2.416248   2.466968   4.632141   4.563031   2.626723
    24  Si   4.034139   3.502286   5.584935   6.148303   4.114957
    25  C    4.688298   3.950171   5.642685   6.536025   4.740048
    26  H    5.766504   4.923791   6.547958   7.631590   5.779838
    27  H    4.664308   3.461300   4.855838   6.343532   4.929869
    28  H    4.545716   4.323673   5.957109   6.246180   4.397872
    29  C    5.000988   5.196664   7.349377   7.100285   4.695419
    30  C    5.189327   3.873838   5.712845   7.243568   5.551396
    31  H    6.197965   4.876321   6.626629   8.267696   6.483272
    32  H    5.306536   4.169012   6.021021   7.348211   5.683985
    33  H    5.173481   3.374046   4.939108   7.078719   5.720870
    34  C    5.221422   5.592671   7.765496   7.285166   4.946558
    35  H    5.719510   5.688313   7.805220   7.809079   5.629944
    36  H    6.059171   6.648684   8.823989   8.044954   5.642356
    37  H    4.448663   5.133329   7.272680   6.428484   4.167475
    38  C    6.455257   6.340728   8.422455   8.557269   6.175729
    39  H    6.894658   6.444462   8.476115   9.039735   6.765004
    40  H    6.701089   6.480067   8.458566   8.742818   6.417327
    41  H    7.155941   7.292300   9.410323   9.219616   6.752477
    42  C    4.845246   5.647615   7.735792   6.746323   4.232634
    43  H    5.726219   6.689329   8.792405   7.547129   5.014445
    44  H    5.130781   5.798977   7.771698   6.936270   4.524989
    45  H    3.974699   5.179160   7.223435   5.781080   3.249180
    46  H    4.749183   4.244135   2.553196   3.768904   5.646345
    47  H    4.221108   4.748343   3.791103   2.527845   4.884223
                   11         12         13         14         15
    11  H    0.000000
    12  H    2.473070   0.000000
    13  H    1.770135   3.077451   0.000000
    14  O    4.274509   3.366443   3.138672   0.000000
    15  C    4.724950   3.031081   4.059990   1.434292   0.000000
    16  O    4.394753   2.812837   4.306235   3.613197   3.164223
    17  H    5.006155   3.684485   4.895805   4.357112   4.009515
    18  O    3.957903   4.295575   2.618110   3.089182   4.091012
    19  C    4.728886   5.525636   3.438088   4.430000   5.498220
    20  H    5.400397   6.007016   4.318545   5.106857   6.008764
    21  H    5.471784   6.249225   3.966973   4.588989   5.793169
    22  H    4.342840   5.611411   3.220617   4.976308   6.064642
    23  O    2.710542   4.108011   2.730901   5.094495   5.747288
    24  Si   3.191210   4.944939   3.880633   6.569541   7.123086
    25  C    3.444372   4.559511   4.726320   7.035187   7.224854
    26  H    4.284266   5.506187   5.651555   8.082821   8.266659
    27  H    2.810483   3.776626   4.345968   6.542342   6.631376
    28  H    4.041059   4.635235   5.176694   7.107374   7.167893
    29  C    5.054218   6.648011   5.433773   7.949689   8.567726
    30  C    3.231858   5.559877   3.949936   7.034826   7.744799
    31  H    4.130963   6.397528   5.014946   8.092192   8.748008
    32  H    3.711641   6.100944   3.955918   7.060498   7.944892
    33  H    2.540267   4.942368   3.484412   6.547612   7.201365
    34  C    5.591109   7.351831   5.529356   8.041813   8.876047
    35  H    5.563876   7.589292   5.502169   8.240835   9.160134
    36  H    6.675486   8.357434   6.583175   8.977331   9.808893
    37  H    5.334775   6.939574   4.970492   7.247745   8.142331
    38  C    5.982336   7.685928   6.627361   9.306515   9.874908
    39  H    5.966584   7.921064   6.633500   9.512147  10.157047
    40  H    6.038971   7.553588   6.929441   9.528335   9.949947
    41  H    7.007793   8.655087   7.533106  10.131799  10.726511
    42  C    5.698445   6.779522   6.018116   8.064254   8.533039
    43  H    6.763114   7.854350   6.991602   8.986621   9.489843
    44  H    5.765339   6.617251   6.347168   8.297905   8.594791
    45  H    5.433767   6.292421   5.511459   7.261156   7.741293
    46  H    4.914392   3.112855   4.463779   2.143318   1.090664
    47  H    5.653537   3.842886   4.946436   2.143596   1.090443
                   16         17         18         19         20
    16  O    0.000000
    17  H    0.970308   0.000000
    18  O    3.635376   3.821030   0.000000
    19  C    4.785039   4.766497   1.418478   0.000000
    20  H    4.790889   4.549312   2.086715   1.101486   0.000000
    21  H    5.552517   5.575137   2.019568   1.093967   1.785282
    22  H    5.281973   5.305510   2.093592   1.094405   1.783666
    23  O    4.250094   4.345436   2.949410   3.037740   3.324821
    24  Si   5.481917   5.547650   4.622660   4.557468   4.760051
    25  C    5.271616   5.363198   5.669513   5.944153   6.055689
    26  H    6.326721   6.393596   6.701874   6.880685   6.974841
    27  H    4.990117   5.266075   5.662684   6.164901   6.413698
    28  H    4.813030   4.752736   5.692867   6.000325   5.938756
    29  C    6.584647   6.389104   5.466329   4.950099   4.819973
    30  C    6.780971   7.035298   5.431931   5.337983   5.834428
    31  H    7.671720   7.892175   6.500750   6.349929   6.776686
    32  H    7.192998   7.432887   5.266685   4.968648   5.540552
    33  H    6.572970   6.970464   5.429392   5.585814   6.209590
    34  C    7.208913   7.017786   5.288950   4.426978   4.333953
    35  H    7.797546   7.720399   5.641996   4.794973   4.922003
    36  H    8.002379   7.709863   6.106153   5.115372   4.851104
    37  H    6.592179   6.395117   4.362092   3.387708   3.275430
    38  C    7.863183   7.682214   6.960905   6.458700   6.350465
    39  H    8.422262   8.345272   7.274161   6.764926   6.812685
    40  H    7.791726   7.613671   7.394715   7.066721   6.941117
    41  H    8.601193   8.324320   7.607620   6.956770   6.722745
    42  C    6.117906   5.713983   5.514329   5.043742   4.605445
    43  H    7.026231   6.535055   6.288678   5.642040   5.077383
    44  H    5.981139   5.565593   6.022359   5.771205   5.346898
    45  H    5.321652   4.865070   4.633572   4.181237   3.639276
    46  H    3.929526   4.840113   4.993821   6.397668   6.979984
    47  H    3.199434   3.894122   4.464110   5.824985   6.185552
                   21         22         23         24         25
    21  H    0.000000
    22  H    1.788875   0.000000
    23  O    4.048605   2.494950   0.000000
    24  Si   5.524066   3.800624   1.683737   0.000000
    25  C    6.977887   5.392458   2.934245   1.893157   0.000000
    26  H    7.900059   6.241041   3.867557   2.498184   1.096680
    27  H    7.157363   5.678277   3.215343   2.513511   1.096659
    28  H    7.078615   5.601899   3.190785   2.523054   1.096065
    29  C    5.873698   4.165985   2.868633   1.915412   3.144126
    30  C    6.090818   4.399853   2.926354   1.890543   3.085176
    31  H    7.105557   5.382347   3.870208   2.511012   3.332686
    32  H    5.579967   3.942888   3.146494   2.507491   4.046027
    33  H    6.298461   4.745981   3.207054   2.502571   3.269527
    34  C    5.157015   3.536027   3.269224   2.843682   4.488398
    35  H    5.407975   3.773663   3.630517   3.054867   4.796702
    36  H    5.770358   4.314659   4.272476   3.832496   5.317029
    37  H    4.096530   2.553522   2.855587   3.039607   4.763606
    38  C    7.347987   5.613788   4.222054   2.842821   3.549759
    39  H    7.580154   5.815204   4.530288   3.053062   3.902110
    40  H    8.025644   6.291838   4.542129   3.050934   3.113217
    41  H    7.799404   6.141508   5.042792   3.831494   4.549144
    42  C    6.029874   4.540786   3.287683   2.838896   3.508796
    43  H    6.546032   5.156655   4.279745   3.829642   4.526055
    44  H    6.811650   5.336289   3.674647   3.056643   3.075168
    45  H    5.181285   3.856170   2.863991   3.021653   3.806064
    46  H    6.684578   6.865633   6.382274   7.622021   7.587988
    47  H    6.074690   6.534725   6.353243   7.795758   7.872723
                   26         27         28         29         30
    26  H    0.000000
    27  H    1.763613   0.000000
    28  H    1.768326   1.768627   0.000000
    29  C    3.365970   4.101229   3.370309   0.000000
    30  C    3.299514   3.289079   4.054295   3.133950   0.000000
    31  H    3.174565   3.626692   4.346907   3.357217   1.096834
    32  H    4.319191   4.288921   4.927871   3.360610   1.095846
    33  H    3.569195   3.096023   4.285289   4.087767   1.096255
    34  C    4.784166   5.316316   4.781401   1.544040   3.520210
    35  H    5.000342   5.517970   5.303621   2.204022   3.082506
    36  H    5.507610   6.229002   5.497896   2.184504   4.526571
    37  H    5.276116   5.482312   4.969653   2.198743   3.847939
    38  C    3.265818   4.551061   3.888842   1.544471   3.519990
    39  H    3.522161   4.759702   4.488528   2.204967   3.081219
    40  H    2.590654   4.131799   3.369497   2.206364   3.859660
    41  H    4.248954   5.587286   4.739746   2.184408   4.524381
    42  C    3.852568   4.512319   3.225740   1.543529   4.477439
    43  H    4.730535   5.562882   4.219790   2.185732   5.307914
    44  H    3.323834   4.100358   2.558654   2.202771   4.781311
    45  H    4.405824   4.662405   3.426167   2.196550   4.753195
    46  H    8.575895   6.864797   7.607595   9.201312   8.075207
    47  H    8.934831   7.351599   7.684949   9.104688   8.583142
                   31         32         33         34         35
    31  H    0.000000
    32  H    1.771618   0.000000
    33  H    1.767852   1.766152   0.000000
    34  C    3.858503   3.238164   4.522509   0.000000
    35  H    3.331964   2.565721   4.105371   1.096863   0.000000
    36  H    4.718768   4.226567   5.564409   1.099923   1.768310
    37  H    4.438424   3.466429   4.705124   1.095810   1.771983
    38  C    3.233745   3.867727   4.518923   2.513202   2.775346
    39  H    2.556195   3.344660   4.099916   2.777619   2.588619
    40  H    3.477702   4.457026   4.711837   3.490091   3.800685
    41  H    4.218030   4.726097   5.559784   2.747446   3.104917
    42  C    4.772899   4.772040   5.300385   2.510588   3.486603
    43  H    5.498062   5.491209   6.215423   2.735499   3.750034
    44  H    4.983632   5.290563   5.497499   3.486030   4.361991
    45  H    5.265898   4.960077   5.465130   2.780260   3.801516
    46  H    9.034425   8.327761   7.406010   9.572402   9.781362
    47  H    9.592933   8.774042   8.116140   9.401823   9.779079
                   36         37         38         39         40
    36  H    0.000000
    37  H    1.771768   0.000000
    38  C    2.750134   3.485302   0.000000
    39  H    3.111646   3.797232   1.096886   0.000000
    40  H    3.762599   4.361685   1.097159   1.772829   0.000000
    41  H    2.525200   3.759552   1.099639   1.767031   1.767509
    42  C    2.743172   2.772634   2.515265   3.490497   2.783430
    43  H    2.507159   3.091042   2.763673   3.772309   3.133065
    44  H    3.749998   3.800595   2.768665   3.795540   2.585414
    45  H    3.118105   2.592149   3.485884   4.359612   3.797486
    46  H   10.550243   8.903034  10.426854  10.641326  10.447205
    47  H   10.271127   8.614425  10.460425  10.828325  10.530667
                   41         42         43         44         45
    41  H    0.000000
    42  C    2.749469   0.000000
    43  H    2.540307   1.099823   0.000000
    44  H    3.093494   1.097085   1.768418   0.000000
    45  H    3.765735   1.096037   1.772322   1.773025   0.000000
    46  H   11.335779   9.260960  10.260145   9.265225   8.541650
    47  H   11.254144   8.905279   9.807637   8.954949   8.039603
                   46         47
    46  H    0.000000
    47  H    1.840619   0.000000
 Stoichiometry    C14H28O4Si
 Framework group  C1[X(C14H28O4Si)]
 Deg. of freedom   135
 Full point group                 C1      NOp   1
 Largest Abelian subgroup         C1      NOp   1
 Largest concise Abelian subgroup C1      NOp   1
                         Standard orientation:                         
 ---------------------------------------------------------------------
 Center     Atomic      Atomic             Coordinates (Angstroms)
 Number     Number       Type             X           Y           Z
 ---------------------------------------------------------------------
      1          1           0       -0.526020   -0.884486    1.056847
      2          6           0       -0.578524   -0.280964    0.138985
      3          6           0       -2.642553   -1.591064   -0.479003
      4          6           0       -2.830337    0.512846    0.979048
      5          6           0       -3.504896   -0.435419   -0.005232
      6          6           0       -1.435692    0.953727    0.476408
      7          6           0       -1.259801   -1.110567   -0.955822
      8          1           0       -3.166119   -2.119772   -1.282612
      9          1           0       -3.454964    1.410769    1.078717
     10          1           0       -0.928526    1.522315    1.277447
     11          1           0       -0.634756   -1.974122   -1.212491
     12          1           0       -2.520332   -2.294763    0.355268
     13          1           0       -1.362010   -0.493675   -1.854953
     14          8           0       -4.300905    0.214505   -1.010774
     15          6           0       -4.969134   -0.542601    0.007781
     16          8           0       -2.730571   -0.196915    2.217225
     17          1           0       -2.316192    0.396149    2.863803
     18          8           0       -1.676696    1.799797   -0.632064
     19          6           0       -0.666721    2.746830   -0.940541
     20          1           0       -0.340748    3.288993   -0.038836
     21          1           0       -1.117401    3.459759   -1.637235
     22          1           0        0.208553    2.281722   -1.404536
     23          8           0        0.731908    0.147365   -0.223268
     24         14           0        2.146830   -0.765298   -0.219846
     25          6           0        1.991809   -2.201256    1.004097
     26          1           0        2.921981   -2.781350    1.035383
     27          1           0        1.191061   -2.893134    0.716401
     28          1           0        1.782073   -1.859451    2.024165
     29          6           0        3.536340    0.445652    0.301368
     30          6           0        2.468266   -1.453755   -1.950990
     31          1           0        3.420417   -1.996032   -1.999860
     32          1           0        2.499259   -0.654412   -2.699969
     33          1           0        1.677245   -2.151411   -2.249881
     34          6           0        3.609158    1.628042   -0.688941
     35          1           0        3.838655    1.296765   -1.709086
     36          1           0        4.401586    2.329163   -0.388411
     37          1           0        2.667246    2.187088   -0.721640
     38          6           0        4.897704   -0.283715    0.311568
     39          1           0        5.163853   -0.673692   -0.678504
     40          1           0        4.912370   -1.123178    1.017857
     41          1           0        5.698061    0.407477    0.613043
     42          6           0        3.248604    0.996867    1.714114
     43          1           0        4.028017    1.712977    2.012965
     44          1           0        3.231977    0.201221    2.469274
     45          1           0        2.285573    1.518700    1.753601
     46          1           0       -5.442120   -1.466283   -0.327845
     47          1           0       -5.549581    0.041098    0.722933
 ---------------------------------------------------------------------
 Rotational constants (GHZ):      0.6621065      0.1861976      0.1766755
 Standard basis: 6-31+G(d,p) (6D, 7F)
 There are   505 symmetry adapted basis functions of A   symmetry.
 Integral buffers will be    131072 words long.
 Raffenetti 2 integral format.
 Two-electron integral symmetry is turned on.
   505 basis functions,   828 primitive gaussians,   505 cartesian basis functions
    79 alpha electrons       79 beta electrons
       nuclear repulsion energy      1806.4109853946 Hartrees.
 NAtoms=   47 NActive=   47 NUniq=   47 SFac= 1.00D+00 NAtFMM=   60 NAOKFM=F Big=F
 ------------------------------------------------------------------------------
 Polarizable Continuum Model (PCM)
 =================================
 Model                : PCM.
 Atomic radii         : UFF (Universal Force Field).
 Polarization charges : Total charges.
 Charge compensation  : None.
 Solution method      : Matrix inversion.
 Cavity type          : Scaled VdW (van der Waals Surface) (Alpha=1.100).
 Cavity algorithm     : GePol (No added spheres)
                        Default sphere list used, NSphG=   47.
                        Lebedev-Laikov grids with approx.  5.0 points / Ang**2.
                        Smoothing algorithm: Karplus/York (Gamma=1.0000).
                        Polarization charges: spherical gaussians, with
                                              point-specific exponents (IZeta= 3).
                        Self-potential: point-specific (ISelfS= 7).
                        Self-field    : sphere-specific E.n sum rule (ISelfD= 2).
 Solvent              : Chloroform, Eps=   4.711300 Eps(inf)=   2.090627
 ------------------------------------------------------------------------------
 One-electron integrals computed using PRISM.
 NBasis=   505 RedAO= T  NBF=   505
 NBsUse=   505 1.00D-06 NBFU=   505
 Harris functional with IExCor=  908 diagonalized for initial guess.
 ExpMin= 3.31D-02 ExpMax= 1.61D+04 ExpMxC= 2.43D+03 IAcc=3 IRadAn=         5 AccDes= 0.00D+00
 HarFok:  IExCor=  908 AccDes= 0.00D+00 IRadAn=         5 IDoV= 1
 ScaDFX=  1.000000  1.000000  1.000000  1.000000
 FoFCou: FMM=F IPFlag=           0 FMFlag=      100000 FMFlg1=           0
         NFxFlg=           0 DoJE=T BraDBF=F KetDBF=T FulRan=T
         Omega=  0.000000  0.000000  1.000000  0.000000  0.000000 ICntrl=     500 IOpCl=  0
         NMat0=    1 NMatS0=    1 NMatT0=    0 NMatD0=    1 NMtDS0=    0 NMtDT0=    0
         I1Cent=           4 NGrid=           0.
 Petite list used in FoFCou.
 Initial guess orbital symmetries:
       Occupied  (A) (A) (A) (A) (A) (A) (A) (A) (A) (A) (A) (A)
                 (A) (A) (A) (A) (A) (A) (A) (A) (A) (A) (A) (A)
                 (A) (A) (A) (A) (A) (A) (A) (A) (A) (A) (A) (A)
                 (A) (A) (A) (A) (A) (A) (A) (A) (A) (A) (A) (A)
                 (A) (A) (A) (A) (A) (A) (A) (A) (A) (A) (A) (A)
                 (A) (A) (A) (A) (A) (A) (A) (A) (A) (A) (A) (A)
                 (A) (A) (A) (A) (A) (A) (A)
       Virtual   (A) (A) (A) (A) (A) (A) (A) (A) (A) (A) (A) (A)
                 (A) (A) (A) (A) (A) (A) (A) (A) (A) (A) (A) (A)
                 (A) (A) (A) (A) (A) (A) (A) (A) (A) (A) (A) (A)
                 (A) (A) (A) (A) (A) (A) (A) (A) (A) (A) (A) (A)
                 (A) (A) (A) (A) (A) (A) (A) (A) (A) (A) (A) (A)
                 (A) (A) (A) (A) (A) (A) (A) (A) (A) (A) (A) (A)
                 (A) (A) (A) (A) (A) (A) (A) (A) (A) (A) (A) (A)
                 (A) (A) (A) (A) (A) (A) (A) (A) (A) (A) (A) (A)
                 (A) (A) (A) (A) (A) (A) (A) (A) (A) (A) (A) (A)
                 (A) (A) (A) (A) (A) (A) (A) (A) (A) (A) (A) (A)
                 (A) (A) (A) (A) (A) (A) (A) (A) (A) (A) (A) (A)
                 (A) (A) (A) (A) (A) (A) (A) (A) (A) (A) (A) (A)
                 (A) (A) (A) (A) (A) (A) (A) (A) (A) (A) (A) (A)
                 (A) (A) (A) (A) (A) (A) (A) (A) (A) (A) (A) (A)
                 (A) (A) (A) (A) (A) (A) (A) (A) (A) (A) (A) (A)
                 (A) (A) (A) (A) (A) (A) (A) (A) (A) (A) (A) (A)
                 (A) (A) (A) (A) (A) (A) (A) (A) (A) (A) (A) (A)
                 (A) (A) (A) (A) (A) (A) (A) (A) (A) (A) (A) (A)
                 (A) (A) (A) (A) (A) (A) (A) (A) (A) (A) (A) (A)
                 (A) (A) (A) (A) (A) (A) (A) (A) (A) (A) (A) (A)
                 (A) (A) (A) (A) (A) (A) (A) (A) (A) (A) (A) (A)
                 (A) (A) (A) (A) (A) (A) (A) (A) (A) (A) (A) (A)
                 (A) (A) (A) (A) (A) (A) (A) (A) (A) (A) (A) (A)
                 (A) (A) (A) (A) (A) (A) (A) (A) (A) (A) (A) (A)
                 (A) (A) (A) (A) (A) (A) (A) (A) (A) (A) (A) (A)
                 (A) (A) (A) (A) (A) (A) (A) (A) (A) (A) (A) (A)
                 (A) (A) (A) (A) (A) (A) (A) (A) (A) (A) (A) (A)
                 (A) (A) (A) (A) (A) (A) (A) (A) (A) (A) (A) (A)
                 (A) (A) (A) (A) (A) (A) (A) (A) (A) (A) (A) (A)
                 (A) (A) (A) (A) (A) (A) (A) (A) (A) (A) (A) (A)
                 (A) (A) (A) (A) (A) (A) (A) (A) (A) (A) (A) (A)
                 (A) (A) (A) (A) (A) (A) (A) (A) (A) (A) (A) (A)
                 (A) (A) (A) (A) (A) (A) (A) (A) (A) (A) (A) (A)
                 (A) (A) (A) (A) (A) (A) (A) (A) (A) (A) (A) (A)
                 (A) (A) (A) (A) (A) (A) (A) (A) (A) (A) (A) (A)
                 (A) (A) (A) (A) (A) (A)
 The electronic state of the initial guess is 1-A.
 Requested convergence on RMS density matrix=1.00D-08 within 128 cycles.
 Requested convergence on MAX density matrix=1.00D-06.
 Requested convergence on             energy=1.00D-06.
 No special actions if energy rises.
 Error on total polarization charges =  0.01530
 SCF Done:  E(RmPW1PW91) =  -1140.61923494     A.U. after   13 cycles
             Convg  =    0.6670D-08             -V/T =  2.0080
 Range of M.O.s used for correlation:     1   505
 NBasis=   505 NAE=    79 NBE=    79 NFC=     0 NFV=     0
 NROrb=    505 NOA=    79 NOB=    79 NVA=   426 NVB=   426

 **** Warning!!: The largest alpha MO coefficient is  0.84519351D+02

 NEqPCM:  Using equilibrium solvation (IEInf=0, Eps=   4.7113, EpsInf=   2.0906)
          Differentiating once with respect to magnetic field using GIAOs.
          Electric field/nuclear overlap derivatives assumed to be zero.
 FoFCou: FMM=F IPFlag=           0 FMFlag=    10101102 FMFlg1=           0
         NFxFlg=    40000000 DoJE=F BraDBF=F KetDBF=T FulRan=T
         Omega=  0.000000  0.000000  1.000000  0.000000  0.000000 ICntrl=    6100 IOpCl=  0
         NMat0=    1 NMatS0=    1 NMatT0=    0 NMatD0=    1 NMtDS0=    0 NMtDT0=    0
         I1Cent=           7 NGrid=        3034.
 Symmetry not used in FoFCou.
          There are     3 degrees of freedom in the 1st order CPHF.  IDoFFX=0.
      3 vectors produced by pass  0 Test12= 1.12D-12 3.33D-08 XBig12= 2.03D+02 2.13D+00.
 AX will form     3 AO Fock derivatives at one time.
      3 vectors produced by pass  1 Test12= 1.12D-12 3.33D-08 XBig12= 4.88D-01 9.34D-02.
      3 vectors produced by pass  2 Test12= 1.12D-12 3.33D-08 XBig12= 1.12D-03 5.77D-03.
      3 vectors produced by pass  3 Test12= 1.12D-12 3.33D-08 XBig12= 6.53D-06 6.28D-04.
      3 vectors produced by pass  4 Test12= 1.12D-12 3.33D-08 XBig12= 2.06D-08 2.30D-05.
      3 vectors produced by pass  5 Test12= 1.12D-12 3.33D-08 XBig12= 6.93D-11 9.55D-07.
      3 vectors produced by pass  6 Test12= 1.12D-12 3.33D-08 XBig12= 2.45D-13 4.70D-08.
 Inverted reduced A of dimension    21 with in-core refinement.
 Calculating GIAO nuclear magnetic shielding tensors.
 SCF GIAO Magnetic shielding tensor (ppm):
      1  H    Isotropic =    27.2932   Anisotropy =     8.7956
   XX=    32.8347   YX=     0.0275   ZX=    -2.4218
   XY=    -1.8590   YY=    23.7547   ZY=    -2.2205
   XZ=    -0.6391   YZ=    -2.4550   ZZ=    25.2901
   Eigenvalues:    21.8158    26.9068    33.1569
      2  C    Isotropic =   121.0527   Anisotropy =    55.2616
   XX=   147.4713   YX=     9.7971   ZX=   -13.3311
   XY=    24.9932   YY=   111.7649   ZY=    -0.0511
   XZ=   -15.8153   YZ=     0.7655   ZZ=   103.9220
   Eigenvalues:    96.6336   108.6308   157.8938
      3  C    Isotropic =   165.3264   Anisotropy =    23.9449
   XX=   174.6216   YX=    -7.0216   ZX=     1.4504
   XY=    -7.5361   YY=   166.7558   ZY=    10.5759
   XZ=    -2.6724   YZ=    14.5823   ZZ=   154.6019
   Eigenvalues:   146.2904   168.3992   181.2897
      4  C    Isotropic =   116.1450   Anisotropy =    30.0886
   XX=   109.3574   YX=    -2.8522   ZX=     3.5986
   XY=    -2.5520   YY=   112.2934   ZY=   -19.7097
   XZ=     5.3874   YZ=    -8.0143   ZZ=   126.7842
   Eigenvalues:   103.8974   108.3336   136.2040
      5  C    Isotropic =   138.8397   Anisotropy =    56.8770
   XX=    90.2858   YX=    -5.7594   ZX=    -0.4491
   XY=    -7.4525   YY=   164.6018   ZY=    15.0106
   XZ=     1.6636   YZ=    11.6295   ZZ=   161.6313
   Eigenvalues:    89.6579   150.1034   176.7577
      6  C    Isotropic =   110.7848   Anisotropy =    46.4211
   XX=    94.8090   YX=     6.5955   ZX=    -6.7276
   XY=     0.8148   YY=   107.0693   ZY=   -20.7028
   XZ=    14.8669   YZ=   -18.6566   ZZ=   130.4761
   Eigenvalues:    90.0515   100.5706   141.7322
      7  C    Isotropic =   166.9946   Anisotropy =    28.3252
   XX=   181.9038   YX=     6.4510   ZX=    -2.8043
   XY=    12.8516   YY=   159.6105   ZY=     8.5064
   XZ=     2.6248   YZ=     9.2178   ZZ=   159.4695
   Eigenvalues:   149.1283   165.9774   185.8780
      8  H    Isotropic =    30.4655   Anisotropy =    10.3384
   XX=    31.7187   YX=     3.0483   ZX=     2.1525
   XY=     2.1761   YY=    31.2624   ZY=     5.8969
   XZ=     1.0567   YZ=     5.4937   ZZ=    28.4154
   Eigenvalues:    23.9515    30.0872    37.3578
      9  H    Isotropic =    28.2638   Anisotropy =     4.8261
   XX=    27.5838   YX=    -2.4858   ZX=    -1.5844
   XY=    -1.3037   YY=    29.7181   ZY=     1.7845
   XZ=    -0.3080   YZ=     0.8549   ZZ=    27.4895
   Eigenvalues:    26.4276    26.8826    31.4812
     10  H    Isotropic =    28.2481   Anisotropy =     2.4402
   XX=    27.5793   YX=    -0.4422   ZX=    -0.6986
   XY=    -0.0944   YY=    27.5632   ZY=    -0.4442
   XZ=     1.1304   YZ=     2.0134   ZZ=    29.6017
   Eigenvalues:    27.0831    27.7862    29.8749
     11  H    Isotropic =    30.0151   Anisotropy =     9.0470
   XX=    34.3665   YX=    -2.0262   ZX=    -1.1389
   XY=    -2.3248   YY=    30.0272   ZY=     3.4665
   XZ=    -1.8357   YZ=     3.4642   ZZ=    25.6517
   Eigenvalues:    23.7347    30.2642    36.0464
     12  H    Isotropic =    29.2666   Anisotropy =     7.2432
   XX=    28.6711   YX=     0.4459   ZX=    -0.7882
   XY=    -0.7951   YY=    32.6724   ZY=    -3.6453
   XZ=    -1.0367   YZ=    -2.9281   ZZ=    26.4564
   Eigenvalues:    24.8266    28.8779    34.0955
     13  H    Isotropic =    29.1477   Anisotropy =     3.5914
   XX=    29.1647   YX=     0.6500   ZX=     0.0700
   XY=    -0.3637   YY=    26.9618   ZY=    -0.5728
   XZ=    -0.4054   YZ=    -1.3830   ZZ=    31.3166
   Eigenvalues:    26.7477    29.1534    31.5419
     14  O    Isotropic =   296.7124   Anisotropy =   133.8948
   XX=   356.2585   YX=   -39.2926   ZX=    53.5243
   XY=    -0.9836   YY=   307.0560   ZY=   115.3132
   XZ=    15.6677   YZ=   107.7508   ZZ=   226.8228
   Eigenvalues:   141.0200   363.1417   385.9756
     15  C    Isotropic =   146.6510   Anisotropy =    42.5321
   XX=   113.2036   YX=    -5.4254   ZX=    -3.1899
   XY=    -6.1605   YY=   167.7509   ZY=     9.4335
   XZ=     2.1519   YZ=    11.1968   ZZ=   158.9986
   Eigenvalues:   112.5881   152.3592   175.0058
     16  O    Isotropic =   289.8230   Anisotropy =    74.7534
   XX=   282.6342   YX=    21.7275   ZX=    27.1975
   XY=    27.9192   YY=   270.7529   ZY=    26.6656
   XZ=    16.0986   YZ=    14.2309   ZZ=   316.0818
   Eigenvalues:   251.0231   278.7872   339.6586
     17  H    Isotropic =    30.5793   Anisotropy =    18.3072
   XX=    25.6159   YX=     4.8293   ZX=     3.9453
   XY=     4.1664   YY=    27.7972   ZY=     5.2490
   XZ=     4.7565   YZ=     6.0876   ZZ=    38.3247
   Eigenvalues:    22.0777    26.8760    42.7841
     18  O    Isotropic =   310.5810   Anisotropy =    45.4539
   XX=   313.1206   YX=    -0.6105   ZX=    16.7765
   XY=     1.2882   YY=   295.8676   ZY=   -11.1718
   XZ=    18.4077   YZ=   -24.7117   ZZ=   322.7548
   Eigenvalues:   284.0989   306.7605   340.8836
     19  C    Isotropic =   135.0241   Anisotropy =    83.8972
   XX=   139.9403   YX=    40.1039   ZX=   -12.3535
   XY=    39.7423   YY=   150.6069   ZY=   -14.7112
   XZ=   -12.5570   YZ=   -17.4971   ZZ=   114.5252
   Eigenvalues:   104.6746   109.4422   190.9556
     20  H    Isotropic =    28.3451   Anisotropy =     8.3998
   XX=    28.7102   YX=     2.8129   ZX=     1.6240
   XY=     2.6987   YY=    32.2284   ZY=     2.6531
   XZ=    -0.6843   YZ=     0.0812   ZZ=    24.0967
   Eigenvalues:    23.8729    27.2174    33.9449
     21  H    Isotropic =    27.8442   Anisotropy =    10.5692
   XX=    25.7629   YX=     2.1986   ZX=    -1.0739
   XY=    -0.0798   YY=    31.6511   ZY=    -5.7387
   XZ=     0.5426   YZ=    -4.6515   ZZ=    26.1186
   Eigenvalues:    22.9619    25.6804    34.8903
     22  H    Isotropic =    27.2205   Anisotropy =     7.4500
   XX=    30.7709   YX=    -0.9424   ZX=    -3.1936
   XY=     1.5974   YY=    27.5204   ZY=    -3.7816
   XZ=    -2.5222   YZ=    -2.3806   ZZ=    23.3703
   Eigenvalues:    21.1279    28.3465    32.1872
     23  O    Isotropic =   275.9334   Anisotropy =    38.3811
   XX=   263.2615   YX=     2.9273   ZX=    12.3242
   XY=     8.2407   YY=   289.3666   ZY=    12.2533
   XZ=    12.5912   YZ=    15.9082   ZZ=   275.1722
   Eigenvalues:   255.1141   271.1653   301.5208
     24  Si   Isotropic =   380.0930   Anisotropy =    33.8864
   XX=   397.9050   YX=   -18.3406   ZX=    10.0921
   XY=     2.3953   YY=   374.7560   ZY=     0.2746
   XZ=     7.8352   YZ=    -3.0466   ZZ=   367.6178
   Eigenvalues:   365.0884   372.5065   402.6839
     25  C    Isotropic =   201.6703   Anisotropy =     5.2655
   XX=   201.0499   YX=    -0.8897   ZX=     0.5045
   XY=    -0.9421   YY=   198.7806   ZY=    -1.9141
   XZ=    -0.4536   YZ=     1.9743   ZZ=   205.1804
   Eigenvalues:   198.4569   201.3734   205.1806
     26  H    Isotropic =    31.5220   Anisotropy =    10.6320
   XX=    34.5560   YX=    -4.5779   ZX=     1.1786
   XY=    -4.2806   YY=    32.9820   ZY=    -2.0358
   XZ=     0.7738   YZ=    -1.8141   ZZ=    27.0280
   Eigenvalues:    26.4406    29.5154    38.6100
     27  H    Isotropic =    31.3581   Anisotropy =     9.1678
   XX=    33.3473   YX=     3.9166   ZX=     1.7960
   XY=     3.9681   YY=    33.4873   ZY=    -0.1571
   XZ=     1.6960   YZ=    -0.3409   ZZ=    27.2396
   Eigenvalues:    26.4684    30.1359    37.4700
     28  H    Isotropic =    31.3567   Anisotropy =     8.5463
   XX=    28.3888   YX=     0.1635   ZX=    -1.3495
   XY=     0.1446   YY=    28.8712   ZY=     0.0335
   XZ=    -1.4957   YZ=     0.6075   ZZ=    36.8100
   Eigenvalues:    28.1003    28.9154    37.0542
     29  C    Isotropic =   173.1612   Anisotropy =     8.5133
   XX=   174.5760   YX=    -4.2931   ZX=     0.0393
   XY=    -4.1685   YY=   174.1670   ZY=     1.8207
   XZ=    -0.8276   YZ=     1.2832   ZZ=   170.7405
   Eigenvalues:   169.4623   171.1845   178.8367
     30  C    Isotropic =   197.3011   Anisotropy =     9.5661
   XX=   199.8095   YX=    -2.4978   ZX=    -1.3034
   XY=    -4.3634   YY=   191.5680   ZY=     3.3259
   XZ=    -3.2187   YZ=     0.8148   ZZ=   200.5258
   Eigenvalues:   190.1825   198.0422   203.6785
     31  H    Isotropic =    31.5534   Anisotropy =    10.7051
   XX=    35.2537   YX=    -4.4836   ZX=    -1.5952
   XY=    -4.3565   YY=    30.1911   ZY=     2.8991
   XZ=    -1.6202   YZ=     2.8733   ZZ=    29.2154
   Eigenvalues:    26.3239    29.6462    38.6901
     32  H    Isotropic =    31.2594   Anisotropy =     8.5144
   XX=    27.7793   YX=     0.7646   ZX=    -0.7924
   XY=     0.9002   YY=    30.9846   ZY=    -2.8099
   XZ=    -0.6775   YZ=    -3.6721   ZZ=    35.0144
   Eigenvalues:    27.5753    29.2672    36.9357
     33  H    Isotropic =    31.4828   Anisotropy =     8.8639
   XX=    33.1540   YX=     3.5970   ZX=     1.0404
   XY=     3.5963   YY=    31.0254   ZY=     3.5666
   XZ=     1.5197   YZ=     3.7112   ZZ=    30.2690
   Eigenvalues:    26.5625    30.4938    37.3921
     34  C    Isotropic =   170.1474   Anisotropy =    37.9388
   XX=   157.6318   YX=     2.4886   ZX=    -0.5489
   XY=    -0.2613   YY=   177.9771   ZY=   -20.8268
   XZ=     3.1131   YZ=   -17.1126   ZZ=   174.8332
   Eigenvalues:   155.7986   159.2036   195.4399
     35  H    Isotropic =    30.5058   Anisotropy =     8.5161
   XX=    27.5277   YX=     1.6164   ZX=    -1.8036
   XY=     1.8286   YY=    28.5176   ZY=    -1.9089
   XZ=    -2.0218   YZ=    -0.2365   ZZ=    35.4721
   Eigenvalues:    26.1359    29.1982    36.1832
     36  H    Isotropic =    30.9863   Anisotropy =     9.6470
   XX=    31.2780   YX=     4.3293   ZX=     0.2861
   XY=     5.0741   YY=    33.7063   ZY=    -0.7519
   XZ=    -0.3245   YZ=    -1.2646   ZZ=    27.9746
   Eigenvalues:    27.1557    28.3856    37.4177
     37  H    Isotropic =    30.3560   Anisotropy =     8.5387
   XX=    32.9969   YX=    -2.2422   ZX=     1.0439
   XY=    -3.0191   YY=    31.9226   ZY=    -2.7991
   XZ=     1.6347   YZ=    -3.2113   ZZ=    26.1487
   Eigenvalues:    24.8627    30.1569    36.0485
     38  C    Isotropic =   170.3704   Anisotropy =    39.4631
   XX=   186.1799   YX=   -19.7055   ZX=    -0.8042
   XY=   -14.7334   YY=   168.4355   ZY=     0.2875
   XZ=     0.6545   YZ=     0.1291   ZZ=   156.4958
   Eigenvalues:   156.4818   157.9502   196.6792
     39  H    Isotropic =    30.6951   Anisotropy =     9.0819
   XX=    32.8638   YX=    -2.4056   ZX=    -3.3890
   XY=    -2.2919   YY=    28.3553   ZY=     4.0297
   XZ=    -1.9861   YZ=     3.3179   ZZ=    30.8663
   Eigenvalues:    25.7066    29.6291    36.7497
     40  H    Isotropic =    30.7198   Anisotropy =     9.0011
   XX=    31.6046   YX=    -2.9332   ZX=     2.6697
   XY=    -1.9445   YY=    32.5497   ZY=    -4.1896
   XZ=     1.5178   YZ=    -3.5382   ZZ=    28.0051
   Eigenvalues:    25.7180    29.7209    36.7205
     41  H    Isotropic =    30.9301   Anisotropy =    10.0988
   XX=    36.7607   YX=     2.6341   ZX=     2.1065
   XY=     1.4204   YY=    28.6619   ZY=     0.7522
   XZ=     1.7930   YZ=     0.8779   ZZ=    27.3676
   Eigenvalues:    26.8590    28.2686    37.6626
     42  C    Isotropic =   170.4643   Anisotropy =    37.8574
   XX=   160.5549   YX=    -0.2304   ZX=    -6.4017
   XY=    -1.9044   YY=   161.2189   ZY=    12.9161
   XZ=   -10.9712   YZ=     9.8480   ZZ=   189.6190
   Eigenvalues:   155.9202   159.7700   195.7025
     43  H    Isotropic =    30.9903   Anisotropy =     9.5725
   XX=    30.3099   YX=     2.9977   ZX=     2.0662
   XY=     3.4024   YY=    31.1858   ZY=     3.5880
   XZ=     2.7528   YZ=     4.0333   ZZ=    31.4753
   Eigenvalues:    27.1742    28.4248    37.3720
     44  H    Isotropic =    30.5732   Anisotropy =     8.2175
   XX=    27.1560   YX=     1.7066   ZX=     0.0761
   XY=     1.2435   YY=    29.2184   ZY=    -1.3903
   XZ=     0.1439   YZ=    -2.9566   ZZ=    35.3452
   Eigenvalues:    26.2387    29.4293    36.0515
     45  H    Isotropic =    30.2973   Anisotropy =     8.1582
   XX=    33.4485   YX=    -2.4358   ZX=    -0.5122
   XY=    -2.9590   YY=    28.5659   ZY=     3.2424
   XZ=    -1.8958   YZ=     3.8850   ZZ=    28.8775
   Eigenvalues:    24.9871    30.1687    35.7361
     46  H    Isotropic =    29.0953   Anisotropy =    11.0931
   XX=    30.2625   YX=     2.9600   ZX=    -1.4190
   XY=     7.1464   YY=    32.0071   ZY=     1.7495
   XZ=     0.9599   YZ=     2.8184   ZZ=    25.0163
   Eigenvalues:    23.6585    27.1366    36.4907
     47  H    Isotropic =    29.0160   Anisotropy =    10.9386
   XX=    31.2909   YX=     0.4484   ZX=    -3.5605
   XY=    -3.4615   YY=    26.6795   ZY=     3.6362
   XZ=    -6.2925   YZ=     2.7789   ZZ=    29.0775
   Eigenvalues:    23.8654    26.8741    36.3084
 End of Minotr Frequency-dependent properties file   721 does not exist.
 End of Minotr Frequency-dependent properties file   722 does not exist.

 **********************************************************************

            Population analysis using the SCF density.

 **********************************************************************

 Orbital symmetries:
       Occupied  (A) (A) (A) (A) (A) (A) (A) (A) (A) (A) (A) (A)
                 (A) (A) (A) (A) (A) (A) (A) (A) (A) (A) (A) (A)
                 (A) (A) (A) (A) (A) (A) (A) (A) (A) (A) (A) (A)
                 (A) (A) (A) (A) (A) (A) (A) (A) (A) (A) (A) (A)
                 (A) (A) (A) (A) (A) (A) (A) (A) (A) (A) (A) (A)
                 (A) (A) (A) (A) (A) (A) (A) (A) (A) (A) (A) (A)
                 (A) (A) (A) (A) (A) (A) (A)
       Virtual   (A) (A) (A) (A) (A) (A) (A) (A) (A) (A) (A) (A)
                 (A) (A) (A) (A) (A) (A) (A) (A) (A) (A) (A) (A)
                 (A) (A) (A) (A) (A) (A) (A) (A) (A) (A) (A) (A)
                 (A) (A) (A) (A) (A) (A) (A) (A) (A) (A) (A) (A)
                 (A) (A) (A) (A) (A) (A) (A) (A) (A) (A) (A) (A)
                 (A) (A) (A) (A) (A) (A) (A) (A) (A) (A) (A) (A)
                 (A) (A) (A) (A) (A) (A) (A) (A) (A) (A) (A) (A)
                 (A) (A) (A) (A) (A) (A) (A) (A) (A) (A) (A) (A)
                 (A) (A) (A) (A) (A) (A) (A) (A) (A) (A) (A) (A)
                 (A) (A) (A) (A) (A) (A) (A) (A) (A) (A) (A) (A)
                 (A) (A) (A) (A) (A) (A) (A) (A) (A) (A) (A) (A)
                 (A) (A) (A) (A) (A) (A) (A) (A) (A) (A) (A) (A)
                 (A) (A) (A) (A) (A) (A) (A) (A) (A) (A) (A) (A)
                 (A) (A) (A) (A) (A) (A) (A) (A) (A) (A) (A) (A)
                 (A) (A) (A) (A) (A) (A) (A) (A) (A) (A) (A) (A)
                 (A) (A) (A) (A) (A) (A) (A) (A) (A) (A) (A) (A)
                 (A) (A) (A) (A) (A) (A) (A) (A) (A) (A) (A) (A)
                 (A) (A) (A) (A) (A) (A) (A) (A) (A) (A) (A) (A)
                 (A) (A) (A) (A) (A) (A) (A) (A) (A) (A) (A) (A)
                 (A) (A) (A) (A) (A) (A) (A) (A) (A) (A) (A) (A)
                 (A) (A) (A) (A) (A) (A) (A) (A) (A) (A) (A) (A)
                 (A) (A) (A) (A) (A) (A) (A) (A) (A) (A) (A) (A)
                 (A) (A) (A) (A) (A) (A) (A) (A) (A) (A) (A) (A)
                 (A) (A) (A) (A) (A) (A) (A) (A) (A) (A) (A) (A)
                 (A) (A) (A) (A) (A) (A) (A) (A) (A) (A) (A) (A)
                 (A) (A) (A) (A) (A) (A) (A) (A) (A) (A) (A) (A)
                 (A) (A) (A) (A) (A) (A) (A) (A) (A) (A) (A) (A)
                 (A) (A) (A) (A) (A) (A) (A) (A) (A) (A) (A) (A)
                 (A) (A) (A) (A) (A) (A) (A) (A) (A) (A) (A) (A)
                 (A) (A) (A) (A) (A) (A) (A) (A) (A) (A) (A) (A)
                 (A) (A) (A) (A) (A) (A) (A) (A) (A) (A) (A) (A)
                 (A) (A) (A) (A) (A) (A) (A) (A) (A) (A) (A) (A)
                 (A) (A) (A) (A) (A) (A) (A) (A) (A) (A) (A) (A)
                 (A) (A) (A) (A) (A) (A) (A) (A) (A) (A) (A) (A)
                 (A) (A) (A) (A) (A) (A) (A) (A) (A) (A) (A) (A)
                 (A) (A) (A) (A) (A) (A)
 The electronic state is 1-A.
 Alpha  occ. eigenvalues --  -66.30425 -19.26303 -19.26200 -19.25169 -19.23360
 Alpha  occ. eigenvalues --  -10.31357 -10.31067 -10.30422 -10.30320 -10.29816
 Alpha  occ. eigenvalues --  -10.28181 -10.25270 -10.24804 -10.24536 -10.23669
 Alpha  occ. eigenvalues --  -10.23450 -10.23390 -10.22640 -10.22301  -5.33826
 Alpha  occ. eigenvalues --   -3.67737  -3.67460  -3.67422  -1.11017  -1.07465
 Alpha  occ. eigenvalues --   -1.06282  -1.02937  -0.84304  -0.82274  -0.77682
 Alpha  occ. eigenvalues --   -0.74982  -0.72330  -0.70567  -0.70269  -0.69739
 Alpha  occ. eigenvalues --   -0.69519  -0.68328  -0.65121  -0.61820  -0.57304
 Alpha  occ. eigenvalues --   -0.57037  -0.53824  -0.53524  -0.52283  -0.51101
 Alpha  occ. eigenvalues --   -0.49353  -0.48091  -0.47291  -0.45631  -0.45083
 Alpha  occ. eigenvalues --   -0.44668  -0.44446  -0.43748  -0.43470  -0.42155
 Alpha  occ. eigenvalues --   -0.41959  -0.41299  -0.40925  -0.40461  -0.40237
 Alpha  occ. eigenvalues --   -0.39769  -0.39129  -0.38944  -0.38824  -0.38506
 Alpha  occ. eigenvalues --   -0.37294  -0.36636  -0.35305  -0.34389  -0.33810
 Alpha  occ. eigenvalues --   -0.33422  -0.32686  -0.31975  -0.31090  -0.30303
 Alpha  occ. eigenvalues --   -0.28989  -0.28611  -0.26856  -0.26295
 Alpha virt. eigenvalues --   -0.00458   0.00516   0.01228   0.01471   0.02548
 Alpha virt. eigenvalues --    0.02773   0.03073   0.03707   0.04220   0.04622
 Alpha virt. eigenvalues --    0.04864   0.05144   0.05321   0.06159   0.06511
 Alpha virt. eigenvalues --    0.06846   0.07200   0.07434   0.07742   0.08058
 Alpha virt. eigenvalues --    0.08307   0.08650   0.09111   0.09551   0.09703
 Alpha virt. eigenvalues --    0.10304   0.10529   0.10770   0.10898   0.11251
 Alpha virt. eigenvalues --    0.11524   0.11742   0.12228   0.12783   0.13143
 Alpha virt. eigenvalues --    0.13186   0.13637   0.14035   0.14379   0.14638
 Alpha virt. eigenvalues --    0.14941   0.15220   0.15586   0.15970   0.16586
 Alpha virt. eigenvalues --    0.16825   0.16890   0.17092   0.17254   0.17878
 Alpha virt. eigenvalues --    0.18267   0.18843   0.19224   0.19313   0.19459
 Alpha virt. eigenvalues --    0.20086   0.20476   0.20742   0.21078   0.21439
 Alpha virt. eigenvalues --    0.21865   0.22155   0.22413   0.22505   0.23007
 Alpha virt. eigenvalues --    0.23217   0.23692   0.23949   0.24056   0.24373
 Alpha virt. eigenvalues --    0.24727   0.25154   0.25703   0.26179   0.26332
 Alpha virt. eigenvalues --    0.26804   0.26939   0.27063   0.27734   0.27813
 Alpha virt. eigenvalues --    0.28118   0.28701   0.29177   0.29391   0.29695
 Alpha virt. eigenvalues --    0.29936   0.30398   0.30869   0.31159   0.31293
 Alpha virt. eigenvalues --    0.31893   0.32275   0.32422   0.33183   0.33744
 Alpha virt. eigenvalues --    0.33971   0.34283   0.34739   0.34820   0.35930
 Alpha virt. eigenvalues --    0.36338   0.36848   0.37689   0.38052   0.38654
 Alpha virt. eigenvalues --    0.39021   0.39564   0.39955   0.40652   0.41158
 Alpha virt. eigenvalues --    0.41851   0.42203   0.43201   0.43238   0.44221
 Alpha virt. eigenvalues --    0.45018   0.45872   0.46816   0.47507   0.47982
 Alpha virt. eigenvalues --    0.48586   0.51226   0.52675   0.53629   0.54098
 Alpha virt. eigenvalues --    0.54941   0.58743   0.62222   0.65426   0.66645
 Alpha virt. eigenvalues --    0.67203   0.68759   0.69022   0.70158   0.70600
 Alpha virt. eigenvalues --    0.72389   0.72679   0.73573   0.74147   0.74537
 Alpha virt. eigenvalues --    0.75555   0.76642   0.77452   0.77800   0.78465
 Alpha virt. eigenvalues --    0.79292   0.79858   0.80215   0.81200   0.81793
 Alpha virt. eigenvalues --    0.82819   0.83376   0.84394   0.84786   0.85072
 Alpha virt. eigenvalues --    0.86022   0.86544   0.87388   0.88598   0.88788
 Alpha virt. eigenvalues --    0.90322   0.91179   0.92585   0.92866   0.94312
 Alpha virt. eigenvalues --    0.94991   0.95502   0.96198   0.96499   0.98600
 Alpha virt. eigenvalues --    0.99194   0.99547   1.00075   1.00732   1.01510
 Alpha virt. eigenvalues --    1.02452   1.03449   1.04611   1.05033   1.05600
 Alpha virt. eigenvalues --    1.06123   1.06751   1.07276   1.07353   1.07770
 Alpha virt. eigenvalues --    1.08202   1.09354   1.10083   1.11129   1.11433
 Alpha virt. eigenvalues --    1.11938   1.13251   1.14719   1.16150   1.16570
 Alpha virt. eigenvalues --    1.18808   1.19559   1.19826   1.20593   1.22147
 Alpha virt. eigenvalues --    1.23206   1.24016   1.24547   1.25338   1.27895
 Alpha virt. eigenvalues --    1.28248   1.28729   1.29079   1.30658   1.32973
 Alpha virt. eigenvalues --    1.33204   1.34360   1.35294   1.35976   1.36103
 Alpha virt. eigenvalues --    1.38116   1.38489   1.40857   1.42616   1.44342
 Alpha virt. eigenvalues --    1.45661   1.46269   1.47012   1.48142   1.49255
 Alpha virt. eigenvalues --    1.50318   1.51604   1.51988   1.52761   1.54805
 Alpha virt. eigenvalues --    1.55722   1.59534   1.61003   1.61743   1.62629
 Alpha virt. eigenvalues --    1.63833   1.64373   1.65396   1.66816   1.67341
 Alpha virt. eigenvalues --    1.68843   1.70762   1.72002   1.74980   1.76509
 Alpha virt. eigenvalues --    1.77536   1.78354   1.78736   1.80870   1.81833
 Alpha virt. eigenvalues --    1.82584   1.83832   1.84626   1.86044   1.87049
 Alpha virt. eigenvalues --    1.88701   1.90315   1.90792   1.91460   1.91786
 Alpha virt. eigenvalues --    1.93927   1.94972   1.95455   1.96106   1.96714
 Alpha virt. eigenvalues --    1.97701   1.98834   1.99770   2.00641   2.02177
 Alpha virt. eigenvalues --    2.03177   2.04767   2.06061   2.06454   2.06822
 Alpha virt. eigenvalues --    2.07030   2.07640   2.07861   2.08593   2.09100
 Alpha virt. eigenvalues --    2.10289   2.10891   2.11362   2.11911   2.12365
 Alpha virt. eigenvalues --    2.14008   2.14255   2.14471   2.15447   2.15708
 Alpha virt. eigenvalues --    2.16358   2.16899   2.17178   2.17873   2.18643
 Alpha virt. eigenvalues --    2.18733   2.19753   2.20117   2.21183   2.21655
 Alpha virt. eigenvalues --    2.22227   2.23795   2.24812   2.27016   2.28032
 Alpha virt. eigenvalues --    2.28094   2.29045   2.30515   2.32050   2.34796
 Alpha virt. eigenvalues --    2.35218   2.37838   2.38344   2.38891   2.39098
 Alpha virt. eigenvalues --    2.39488   2.40318   2.42618   2.43346   2.44066
 Alpha virt. eigenvalues --    2.44994   2.47271   2.47782   2.49830   2.51927
 Alpha virt. eigenvalues --    2.53835   2.56322   2.57294   2.57430   2.58371
 Alpha virt. eigenvalues --    2.59180   2.61976   2.62677   2.64162   2.66866
 Alpha virt. eigenvalues --    2.67393   2.68471   2.68823   2.69784   2.70423
 Alpha virt. eigenvalues --    2.71470   2.72938   2.73387   2.73960   2.74436
 Alpha virt. eigenvalues --    2.76444   2.77537   2.78036   2.78519   2.79852
 Alpha virt. eigenvalues --    2.80476   2.82430   2.82738   2.84077   2.84789
 Alpha virt. eigenvalues --    2.85088   2.86563   2.87323   2.88169   2.88368
 Alpha virt. eigenvalues --    2.89097   2.89136   2.90070   2.90397   2.91760
 Alpha virt. eigenvalues --    2.92712   2.94261   2.94768   2.97449   2.98207
 Alpha virt. eigenvalues --    2.98768   2.99079   3.00271   3.02868   3.05811
 Alpha virt. eigenvalues --    3.09374   3.13302   3.18351   3.25785   3.27644
 Alpha virt. eigenvalues --    3.27709   3.28372   3.30397   3.30614   3.31388
 Alpha virt. eigenvalues --    3.31806   3.36061   3.39006   3.39599   3.46953
 Alpha virt. eigenvalues --    3.47340   3.47862   3.48340   3.48817   3.49659
 Alpha virt. eigenvalues --    3.49907   3.50641   3.50848   3.51445   3.51633
 Alpha virt. eigenvalues --    3.51987   3.52272   3.55041   3.55940   3.56387
 Alpha virt. eigenvalues --    3.57600   3.60325   3.63177   4.36698   4.44170
 Alpha virt. eigenvalues --    4.45174   4.49039   4.54333   4.55894   4.56983
 Alpha virt. eigenvalues --    4.60629   4.63057   4.64163   4.66014   4.68193
 Alpha virt. eigenvalues --    4.71881   4.72456   4.78229   4.86910   4.96742
 Alpha virt. eigenvalues --    5.04979
          Condensed to atoms (all electrons):
              1          2          3          4          5          6
     1  H    0.584242   0.311282  -0.010968  -0.015866   0.016519   0.040563
     2  C    0.311282  11.656052  -0.661280   0.486251   0.386926  -4.077336
     3  C   -0.010968  -0.661280   9.344843  -3.214832   0.010722   1.132611
     4  C   -0.015866   0.486251  -3.214832  14.906100  -4.241787  -4.303470
     5  C    0.016519   0.386926   0.010722  -4.241787  13.736393   1.132306
     6  C    0.040563  -4.077336   1.132611  -4.303470   1.132306  12.745996
     7  C   -0.050657  -0.428577  -0.354502   1.421401  -0.770946  -1.148203
     8  H   -0.000016   0.044856   0.368166   0.031271  -0.028177  -0.001926
     9  H   -0.000120   0.093765   0.033758   0.078889   0.122605   0.095291
    10  H   -0.002268   0.121664  -0.043614   0.070279  -0.004927   0.123641
    11  H   -0.005111  -0.039136   0.020527  -0.015295   0.040070   0.053438
    12  H    0.002774  -0.017817   0.336094   0.062698  -0.082888   0.004008
    13  H    0.004827  -0.097479  -0.064562   0.011310   0.005479  -0.010240
    14  O    0.000020  -0.023237  -0.144689  -0.132030   0.248884   0.040330
    15  C   -0.000284  -0.447243  -0.291417   0.890917  -4.296957  -0.392507
    16  O    0.002592  -0.034621   0.033406  -0.108933  -0.134932   0.237461
    17  H   -0.000072  -0.010397   0.008168   0.101806  -0.010763  -0.072410
    18  O    0.011758  -0.279353  -0.097068  -0.074304   0.079725   0.360586
    19  C    0.002077  -0.154801  -0.077366   0.091357  -0.078484  -0.049141
    20  H    0.000025   0.032207  -0.006087   0.025436  -0.007845  -0.067042
    21  H    0.000009  -0.009013   0.002283  -0.011996  -0.001919   0.021683
    22  H   -0.000147   0.001468   0.006027  -0.008755   0.006891   0.020501
    23  O   -0.052627   0.120815   0.032849   0.094274  -0.022577  -0.046859
    24  Si   0.011420  -0.480044   0.093380  -0.255532   0.022651   0.425049
    25  C   -0.004730   0.062847  -0.020243   0.061608  -0.016012  -0.106632
    26  H    0.000057   0.006033   0.000201  -0.000114   0.000339   0.001170
    27  H   -0.001028  -0.009405  -0.002014   0.000399  -0.001828  -0.003286
    28  H   -0.000186  -0.015440   0.000888   0.000396  -0.000452  -0.004172
    29  C   -0.006841  -0.018771   0.009201  -0.055101  -0.004246  -0.000350
    30  C   -0.000212   0.051540  -0.031543   0.013568  -0.005397  -0.041604
    31  H    0.000003   0.008236   0.000011  -0.000071   0.000012   0.000685
    32  H   -0.000003   0.000624  -0.000323   0.000113   0.000022  -0.000211
    33  H   -0.000013  -0.012668  -0.000660   0.000147  -0.000247  -0.002767
    34  C    0.001339   0.066167   0.007882   0.004701   0.002720   0.013511
    35  H    0.000000  -0.001226  -0.000032  -0.000066  -0.000001  -0.000087
    36  H    0.000000  -0.000462  -0.000008   0.000077  -0.000013  -0.000066
    37  H   -0.000002  -0.003103   0.000046   0.000749   0.000140   0.006728
    38  C    0.000288  -0.001578  -0.002519  -0.003615  -0.002209  -0.012377
    39  H    0.000000   0.000222  -0.000003  -0.000008  -0.000003  -0.000146
    40  H    0.000000   0.000590   0.000006  -0.000008   0.000002  -0.000169
    41  H    0.000000  -0.001143   0.000000   0.000003  -0.000005  -0.000008
    42  C    0.000334  -0.050306  -0.008201   0.044860  -0.005887  -0.031376
    43  H    0.000000   0.000471  -0.000024   0.000192  -0.000026   0.000093
    44  H    0.000000   0.001774   0.000098   0.000080   0.000016  -0.001384
    45  H    0.000063  -0.002933   0.000013   0.000190   0.000142   0.001054
    46  H    0.000000   0.001710   0.085046  -0.037767  -0.148242  -0.005994
    47  H   -0.000001  -0.000759  -0.031668   0.114817  -0.121930   0.007063
              7          8          9         10         11         12
     1  H   -0.050657  -0.000016  -0.000120  -0.002268  -0.005111   0.002774
     2  C   -0.428577   0.044856   0.093765   0.121664  -0.039136  -0.017817
     3  C   -0.354502   0.368166   0.033758  -0.043614   0.020527   0.336094
     4  C    1.421401   0.031271   0.078889   0.070279  -0.015295   0.062698
     5  C   -0.770946  -0.028177   0.122605  -0.004927   0.040070  -0.082888
     6  C   -1.148203  -0.001926   0.095291   0.123641   0.053438   0.004008
     7  C    7.189484  -0.008631  -0.021539   0.032625   0.256207  -0.008050
     8  H   -0.008631   0.525197  -0.000098   0.000012  -0.002389  -0.021611
     9  H   -0.021539  -0.000098   0.577607  -0.006325   0.000014  -0.000086
    10  H    0.032625   0.000012  -0.006325   0.609170  -0.000141  -0.000005
    11  H    0.256207  -0.002389   0.000014  -0.000141   0.550902  -0.004588
    12  H   -0.008050  -0.021611  -0.000086  -0.000005  -0.004588   0.521540
    13  H    0.458635  -0.003208  -0.000100   0.000045  -0.027290   0.004165
    14  O    0.052765   0.000417   0.001793  -0.000582  -0.000259   0.010984
    15  C   -0.433337  -0.077938  -0.093111   0.001837   0.007402   0.002495
    16  O   -0.057213   0.000430  -0.029459  -0.019875   0.000395   0.001713
    17  H    0.019957   0.000008  -0.006053   0.005878  -0.000005   0.000047
    18  O    0.079190   0.000873  -0.004189  -0.042808  -0.001763   0.000869
    19  C    0.056224  -0.000018  -0.005067   0.019953  -0.002158   0.000887
    20  H   -0.003470   0.000000  -0.000069   0.011218   0.000001   0.000000
    21  H    0.000738   0.000000  -0.000013   0.000081  -0.000001   0.000000
    22  H    0.005126   0.000000   0.000004  -0.001676  -0.000004   0.000000
    23  O   -0.051264  -0.000715  -0.000866  -0.003389  -0.007451  -0.000091
    24  Si  -0.204969   0.000121   0.001964  -0.002908   0.038851  -0.002330
    25  C    0.044007  -0.000167  -0.000095   0.000114  -0.010489  -0.000182
    26  H    0.000120   0.000000   0.000000   0.000000   0.000013   0.000000
    27  H    0.006078  -0.000001   0.000000  -0.000002   0.000443   0.000009
    28  H    0.006278   0.000000   0.000000   0.000001   0.000009  -0.000003
    29  C    0.000497  -0.000025   0.000214  -0.000904   0.003160  -0.000170
    30  C    0.015918   0.000250  -0.000007   0.000418  -0.015072   0.000534
    31  H   -0.003080   0.000000   0.000000   0.000000   0.000036   0.000000
    32  H    0.000783   0.000000   0.000000   0.000000   0.000000   0.000000
    33  H    0.006293   0.000000   0.000000   0.000000   0.000793  -0.000001
    34  C   -0.003108  -0.000017  -0.000006  -0.002739   0.000261   0.000009
    35  H   -0.000122   0.000000   0.000000   0.000000   0.000000   0.000000
    36  H    0.000271   0.000000   0.000000   0.000000   0.000000   0.000000
    37  H   -0.000061   0.000000   0.000000   0.000002   0.000000   0.000000
    38  C   -0.000947   0.000001   0.000006   0.000213  -0.000338   0.000009
    39  H   -0.000207   0.000000   0.000000   0.000000   0.000000   0.000000
    40  H   -0.000056   0.000000   0.000000   0.000000   0.000000   0.000000
    41  H    0.000129   0.000000   0.000000   0.000000   0.000000   0.000000
    42  C    0.034214   0.000004  -0.000140   0.003100  -0.000652   0.000077
    43  H    0.000223   0.000000   0.000000   0.000000   0.000000   0.000000
    44  H    0.000456   0.000000   0.000000  -0.000006   0.000000   0.000000
    45  H   -0.001046   0.000000   0.000000   0.000356   0.000000   0.000000
    46  H   -0.004033   0.000302   0.000055   0.000001  -0.000001  -0.000389
    47  H   -0.000680   0.000046   0.001049   0.000000   0.000001   0.000278
             13         14         15         16         17         18
     1  H    0.004827   0.000020  -0.000284   0.002592  -0.000072   0.011758
     2  C   -0.097479  -0.023237  -0.447243  -0.034621  -0.010397  -0.279353
     3  C   -0.064562  -0.144689  -0.291417   0.033406   0.008168  -0.097068
     4  C    0.011310  -0.132030   0.890917  -0.108933   0.101806  -0.074304
     5  C    0.005479   0.248884  -4.296957  -0.134932  -0.010763   0.079725
     6  C   -0.010240   0.040330  -0.392507   0.237461  -0.072410   0.360586
     7  C    0.458635   0.052765  -0.433337  -0.057213   0.019957   0.079190
     8  H   -0.003208   0.000417  -0.077938   0.000430   0.000008   0.000873
     9  H   -0.000100   0.001793  -0.093111  -0.029459  -0.006053  -0.004189
    10  H    0.000045  -0.000582   0.001837  -0.019875   0.005878  -0.042808
    11  H   -0.027290  -0.000259   0.007402   0.000395  -0.000005  -0.001763
    12  H    0.004165   0.010984   0.002495   0.001713   0.000047   0.000869
    13  H    0.504257   0.003604   0.002303   0.000351   0.000002   0.012336
    14  O    0.003604   8.230249   0.107096   0.012986  -0.000385  -0.012807
    15  C    0.002303   0.107096  10.206658   0.103976  -0.019857  -0.006566
    16  O    0.000351   0.012986   0.103976   8.240720   0.218604   0.012281
    17  H    0.000002  -0.000385  -0.019857   0.218604   0.387737   0.001683
    18  O    0.012336  -0.012807  -0.006566   0.012281   0.001683   8.338214
    19  C    0.007592  -0.002826  -0.019516  -0.000771   0.002479   0.028768
    20  H   -0.000011  -0.000099  -0.000131  -0.000390   0.000003  -0.047260
    21  H    0.000030  -0.000088  -0.002026   0.000039   0.000000  -0.077849
    22  H   -0.000031  -0.000040   0.000245   0.000086   0.000000  -0.055183
    23  O    0.003610  -0.000135   0.006860  -0.004031  -0.000310   0.037550
    24  Si  -0.011199  -0.000678  -0.032716   0.016484  -0.004188  -0.017553
    25  C    0.000401  -0.000019  -0.000277  -0.005686   0.000738  -0.000279
    26  H    0.000000   0.000000   0.000023   0.000006   0.000000   0.000004
    27  H   -0.000006   0.000000  -0.000435  -0.000041   0.000000  -0.000023
    28  H   -0.000001   0.000000  -0.000052  -0.000032  -0.000001  -0.000029
    29  C   -0.002257  -0.000033  -0.004563   0.002953  -0.000064  -0.000836
    30  C    0.003535   0.000239  -0.002032  -0.000063   0.000044  -0.001580
    31  H    0.000002   0.000000   0.000002   0.000000   0.000000   0.000004
    32  H   -0.000015   0.000000   0.000000   0.000000   0.000000  -0.000010
    33  H   -0.000063   0.000001  -0.000073  -0.000002   0.000000  -0.000014
    34  C    0.000655   0.000045   0.001440   0.000042  -0.000001  -0.000314
    35  H    0.000000   0.000000  -0.000001   0.000000   0.000000  -0.000016
    36  H    0.000000   0.000000   0.000000   0.000000   0.000000  -0.000008
    37  H    0.000000   0.000000   0.000010  -0.000001   0.000000  -0.000006
    38  C    0.000056   0.000002  -0.000391   0.000148  -0.000002   0.000039
    39  H    0.000000   0.000000   0.000000   0.000000   0.000000   0.000000
    40  H    0.000000   0.000000   0.000000   0.000000   0.000000   0.000000
    41  H    0.000000   0.000000   0.000000   0.000000   0.000000   0.000000
    42  C    0.000272   0.000034   0.001370  -0.001907   0.000139   0.004693
    43  H    0.000000   0.000000  -0.000001   0.000000   0.000000  -0.000003
    44  H    0.000000   0.000000   0.000006  -0.000004   0.000000  -0.000002
    45  H    0.000000   0.000000   0.000001   0.000009   0.000001   0.000053
    46  H   -0.000016  -0.038987   0.484465  -0.000016  -0.000008  -0.000241
    47  H    0.000003  -0.031516   0.398290   0.001247   0.000005   0.000493
             19         20         21         22         23         24
     1  H    0.002077   0.000025   0.000009  -0.000147  -0.052627   0.011420
     2  C   -0.154801   0.032207  -0.009013   0.001468   0.120815  -0.480044
     3  C   -0.077366  -0.006087   0.002283   0.006027   0.032849   0.093380
     4  C    0.091357   0.025436  -0.011996  -0.008755   0.094274  -0.255532
     5  C   -0.078484  -0.007845  -0.001919   0.006891  -0.022577   0.022651
     6  C   -0.049141  -0.067042   0.021683   0.020501  -0.046859   0.425049
     7  C    0.056224  -0.003470   0.000738   0.005126  -0.051264  -0.204969
     8  H   -0.000018   0.000000   0.000000   0.000000  -0.000715   0.000121
     9  H   -0.005067  -0.000069  -0.000013   0.000004  -0.000866   0.001964
    10  H    0.019953   0.011218   0.000081  -0.001676  -0.003389  -0.002908
    11  H   -0.002158   0.000001  -0.000001  -0.000004  -0.007451   0.038851
    12  H    0.000887   0.000000   0.000000   0.000000  -0.000091  -0.002330
    13  H    0.007592  -0.000011   0.000030  -0.000031   0.003610  -0.011199
    14  O   -0.002826  -0.000099  -0.000088  -0.000040  -0.000135  -0.000678
    15  C   -0.019516  -0.000131  -0.002026   0.000245   0.006860  -0.032716
    16  O   -0.000771  -0.000390   0.000039   0.000086  -0.004031   0.016484
    17  H    0.002479   0.000003   0.000000   0.000000  -0.000310  -0.004188
    18  O    0.028768  -0.047260  -0.077849  -0.055183   0.037550  -0.017553
    19  C    5.128047   0.416751   0.436435   0.392585  -0.009858  -0.021946
    20  H    0.416751   0.576680  -0.026560  -0.043015   0.000500   0.001429
    21  H    0.436435  -0.026560   0.537281  -0.032068   0.002455  -0.000423
    22  H    0.392585  -0.043015  -0.032068   0.553215  -0.018700   0.005021
    23  O   -0.009858   0.000500   0.002455  -0.018700   8.355857  -0.152592
    24  Si  -0.021946   0.001429  -0.000423   0.005021  -0.152592  13.481233
    25  C    0.000660  -0.000033  -0.000013   0.000006  -0.055806   0.198780
    26  H    0.000012   0.000000   0.000000   0.000000   0.010279  -0.044454
    27  H    0.000066   0.000000   0.000000   0.000000  -0.006167  -0.012237
    28  H   -0.000083   0.000000   0.000000   0.000000  -0.001092  -0.021099
    29  C    0.012931  -0.001283  -0.000700   0.003908  -0.052664   0.341748
    30  C    0.002610  -0.000256   0.000021   0.001354  -0.045823   0.240525
    31  H    0.000030   0.000000   0.000000   0.000000   0.009381  -0.034177
    32  H   -0.000170   0.000000   0.000000  -0.000009  -0.006616  -0.030647
    33  H    0.000140   0.000000   0.000000  -0.000004  -0.006593  -0.004610
    34  C   -0.018444  -0.001822   0.000168   0.001731   0.020462  -0.193033
    35  H    0.000340   0.000002   0.000000   0.000006  -0.003045   0.004379
    36  H    0.000136   0.000000   0.000000  -0.000003  -0.000778   0.015827
    37  H   -0.004001   0.000086   0.000004   0.000520   0.009374  -0.016710
    38  C    0.003459   0.000172  -0.000042   0.000115   0.015794  -0.041335
    39  H    0.000011   0.000000   0.000000   0.000000   0.000473  -0.009427
    40  H    0.000005   0.000000   0.000000   0.000000   0.000470  -0.014887
    41  H   -0.000003   0.000000   0.000000   0.000000  -0.000643   0.019186
    42  C    0.007031   0.002616   0.000470  -0.007162   0.030100  -0.084385
    43  H    0.000034   0.000000   0.000000   0.000001  -0.000812   0.011602
    44  H   -0.000181   0.000000   0.000000   0.000000  -0.002871  -0.004306
    45  H    0.000689   0.000074   0.000001  -0.000053   0.009288  -0.006974
    46  H   -0.000117   0.000000   0.000000   0.000000  -0.000011   0.000161
    47  H    0.000515   0.000000   0.000000   0.000000   0.000000  -0.000119
             25         26         27         28         29         30
     1  H   -0.004730   0.000057  -0.001028  -0.000186  -0.006841  -0.000212
     2  C    0.062847   0.006033  -0.009405  -0.015440  -0.018771   0.051540
     3  C   -0.020243   0.000201  -0.002014   0.000888   0.009201  -0.031543
     4  C    0.061608  -0.000114   0.000399   0.000396  -0.055101   0.013568
     5  C   -0.016012   0.000339  -0.001828  -0.000452  -0.004246  -0.005397
     6  C   -0.106632   0.001170  -0.003286  -0.004172  -0.000350  -0.041604
     7  C    0.044007   0.000120   0.006078   0.006278   0.000497   0.015918
     8  H   -0.000167   0.000000  -0.000001   0.000000  -0.000025   0.000250
     9  H   -0.000095   0.000000   0.000000   0.000000   0.000214  -0.000007
    10  H    0.000114   0.000000  -0.000002   0.000001  -0.000904   0.000418
    11  H   -0.010489   0.000013   0.000443   0.000009   0.003160  -0.015072
    12  H   -0.000182   0.000000   0.000009  -0.000003  -0.000170   0.000534
    13  H    0.000401   0.000000  -0.000006  -0.000001  -0.002257   0.003535
    14  O   -0.000019   0.000000   0.000000   0.000000  -0.000033   0.000239
    15  C   -0.000277   0.000023  -0.000435  -0.000052  -0.004563  -0.002032
    16  O   -0.005686   0.000006  -0.000041  -0.000032   0.002953  -0.000063
    17  H    0.000738   0.000000   0.000000  -0.000001  -0.000064   0.000044
    18  O   -0.000279   0.000004  -0.000023  -0.000029  -0.000836  -0.001580
    19  C    0.000660   0.000012   0.000066  -0.000083   0.012931   0.002610
    20  H   -0.000033   0.000000   0.000000   0.000000  -0.001283  -0.000256
    21  H   -0.000013   0.000000   0.000000   0.000000  -0.000700   0.000021
    22  H    0.000006   0.000000   0.000000   0.000000   0.003908   0.001354
    23  O   -0.055806   0.010279  -0.006167  -0.001092  -0.052664  -0.045823
    24  Si   0.198780  -0.044454  -0.012237  -0.021099   0.341748   0.240525
    25  C    5.481848   0.403747   0.384724   0.402655  -0.139542  -0.006819
    26  H    0.403747   0.483246  -0.020725  -0.021442  -0.022011  -0.005185
    27  H    0.384724  -0.020725   0.493169  -0.022825   0.018329  -0.012123
    28  H    0.402655  -0.021442  -0.022825   0.491620  -0.019533   0.008197
    29  C   -0.139542  -0.022011   0.018329  -0.019533   8.133373  -0.148589
    30  C   -0.006819  -0.005185  -0.012123   0.008197  -0.148589   5.483701
    31  H   -0.009867   0.000106   0.000118   0.000016  -0.022868   0.399712
    32  H    0.009986   0.000021   0.000000  -0.000017  -0.022653   0.403628
    33  H   -0.010302   0.000118   0.000409   0.000004   0.019368   0.378226
    34  C   -0.007799   0.002555  -0.001691  -0.003909  -0.288062  -0.042873
    35  H   -0.000113   0.000001  -0.000001   0.000000  -0.062742   0.002533
    36  H   -0.001376   0.000000   0.000000   0.000000  -0.151405  -0.000121
    37  H   -0.000751   0.000000   0.000000   0.000002  -0.107306   0.000831
    38  C    0.013671   0.008971  -0.000404   0.003514  -0.419178   0.040988
    39  H   -0.001293   0.000010  -0.000006   0.000011  -0.087341   0.004286
    40  H    0.004305   0.000343  -0.000004   0.000014  -0.084903  -0.000551
    41  H    0.000783   0.000012   0.000000  -0.000005  -0.151154  -0.000222
    42  C    0.027849   0.004172   0.000612   0.008727  -0.363394   0.000620
    43  H    0.001038  -0.000002   0.000000  -0.000003  -0.154420  -0.001514
    44  H    0.003012   0.000098   0.000007   0.000089  -0.064857  -0.000239
    45  H   -0.000766   0.000009  -0.000005   0.000040  -0.109301  -0.000490
    46  H   -0.000002   0.000000   0.000000   0.000000   0.000001  -0.000009
    47  H    0.000003   0.000000   0.000000   0.000000   0.000000   0.000002
             31         32         33         34         35         36
     1  H    0.000003  -0.000003  -0.000013   0.001339   0.000000   0.000000
     2  C    0.008236   0.000624  -0.012668   0.066167  -0.001226  -0.000462
     3  C    0.000011  -0.000323  -0.000660   0.007882  -0.000032  -0.000008
     4  C   -0.000071   0.000113   0.000147   0.004701  -0.000066   0.000077
     5  C    0.000012   0.000022  -0.000247   0.002720  -0.000001  -0.000013
     6  C    0.000685  -0.000211  -0.002767   0.013511  -0.000087  -0.000066
     7  C   -0.003080   0.000783   0.006293  -0.003108  -0.000122   0.000271
     8  H    0.000000   0.000000   0.000000  -0.000017   0.000000   0.000000
     9  H    0.000000   0.000000   0.000000  -0.000006   0.000000   0.000000
    10  H    0.000000   0.000000   0.000000  -0.002739   0.000000   0.000000
    11  H    0.000036   0.000000   0.000793   0.000261   0.000000   0.000000
    12  H    0.000000   0.000000  -0.000001   0.000009   0.000000   0.000000
    13  H    0.000002  -0.000015  -0.000063   0.000655   0.000000   0.000000
    14  O    0.000000   0.000000   0.000001   0.000045   0.000000   0.000000
    15  C    0.000002   0.000000  -0.000073   0.001440  -0.000001   0.000000
    16  O    0.000000   0.000000  -0.000002   0.000042   0.000000   0.000000
    17  H    0.000000   0.000000   0.000000  -0.000001   0.000000   0.000000
    18  O    0.000004  -0.000010  -0.000014  -0.000314  -0.000016  -0.000008
    19  C    0.000030  -0.000170   0.000140  -0.018444   0.000340   0.000136
    20  H    0.000000   0.000000   0.000000  -0.001822   0.000002   0.000000
    21  H    0.000000   0.000000   0.000000   0.000168   0.000000   0.000000
    22  H    0.000000  -0.000009  -0.000004   0.001731   0.000006  -0.000003
    23  O    0.009381  -0.006616  -0.006593   0.020462  -0.003045  -0.000778
    24  Si  -0.034177  -0.030647  -0.004610  -0.193033   0.004379   0.015827
    25  C   -0.009867   0.009986  -0.010302  -0.007799  -0.000113  -0.001376
    26  H    0.000106   0.000021   0.000118   0.002555   0.000001   0.000000
    27  H    0.000118   0.000000   0.000409  -0.001691  -0.000001   0.000000
    28  H    0.000016  -0.000017   0.000004  -0.003909   0.000000   0.000000
    29  C   -0.022868  -0.022653   0.019368  -0.288062  -0.062742  -0.151405
    30  C    0.399712   0.403628   0.378226  -0.042873   0.002533  -0.000121
    31  H    0.492729  -0.022440  -0.021940   0.012143   0.000035  -0.000001
    32  H   -0.022440   0.490138  -0.022221   0.013908   0.000166  -0.000006
    33  H   -0.021940  -0.022221   0.498636   0.000007   0.000001   0.000000
    34  C    0.012143   0.013908   0.000007   6.048217   0.415733   0.465003
    35  H    0.000035   0.000166   0.000001   0.415733   0.532660  -0.028053
    36  H   -0.000001  -0.000006   0.000000   0.465003  -0.028053   0.542641
    37  H    0.000008   0.000038  -0.000005   0.470805  -0.026013  -0.027461
    38  C    0.006352   0.000187  -0.001661  -0.143270  -0.003384   0.008379
    39  H    0.000220   0.000043  -0.000001  -0.018587   0.002688  -0.000328
    40  H    0.000003   0.000015  -0.000006   0.006678   0.000028   0.000006
    41  H    0.000022  -0.000007   0.000000   0.008409  -0.000335   0.005506
    42  C   -0.000816  -0.001316  -0.001009  -0.259589  -0.000089   0.004150
    43  H    0.000000   0.000000   0.000000   0.012848   0.000030   0.005516
    44  H    0.000001   0.000000  -0.000001   0.002459  -0.000152   0.000027
    45  H   -0.000001   0.000002   0.000000  -0.006058   0.000031  -0.000300
    46  H    0.000000   0.000000   0.000000   0.000000   0.000000   0.000000
    47  H    0.000000   0.000000   0.000000   0.000000   0.000000   0.000000
             37         38         39         40         41         42
     1  H   -0.000002   0.000288   0.000000   0.000000   0.000000   0.000334
     2  C   -0.003103  -0.001578   0.000222   0.000590  -0.001143  -0.050306
     3  C    0.000046  -0.002519  -0.000003   0.000006   0.000000  -0.008201
     4  C    0.000749  -0.003615  -0.000008  -0.000008   0.000003   0.044860
     5  C    0.000140  -0.002209  -0.000003   0.000002  -0.000005  -0.005887
     6  C    0.006728  -0.012377  -0.000146  -0.000169  -0.000008  -0.031376
     7  C   -0.000061  -0.000947  -0.000207  -0.000056   0.000129   0.034214
     8  H    0.000000   0.000001   0.000000   0.000000   0.000000   0.000004
     9  H    0.000000   0.000006   0.000000   0.000000   0.000000  -0.000140
    10  H    0.000002   0.000213   0.000000   0.000000   0.000000   0.003100
    11  H    0.000000  -0.000338   0.000000   0.000000   0.000000  -0.000652
    12  H    0.000000   0.000009   0.000000   0.000000   0.000000   0.000077
    13  H    0.000000   0.000056   0.000000   0.000000   0.000000   0.000272
    14  O    0.000000   0.000002   0.000000   0.000000   0.000000   0.000034
    15  C    0.000010  -0.000391   0.000000   0.000000   0.000000   0.001370
    16  O   -0.000001   0.000148   0.000000   0.000000   0.000000  -0.001907
    17  H    0.000000  -0.000002   0.000000   0.000000   0.000000   0.000139
    18  O   -0.000006   0.000039   0.000000   0.000000   0.000000   0.004693
    19  C   -0.004001   0.003459   0.000011   0.000005  -0.000003   0.007031
    20  H    0.000086   0.000172   0.000000   0.000000   0.000000   0.002616
    21  H    0.000004  -0.000042   0.000000   0.000000   0.000000   0.000470
    22  H    0.000520   0.000115   0.000000   0.000000   0.000000  -0.007162
    23  O    0.009374   0.015794   0.000473   0.000470  -0.000643   0.030100
    24  Si  -0.016710  -0.041335  -0.009427  -0.014887   0.019186  -0.084385
    25  C   -0.000751   0.013671  -0.001293   0.004305   0.000783   0.027849
    26  H    0.000000   0.008971   0.000010   0.000343   0.000012   0.004172
    27  H    0.000000  -0.000404  -0.000006  -0.000004   0.000000   0.000612
    28  H    0.000002   0.003514   0.000011   0.000014  -0.000005   0.008727
    29  C   -0.107306  -0.419178  -0.087341  -0.084903  -0.151154  -0.363394
    30  C    0.000831   0.040988   0.004286  -0.000551  -0.000222   0.000620
    31  H    0.000008   0.006352   0.000220   0.000003   0.000022  -0.000816
    32  H    0.000038   0.000187   0.000043   0.000015  -0.000007  -0.001316
    33  H   -0.000005  -0.001661  -0.000001  -0.000006   0.000000  -0.001009
    34  C    0.470805  -0.143270  -0.018587   0.006678   0.008409  -0.259589
    35  H   -0.026013  -0.003384   0.002688   0.000028  -0.000335  -0.000089
    36  H   -0.027461   0.008379  -0.000328   0.000006   0.005506   0.004150
    37  H    0.524314  -0.001998   0.000040  -0.000146   0.000025  -0.002952
    38  C   -0.001998   5.684742   0.458714   0.453148   0.455468   0.024139
    39  H    0.000040   0.458714   0.531769  -0.027253  -0.027660   0.005564
    40  H   -0.000146   0.453148  -0.027253   0.533354  -0.027704  -0.012743
    41  H    0.000025   0.455468  -0.027660  -0.027704   0.538761   0.009605
    42  C   -0.002952   0.024139   0.005564  -0.012743   0.009605   5.872556
    43  H   -0.000314   0.009929   0.000001  -0.000305   0.005237   0.459840
    44  H    0.000032  -0.005662   0.000030   0.002722  -0.000322   0.423885
    45  H    0.003010  -0.001866  -0.000146   0.000041   0.000023   0.470618
    46  H    0.000000   0.000000   0.000000   0.000000   0.000000   0.000000
    47  H    0.000000   0.000000   0.000000   0.000000   0.000000   0.000000
             43         44         45         46         47
     1  H    0.000000   0.000000   0.000063   0.000000  -0.000001
     2  C    0.000471   0.001774  -0.002933   0.001710  -0.000759
     3  C   -0.000024   0.000098   0.000013   0.085046  -0.031668
     4  C    0.000192   0.000080   0.000190  -0.037767   0.114817
     5  C   -0.000026   0.000016   0.000142  -0.148242  -0.121930
     6  C    0.000093  -0.001384   0.001054  -0.005994   0.007063
     7  C    0.000223   0.000456  -0.001046  -0.004033  -0.000680
     8  H    0.000000   0.000000   0.000000   0.000302   0.000046
     9  H    0.000000   0.000000   0.000000   0.000055   0.001049
    10  H    0.000000  -0.000006   0.000356   0.000001   0.000000
    11  H    0.000000   0.000000   0.000000  -0.000001   0.000001
    12  H    0.000000   0.000000   0.000000  -0.000389   0.000278
    13  H    0.000000   0.000000   0.000000  -0.000016   0.000003
    14  O    0.000000   0.000000   0.000000  -0.038987  -0.031516
    15  C   -0.000001   0.000006   0.000001   0.484465   0.398290
    16  O    0.000000  -0.000004   0.000009  -0.000016   0.001247
    17  H    0.000000   0.000000   0.000001  -0.000008   0.000005
    18  O   -0.000003  -0.000002   0.000053  -0.000241   0.000493
    19  C    0.000034  -0.000181   0.000689  -0.000117   0.000515
    20  H    0.000000   0.000000   0.000074   0.000000   0.000000
    21  H    0.000000   0.000000   0.000001   0.000000   0.000000
    22  H    0.000001   0.000000  -0.000053   0.000000   0.000000
    23  O   -0.000812  -0.002871   0.009288  -0.000011   0.000000
    24  Si   0.011602  -0.004306  -0.006974   0.000161  -0.000119
    25  C    0.001038   0.003012  -0.000766  -0.000002   0.000003
    26  H   -0.000002   0.000098   0.000009   0.000000   0.000000
    27  H    0.000000   0.000007  -0.000005   0.000000   0.000000
    28  H   -0.000003   0.000089   0.000040   0.000000   0.000000
    29  C   -0.154420  -0.064857  -0.109301   0.000001   0.000000
    30  C   -0.001514  -0.000239  -0.000490  -0.000009   0.000002
    31  H    0.000000   0.000001  -0.000001   0.000000   0.000000
    32  H    0.000000   0.000000   0.000002   0.000000   0.000000
    33  H    0.000000  -0.000001   0.000000   0.000000   0.000000
    34  C    0.012848   0.002459  -0.006058   0.000000   0.000000
    35  H    0.000030  -0.000152   0.000031   0.000000   0.000000
    36  H    0.005516   0.000027  -0.000300   0.000000   0.000000
    37  H   -0.000314   0.000032   0.003010   0.000000   0.000000
    38  C    0.009929  -0.005662  -0.001866   0.000000   0.000000
    39  H    0.000001   0.000030  -0.000146   0.000000   0.000000
    40  H   -0.000305   0.002722   0.000041   0.000000   0.000000
    41  H    0.005237  -0.000322   0.000023   0.000000   0.000000
    42  C    0.459840   0.423885   0.470618   0.000000   0.000000
    43  H    0.542072  -0.027830  -0.027097   0.000000   0.000000
    44  H   -0.027830   0.535553  -0.026572   0.000000   0.000000
    45  H   -0.027097  -0.026572   0.523665   0.000000   0.000000
    46  H    0.000000   0.000000   0.000000   0.530519  -0.035901
    47  H    0.000000   0.000000   0.000000  -0.035901   0.529548
 Mulliken atomic charges:
              1
     1  H    0.160961
     2  C   -0.577374
     3  C   -0.462601
     4  C   -0.034339
     5  C    0.176139
     6  C   -0.084004
     7  C   -0.132922
     8  H    0.172981
     9  H    0.160330
    10  H    0.131560
    11  H    0.159618
    12  H    0.189020
    13  H    0.193008
    14  O   -0.321037
    15  C   -0.093963
    16  O   -0.487952
    17  H    0.377219
    18  O   -0.249054
    19  C   -0.166872
    20  H    0.138173
    21  H    0.161013
    22  H    0.168036
    23  O   -0.206004
    24  Si   0.775665
    25  C   -0.703489
    26  H    0.192266
    27  H    0.189892
    28  H    0.187912
    29  C    0.022384
    30  C   -0.690955
    31  H    0.185392
    32  H    0.186988
    33  H    0.180718
    34  C   -0.588573
    35  H    0.166845
    36  H    0.162852
    37  H    0.174066
    38  C   -0.545728
    39  H    0.168326
    40  H    0.167004
    41  H    0.166041
    42  C   -0.609727
    43  H    0.163226
    44  H    0.164043
    45  H    0.174234
    46  H    0.169471
    47  H    0.169213
 Sum of Mulliken atomic charges =   0.00000
 Mulliken charges with hydrogens summed into heavy atoms:
              1
     2  C   -0.416412
     3  C   -0.100600
     4  C    0.125991
     5  C    0.176139
     6  C    0.047556
     7  C    0.219703
    14  O   -0.321037
    15  C    0.244721
    16  O   -0.110733
    18  O   -0.249054
    19  C    0.300349
    23  O   -0.206004
    24  Si   0.775665
    25  C   -0.133420
    29  C    0.022384
    30  C   -0.137857
    34  C   -0.084810
    38  C   -0.044357
    42  C   -0.108224
 Sum of Mulliken charges with hydrogens summed into heavy atoms =   0.00000
 Electronic spatial extent (au):  <R**2>=           6740.7597
 Charge=              0.0000 electrons
 Dipole moment (field-independent basis, Debye):
    X=              2.1812    Y=             -0.9292    Z=              2.4982  Tot=              3.4441
 Quadrupole moment (field-independent basis, Debye-Ang):
   XX=           -129.4139   YY=           -120.9278   ZZ=           -126.1078
   XY=              2.9268   XZ=             -7.6480   YZ=              6.2261
 Traceless Quadrupole moment (field-independent basis, Debye-Ang):
   XX=             -3.9307   YY=              4.5553   ZZ=             -0.6246
   XY=              2.9268   XZ=             -7.6480   YZ=              6.2261
 Octapole moment (field-independent basis, Debye-Ang**2):
  XXX=            -34.1134  YYY=             14.0202  ZZZ=             16.8896  XYY=            -15.7380
  XXY=            -26.4926  XXZ=             27.5028  XZZ=             -1.2852  YZZ=             15.5849
  YYZ=             -3.4363  XYZ=            -20.9903
 Hexadecapole moment (field-independent basis, Debye-Ang**3):
 XXXX=          -6494.4341 YYYY=          -1437.2229 ZZZZ=           -972.3986 XXXY=             97.1450
 XXXZ=           -136.1040 YYYX=             -6.7009 YYYZ=             -8.9095 ZZZX=            -31.9394
 ZZZY=             11.7470 XXYY=          -1328.8441 XXZZ=          -1350.8273 YYZZ=           -409.7741
 XXYZ=             69.6837 YYXZ=              3.6964 ZZXY=            -28.9366
 N-N= 1.806410985395D+03 E-N=-6.283702633996D+03  KE= 1.131536255594D+03
 1\1\GINC-COMPUTE-8-30\SP\RmPW1PW91\6-31+G(d,p)\C14H28O4Si1\ELUCIANO.IQ
 UIR\06-Dec-2022\0\\# mPW1PW91/6-31+g** scrf=(PCM,solvent=chloroform) n
 mr\\comment\\0,1\H,0,-0.52602,-0.884486,1.056847\C,0,-0.578524,-0.2809
 64,0.138985\C,0,-2.642553,-1.591064,-0.479003\C,0,-2.830337,0.512846,0
 .979048\C,0,-3.504896,-0.435419,-0.005232\C,0,-1.435692,0.953727,0.476
 408\C,0,-1.259801,-1.110567,-0.955822\H,0,-3.166119,-2.119772,-1.28261
 2\H,0,-3.454964,1.410769,1.078717\H,0,-0.928526,1.522315,1.277447\H,0,
 -0.634756,-1.974122,-1.212491\H,0,-2.520332,-2.294763,0.355268\H,0,-1.
 36201,-0.493675,-1.854953\O,0,-4.300905,0.214505,-1.010774\C,0,-4.9691
 34,-0.542601,0.007781\O,0,-2.730571,-0.196915,2.217225\H,0,-2.316192,0
 .396149,2.863803\O,0,-1.676696,1.799797,-0.632064\C,0,-0.666721,2.7468
 3,-0.940541\H,0,-0.340748,3.288993,-0.038836\H,0,-1.117401,3.459759,-1
 .637235\H,0,0.208553,2.281722,-1.404536\O,0,0.731908,0.147365,-0.22326
 8\Si,0,2.14683,-0.765298,-0.219846\C,0,1.991809,-2.201256,1.004097\H,0
 ,2.921981,-2.78135,1.035383\H,0,1.191061,-2.893134,0.716401\H,0,1.7820
 73,-1.859451,2.024165\C,0,3.53634,0.445652,0.301368\C,0,2.468266,-1.45
 3755,-1.95099\H,0,3.420417,-1.996032,-1.99986\H,0,2.499259,-0.654412,-
 2.699969\H,0,1.677245,-2.151411,-2.249881\C,0,3.609158,1.628042,-0.688
 941\H,0,3.838655,1.296765,-1.709086\H,0,4.401586,2.329163,-0.388411\H,
 0,2.667246,2.187088,-0.72164\C,0,4.897704,-0.283715,0.311568\H,0,5.163
 853,-0.673692,-0.678504\H,0,4.91237,-1.123178,1.017857\H,0,5.698061,0.
 407477,0.613043\C,0,3.248604,0.996867,1.714114\H,0,4.028017,1.712977,2
 .012965\H,0,3.231977,0.201221,2.469274\H,0,2.285573,1.5187,1.753601\H,
 0,-5.44212,-1.466283,-0.327845\H,0,-5.549581,0.041098,0.722933\\Versio
 n=EM64L-G09RevC.01\State=1-A\HF=-1140.6192349\RMSD=6.670e-09\Dipole=0.
 8581419,-0.365575,0.9828795\Quadrupole=-2.9223809,3.3867834,-0.4644024
 ,2.175981,-5.6860986,4.628984\PG=C01 [X(C14H28O4Si1)]\\@


 Just remember, when you're over the hill, you begin to pick up speed.
 -- Charles Schulz
 Job cpu time:  0 days  1 hours  4 minutes 39.8 seconds.
 File lengths (MBytes):  RWF=    299 Int=      0 D2E=      0 Chk=     16 Scr=      1
 Normal termination of Gaussian 09 at Tue Dec  6 21:21:52 2022.
