 Entering Gaussian System, Link 0=g09
 Input=/home/eluciano.iquir/todos_optB3L_MPW_B_PCM/02_epoxido28_020_optB3L_nmr_MPW_B_PCM.gjc
 Output=/home/eluciano.iquir/todos_optB3L_MPW_B_PCM/02_epoxido28_020_optB3L_nmr_MPW_B_PCM.log
 Initial command:
 /share/apps/Gaussian09/EM64T.SSE4.2-enabled/g09/l1.exe /tmp/Gau-9178.inp -scrdir=/tmp/
 Entering Link 1 = /share/apps/Gaussian09/EM64T.SSE4.2-enabled/g09/l1.exe PID=      9179.
  
 Copyright (c) 1988,1990,1992,1993,1995,1998,2003,2009,2011,
            Gaussian, Inc.  All Rights Reserved.
  
 This is part of the Gaussian(R) 09 program.  It is based on
 the Gaussian(R) 03 system (copyright 2003, Gaussian, Inc.),
 the Gaussian(R) 98 system (copyright 1998, Gaussian, Inc.),
 the Gaussian(R) 94 system (copyright 1995, Gaussian, Inc.),
 the Gaussian 92(TM) system (copyright 1992, Gaussian, Inc.),
 the Gaussian 90(TM) system (copyright 1990, Gaussian, Inc.),
 the Gaussian 88(TM) system (copyright 1988, Gaussian, Inc.),
 the Gaussian 86(TM) system (copyright 1986, Carnegie Mellon
 University), and the Gaussian 82(TM) system (copyright 1983,
 Carnegie Mellon University). Gaussian is a federally registered
 trademark of Gaussian, Inc.
  
 This software contains proprietary and confidential information,
 including trade secrets, belonging to Gaussian, Inc.
  
 This software is provided under written license and may be
 used, copied, transmitted, or stored only in accord with that
 written license.
  
 The following legend is applicable only to US Government
 contracts under FAR:
  
                    RESTRICTED RIGHTS LEGEND
  
 Use, reproduction and disclosure by the US Government is
 subject to restrictions as set forth in subparagraphs (a)
 and (c) of the Commercial Computer Software - Restricted
 Rights clause in FAR 52.227-19.
  
 Gaussian, Inc.
 340 Quinnipiac St., Bldg. 40, Wallingford CT 06492
  
  
 ---------------------------------------------------------------
 Warning -- This program may not be used in any manner that
 competes with the business of Gaussian, Inc. or will provide
 assistance to any competitor of Gaussian, Inc.  The licensee
 of this program is prohibited from giving any competitor of
 Gaussian, Inc. access to this program.  By using this program,
 the user acknowledges that Gaussian, Inc. is engaged in the
 business of creating and licensing software in the field of
 computational chemistry and represents and warrants to the
 licensee that it is not a competitor of Gaussian, Inc. and that
 it will not use this program in any manner prohibited above.
 ---------------------------------------------------------------
  

 Cite this work as:
 Gaussian 09, Revision C.01,
 M. J. Frisch, G. W. Trucks, H. B. Schlegel, G. E. Scuseria, 
 M. A. Robb, J. R. Cheeseman, G. Scalmani, V. Barone, B. Mennucci, 
 G. A. Petersson, H. Nakatsuji, M. Caricato, X. Li, H. P. Hratchian, 
 A. F. Izmaylov, J. Bloino, G. Zheng, J. L. Sonnenberg, M. Hada, 
 M. Ehara, K. Toyota, R. Fukuda, J. Hasegawa, M. Ishida, T. Nakajima, 
 Y. Honda, O. Kitao, H. Nakai, T. Vreven, J. A. Montgomery, Jr., 
 J. E. Peralta, F. Ogliaro, M. Bearpark, J. J. Heyd, E. Brothers, 
 K. N. Kudin, V. N. Staroverov, T. Keith, R. Kobayashi, J. Normand, 
 K. Raghavachari, A. Rendell, J. C. Burant, S. S. Iyengar, J. Tomasi, 
 M. Cossi, N. Rega, J. M. Millam, M. Klene, J. E. Knox, J. B. Cross, 
 V. Bakken, C. Adamo, J. Jaramillo, R. Gomperts, R. E. Stratmann, 
 O. Yazyev, A. J. Austin, R. Cammi, C. Pomelli, J. W. Ochterski, 
 R. L. Martin, K. Morokuma, V. G. Zakrzewski, G. A. Voth, 
 P. Salvador, J. J. Dannenberg, S. Dapprich, A. D. Daniels, 
 O. Farkas, J. B. Foresman, J. V. Ortiz, J. Cioslowski, 
 and D. J. Fox, Gaussian, Inc., Wallingford CT, 2010.
 
 ******************************************
 Gaussian 09:  EM64L-G09RevC.01 23-Sep-2011
                 6-Dec-2022 
 ******************************************
 %nprocshared=4
 Will use up to    4 processors via shared memory.
 %mem=80MW
 -----------------------------------------------------
 # mPW1PW91/6-31+g** scrf=(PCM,solvent=chloroform) nmr
 -----------------------------------------------------
 1/38=1/1;
 2/12=2,17=6,18=5,40=1/2;
 3/5=1,6=6,7=111,11=2,16=1,25=1,30=1,70=2201,72=7,74=-7/1,2,8,3;
 4//1;
 5/5=2,38=5,53=7/2;
 8/6=1,10=90,11=11/1;
 10/13=100,45=16/2;
 6/7=2,8=2,9=2,10=2,28=1/1;
 99/9=1/99;
 -------
 comment
 -------
 Charge =  0 Multiplicity = 1
 Symbolic Z-Matrix:
 1                    -0.4965   -1.39265   0.61006 
 6                    -0.51343  -0.52946  -0.07146 
 6                    -2.63556  -1.44297  -1.11123 
 6                    -2.74851   0.06412   0.9584 
 6                    -3.4381   -0.44427  -0.29863 
 6                    -1.32119   0.57493   0.63643 
 6                    -1.2039   -0.94372  -1.37613 
 1                    -3.15693  -1.63744  -2.05468 
 1                    -3.3526    0.88255   1.37366 
 1                    -0.81828   0.83197   1.58906 
 1                    -0.6115   -1.72765  -1.86139 
 1                    -2.60357  -2.38755  -0.55203 
 1                    -1.22052  -0.07754  -2.04498 
 8                    -4.1156    0.59047  -1.03814 
 6                    -4.90411  -0.40503  -0.36844 
 8                    -2.69737  -1.03052   1.87999 
 1                    -2.23979  -0.72194   2.67834 
 8                    -1.32539   1.70202  -0.21507 
 6                    -1.84505   2.89517   0.33897 
 1                    -2.94153   2.88559   0.39453 
 1                    -1.5385    3.70669  -0.32653 
 1                    -1.43331   3.08711   1.34301 
 8                     0.80125  -0.06911  -0.34071 
 14                    2.23299  -0.65383   0.30706 
 6                     2.155    -0.62133   2.20032 
 1                     3.06752  -1.03734   2.64426 
 1                     1.31569  -1.22306   2.57145 
 1                     2.03047   0.397     2.58597 
 6                     3.56505   0.53514  -0.37283 
 6                     2.51911  -2.44131  -0.24627 
 1                     3.44862  -2.84717   0.17159 
 1                     2.57884  -2.5221   -1.33738 
 1                     1.70286  -3.0937    0.08876 
 6                     3.58089   0.46745  -1.91527 
 1                     3.84457  -0.53346  -2.27886 
 1                     4.32566   1.16812  -2.32046 
 1                     2.6062    0.73364  -2.33853 
 6                     4.95868   0.15052   0.16819 
 1                     5.25279  -0.86394  -0.12949 
 1                     5.00609   0.20505   1.26305 
 1                     5.72271   0.83724  -0.2241 
 6                     3.23054   1.97975   0.05851 
 1                     3.9692    2.6823   -0.35467 
 1                     3.24899   2.09499   1.14963 
 1                     2.23971   2.28393  -0.2957 
 1                    -5.4282   -1.10214  -1.0228 
 1                    -5.48021  -0.05162   0.48744 
 
                          Input orientation:                          
 ---------------------------------------------------------------------
 Center     Atomic      Atomic             Coordinates (Angstroms)
 Number     Number       Type             X           Y           Z
 ---------------------------------------------------------------------
      1          1           0       -0.496500   -1.392653    0.610056
      2          6           0       -0.513425   -0.529457   -0.071460
      3          6           0       -2.635557   -1.442973   -1.111235
      4          6           0       -2.748513    0.064122    0.958403
      5          6           0       -3.438103   -0.444270   -0.298631
      6          6           0       -1.321190    0.574928    0.636432
      7          6           0       -1.203900   -0.943723   -1.376128
      8          1           0       -3.156927   -1.637435   -2.054676
      9          1           0       -3.352601    0.882545    1.373659
     10          1           0       -0.818281    0.831965    1.589062
     11          1           0       -0.611499   -1.727645   -1.861385
     12          1           0       -2.603574   -2.387548   -0.552026
     13          1           0       -1.220521   -0.077535   -2.044979
     14          8           0       -4.115600    0.590472   -1.038139
     15          6           0       -4.904107   -0.405032   -0.368444
     16          8           0       -2.697371   -1.030518    1.879987
     17          1           0       -2.239791   -0.721944    2.678343
     18          8           0       -1.325386    1.702023   -0.215067
     19          6           0       -1.845054    2.895170    0.338968
     20          1           0       -2.941533    2.885594    0.394526
     21          1           0       -1.538501    3.706686   -0.326531
     22          1           0       -1.433313    3.087112    1.343012
     23          8           0        0.801248   -0.069114   -0.340706
     24         14           0        2.232993   -0.653832    0.307064
     25          6           0        2.155004   -0.621329    2.200320
     26          1           0        3.067520   -1.037343    2.644257
     27          1           0        1.315686   -1.223057    2.571445
     28          1           0        2.030472    0.397004    2.585968
     29          6           0        3.565045    0.535136   -0.372825
     30          6           0        2.519107   -2.441314   -0.246273
     31          1           0        3.448620   -2.847166    0.171589
     32          1           0        2.578839   -2.522096   -1.337383
     33          1           0        1.702855   -3.093704    0.088759
     34          6           0        3.580890    0.467450   -1.915267
     35          1           0        3.844570   -0.533464   -2.278860
     36          1           0        4.325665    1.168118   -2.320461
     37          1           0        2.606201    0.733635   -2.338525
     38          6           0        4.958677    0.150519    0.168185
     39          1           0        5.252788   -0.863936   -0.129489
     40          1           0        5.006091    0.205049    1.263052
     41          1           0        5.722707    0.837240   -0.224104
     42          6           0        3.230544    1.979747    0.058506
     43          1           0        3.969202    2.682298   -0.354672
     44          1           0        3.248990    2.094993    1.149632
     45          1           0        2.239713    2.283926   -0.295699
     46          1           0       -5.428197   -1.102140   -1.022800
     47          1           0       -5.480213   -0.051617    0.487435
 ---------------------------------------------------------------------
                    Distance matrix (angstroms):
                    1          2          3          4          5
     1  H    0.000000
     2  C    1.099935   0.000000
     3  C    2.746077   2.533592   0.000000
     4  C    2.704644   2.531516   2.562713   0.000000
     5  C    3.221517   2.934724   1.517173   1.521227   0.000000
     6  C    2.133585   1.540539   2.975538   1.549787   2.528721
     7  C    2.155662   1.533144   1.539175   2.975167   2.530240
     8  H    3.773405   3.485522   1.095319   3.484357   2.141587
     9  H    3.730540   3.484686   3.478058   1.098716   2.136423
    10  H    2.451718   2.168811   3.971075   2.170970   3.472122
    11  H    2.496691   2.156178   2.177286   3.965913   3.475477
    12  H    2.603846   2.837634   1.098162   2.883243   2.130018
    13  H    3.050074   2.144527   2.176838   3.372704   2.846383
    14  O    4.443784   3.894146   2.516102   2.476318   1.441029
    15  C    4.621673   4.402473   2.602956   2.574338   1.468190
    16  O    2.566651   2.971334   3.020157   1.431841   2.374605
    17  H    2.786884   3.252508   3.877811   1.958288   3.221091
    18  O    3.308308   2.378951   3.522877   2.466788   3.012828
    19  C    4.503056   3.697263   4.641925   3.035584   3.754490
    20  H    4.932346   4.216091   4.593194   2.883733   3.437302
    21  H    5.288310   4.365862   5.323371   4.047648   4.565052
    22  H    4.634991   3.990801   5.290594   3.319058   4.380049
    23  O    2.083232   1.418723   3.780586   3.782359   4.256126
    24  Si   2.843904   2.775169   5.131968   5.074949   5.707198
    25  C    3.186590   3.505701   5.881409   5.104574   6.128536
    26  H    4.119036   4.522857   6.840566   6.154800   7.164877
    27  H    2.675785   3.288111   5.405813   4.558119   5.607348
    28  H    3.673239   3.793635   6.231104   5.059494   6.239709
    29  C    4.602018   4.225884   6.550239   6.469547   7.071692
    30  C    3.305582   3.589151   5.321222   5.956196   6.283254
    31  H    4.227509   4.596591   6.374528   6.891961   7.309033
    32  H    3.811282   3.890407   5.329688   6.351365   6.449803
    33  H    2.828867   3.393071   4.794446   5.526556   5.796466
    34  C    5.144157   4.599659   6.552892   6.962901   7.260235
    35  H    5.284783   4.885156   6.646999   7.369242   7.547621
    36  H    6.196673   5.599693   7.532505   7.874881   8.183134
    37  H    4.779329   4.057961   5.806883   6.323839   6.487082
    38  C    5.686439   5.519393   7.864383   7.748076   8.430754
    39  H    5.820720   5.776197   7.970263   8.128076   8.702661
    40  H    5.766937   5.725860   8.169945   7.761865   8.611903
    41  H    6.659338   6.385961   8.709015   8.588225   9.250311
    42  C    5.056495   4.508913   6.891622   6.342599   7.104524
    43  H    6.121962   5.521732   7.823879   7.328486   8.040319
    44  H    5.146213   4.747059   7.228874   6.334907   7.298119
    45  H    4.671669   3.942737   6.190568   5.602026   6.299258
    46  H    5.203100   5.038650   2.814752   3.530728   2.217586
    47  H    5.162442   5.020924   3.547349   2.774417   2.223126
                    6          7          8          9         10
     6  C    0.000000
     7  C    2.523976   0.000000
     8  H    3.937835   2.180821   0.000000
     9  H    2.182834   3.938718   4.259351   0.000000
    10  H    1.107470   3.477660   4.984378   2.543960   0.000000
    11  H    3.470532   1.095877   2.554350   4.979181   4.301156
    12  H    3.439943   2.173215   1.768283   3.868179   4.258731
    13  H    2.761486   1.094495   2.486574   4.141812   3.767657
    14  O    3.257784   3.308472   2.629823   2.546418   4.222892
    15  C    3.848037   3.872615   2.723019   2.664573   4.696378
    16  O    2.453112   3.583333   4.007632   2.084587   2.661665
    17  H    2.587490   4.190584   4.907212   2.348389   2.371046
    18  O    1.412590   2.891849   4.229738   2.702812   2.066165
    19  C    2.397174   4.253203   5.291035   2.719181   2.621796
    20  H    2.832527   4.562702   5.148085   2.267131   3.186300
    21  H    3.283661   4.779112   5.845119   3.762629   3.528772
    22  H    2.612067   4.867647   6.069306   2.923136   2.350424
    23  O    2.423702   2.420260   4.589605   4.593383   2.675598
    24  Si   3.774990   3.837891   5.966283   5.890411   3.627862
    25  C    3.995085   4.917027   6.881430   5.768771   3.365431
    26  H    5.088374   5.866625   7.822009   6.820436   4.439279
    27  H    3.732310   4.691447   6.448021   5.259387   3.121219
    28  H    3.881493   5.287430   7.251457   5.539216   3.049329
    29  C    4.989537   5.092787   7.261790   7.143159   4.811513
    30  C    4.962335   4.168949   6.011148   6.938961   5.022048
    31  H    5.888794   5.259702   7.074811   7.849352   5.809620
    32  H    5.357026   4.099009   5.847747   7.356855   5.599485
    33  H    4.785776   3.900966   5.507496   6.558899   4.900807
    34  C    5.527487   5.017599   7.060322   7.685222   5.636124
    35  H    6.034280   5.144928   7.091542   8.194220   6.210265
    36  H    6.401723   5.993974   7.995683   8.525482   6.469741
    37  H    4.929499   4.272775   6.238284   7.022094   5.211783
    38  C    6.311585   6.446675   8.602379   8.430087   5.988030
    39  H    6.773046   6.576420   8.661868   8.908556   6.533558
    40  H    6.368983   6.844628   9.002051   8.386833   5.867079
    41  H    7.101114   7.244092   9.398027   9.214994   6.787645
    42  C    4.798520   5.501740   7.638673   6.802299   4.478056
    43  H    5.780272   6.399405   8.504812   7.735311   5.488336
    44  H    4.843606   5.953275   8.076780   6.715744   4.281475
    45  H    4.058272   4.841850   6.898898   6.002050   3.874512
    46  H    4.736361   4.242007   2.551466   3.740333   5.640382
    47  H    4.208590   4.749271   3.791412   2.486923   4.871130
                   11         12         13         14         15
    11  H    0.000000
    12  H    2.473511   0.000000
    13  H    1.768468   3.078621   0.000000
    14  O    4.281369   3.375075   3.137107   0.000000
    15  C    4.733356   3.042454   4.060398   1.435710   0.000000
    16  O    4.339898   2.786578   4.300537   3.626905   3.211909
    17  H    4.926652   3.652651   4.874828   4.365012   4.059794
    18  O    3.870739   4.297894   2.554682   3.114207   4.155773
    19  C    5.266273   5.410761   3.861375   3.516168   4.555170
    20  H    5.639164   5.368073   4.206329   2.949330   3.906666
    21  H    5.722505   6.190712   4.168273   4.105924   5.313688
    22  H    5.841697   5.910379   4.640986   4.370098   5.212539
    23  O    2.656886   4.124634   2.644271   5.009677   5.715303
    24  Si   3.734485   5.209241   4.217936   6.607760   7.173312
    25  C    5.037353   5.773994   5.450912   7.160765   7.515077
    26  H    5.857688   6.648352   6.426310   8.234503   8.545351
    27  H    4.859901   5.145164   5.390356   6.768815   6.928054
    28  H    5.592235   6.251009   5.678011   7.137631   7.580251
    29  C    4.977902   6.828327   5.106183   7.709605   8.521178
    30  C    3.594246   5.132079   4.775732   7.337446   7.698407
    31  H    4.676631   6.112603   5.863865   8.396322   8.719157
    32  H    3.329262   5.243309   4.572932   7.388717   7.836790
    33  H    3.320454   4.410736   4.711289   6.978357   7.147723
    34  C    4.732597   6.946728   4.833982   7.747286   8.668856
    35  H    4.632160   6.928069   5.090945   8.134306   8.955754
    36  H    5.742106   7.986518   5.691021   8.557627   9.564197
    37  H    4.079112   6.330491   3.922750   6.847927   7.847452
    38  C    6.218803   8.009253   6.567541   9.164676   9.892983
    39  H    6.175380   8.013885   6.796415   9.524056  10.170064
    40  H    6.712282   8.241545   7.056459   9.415375  10.062107
    41  H    7.027196   8.934973   7.236077   9.875010  10.700152
    42  C    5.673802   7.313204   5.335638   7.556358   8.487756
    43  H    6.534570   8.303233   6.116130   8.378955   9.395074
    44  H    6.211454   7.565799   5.907787   7.828609   8.661851
    45  H    5.164638   6.733929   4.539791   6.618837   7.633476
    46  H    4.929002   3.138853   4.449629   2.141981   1.090326
    47  H    5.659541   3.848650   4.955680   2.145186   1.090564
                   16         17         18         19         20
    16  O    0.000000
    17  H    0.970551   0.000000
    18  O    3.706531   3.883758   0.000000
    19  C    4.302582   4.325738   1.414429   0.000000
    20  H    4.195491   4.326961   2.093890   1.097927   0.000000
    21  H    5.352831   5.397577   2.019038   1.093354   1.778374
    22  H    4.340629   4.116117   2.087518   1.102033   1.793032
    23  O    4.253952   4.334601   2.770430   4.031358   4.824860
    24  Si   5.188879   5.062944   4.299388   5.406191   6.269841
    25  C    4.880122   4.421861   4.831684   5.641884   6.444695
    26  H    5.815335   5.316784   5.914176   6.701671   7.520601
    27  H    4.076740   3.592208   4.826593   5.651020   6.304277
    28  H    4.988860   4.415396   4.561870   5.129283   5.976314
    29  C    6.836979   6.677275   5.030192   5.945215   6.960534
    30  C    5.807148   5.844375   5.652286   6.918560   7.655401
    31  H    6.632649   6.569506   6.605737   7.811877   8.587683
    32  H    6.357253   6.525779   5.860524   7.192201   7.919415
    33  H    5.179500   5.279739   5.679925   6.965406   7.577324
    34  C    7.487618   7.509743   5.337265   6.357379   7.329704
    35  H    7.767887   7.850403   5.998757   7.140054   8.055318
    36  H    8.473535   8.465553   6.054099   6.937798   7.945631
    37  H    7.002568   7.125399   4.572114   5.626266   6.548118
    38  C    7.933485   7.673332   6.484096   7.338462   8.363324
    39  H    8.201876   8.002676   7.061433   8.045476   9.026653
    40  H    7.826274   7.440778   6.671834   7.418145   8.432342
    41  H    8.877693   8.617229   7.100954   7.862769   8.924545
    42  C    6.893451   6.639823   4.572578   5.165109   6.247240
    43  H    7.951220   7.703223   5.386380   5.859354   6.954199
    44  H    6.757325   6.356006   4.789754   5.219841   6.286319
    45  H    6.331978   6.160044   3.613176   4.178725   5.261533
    46  H    3.986065   4.899892   5.034761   5.538214   4.908598
    47  H    3.262155   3.968596   4.564137   4.681878   3.883392
                   21         22         23         24         25
    21  H    0.000000
    22  H    1.783903   0.000000
    23  O    4.441992   4.217811   0.000000
    24  Si   5.799976   5.339443   1.676721   0.000000
    25  C    6.225646   5.231016   2.931622   1.895140   0.000000
    26  H    7.248919   6.241944   3.870847   2.511172   1.096738
    27  H    6.391167   5.257718   3.174406   2.508563   1.097390
    28  H    5.672232   4.558446   3.208376   2.517672   1.096009
    29  C    6.008915   5.868583   2.829262   1.910564   3.153839
    30  C    7.366718   6.979323   2.930408   1.892917   3.070950
    31  H    8.250605   7.773105   3.871511   2.511338   3.277734
    32  H    7.534722   7.398993   3.189093   2.512812   4.038303
    33  H    7.544810   7.043521   3.185197   2.506328   3.282646
    34  C    6.262978   6.528495   3.239375   2.830699   4.489615
    35  H    7.125161   7.354086   3.637839   3.049372   4.788048
    36  H    6.693917   7.090092   4.227492   3.821343   5.324599
    37  H    5.483220   5.950651   2.809545   3.010563   4.758216
    38  C    7.423233   7.131713   4.194213   2.845281   3.547662
    39  H    8.188469   7.904618   4.526871   3.058412   3.883701
    40  H    7.590779   7.055395   4.508648   3.056413   3.112888
    41  H    7.808287   7.663315   5.005580   3.831911   4.553434
    42  C    5.086685   4.962638   3.202918   2.827124   3.536912
    43  H    5.602228   5.677427   4.195998   3.818649   4.553378
    44  H    5.262764   4.790163   3.591087   3.049297   3.111134
    45  H    4.037338   4.101415   2.758261   2.998965   3.831161
    46  H    6.224093   6.253479   6.351250   7.788668   8.253764
    47  H    5.506766   5.192401   6.335841   7.738782   7.845705
                   26         27         28         29         30
    26  H    0.000000
    27  H    1.763154   0.000000
    28  H    1.770937   1.770799   0.000000
    29  C    3.438460   4.101169   3.335933   0.000000
    30  C    3.259916   3.297257   4.039357   3.157413   0.000000
    31  H    3.087844   3.598117   4.285441   3.427814   1.096959
    32  H    4.277471   4.308363   4.920827   3.354049   1.095726
    33  H    3.552675   3.132563   4.304466   4.104789   1.097327
    34  C    4.828790   5.302787   4.761289   1.544008   3.517646
    35  H    5.009469   5.513280   5.274777   2.202955   3.086771
    36  H    5.576326   6.221610   5.471341   2.184604   4.538051
    37  H    5.308229   5.440761   4.969448   2.196078   3.803341
    38  C    3.334430   4.575342   3.805366   1.543643   3.583417
    39  H    3.535411   4.787983   4.398522   2.205695   3.158286
    40  H    2.685018   4.167789   3.262095   2.204918   3.932733
    41  H    4.334925   5.610860   4.660784   2.183779   4.583935
    42  C    3.976873   4.498833   3.214547   1.544292   4.488297
    43  H    4.862338   5.554737   4.198643   2.184943   5.325967
    44  H    3.475394   4.094957   2.535944   2.202480   4.802016
    45  H    4.512143   4.623123   3.450835   2.195614   4.733751
    46  H    9.253578   7.642851   8.420355   9.164144   8.096667
    47  H    8.870585   7.204139   7.811241   9.105000   8.380817
                   31         32         33         34         35
    31  H    0.000000
    32  H    1.771775   0.000000
    33  H    1.765032   1.768605   0.000000
    34  C    3.919074   3.205533   4.497216   0.000000
    35  H    3.393331   2.538328   4.092358   1.097067   0.000000
    36  H    4.806457   4.199467   5.553972   1.099913   1.768775
    37  H    4.453367   3.406291   4.621284   1.095454   1.772754
    38  C    3.356546   3.882426   4.596919   2.517839   2.774364
    39  H    2.697938   3.370238   4.197800   2.785109   2.590769
    40  H    3.596251   4.482313   4.813741   3.493102   3.799957
    41  H    4.347746   4.733755   5.631111   2.753935   3.102942
    42  C    4.833160   4.758132   5.298552   2.511088   3.486623
    43  H    5.578793   5.475815   6.220543   2.737114   3.749554
    44  H    5.041960   5.286952   5.517115   3.486067   4.360970
    45  H    5.292251   4.929296   5.418019   2.778730   3.800813
    46  H    9.125216   8.138050   7.486908   9.188240   9.374715
    47  H    9.361566   8.624474   7.810871   9.388610   9.738385
                   36         37         38         39         40
    36  H    0.000000
    37  H    1.773600   0.000000
    38  C    2.762168   3.486798   0.000000
    39  H    3.128763   3.799539   1.097374   0.000000
    40  H    3.772539   4.360072   1.097249   1.772783   0.000000
    41  H    2.540850   3.767508   1.099645   1.767421   1.767721
    42  C    2.741809   2.772789   2.518839   3.494474   2.784430
    43  H    2.506817   3.096891   2.768094   3.778105   3.135113
    44  H    3.749650   3.799173   2.768979   3.795605   2.583052
    45  H    3.113822   2.590532   3.487030   4.360652   3.795297
    46  H   10.098308   8.345823  10.529708  10.720923  10.761423
    47  H   10.272647   8.601905  10.445727  10.781362  10.518081
                   41         42         43         44         45
    41  H    0.000000
    42  C    2.756096   0.000000
    43  H    2.548738   1.099959   0.000000
    44  H    3.096509   1.097350   1.768209   0.000000
    45  H    3.772171   1.095323   1.775756   1.772940   0.000000
    46  H   11.346443   9.254245  10.152806   9.499194   8.413737
    47  H   11.260629   8.954759   9.872937   9.013624   8.103414
                   46         47
    46  H    0.000000
    47  H    1.840411   0.000000
 Stoichiometry    C14H28O4Si
 Framework group  C1[X(C14H28O4Si)]
 Deg. of freedom   135
 Full point group                 C1      NOp   1
 Largest Abelian subgroup         C1      NOp   1
 Largest concise Abelian subgroup C1      NOp   1
                         Standard orientation:                         
 ---------------------------------------------------------------------
 Center     Atomic      Atomic             Coordinates (Angstroms)
 Number     Number       Type             X           Y           Z
 ---------------------------------------------------------------------
      1          1           0       -0.496500   -1.392653    0.610056
      2          6           0       -0.513425   -0.529457   -0.071460
      3          6           0       -2.635557   -1.442973   -1.111235
      4          6           0       -2.748513    0.064122    0.958403
      5          6           0       -3.438103   -0.444270   -0.298631
      6          6           0       -1.321190    0.574928    0.636432
      7          6           0       -1.203900   -0.943723   -1.376128
      8          1           0       -3.156927   -1.637435   -2.054676
      9          1           0       -3.352601    0.882545    1.373659
     10          1           0       -0.818281    0.831965    1.589062
     11          1           0       -0.611499   -1.727645   -1.861385
     12          1           0       -2.603574   -2.387548   -0.552026
     13          1           0       -1.220521   -0.077535   -2.044979
     14          8           0       -4.115600    0.590472   -1.038139
     15          6           0       -4.904107   -0.405032   -0.368444
     16          8           0       -2.697371   -1.030518    1.879987
     17          1           0       -2.239791   -0.721944    2.678343
     18          8           0       -1.325386    1.702023   -0.215067
     19          6           0       -1.845054    2.895170    0.338968
     20          1           0       -2.941533    2.885594    0.394526
     21          1           0       -1.538501    3.706686   -0.326531
     22          1           0       -1.433313    3.087112    1.343012
     23          8           0        0.801248   -0.069114   -0.340706
     24         14           0        2.232993   -0.653832    0.307064
     25          6           0        2.155004   -0.621329    2.200320
     26          1           0        3.067520   -1.037343    2.644257
     27          1           0        1.315686   -1.223057    2.571445
     28          1           0        2.030472    0.397004    2.585968
     29          6           0        3.565045    0.535136   -0.372825
     30          6           0        2.519107   -2.441314   -0.246273
     31          1           0        3.448620   -2.847166    0.171589
     32          1           0        2.578839   -2.522096   -1.337383
     33          1           0        1.702855   -3.093704    0.088759
     34          6           0        3.580890    0.467450   -1.915267
     35          1           0        3.844570   -0.533464   -2.278860
     36          1           0        4.325665    1.168118   -2.320461
     37          1           0        2.606201    0.733635   -2.338525
     38          6           0        4.958677    0.150519    0.168185
     39          1           0        5.252788   -0.863936   -0.129489
     40          1           0        5.006091    0.205049    1.263052
     41          1           0        5.722707    0.837240   -0.224104
     42          6           0        3.230544    1.979747    0.058506
     43          1           0        3.969202    2.682298   -0.354672
     44          1           0        3.248990    2.094993    1.149632
     45          1           0        2.239713    2.283926   -0.295699
     46          1           0       -5.428197   -1.102140   -1.022800
     47          1           0       -5.480213   -0.051617    0.487435
 ---------------------------------------------------------------------
 Rotational constants (GHZ):      0.6603247      0.1855227      0.1761656
 Standard basis: 6-31+G(d,p) (6D, 7F)
 There are   505 symmetry adapted basis functions of A   symmetry.
 Integral buffers will be    131072 words long.
 Raffenetti 2 integral format.
 Two-electron integral symmetry is turned on.
   505 basis functions,   828 primitive gaussians,   505 cartesian basis functions
    79 alpha electrons       79 beta electrons
       nuclear repulsion energy      1804.9311861063 Hartrees.
 NAtoms=   47 NActive=   47 NUniq=   47 SFac= 1.00D+00 NAtFMM=   60 NAOKFM=F Big=F
 ------------------------------------------------------------------------------
 Polarizable Continuum Model (PCM)
 =================================
 Model                : PCM.
 Atomic radii         : UFF (Universal Force Field).
 Polarization charges : Total charges.
 Charge compensation  : None.
 Solution method      : Matrix inversion.
 Cavity type          : Scaled VdW (van der Waals Surface) (Alpha=1.100).
 Cavity algorithm     : GePol (No added spheres)
                        Default sphere list used, NSphG=   47.
                        Lebedev-Laikov grids with approx.  5.0 points / Ang**2.
                        Smoothing algorithm: Karplus/York (Gamma=1.0000).
                        Polarization charges: spherical gaussians, with
                                              point-specific exponents (IZeta= 3).
                        Self-potential: point-specific (ISelfS= 7).
                        Self-field    : sphere-specific E.n sum rule (ISelfD= 2).
 Solvent              : Chloroform, Eps=   4.711300 Eps(inf)=   2.090627
 ------------------------------------------------------------------------------
 One-electron integrals computed using PRISM.
 NBasis=   505 RedAO= T  NBF=   505
 NBsUse=   505 1.00D-06 NBFU=   505
 Harris functional with IExCor=  908 diagonalized for initial guess.
 ExpMin= 3.31D-02 ExpMax= 1.61D+04 ExpMxC= 2.43D+03 IAcc=3 IRadAn=         5 AccDes= 0.00D+00
 HarFok:  IExCor=  908 AccDes= 0.00D+00 IRadAn=         5 IDoV= 1
 ScaDFX=  1.000000  1.000000  1.000000  1.000000
 FoFCou: FMM=F IPFlag=           0 FMFlag=      100000 FMFlg1=           0
         NFxFlg=           0 DoJE=T BraDBF=F KetDBF=T FulRan=T
         Omega=  0.000000  0.000000  1.000000  0.000000  0.000000 ICntrl=     500 IOpCl=  0
         NMat0=    1 NMatS0=    1 NMatT0=    0 NMatD0=    1 NMtDS0=    0 NMtDT0=    0
         I1Cent=           4 NGrid=           0.
 Petite list used in FoFCou.
 Initial guess orbital symmetries:
       Occupied  (A) (A) (A) (A) (A) (A) (A) (A) (A) (A) (A) (A)
                 (A) (A) (A) (A) (A) (A) (A) (A) (A) (A) (A) (A)
                 (A) (A) (A) (A) (A) (A) (A) (A) (A) (A) (A) (A)
                 (A) (A) (A) (A) (A) (A) (A) (A) (A) (A) (A) (A)
                 (A) (A) (A) (A) (A) (A) (A) (A) (A) (A) (A) (A)
                 (A) (A) (A) (A) (A) (A) (A) (A) (A) (A) (A) (A)
                 (A) (A) (A) (A) (A) (A) (A)
       Virtual   (A) (A) (A) (A) (A) (A) (A) (A) (A) (A) (A) (A)
                 (A) (A) (A) (A) (A) (A) (A) (A) (A) (A) (A) (A)
                 (A) (A) (A) (A) (A) (A) (A) (A) (A) (A) (A) (A)
                 (A) (A) (A) (A) (A) (A) (A) (A) (A) (A) (A) (A)
                 (A) (A) (A) (A) (A) (A) (A) (A) (A) (A) (A) (A)
                 (A) (A) (A) (A) (A) (A) (A) (A) (A) (A) (A) (A)
                 (A) (A) (A) (A) (A) (A) (A) (A) (A) (A) (A) (A)
                 (A) (A) (A) (A) (A) (A) (A) (A) (A) (A) (A) (A)
                 (A) (A) (A) (A) (A) (A) (A) (A) (A) (A) (A) (A)
                 (A) (A) (A) (A) (A) (A) (A) (A) (A) (A) (A) (A)
                 (A) (A) (A) (A) (A) (A) (A) (A) (A) (A) (A) (A)
                 (A) (A) (A) (A) (A) (A) (A) (A) (A) (A) (A) (A)
                 (A) (A) (A) (A) (A) (A) (A) (A) (A) (A) (A) (A)
                 (A) (A) (A) (A) (A) (A) (A) (A) (A) (A) (A) (A)
                 (A) (A) (A) (A) (A) (A) (A) (A) (A) (A) (A) (A)
                 (A) (A) (A) (A) (A) (A) (A) (A) (A) (A) (A) (A)
                 (A) (A) (A) (A) (A) (A) (A) (A) (A) (A) (A) (A)
                 (A) (A) (A) (A) (A) (A) (A) (A) (A) (A) (A) (A)
                 (A) (A) (A) (A) (A) (A) (A) (A) (A) (A) (A) (A)
                 (A) (A) (A) (A) (A) (A) (A) (A) (A) (A) (A) (A)
                 (A) (A) (A) (A) (A) (A) (A) (A) (A) (A) (A) (A)
                 (A) (A) (A) (A) (A) (A) (A) (A) (A) (A) (A) (A)
                 (A) (A) (A) (A) (A) (A) (A) (A) (A) (A) (A) (A)
                 (A) (A) (A) (A) (A) (A) (A) (A) (A) (A) (A) (A)
                 (A) (A) (A) (A) (A) (A) (A) (A) (A) (A) (A) (A)
                 (A) (A) (A) (A) (A) (A) (A) (A) (A) (A) (A) (A)
                 (A) (A) (A) (A) (A) (A) (A) (A) (A) (A) (A) (A)
                 (A) (A) (A) (A) (A) (A) (A) (A) (A) (A) (A) (A)
                 (A) (A) (A) (A) (A) (A) (A) (A) (A) (A) (A) (A)
                 (A) (A) (A) (A) (A) (A) (A) (A) (A) (A) (A) (A)
                 (A) (A) (A) (A) (A) (A) (A) (A) (A) (A) (A) (A)
                 (A) (A) (A) (A) (A) (A) (A) (A) (A) (A) (A) (A)
                 (A) (A) (A) (A) (A) (A) (A) (A) (A) (A) (A) (A)
                 (A) (A) (A) (A) (A) (A) (A) (A) (A) (A) (A) (A)
                 (A) (A) (A) (A) (A) (A) (A) (A) (A) (A) (A) (A)
                 (A) (A) (A) (A) (A) (A)
 The electronic state of the initial guess is 1-A.
 Requested convergence on RMS density matrix=1.00D-08 within 128 cycles.
 Requested convergence on MAX density matrix=1.00D-06.
 Requested convergence on             energy=1.00D-06.
 No special actions if energy rises.
 Error on total polarization charges =  0.01541
 SCF Done:  E(RmPW1PW91) =  -1140.61979329     A.U. after   13 cycles
             Convg  =    0.4686D-08             -V/T =  2.0080
 Range of M.O.s used for correlation:     1   505
 NBasis=   505 NAE=    79 NBE=    79 NFC=     0 NFV=     0
 NROrb=    505 NOA=    79 NOB=    79 NVA=   426 NVB=   426

 **** Warning!!: The largest alpha MO coefficient is  0.89186629D+02

 NEqPCM:  Using equilibrium solvation (IEInf=0, Eps=   4.7113, EpsInf=   2.0906)
          Differentiating once with respect to magnetic field using GIAOs.
          Electric field/nuclear overlap derivatives assumed to be zero.
 FoFCou: FMM=F IPFlag=           0 FMFlag=    10101102 FMFlg1=           0
         NFxFlg=    40000000 DoJE=F BraDBF=F KetDBF=T FulRan=T
         Omega=  0.000000  0.000000  1.000000  0.000000  0.000000 ICntrl=    6100 IOpCl=  0
         NMat0=    1 NMatS0=    1 NMatT0=    0 NMatD0=    1 NMtDS0=    0 NMtDT0=    0
         I1Cent=           7 NGrid=        3096.
 Symmetry not used in FoFCou.
          There are     3 degrees of freedom in the 1st order CPHF.  IDoFFX=0.
      3 vectors produced by pass  0 Test12= 1.12D-12 3.33D-08 XBig12= 1.86D+02 2.03D+00.
 AX will form     3 AO Fock derivatives at one time.
      3 vectors produced by pass  1 Test12= 1.12D-12 3.33D-08 XBig12= 4.83D-01 9.80D-02.
      3 vectors produced by pass  2 Test12= 1.12D-12 3.33D-08 XBig12= 1.28D-03 6.67D-03.
      3 vectors produced by pass  3 Test12= 1.12D-12 3.33D-08 XBig12= 6.97D-06 3.34D-04.
      3 vectors produced by pass  4 Test12= 1.12D-12 3.33D-08 XBig12= 2.48D-08 1.61D-05.
      3 vectors produced by pass  5 Test12= 1.12D-12 3.33D-08 XBig12= 7.39D-11 1.19D-06.
      2 vectors produced by pass  6 Test12= 1.12D-12 3.33D-08 XBig12= 2.77D-13 6.46D-08.
 Inverted reduced A of dimension    20 with in-core refinement.
 Calculating GIAO nuclear magnetic shielding tensors.
 SCF GIAO Magnetic shielding tensor (ppm):
      1  H    Isotropic =    27.2874   Anisotropy =     8.1759
   XX=    32.6634   YX=     1.2801   ZX=    -1.1675
   XY=    -0.8721   YY=    24.9376   ZY=    -2.3021
   XZ=    -0.1609   YZ=    -2.6755   ZZ=    24.2612
   Eigenvalues:    22.0750    27.0493    32.7380
      2  C    Isotropic =   126.5691   Anisotropy =    52.9532
   XX=   153.3152   YX=    12.4020   ZX=    -7.0188
   XY=    27.6237   YY=   113.3974   ZY=     4.9406
   XZ=    -5.1248   YZ=     6.2486   ZZ=   112.9946
   Eigenvalues:   100.5180   117.3180   161.8712
      3  C    Isotropic =   166.8030   Anisotropy =    22.3237
   XX=   174.1176   YX=    -8.8272   ZX=     0.0262
   XY=    -5.3541   YY=   160.8876   ZY=    11.0361
   XZ=    -4.6096   YZ=    14.3769   ZZ=   165.4037
   Eigenvalues:   149.5589   169.1646   181.6854
      4  C    Isotropic =   121.5569   Anisotropy =    40.5327
   XX=   110.8600   YX=    -6.2380   ZX=    12.5505
   XY=    -1.1550   YY=   121.2675   ZY=   -14.8582
   XZ=     9.0588   YZ=   -20.3729   ZZ=   132.5432
   Eigenvalues:   104.7780   111.3140   148.5787
      5  C    Isotropic =   138.1236   Anisotropy =    57.6250
   XX=    88.4885   YX=    -0.7507   ZX=    -3.3838
   XY=    -1.1869   YY=   155.6351   ZY=    12.3571
   XZ=    -3.9789   YZ=    10.2135   ZZ=   170.2473
   Eigenvalues:    88.3198   149.5107   176.5403
      6  C    Isotropic =   110.9959   Anisotropy =    42.5676
   XX=    98.9453   YX=     9.7239   ZX=    -3.1087
   XY=   -11.6540   YY=   122.2040   ZY=   -20.4903
   XZ=    10.7614   YZ=   -22.4990   ZZ=   111.8383
   Eigenvalues:    93.7461    99.8672   139.3743
      7  C    Isotropic =   166.9319   Anisotropy =    29.0368
   XX=   182.0823   YX=     6.2798   ZX=     0.0377
   XY=     9.2524   YY=   152.4439   ZY=     8.1654
   XZ=     9.2452   YZ=     8.8016   ZZ=   166.2696
   Eigenvalues:   147.6240   166.8820   186.2898
      8  H    Isotropic =    30.4740   Anisotropy =    10.7345
   XX=    31.5143   YX=     1.7456   ZX=     3.4392
   XY=     1.4990   YY=    27.3785   ZY=     5.4023
   XZ=     2.3062   YZ=     5.2145   ZZ=    32.5290
   Eigenvalues:    24.0503    29.7413    37.6303
      9  H    Isotropic =    27.9251   Anisotropy =     3.9243
   XX=    27.2156   YX=    -1.6514   ZX=    -2.3246
   XY=    -0.6760   YY=    29.5304   ZY=     1.3197
   XZ=    -0.2896   YZ=     0.4563   ZZ=    27.0292
   Eigenvalues:    25.8049    27.4290    30.5413
     10  H    Isotropic =    28.3448   Anisotropy =     3.4867
   XX=    29.4408   YX=    -0.9076   ZX=     1.0911
   XY=    -0.3653   YY=    26.6454   ZY=    -1.9906
   XZ=     1.3773   YZ=     0.6026   ZZ=    28.9480
   Eigenvalues:    26.4184    27.9466    30.6693
     11  H    Isotropic =    30.1260   Anisotropy =     8.2777
   XX=    32.8809   YX=    -2.3699   ZX=    -1.0314
   XY=    -1.8907   YY=    28.9566   ZY=     4.5100
   XZ=    -1.7650   YZ=     4.6969   ZZ=    28.5406
   Eigenvalues:    24.1142    30.6194    35.6445
     12  H    Isotropic =    29.1628   Anisotropy =     7.6581
   XX=    28.1150   YX=     1.1898   ZX=    -0.5250
   XY=     0.1461   YY=    34.1641   ZY=    -0.8703
   XZ=    -0.8898   YZ=    -0.0414   ZZ=    25.2094
   Eigenvalues:    25.0366    28.1836    34.2682
     13  H    Isotropic =    29.2114   Anisotropy =     4.0235
   XX=    28.8220   YX=     0.8291   ZX=     0.1577
   XY=     0.1502   YY=    27.8005   ZY=    -1.5612
   XZ=    -0.3580   YZ=    -2.1638   ZZ=    31.0117
   Eigenvalues:    26.8632    28.8772    31.8938
     14  O    Isotropic =   299.7780   Anisotropy =   134.6325
   XX=   351.7200   YX=   -66.8290   ZX=    44.4243
   XY=   -22.8666   YY=   233.4431   ZY=   112.0000
   XZ=    27.8162   YZ=   103.3614   ZZ=   314.1710
   Eigenvalues:   142.9993   366.8018   389.5330
     15  C    Isotropic =   145.9908   Anisotropy =    42.8712
   XX=   112.7056   YX=     0.8365   ZX=    -6.1501
   XY=    -2.8579   YY=   159.4676   ZY=    11.1060
   XZ=     0.2504   YZ=    11.6214   ZZ=   165.7992
   Eigenvalues:   112.5390   150.8619   174.5716
     16  O    Isotropic =   298.3751   Anisotropy =    92.2247
   XX=   289.8238   YX=     8.8187   ZX=    40.0620
   XY=    17.7828   YY=   266.9375   ZY=     9.3735
   XZ=    34.6632   YZ=     0.1989   ZZ=   338.3638
   Eigenvalues:   258.0983   277.1686   359.8582
     17  H    Isotropic =    30.8721   Anisotropy =    18.5883
   XX=    26.8118   YX=     3.4074   ZX=     5.8927
   XY=     2.5091   YY=    25.0676   ZY=     0.1688
   XZ=     6.6133   YZ=     0.8471   ZZ=    40.7370
   Eigenvalues:    22.0912    27.2608    43.2643
     18  O    Isotropic =   312.3047   Anisotropy =    49.6720
   XX=   291.2993   YX=    19.7162   ZX=     1.4734
   XY=     4.5137   YY=   304.8203   ZY=    -6.8268
   XZ=   -11.1398   YZ=   -16.2178   ZZ=   340.7946
   Eigenvalues:   284.1320   307.3629   345.4194
     19  C    Isotropic =   139.6622   Anisotropy =    81.9627
   XX=   118.9532   YX=   -24.0700   ZX=    -2.9643
   XY=   -23.2048   YY=   175.3115   ZY=    28.0724
   XZ=    -4.1890   YZ=    26.3801   ZZ=   124.7221
   Eigenvalues:   106.4281   118.2545   194.3040
     20  H    Isotropic =    27.8996   Anisotropy =     9.3378
   XX=    30.0138   YX=    -2.1603   ZX=    -0.2287
   XY=    -4.4195   YY=    30.9966   ZY=     1.8531
   XZ=    -1.0921   YZ=     1.8278   ZZ=    22.6883
   Eigenvalues:    22.2987    27.2753    34.1248
     21  H    Isotropic =    27.8125   Anisotropy =    10.6725
   XX=    24.7282   YX=    -1.5702   ZX=    -0.3015
   XY=    -0.1090   YY=    34.6515   ZY=    -2.7493
   XZ=    -0.6344   YZ=    -0.3240   ZZ=    24.0578
   Eigenvalues:    23.5415    24.9684    34.9275
     22  H    Isotropic =    28.6230   Anisotropy =     9.4975
   XX=    26.4991   YX=    -0.9379   ZX=    -0.2153
   XY=     0.4471   YY=    31.1424   ZY=     6.3915
   XZ=     1.0517   YZ=     3.7360   ZZ=    28.2275
   Eigenvalues:    24.3096    26.6047    34.9547
     23  O    Isotropic =   284.4524   Anisotropy =    48.8309
   XX=   282.2195   YX=     1.6110   ZX=    13.3009
   XY=     8.1263   YY=   274.3369   ZY=    15.3391
   XZ=    28.5202   YZ=    14.6199   ZZ=   296.8007
   Eigenvalues:   263.6570   272.6938   317.0063
     24  Si   Isotropic =   381.0548   Anisotropy =    35.9741
   XX=   404.4263   YX=    -1.6264   ZX=     8.3368
   XY=     6.3835   YY=   371.4385   ZY=    -1.1406
   XZ=     0.1926   YZ=    -4.1788   ZZ=   367.2995
   Eigenvalues:   365.3898   372.7370   405.0375
     25  C    Isotropic =   200.8232   Anisotropy =     9.0719
   XX=   201.7317   YX=    -5.1749   ZX=     0.7728
   XY=    -5.7282   YY=   198.4809   ZY=     2.5397
   XZ=     1.6629   YZ=     6.7608   ZZ=   202.2569
   Eigenvalues:   192.3607   203.2377   206.8711
     26  H    Isotropic =    31.7077   Anisotropy =    11.0458
   XX=    34.4629   YX=    -2.8043   ZX=     4.2215
   XY=    -2.8989   YY=    28.2821   ZY=    -2.8593
   XZ=     3.9918   YZ=    -2.5245   ZZ=    32.3782
   Eigenvalues:    26.8173    29.2343    39.0716
     27  H    Isotropic =    31.3853   Anisotropy =     8.6660
   XX=    33.7823   YX=     3.4768   ZX=    -2.0418
   XY=     3.0707   YY=    28.9369   ZY=    -2.5291
   XZ=    -2.1862   YZ=    -2.8129   ZZ=    31.4368
   Eigenvalues:    26.7193    30.2740    37.1626
     28  H    Isotropic =    31.5021   Anisotropy =     8.4536
   XX=    28.2644   YX=    -0.6444   ZX=    -0.6639
   XY=    -0.3250   YY=    34.3559   ZY=     3.2504
   XZ=    -0.7981   YZ=     4.2342   ZZ=    31.8860
   Eigenvalues:    28.1011    29.2674    37.1378
     29  C    Isotropic =   173.5334   Anisotropy =     7.9928
   XX=   176.0282   YX=    -3.6167   ZX=     3.0279
   XY=    -2.6111   YY=   172.3914   ZY=    -1.2858
   XZ=     1.6535   YZ=    -1.1789   ZZ=   172.1804
   Eigenvalues:   170.5889   171.1493   178.8619
     30  C    Isotropic =   200.7971   Anisotropy =     8.2764
   XX=   200.8150   YX=    -2.8018   ZX=     3.4540
   XY=    -4.6226   YY=   199.4170   ZY=     7.4559
   XZ=     3.5395   YZ=     3.0907   ZZ=   202.1593
   Eigenvalues:   192.3057   203.7709   206.3147
     31  H    Isotropic =    31.6918   Anisotropy =    10.9647
   XX=    34.9757   YX=    -4.4117   ZX=     2.6079
   XY=    -4.2395   YY=    32.4257   ZY=    -1.2684
   XZ=     2.8235   YZ=    -1.4542   ZZ=    27.6741
   Eigenvalues:    26.7735    29.3004    39.0016
     32  H    Isotropic =    31.4796   Anisotropy =     9.0550
   XX=    27.8332   YX=    -0.1467   ZX=    -1.1881
   XY=    -0.0507   YY=    30.2785   ZY=     3.2161
   XZ=    -1.4762   YZ=     2.1527   ZZ=    36.3272
   Eigenvalues:    27.5791    29.3434    37.5163
     33  H    Isotropic =    31.3840   Anisotropy =     8.7912
   XX=    33.0303   YX=     3.2143   ZX=    -1.9010
   XY=     3.3864   YY=    34.0430   ZY=    -1.0852
   XZ=    -1.6934   YZ=    -0.9176   ZZ=    27.0786
   Eigenvalues:    26.5770    30.3302    37.2448
     34  C    Isotropic =   170.4481   Anisotropy =    37.7641
   XX=   156.9120   YX=     1.6035   ZX=    -1.2988
   XY=     2.1326   YY=   159.2168   ZY=     1.0819
   XZ=     2.6494   YZ=     6.4464   ZZ=   195.2154
   Eigenvalues:   155.8270   159.8931   195.6241
     35  H    Isotropic =    30.5544   Anisotropy =     8.6447
   XX=    27.3897   YX=    -0.3305   ZX=    -2.5092
   XY=    -0.3827   YY=    31.9094   ZY=     2.9083
   XZ=    -2.7330   YZ=     4.3630   ZZ=    32.3640
   Eigenvalues:    25.9794    29.3662    36.3175
     36  H    Isotropic =    31.0110   Anisotropy =     9.7848
   XX=    30.5845   YX=     2.8517   ZX=    -3.3018
   XY=     2.7527   YY=    29.5112   ZY=    -2.4773
   XZ=    -4.0250   YZ=    -3.1419   ZZ=    32.9372
   Eigenvalues:    27.1807    28.3180    37.5342
     37  H    Isotropic =    30.1667   Anisotropy =     7.7761
   XX=    32.4785   YX=    -0.1047   ZX=     1.8163
   XY=    -0.2538   YY=    25.3623   ZY=    -1.7551
   XZ=     3.2426   YZ=    -2.2317   ZZ=    32.6594
   Eigenvalues:    24.8237    30.3257    35.3508
     38  C    Isotropic =   170.6228   Anisotropy =    39.3252
   XX=   187.7813   YX=   -12.1321   ZX=    14.5140
   XY=    -8.4438   YY=   160.5864   ZY=    -3.9888
   XZ=    11.4606   YZ=    -4.5426   ZZ=   163.5007
   Eigenvalues:   157.1241   157.9047   196.8396
     39  H    Isotropic =    30.7120   Anisotropy =     9.2682
   XX=    33.1408   YX=    -4.2690   ZX=    -0.4210
   XY=    -3.1845   YY=    33.1699   ZY=     0.7110
   XZ=     0.3445   YZ=     0.0839   ZZ=    25.8252
   Eigenvalues:    25.7989    29.4462    36.8907
     40  H    Isotropic =    30.7036   Anisotropy =     8.9994
   XX=    31.8111   YX=     0.5246   ZX=     4.0323
   XY=     0.0836   YY=    25.9207   ZY=    -1.3202
   XZ=     2.6267   YZ=    -0.6760   ZZ=    34.3790
   Eigenvalues:    25.7078    29.6997    36.7032
     41  H    Isotropic =    30.9077   Anisotropy =    10.0956
   XX=    36.5037   YX=     3.5432   ZX=    -1.1416
   XY=     2.4722   YY=    28.7631   ZY=    -1.0198
   XZ=    -0.3709   YZ=    -0.8749   ZZ=    27.4562
   Eigenvalues:    26.8679    28.2170    37.6381
     42  C    Isotropic =   170.4948   Anisotropy =    37.8888
   XX=   160.8068   YX=    -5.8219   ZX=    -4.5927
   XY=   -10.7398   YY=   189.7613   ZY=    12.2654
   XZ=    -5.2664   YZ=     8.8601   ZZ=   160.9163
   Eigenvalues:   155.7855   159.9450   195.7540
     43  H    Isotropic =    30.9864   Anisotropy =     9.6309
   XX=    30.0436   YX=     3.2303   ZX=    -1.3757
   XY=     3.9981   YY=    35.3436   ZY=    -1.3194
   XZ=    -1.2346   YZ=    -0.7337   ZZ=    27.5720
   Eigenvalues:    26.9589    28.5933    37.4070
     44  H    Isotropic =    30.5803   Anisotropy =     8.0411
   XX=    27.3292   YX=     0.9035   ZX=    -1.2150
   XY=     0.9101   YY=    30.9810   ZY=     4.1824
   XZ=    -0.9553   YZ=     2.8423   ZZ=    33.4306
   Eigenvalues:    26.4132    29.3866    35.9410
     45  H    Isotropic =    30.0974   Anisotropy =     8.7120
   XX=    34.1925   YX=    -1.8847   ZX=     0.9035
   XY=    -3.3253   YY=    31.6852   ZY=    -1.0251
   XZ=     0.4680   YZ=    -0.2931   ZZ=    24.4144
   Eigenvalues:    24.3324    30.0543    35.9054
     46  H    Isotropic =    29.0595   Anisotropy =    11.2551
   XX=    30.8591   YX=     3.1384   ZX=     0.1708
   XY=     6.3620   YY=    28.7767   ZY=     3.5540
   XZ=     3.9437   YZ=     4.2811   ZZ=    27.5427
   Eigenvalues:    23.6562    26.9594    36.5628
     47  H    Isotropic =    28.9580   Anisotropy =    10.7846
   XX=    31.5734   YX=     1.1922   ZX=    -2.9391
   XY=    -1.5439   YY=    24.8277   ZY=     2.3101
   XZ=    -6.7968   YZ=     2.0461   ZZ=    30.4729
   Eigenvalues:    23.6899    27.0364    36.1478
 End of Minotr Frequency-dependent properties file   721 does not exist.
 End of Minotr Frequency-dependent properties file   722 does not exist.

 **********************************************************************

            Population analysis using the SCF density.

 **********************************************************************

 Orbital symmetries:
       Occupied  (A) (A) (A) (A) (A) (A) (A) (A) (A) (A) (A) (A)
                 (A) (A) (A) (A) (A) (A) (A) (A) (A) (A) (A) (A)
                 (A) (A) (A) (A) (A) (A) (A) (A) (A) (A) (A) (A)
                 (A) (A) (A) (A) (A) (A) (A) (A) (A) (A) (A) (A)
                 (A) (A) (A) (A) (A) (A) (A) (A) (A) (A) (A) (A)
                 (A) (A) (A) (A) (A) (A) (A) (A) (A) (A) (A) (A)
                 (A) (A) (A) (A) (A) (A) (A)
       Virtual   (A) (A) (A) (A) (A) (A) (A) (A) (A) (A) (A) (A)
                 (A) (A) (A) (A) (A) (A) (A) (A) (A) (A) (A) (A)
                 (A) (A) (A) (A) (A) (A) (A) (A) (A) (A) (A) (A)
                 (A) (A) (A) (A) (A) (A) (A) (A) (A) (A) (A) (A)
                 (A) (A) (A) (A) (A) (A) (A) (A) (A) (A) (A) (A)
                 (A) (A) (A) (A) (A) (A) (A) (A) (A) (A) (A) (A)
                 (A) (A) (A) (A) (A) (A) (A) (A) (A) (A) (A) (A)
                 (A) (A) (A) (A) (A) (A) (A) (A) (A) (A) (A) (A)
                 (A) (A) (A) (A) (A) (A) (A) (A) (A) (A) (A) (A)
                 (A) (A) (A) (A) (A) (A) (A) (A) (A) (A) (A) (A)
                 (A) (A) (A) (A) (A) (A) (A) (A) (A) (A) (A) (A)
                 (A) (A) (A) (A) (A) (A) (A) (A) (A) (A) (A) (A)
                 (A) (A) (A) (A) (A) (A) (A) (A) (A) (A) (A) (A)
                 (A) (A) (A) (A) (A) (A) (A) (A) (A) (A) (A) (A)
                 (A) (A) (A) (A) (A) (A) (A) (A) (A) (A) (A) (A)
                 (A) (A) (A) (A) (A) (A) (A) (A) (A) (A) (A) (A)
                 (A) (A) (A) (A) (A) (A) (A) (A) (A) (A) (A) (A)
                 (A) (A) (A) (A) (A) (A) (A) (A) (A) (A) (A) (A)
                 (A) (A) (A) (A) (A) (A) (A) (A) (A) (A) (A) (A)
                 (A) (A) (A) (A) (A) (A) (A) (A) (A) (A) (A) (A)
                 (A) (A) (A) (A) (A) (A) (A) (A) (A) (A) (A) (A)
                 (A) (A) (A) (A) (A) (A) (A) (A) (A) (A) (A) (A)
                 (A) (A) (A) (A) (A) (A) (A) (A) (A) (A) (A) (A)
                 (A) (A) (A) (A) (A) (A) (A) (A) (A) (A) (A) (A)
                 (A) (A) (A) (A) (A) (A) (A) (A) (A) (A) (A) (A)
                 (A) (A) (A) (A) (A) (A) (A) (A) (A) (A) (A) (A)
                 (A) (A) (A) (A) (A) (A) (A) (A) (A) (A) (A) (A)
                 (A) (A) (A) (A) (A) (A) (A) (A) (A) (A) (A) (A)
                 (A) (A) (A) (A) (A) (A) (A) (A) (A) (A) (A) (A)
                 (A) (A) (A) (A) (A) (A) (A) (A) (A) (A) (A) (A)
                 (A) (A) (A) (A) (A) (A) (A) (A) (A) (A) (A) (A)
                 (A) (A) (A) (A) (A) (A) (A) (A) (A) (A) (A) (A)
                 (A) (A) (A) (A) (A) (A) (A) (A) (A) (A) (A) (A)
                 (A) (A) (A) (A) (A) (A) (A) (A) (A) (A) (A) (A)
                 (A) (A) (A) (A) (A) (A) (A) (A) (A) (A) (A) (A)
                 (A) (A) (A) (A) (A) (A)
 The electronic state is 1-A.
 Alpha  occ. eigenvalues --  -66.30169 -19.26463 -19.26375 -19.25277 -19.23045
 Alpha  occ. eigenvalues --  -10.31460 -10.31136 -10.30510 -10.30434 -10.29976
 Alpha  occ. eigenvalues --  -10.28644 -10.25192 -10.24603 -10.24231 -10.23539
 Alpha  occ. eigenvalues --  -10.23089 -10.23075 -10.22460 -10.22302  -5.33588
 Alpha  occ. eigenvalues --   -3.67493  -3.67218  -3.67191  -1.11081  -1.07694
 Alpha  occ. eigenvalues --   -1.06485  -1.02955  -0.84181  -0.82033  -0.77348
 Alpha  occ. eigenvalues --   -0.75356  -0.72174  -0.70327  -0.70317  -0.70024
 Alpha  occ. eigenvalues --   -0.69383  -0.68485  -0.64773  -0.62051  -0.57217
 Alpha  occ. eigenvalues --   -0.57056  -0.53887  -0.53507  -0.52473  -0.51376
 Alpha  occ. eigenvalues --   -0.49104  -0.48223  -0.47112  -0.46175  -0.45447
 Alpha  occ. eigenvalues --   -0.44392  -0.44201  -0.43350  -0.42918  -0.42430
 Alpha  occ. eigenvalues --   -0.41761  -0.41340  -0.40815  -0.40317  -0.40112
 Alpha  occ. eigenvalues --   -0.39817  -0.39190  -0.38921  -0.38688  -0.38641
 Alpha  occ. eigenvalues --   -0.37039  -0.36095  -0.35256  -0.34475  -0.33798
 Alpha  occ. eigenvalues --   -0.33470  -0.32747  -0.31545  -0.31374  -0.30361
 Alpha  occ. eigenvalues --   -0.29061  -0.27642  -0.27204  -0.26555
 Alpha virt. eigenvalues --   -0.00651   0.00534   0.01186   0.01501   0.02583
 Alpha virt. eigenvalues --    0.02935   0.03011   0.03902   0.04153   0.04568
 Alpha virt. eigenvalues --    0.05046   0.05170   0.05358   0.05823   0.06426
 Alpha virt. eigenvalues --    0.07118   0.07143   0.07355   0.07811   0.08063
 Alpha virt. eigenvalues --    0.08499   0.08742   0.08884   0.09218   0.09613
 Alpha virt. eigenvalues --    0.09886   0.10311   0.10686   0.10823   0.11344
 Alpha virt. eigenvalues --    0.11575   0.12159   0.12574   0.12784   0.12936
 Alpha virt. eigenvalues --    0.13430   0.13491   0.14121   0.14233   0.14695
 Alpha virt. eigenvalues --    0.14882   0.15168   0.15362   0.15684   0.16242
 Alpha virt. eigenvalues --    0.16834   0.16986   0.17211   0.17807   0.18051
 Alpha virt. eigenvalues --    0.18218   0.18774   0.18953   0.19461   0.19962
 Alpha virt. eigenvalues --    0.20321   0.20573   0.20830   0.21115   0.21405
 Alpha virt. eigenvalues --    0.21548   0.21689   0.22318   0.22551   0.22999
 Alpha virt. eigenvalues --    0.23356   0.23916   0.24221   0.24359   0.24550
 Alpha virt. eigenvalues --    0.24762   0.24813   0.25239   0.25982   0.26436
 Alpha virt. eigenvalues --    0.26732   0.26979   0.27050   0.27595   0.28206
 Alpha virt. eigenvalues --    0.28431   0.28771   0.28857   0.29518   0.29709
 Alpha virt. eigenvalues --    0.30235   0.30399   0.30538   0.31182   0.31318
 Alpha virt. eigenvalues --    0.31952   0.32038   0.32308   0.32671   0.33373
 Alpha virt. eigenvalues --    0.33979   0.34335   0.34693   0.35202   0.36020
 Alpha virt. eigenvalues --    0.36096   0.36634   0.37618   0.37914   0.37963
 Alpha virt. eigenvalues --    0.39098   0.39235   0.39973   0.40738   0.41383
 Alpha virt. eigenvalues --    0.42012   0.42636   0.43342   0.44163   0.44670
 Alpha virt. eigenvalues --    0.45196   0.45480   0.46540   0.47127   0.48651
 Alpha virt. eigenvalues --    0.49332   0.50573   0.52752   0.53675   0.55066
 Alpha virt. eigenvalues --    0.56012   0.60143   0.63907   0.66249   0.66974
 Alpha virt. eigenvalues --    0.67739   0.68597   0.69295   0.70280   0.70568
 Alpha virt. eigenvalues --    0.71004   0.72059   0.72826   0.73057   0.73991
 Alpha virt. eigenvalues --    0.74369   0.75966   0.77737   0.77915   0.78994
 Alpha virt. eigenvalues --    0.79277   0.79913   0.80976   0.81394   0.81632
 Alpha virt. eigenvalues --    0.82081   0.82956   0.83843   0.84532   0.85931
 Alpha virt. eigenvalues --    0.86343   0.86905   0.87973   0.88517   0.89917
 Alpha virt. eigenvalues --    0.90827   0.91194   0.92166   0.92836   0.94407
 Alpha virt. eigenvalues --    0.95069   0.95881   0.96106   0.97285   0.97700
 Alpha virt. eigenvalues --    0.98709   0.99430   1.00176   1.00899   1.01360
 Alpha virt. eigenvalues --    1.03060   1.03942   1.04277   1.04832   1.05197
 Alpha virt. eigenvalues --    1.05472   1.06265   1.07099   1.07159   1.07919
 Alpha virt. eigenvalues --    1.08301   1.09339   1.09994   1.10239   1.10933
 Alpha virt. eigenvalues --    1.11132   1.12443   1.13968   1.15313   1.16459
 Alpha virt. eigenvalues --    1.17413   1.17704   1.18500   1.20402   1.21086
 Alpha virt. eigenvalues --    1.22159   1.22900   1.23579   1.24727   1.24808
 Alpha virt. eigenvalues --    1.26586   1.28103   1.29637   1.31046   1.33625
 Alpha virt. eigenvalues --    1.34484   1.34963   1.35792   1.36044   1.37638
 Alpha virt. eigenvalues --    1.38328   1.39521   1.41261   1.43243   1.44135
 Alpha virt. eigenvalues --    1.45221   1.47572   1.48053   1.48978   1.49538
 Alpha virt. eigenvalues --    1.50331   1.51368   1.52168   1.52886   1.54480
 Alpha virt. eigenvalues --    1.57353   1.58535   1.60550   1.62901   1.63285
 Alpha virt. eigenvalues --    1.64640   1.66105   1.66652   1.68221   1.68622
 Alpha virt. eigenvalues --    1.68940   1.70980   1.72832   1.74302   1.75449
 Alpha virt. eigenvalues --    1.77416   1.78466   1.79811   1.81288   1.82389
 Alpha virt. eigenvalues --    1.83208   1.83743   1.84885   1.85883   1.86770
 Alpha virt. eigenvalues --    1.89160   1.90799   1.91190   1.91527   1.93495
 Alpha virt. eigenvalues --    1.94015   1.94829   1.95528   1.96198   1.96880
 Alpha virt. eigenvalues --    1.97982   1.99647   2.00166   2.01080   2.02443
 Alpha virt. eigenvalues --    2.03547   2.04265   2.05475   2.06245   2.06620
 Alpha virt. eigenvalues --    2.06830   2.07227   2.07840   2.08939   2.09505
 Alpha virt. eigenvalues --    2.09792   2.11050   2.11240   2.12455   2.12665
 Alpha virt. eigenvalues --    2.13796   2.14007   2.15348   2.15740   2.15897
 Alpha virt. eigenvalues --    2.16239   2.16668   2.17293   2.17642   2.18079
 Alpha virt. eigenvalues --    2.18343   2.19563   2.19987   2.20483   2.21273
 Alpha virt. eigenvalues --    2.22032   2.22998   2.24202   2.25367   2.26909
 Alpha virt. eigenvalues --    2.28781   2.29333   2.30558   2.34037   2.35013
 Alpha virt. eigenvalues --    2.35842   2.37260   2.38308   2.38985   2.39190
 Alpha virt. eigenvalues --    2.39757   2.41184   2.42280   2.42967   2.43743
 Alpha virt. eigenvalues --    2.44937   2.46142   2.47312   2.49870   2.51645
 Alpha virt. eigenvalues --    2.56185   2.56936   2.57652   2.58232   2.59083
 Alpha virt. eigenvalues --    2.59950   2.60115   2.62143   2.63930   2.65204
 Alpha virt. eigenvalues --    2.67299   2.68110   2.68506   2.68892   2.70004
 Alpha virt. eigenvalues --    2.71354   2.72814   2.73443   2.73881   2.74745
 Alpha virt. eigenvalues --    2.76412   2.76862   2.77874   2.78115   2.78865
 Alpha virt. eigenvalues --    2.81415   2.81503   2.84102   2.84447   2.84968
 Alpha virt. eigenvalues --    2.85817   2.86503   2.86758   2.87683   2.88343
 Alpha virt. eigenvalues --    2.88521   2.89017   2.89354   2.90167   2.91143
 Alpha virt. eigenvalues --    2.92112   2.94297   2.94480   2.96220   2.98252
 Alpha virt. eigenvalues --    2.99220   2.99992   3.02653   3.04804   3.05364
 Alpha virt. eigenvalues --    3.07812   3.15421   3.17329   3.24447   3.26984
 Alpha virt. eigenvalues --    3.27528   3.27919   3.30261   3.30761   3.32114
 Alpha virt. eigenvalues --    3.32159   3.36081   3.39397   3.39635   3.46156
 Alpha virt. eigenvalues --    3.47300   3.47994   3.48341   3.48647   3.49187
 Alpha virt. eigenvalues --    3.49449   3.50194   3.50432   3.51250   3.51608
 Alpha virt. eigenvalues --    3.52279   3.52868   3.54685   3.55796   3.56383
 Alpha virt. eigenvalues --    3.56853   3.60439   3.62891   4.35669   4.43026
 Alpha virt. eigenvalues --    4.46295   4.48555   4.54559   4.57508   4.59777
 Alpha virt. eigenvalues --    4.63370   4.63960   4.66496   4.66853   4.68357
 Alpha virt. eigenvalues --    4.71291   4.73709   4.78582   4.85300   4.97537
 Alpha virt. eigenvalues --    5.04588
          Condensed to atoms (all electrons):
              1          2          3          4          5          6
     1  H    0.587460   0.240577  -0.012439  -0.011460  -0.008595   0.122071
     2  C    0.240577  14.742787  -0.540202   1.814193   0.165931  -7.294534
     3  C   -0.012439  -0.540202   9.306994  -2.827303  -0.132173   1.386987
     4  C   -0.011460   1.814193  -2.827303  13.594019  -3.449857  -5.363336
     5  C   -0.008595   0.165931  -0.132173  -3.449857  12.772000   0.909384
     6  C    0.122071  -7.294534   1.386987  -5.363336   0.909384  17.045064
     7  C   -0.068871  -1.093089  -0.335591   0.792137  -0.340963  -1.435045
     8  H   -0.000051   0.046833   0.406442   0.029618  -0.054475  -0.006272
     9  H   -0.000149   0.008239   0.049592   0.073255   0.055591   0.194802
    10  H   -0.003857   0.097116  -0.045344   0.013207   0.012238   0.173624
    11  H   -0.005404  -0.036949  -0.008808   0.001678   0.034484   0.046261
    12  H    0.002655  -0.032267   0.338446   0.054996  -0.074899   0.024208
    13  H    0.004550  -0.109639  -0.078742   0.015456  -0.001233   0.019391
    14  O    0.000163  -0.007615  -0.085218  -0.194922   0.305682   0.052122
    15  C   -0.007600  -0.085541  -0.763346   1.380681  -3.755926  -0.987789
    16  O    0.001185  -0.159595  -0.011606   0.041440  -0.159985   0.248877
    17  H   -0.000176  -0.032931   0.015845   0.098913  -0.000059  -0.069446
    18  O    0.012560  -0.212786  -0.081688   0.034757   0.002264   0.395938
    19  C    0.005219  -0.193797  -0.043213  -0.046367  -0.118919   0.155440
    20  H    0.000002  -0.005847   0.008251  -0.068563   0.016692   0.063470
    21  H    0.000003  -0.001976   0.003512   0.013769  -0.002445  -0.009639
    22  H    0.000002  -0.010554  -0.004702   0.005541  -0.002229  -0.019263
    23  O   -0.076136   0.231448   0.021392   0.062829   0.012546  -0.136911
    24  Si   0.091719  -1.292246  -0.062729  -0.367874   0.001348   1.028263
    25  C   -0.013810   0.251148  -0.008441   0.063930   0.008568  -0.232292
    26  H   -0.000024   0.009333  -0.000026   0.000666   0.000032  -0.003676
    27  H    0.001018  -0.017195  -0.000220  -0.000586   0.000756   0.010291
    28  H   -0.000008  -0.027972  -0.000322  -0.003242   0.000376   0.022140
    29  C    0.003272  -0.275159   0.006767  -0.007370   0.004689   0.130209
    30  C   -0.018250   0.119902   0.003566   0.019126  -0.005448  -0.098405
    31  H   -0.000024   0.007472   0.000394   0.000048   0.000009  -0.001539
    32  H   -0.000014  -0.015792  -0.000638   0.000228  -0.000156  -0.000628
    33  H    0.000666  -0.019856   0.001960  -0.000601  -0.000052   0.006275
    34  C   -0.001000   0.016710   0.020588   0.008489  -0.004122   0.008075
    35  H    0.000000  -0.000899  -0.000110  -0.000066   0.000075  -0.000509
    36  H    0.000000  -0.000671   0.000028  -0.000026   0.000006   0.000740
    37  H    0.000001   0.008101  -0.000055   0.000733  -0.000241  -0.002771
    38  C    0.000757  -0.038454   0.001390  -0.001638  -0.000794   0.012501
    39  H    0.000000   0.000523   0.000009  -0.000017   0.000004  -0.000140
    40  H    0.000000   0.000064   0.000001   0.000029  -0.000004   0.000181
    41  H    0.000000  -0.001157  -0.000001  -0.000003  -0.000001   0.000191
    42  C    0.000447   0.143530  -0.010351   0.010095   0.001347  -0.097354
    43  H    0.000000   0.000617  -0.000002   0.000073   0.000012  -0.000138
    44  H    0.000000  -0.004657   0.000060   0.000297   0.000018   0.004251
    45  H    0.000001   0.013229   0.000234   0.000018  -0.000325  -0.010696
    46  H    0.000000   0.002018   0.067223  -0.035640  -0.096609  -0.005693
    47  H    0.000000  -0.003616  -0.037734   0.121468  -0.136241   0.003660
              7          8          9         10         11         12
     1  H   -0.068871  -0.000051  -0.000149  -0.003857  -0.005404   0.002655
     2  C   -1.093089   0.046833   0.008239   0.097116  -0.036949  -0.032267
     3  C   -0.335591   0.406442   0.049592  -0.045344  -0.008808   0.338446
     4  C    0.792137   0.029618   0.073255   0.013207   0.001678   0.054996
     5  C   -0.340963  -0.054475   0.055591   0.012238   0.034484  -0.074899
     6  C   -1.435045  -0.006272   0.194802   0.173624   0.046261   0.024208
     7  C    7.919093  -0.035030  -0.029004   0.023443   0.304740  -0.015400
     8  H   -0.035030   0.524835  -0.000099   0.000012  -0.001844  -0.022321
     9  H   -0.029004  -0.000099   0.595493  -0.007068   0.000013  -0.000049
    10  H    0.023443   0.000012  -0.007068   0.613153  -0.000114  -0.000018
    11  H    0.304740  -0.001844   0.000013  -0.000114   0.537417  -0.004500
    12  H   -0.015400  -0.022321  -0.000049  -0.000018  -0.004500   0.522246
    13  H    0.462323  -0.003471  -0.000064  -0.000039  -0.025685   0.004082
    14  O    0.023288  -0.000322   0.004400   0.000108  -0.000050   0.011074
    15  C    0.022593  -0.056870  -0.059433   0.014550   0.007846  -0.002438
    16  O   -0.022943   0.000389  -0.030721  -0.016275   0.000545   0.001905
    17  H    0.019255   0.000008  -0.005337   0.006142  -0.000006   0.000033
    18  O    0.000650   0.000705  -0.010811  -0.041486  -0.001075   0.000777
    19  C   -0.021879   0.000046   0.011343   0.005964  -0.000178   0.001277
    20  H   -0.002126   0.000001   0.000068  -0.001374   0.000000  -0.000001
    21  H    0.002314   0.000000   0.000087  -0.000060   0.000000   0.000000
    22  H   -0.001450   0.000000  -0.000779   0.010671   0.000000   0.000000
    23  O   -0.037789  -0.000699  -0.001292   0.002129  -0.002027  -0.000316
    24  Si  -0.000387  -0.001189   0.003169   0.013795  -0.021381   0.003930
    25  C   -0.009531   0.000048  -0.000604  -0.002123   0.000791  -0.000132
    26  H   -0.000825   0.000000   0.000000   0.000029   0.000000   0.000000
    27  H    0.003593   0.000000   0.000000   0.000030   0.000001   0.000000
    28  H   -0.001309   0.000000   0.000000   0.000001   0.000000   0.000000
    29  C    0.077477  -0.000044  -0.000036  -0.008813  -0.001999  -0.000049
    30  C    0.001694   0.000186  -0.000007   0.000287   0.003932  -0.000929
    31  H    0.000335   0.000000   0.000000   0.000000   0.000005   0.000000
    32  H    0.010250   0.000000   0.000000   0.000000   0.000003   0.000000
    33  H    0.003418   0.000000   0.000000   0.000000   0.000015  -0.000003
    34  C    0.002040  -0.000004   0.000020  -0.000501   0.002783  -0.000005
    35  H   -0.000194   0.000000   0.000000   0.000000  -0.000002   0.000000
    36  H   -0.000185   0.000000   0.000000   0.000000   0.000000   0.000000
    37  H   -0.000828   0.000000   0.000000   0.000000  -0.000012   0.000000
    38  C   -0.003060  -0.000001  -0.000001  -0.000402  -0.000078   0.000001
    39  H   -0.000091   0.000000   0.000000   0.000000   0.000000   0.000000
    40  H   -0.000060   0.000000   0.000000   0.000000   0.000000   0.000000
    41  H    0.000129   0.000000   0.000000   0.000000   0.000000   0.000000
    42  C   -0.037684   0.000016   0.000007   0.004184   0.000024   0.000004
    43  H    0.000187   0.000000   0.000000   0.000000   0.000000   0.000000
    44  H    0.000188   0.000000   0.000000  -0.000017   0.000000   0.000000
    45  H   -0.001027   0.000000   0.000000  -0.000006  -0.000001   0.000000
    46  H    0.002731   0.000441   0.000122   0.000001  -0.000001  -0.000263
    47  H   -0.000148   0.000048   0.001323   0.000000   0.000001   0.000268
             13         14         15         16         17         18
     1  H    0.004550   0.000163  -0.007600   0.001185  -0.000176   0.012560
     2  C   -0.109639  -0.007615  -0.085541  -0.159595  -0.032931  -0.212786
     3  C   -0.078742  -0.085218  -0.763346  -0.011606   0.015845  -0.081688
     4  C    0.015456  -0.194922   1.380681   0.041440   0.098913   0.034757
     5  C   -0.001233   0.305682  -3.755926  -0.159985  -0.000059   0.002264
     6  C    0.019391   0.052122  -0.987789   0.248877  -0.069446   0.395938
     7  C    0.462323   0.023288   0.022593  -0.022943   0.019255   0.000650
     8  H   -0.003471  -0.000322  -0.056870   0.000389   0.000008   0.000705
     9  H   -0.000064   0.004400  -0.059433  -0.030721  -0.005337  -0.010811
    10  H   -0.000039   0.000108   0.014550  -0.016275   0.006142  -0.041486
    11  H   -0.025685  -0.000050   0.007846   0.000545  -0.000006  -0.001075
    12  H    0.004082   0.011074  -0.002438   0.001905   0.000033   0.000777
    13  H    0.495624   0.004140  -0.005230   0.000201   0.000002   0.008106
    14  O    0.004140   8.217475   0.042669   0.017756  -0.000445  -0.006992
    15  C   -0.005230   0.042669   9.441704   0.083162  -0.017710   0.001745
    16  O    0.000201   0.017756   0.083162   8.232593   0.216819   0.017915
    17  H    0.000002  -0.000445  -0.017710   0.216819   0.388745   0.001500
    18  O    0.008106  -0.006992   0.001745   0.017915   0.001500   8.224842
    19  C    0.005570  -0.011777  -0.022235   0.005916   0.002625   0.010685
    20  H    0.000009   0.000258   0.004777  -0.000085   0.000001  -0.060220
    21  H   -0.000006   0.000477  -0.001237   0.000087   0.000000  -0.073472
    22  H   -0.000006   0.000038   0.001335  -0.000223   0.000021  -0.045829
    23  O   -0.002183  -0.000873   0.013384  -0.003818  -0.000165   0.004469
    24  Si   0.013065   0.001141  -0.073731   0.020070   0.001162   0.020506
    25  C   -0.000703  -0.000036   0.006565  -0.006595  -0.001572  -0.002874
    26  H    0.000000   0.000000   0.000007  -0.000006   0.000001  -0.000022
    27  H    0.000000   0.000000  -0.000014   0.000333  -0.000026   0.000006
    28  H    0.000000   0.000000  -0.000002   0.000121  -0.000012   0.000185
    29  C    0.001320   0.000001   0.001248  -0.000126  -0.000157   0.003152
    30  C   -0.002529  -0.000088   0.001037  -0.001339   0.000061  -0.002323
    31  H    0.000000   0.000000   0.000006   0.000002   0.000000   0.000004
    32  H   -0.000001   0.000000  -0.000006  -0.000005   0.000000  -0.000025
    33  H    0.000003   0.000000  -0.000075  -0.000059   0.000000  -0.000003
    34  C   -0.000869   0.000064   0.000559  -0.000192   0.000006  -0.000218
    35  H    0.000000   0.000000   0.000001   0.000000   0.000000   0.000001
    36  H    0.000000   0.000000   0.000000   0.000000   0.000000   0.000002
    37  H    0.000005   0.000001   0.000001   0.000000   0.000000   0.000139
    38  C    0.000088  -0.000001  -0.000259   0.000044  -0.000018   0.000109
    39  H    0.000000   0.000000   0.000000   0.000000   0.000000   0.000000
    40  H    0.000000   0.000000   0.000000   0.000000   0.000000  -0.000001
    41  H    0.000000   0.000000   0.000000   0.000000   0.000000   0.000000
    42  C    0.000086   0.000050  -0.000562   0.000422   0.000026  -0.001346
    43  H    0.000000   0.000000   0.000000   0.000000   0.000000  -0.000040
    44  H    0.000000   0.000000   0.000000   0.000000   0.000000  -0.000073
    45  H   -0.000003   0.000001  -0.000016   0.000001   0.000000   0.000641
    46  H   -0.000019  -0.037308   0.440866   0.000530  -0.000006  -0.000091
    47  H    0.000004  -0.030857   0.413151   0.000745   0.000007   0.000411
             19         20         21         22         23         24
     1  H    0.005219   0.000002   0.000003   0.000002  -0.076136   0.091719
     2  C   -0.193797  -0.005847  -0.001976  -0.010554   0.231448  -1.292246
     3  C   -0.043213   0.008251   0.003512  -0.004702   0.021392  -0.062729
     4  C   -0.046367  -0.068563   0.013769   0.005541   0.062829  -0.367874
     5  C   -0.118919   0.016692  -0.002445  -0.002229   0.012546   0.001348
     6  C    0.155440   0.063470  -0.009639  -0.019263  -0.136911   1.028263
     7  C   -0.021879  -0.002126   0.002314  -0.001450  -0.037789  -0.000387
     8  H    0.000046   0.000001   0.000000   0.000000  -0.000699  -0.001189
     9  H    0.011343   0.000068   0.000087  -0.000779  -0.001292   0.003169
    10  H    0.005964  -0.001374  -0.000060   0.010671   0.002129   0.013795
    11  H   -0.000178   0.000000   0.000000   0.000000  -0.002027  -0.021381
    12  H    0.001277  -0.000001   0.000000   0.000000  -0.000316   0.003930
    13  H    0.005570   0.000009  -0.000006  -0.000006  -0.002183   0.013065
    14  O   -0.011777   0.000258   0.000477   0.000038  -0.000873   0.001141
    15  C   -0.022235   0.004777  -0.001237   0.001335   0.013384  -0.073731
    16  O    0.005916  -0.000085   0.000087  -0.000223  -0.003818   0.020070
    17  H    0.002625   0.000001   0.000000   0.000021  -0.000165   0.001162
    18  O    0.010685  -0.060220  -0.073472  -0.045829   0.004469   0.020506
    19  C    5.169258   0.402181   0.434151   0.415360  -0.010695   0.032478
    20  H    0.402181   0.556111  -0.029946  -0.043798  -0.000572  -0.000405
    21  H    0.434151  -0.029946   0.526070  -0.025757  -0.000494  -0.003207
    22  H    0.415360  -0.043798  -0.025757   0.568454   0.001845   0.008022
    23  O   -0.010695  -0.000572  -0.000494   0.001845   8.340458  -0.079010
    24  Si   0.032478  -0.000405  -0.003207   0.008022  -0.079010  13.738648
    25  C   -0.005564   0.000015   0.000116  -0.000936  -0.033806   0.093061
    26  H   -0.000065   0.000000   0.000000   0.000000   0.008141  -0.042996
    27  H    0.000239   0.000000   0.000000   0.000000  -0.005868  -0.020182
    28  H    0.000718   0.000000   0.000000  -0.000003  -0.004015  -0.013122
    29  C   -0.002078   0.000114   0.000050  -0.001198  -0.096312   0.492060
    30  C   -0.001473  -0.000003   0.000007  -0.000045  -0.036261   0.177915
    31  H    0.000001   0.000000   0.000000   0.000000   0.009204  -0.042725
    32  H   -0.000035   0.000000   0.000000   0.000000  -0.004416  -0.023515
    33  H   -0.000012   0.000000   0.000000   0.000000  -0.006464  -0.012222
    34  C   -0.003157  -0.000009   0.000149  -0.000068   0.049661  -0.216858
    35  H    0.000018   0.000000   0.000000   0.000000  -0.002876   0.011273
    36  H   -0.000001   0.000000   0.000000   0.000000  -0.000476   0.016515
    37  H   -0.000018   0.000000   0.000000   0.000000   0.006800  -0.030893
    38  C    0.000587   0.000001  -0.000001  -0.000057   0.014300  -0.119666
    39  H    0.000002   0.000000   0.000000   0.000000   0.000629  -0.011761
    40  H    0.000006   0.000000   0.000000   0.000000   0.000517  -0.016252
    41  H   -0.000001   0.000000   0.000000   0.000000  -0.000577   0.017821
    42  C    0.002428   0.000032   0.000079  -0.000082   0.030009  -0.135772
    43  H   -0.000193   0.000000   0.000000   0.000000  -0.000683   0.013629
    44  H   -0.000227   0.000000   0.000000  -0.000003  -0.003010   0.002523
    45  H    0.000118   0.000001   0.000004  -0.000007   0.005569  -0.018566
    46  H   -0.000505   0.000004   0.000000   0.000000  -0.000009  -0.000031
    47  H    0.002649  -0.000017   0.000000  -0.000001  -0.000009   0.000122
             25         26         27         28         29         30
     1  H   -0.013810  -0.000024   0.001018  -0.000008   0.003272  -0.018250
     2  C    0.251148   0.009333  -0.017195  -0.027972  -0.275159   0.119902
     3  C   -0.008441  -0.000026  -0.000220  -0.000322   0.006767   0.003566
     4  C    0.063930   0.000666  -0.000586  -0.003242  -0.007370   0.019126
     5  C    0.008568   0.000032   0.000756   0.000376   0.004689  -0.005448
     6  C   -0.232292  -0.003676   0.010291   0.022140   0.130209  -0.098405
     7  C   -0.009531  -0.000825   0.003593  -0.001309   0.077477   0.001694
     8  H    0.000048   0.000000   0.000000   0.000000  -0.000044   0.000186
     9  H   -0.000604   0.000000   0.000000   0.000000  -0.000036  -0.000007
    10  H   -0.002123   0.000029   0.000030   0.000001  -0.008813   0.000287
    11  H    0.000791   0.000000   0.000001   0.000000  -0.001999   0.003932
    12  H   -0.000132   0.000000   0.000000   0.000000  -0.000049  -0.000929
    13  H   -0.000703   0.000000   0.000000   0.000000   0.001320  -0.002529
    14  O   -0.000036   0.000000   0.000000   0.000000   0.000001  -0.000088
    15  C    0.006565   0.000007  -0.000014  -0.000002   0.001248   0.001037
    16  O   -0.006595  -0.000006   0.000333   0.000121  -0.000126  -0.001339
    17  H   -0.001572   0.000001  -0.000026  -0.000012  -0.000157   0.000061
    18  O   -0.002874  -0.000022   0.000006   0.000185   0.003152  -0.002323
    19  C   -0.005564  -0.000065   0.000239   0.000718  -0.002078  -0.001473
    20  H    0.000015   0.000000   0.000000   0.000000   0.000114  -0.000003
    21  H    0.000116   0.000000   0.000000   0.000000   0.000050   0.000007
    22  H   -0.000936   0.000000   0.000000  -0.000003  -0.001198  -0.000045
    23  O   -0.033806   0.008141  -0.005868  -0.004015  -0.096312  -0.036261
    24  Si   0.093061  -0.042996  -0.020182  -0.013122   0.492060   0.177915
    25  C    5.475171   0.411572   0.383437   0.398182  -0.128677   0.005648
    26  H    0.411572   0.487544  -0.022108  -0.022017  -0.029061  -0.005385
    27  H    0.383437  -0.022108   0.503854  -0.023161   0.018853  -0.013078
    28  H    0.398182  -0.022017  -0.023161   0.492382  -0.021816   0.006520
    29  C   -0.128677  -0.029061   0.018853  -0.021816   8.185377  -0.146881
    30  C    0.005648  -0.005385  -0.013078   0.006520  -0.146881   5.454486
    31  H   -0.006565   0.000116   0.000129   0.000025  -0.028029   0.409348
    32  H    0.007462   0.000028  -0.000003  -0.000017  -0.022107   0.405755
    33  H   -0.010438   0.000128   0.000366  -0.000001   0.018307   0.385209
    34  C    0.000155   0.000327  -0.000616  -0.004250  -0.342739  -0.002222
    35  H   -0.000146   0.000001  -0.000001   0.000000  -0.063935  -0.001687
    36  H   -0.001650   0.000000   0.000000   0.000000  -0.158913  -0.000022
    37  H    0.000373   0.000000  -0.000001   0.000001  -0.099816   0.002722
    38  C    0.027797   0.009422  -0.001476   0.003961  -0.417415   0.023217
    39  H   -0.000720   0.000022  -0.000005   0.000016  -0.078722   0.004309
    40  H    0.005350   0.000078   0.000001   0.000017  -0.079427   0.000030
    41  H    0.000035   0.000013   0.000000  -0.000006  -0.159047   0.000050
    42  C    0.006903   0.009944   0.001209   0.011162  -0.470983  -0.000644
    43  H    0.000341  -0.000001   0.000000  -0.000009  -0.162672  -0.001633
    44  H    0.000269   0.000064   0.000001   0.000276  -0.057585   0.000397
    45  H    0.001953   0.000005  -0.000007   0.000030  -0.099219  -0.000226
    46  H    0.000000   0.000000   0.000000   0.000000   0.000000   0.000000
    47  H   -0.000008   0.000000   0.000000   0.000000  -0.000002  -0.000001
             31         32         33         34         35         36
     1  H   -0.000024  -0.000014   0.000666  -0.001000   0.000000   0.000000
     2  C    0.007472  -0.015792  -0.019856   0.016710  -0.000899  -0.000671
     3  C    0.000394  -0.000638   0.001960   0.020588  -0.000110   0.000028
     4  C    0.000048   0.000228  -0.000601   0.008489  -0.000066  -0.000026
     5  C    0.000009  -0.000156  -0.000052  -0.004122   0.000075   0.000006
     6  C   -0.001539  -0.000628   0.006275   0.008075  -0.000509   0.000740
     7  C    0.000335   0.010250   0.003418   0.002040  -0.000194  -0.000185
     8  H    0.000000   0.000000   0.000000  -0.000004   0.000000   0.000000
     9  H    0.000000   0.000000   0.000000   0.000020   0.000000   0.000000
    10  H    0.000000   0.000000   0.000000  -0.000501   0.000000   0.000000
    11  H    0.000005   0.000003   0.000015   0.002783  -0.000002   0.000000
    12  H    0.000000   0.000000  -0.000003  -0.000005   0.000000   0.000000
    13  H    0.000000  -0.000001   0.000003  -0.000869   0.000000   0.000000
    14  O    0.000000   0.000000   0.000000   0.000064   0.000000   0.000000
    15  C    0.000006  -0.000006  -0.000075   0.000559   0.000001   0.000000
    16  O    0.000002  -0.000005  -0.000059  -0.000192   0.000000   0.000000
    17  H    0.000000   0.000000   0.000000   0.000006   0.000000   0.000000
    18  O    0.000004  -0.000025  -0.000003  -0.000218   0.000001   0.000002
    19  C    0.000001  -0.000035  -0.000012  -0.003157   0.000018  -0.000001
    20  H    0.000000   0.000000   0.000000  -0.000009   0.000000   0.000000
    21  H    0.000000   0.000000   0.000000   0.000149   0.000000   0.000000
    22  H    0.000000   0.000000   0.000000  -0.000068   0.000000   0.000000
    23  O    0.009204  -0.004416  -0.006464   0.049661  -0.002876  -0.000476
    24  Si  -0.042725  -0.023515  -0.012222  -0.216858   0.011273   0.016515
    25  C   -0.006565   0.007462  -0.010438   0.000155  -0.000146  -0.001650
    26  H    0.000116   0.000028   0.000128   0.000327   0.000001   0.000000
    27  H    0.000129  -0.000003   0.000366  -0.000616  -0.000001   0.000000
    28  H    0.000025  -0.000017  -0.000001  -0.004250   0.000000   0.000000
    29  C   -0.028029  -0.022107   0.018307  -0.342739  -0.063935  -0.158913
    30  C    0.409348   0.405755   0.385209  -0.002222  -0.001687  -0.000022
    31  H    0.489377  -0.021956  -0.022096   0.011957   0.000059  -0.000001
    32  H   -0.021956   0.489406  -0.022757   0.012374   0.000167  -0.000008
    33  H   -0.022096  -0.022757   0.498424  -0.000117   0.000004   0.000000
    34  C    0.011957   0.012374  -0.000117   5.998030   0.407716   0.464519
    35  H    0.000059   0.000167   0.000004   0.407716   0.537335  -0.028067
    36  H   -0.000001  -0.000008   0.000000   0.464519  -0.028067   0.543885
    37  H    0.000009   0.000049  -0.000007   0.474529  -0.025899  -0.026645
    38  C    0.008119   0.003296  -0.001429   0.002597  -0.002091   0.011075
    39  H    0.000150   0.000026  -0.000004  -0.015998   0.002750  -0.000323
    40  H    0.000016   0.000011  -0.000005   0.005279   0.000023  -0.000005
    41  H    0.000011  -0.000005   0.000000   0.011410  -0.000319   0.005394
    42  C   -0.000707  -0.003927  -0.001046  -0.328991   0.004103   0.008033
    43  H    0.000000   0.000000   0.000000   0.015354   0.000040   0.005483
    44  H    0.000001   0.000000  -0.000001   0.002994  -0.000157   0.000037
    45  H    0.000000   0.000002   0.000000  -0.006902   0.000022  -0.000288
    46  H    0.000000   0.000000   0.000000   0.000000   0.000000   0.000000
    47  H    0.000000   0.000000   0.000000   0.000000   0.000000   0.000000
             37         38         39         40         41         42
     1  H    0.000001   0.000757   0.000000   0.000000   0.000000   0.000447
     2  C    0.008101  -0.038454   0.000523   0.000064  -0.001157   0.143530
     3  C   -0.000055   0.001390   0.000009   0.000001  -0.000001  -0.010351
     4  C    0.000733  -0.001638  -0.000017   0.000029  -0.000003   0.010095
     5  C   -0.000241  -0.000794   0.000004  -0.000004  -0.000001   0.001347
     6  C   -0.002771   0.012501  -0.000140   0.000181   0.000191  -0.097354
     7  C   -0.000828  -0.003060  -0.000091  -0.000060   0.000129  -0.037684
     8  H    0.000000  -0.000001   0.000000   0.000000   0.000000   0.000016
     9  H    0.000000  -0.000001   0.000000   0.000000   0.000000   0.000007
    10  H    0.000000  -0.000402   0.000000   0.000000   0.000000   0.004184
    11  H   -0.000012  -0.000078   0.000000   0.000000   0.000000   0.000024
    12  H    0.000000   0.000001   0.000000   0.000000   0.000000   0.000004
    13  H    0.000005   0.000088   0.000000   0.000000   0.000000   0.000086
    14  O    0.000001  -0.000001   0.000000   0.000000   0.000000   0.000050
    15  C    0.000001  -0.000259   0.000000   0.000000   0.000000  -0.000562
    16  O    0.000000   0.000044   0.000000   0.000000   0.000000   0.000422
    17  H    0.000000  -0.000018   0.000000   0.000000   0.000000   0.000026
    18  O    0.000139   0.000109   0.000000  -0.000001   0.000000  -0.001346
    19  C   -0.000018   0.000587   0.000002   0.000006  -0.000001   0.002428
    20  H    0.000000   0.000001   0.000000   0.000000   0.000000   0.000032
    21  H    0.000000  -0.000001   0.000000   0.000000   0.000000   0.000079
    22  H    0.000000  -0.000057   0.000000   0.000000   0.000000  -0.000082
    23  O    0.006800   0.014300   0.000629   0.000517  -0.000577   0.030009
    24  Si  -0.030893  -0.119666  -0.011761  -0.016252   0.017821  -0.135772
    25  C    0.000373   0.027797  -0.000720   0.005350   0.000035   0.006903
    26  H    0.000000   0.009422   0.000022   0.000078   0.000013   0.009944
    27  H   -0.000001  -0.001476  -0.000005   0.000001   0.000000   0.001209
    28  H    0.000001   0.003961   0.000016   0.000017  -0.000006   0.011162
    29  C   -0.099816  -0.417415  -0.078722  -0.079427  -0.159047  -0.470983
    30  C    0.002722   0.023217   0.004309   0.000030   0.000050  -0.000644
    31  H    0.000009   0.008119   0.000150   0.000016   0.000011  -0.000707
    32  H    0.000049   0.003296   0.000026   0.000011  -0.000005  -0.003927
    33  H   -0.000007  -0.001429  -0.000004  -0.000005   0.000000  -0.001046
    34  C    0.474529   0.002597  -0.015998   0.005279   0.011410  -0.328991
    35  H   -0.025899  -0.002091   0.002750   0.000023  -0.000319   0.004103
    36  H   -0.026645   0.011075  -0.000323  -0.000005   0.005394   0.008033
    37  H    0.511652  -0.000494   0.000041  -0.000143   0.000021  -0.003904
    38  C   -0.000494   5.610836   0.446022   0.451423   0.459870   0.043052
    39  H    0.000041   0.446022   0.532621  -0.027256  -0.027745   0.008024
    40  H   -0.000143   0.451423  -0.027256   0.533108  -0.027715  -0.015319
    41  H    0.000021   0.459870  -0.027745  -0.027715   0.539551   0.011423
    42  C   -0.003904   0.043052   0.008024  -0.015319   0.011423   6.052449
    43  H   -0.000303   0.007857  -0.000010  -0.000321   0.005311   0.465617
    44  H    0.000025   0.000547   0.000029   0.002796  -0.000325   0.403567
    45  H    0.003012  -0.001331  -0.000141   0.000040   0.000019   0.472095
    46  H    0.000000   0.000000   0.000000   0.000000   0.000000   0.000001
    47  H    0.000000   0.000000   0.000000   0.000000   0.000000   0.000000
             43         44         45         46         47
     1  H    0.000000   0.000000   0.000001   0.000000   0.000000
     2  C    0.000617  -0.004657   0.013229   0.002018  -0.003616
     3  C   -0.000002   0.000060   0.000234   0.067223  -0.037734
     4  C    0.000073   0.000297   0.000018  -0.035640   0.121468
     5  C    0.000012   0.000018  -0.000325  -0.096609  -0.136241
     6  C   -0.000138   0.004251  -0.010696  -0.005693   0.003660
     7  C    0.000187   0.000188  -0.001027   0.002731  -0.000148
     8  H    0.000000   0.000000   0.000000   0.000441   0.000048
     9  H    0.000000   0.000000   0.000000   0.000122   0.001323
    10  H    0.000000  -0.000017  -0.000006   0.000001   0.000000
    11  H    0.000000   0.000000  -0.000001  -0.000001   0.000001
    12  H    0.000000   0.000000   0.000000  -0.000263   0.000268
    13  H    0.000000   0.000000  -0.000003  -0.000019   0.000004
    14  O    0.000000   0.000000   0.000001  -0.037308  -0.030857
    15  C    0.000000   0.000000  -0.000016   0.440866   0.413151
    16  O    0.000000   0.000000   0.000001   0.000530   0.000745
    17  H    0.000000   0.000000   0.000000  -0.000006   0.000007
    18  O   -0.000040  -0.000073   0.000641  -0.000091   0.000411
    19  C   -0.000193  -0.000227   0.000118  -0.000505   0.002649
    20  H    0.000000   0.000000   0.000001   0.000004  -0.000017
    21  H    0.000000   0.000000   0.000004   0.000000   0.000000
    22  H    0.000000  -0.000003  -0.000007   0.000000  -0.000001
    23  O   -0.000683  -0.003010   0.005569  -0.000009  -0.000009
    24  Si   0.013629   0.002523  -0.018566  -0.000031   0.000122
    25  C    0.000341   0.000269   0.001953   0.000000  -0.000008
    26  H   -0.000001   0.000064   0.000005   0.000000   0.000000
    27  H    0.000000   0.000001  -0.000007   0.000000   0.000000
    28  H   -0.000009   0.000276   0.000030   0.000000   0.000000
    29  C   -0.162672  -0.057585  -0.099219   0.000000  -0.000002
    30  C   -0.001633   0.000397  -0.000226   0.000000  -0.000001
    31  H    0.000000   0.000001   0.000000   0.000000   0.000000
    32  H    0.000000   0.000000   0.000002   0.000000   0.000000
    33  H    0.000000  -0.000001   0.000000   0.000000   0.000000
    34  C    0.015354   0.002994  -0.006902   0.000000   0.000000
    35  H    0.000040  -0.000157   0.000022   0.000000   0.000000
    36  H    0.005483   0.000037  -0.000288   0.000000   0.000000
    37  H   -0.000303   0.000025   0.003012   0.000000   0.000000
    38  C    0.007857   0.000547  -0.001331   0.000000   0.000000
    39  H   -0.000010   0.000029  -0.000141   0.000000   0.000000
    40  H   -0.000321   0.002796   0.000040   0.000000   0.000000
    41  H    0.005311  -0.000325   0.000019   0.000000   0.000000
    42  C    0.465617   0.403567   0.472095   0.000001   0.000000
    43  H    0.544903  -0.028155  -0.026442   0.000000   0.000000
    44  H   -0.028155   0.540935  -0.025802   0.000000   0.000000
    45  H   -0.026442  -0.025802   0.506565   0.000000   0.000000
    46  H    0.000000   0.000000   0.000000   0.525636  -0.035387
    47  H    0.000000   0.000000   0.000000  -0.035387   0.531932
 Mulliken atomic charges:
              1
     1  H    0.153541
     2  C   -0.404777
     3  C   -0.548673
     4  C    0.127184
     5  C    0.041699
     6  C   -0.288343
     7  C   -0.177369
     8  H    0.173064
     9  H    0.147928
    10  H    0.136814
    11  H    0.169573
    12  H    0.187689
    13  H    0.196397
    14  O   -0.304400
    15  C   -0.037866
    16  O   -0.477484
    17  H    0.376893
    18  O   -0.200695
    19  C   -0.181890
    20  H    0.160982
    21  H    0.167363
    22  H    0.145702
    23  O   -0.267570
    24  Si   0.804488
    25  C   -0.681669
    26  H    0.188741
    27  H    0.180431
    28  H    0.185168
    29  C    0.017495
    30  C   -0.686526
    31  H    0.186846
    32  H    0.186957
    33  H    0.182471
    34  C   -0.587545
    35  H    0.163370
    36  H    0.161563
    37  H    0.183813
    38  C   -0.550205
    39  H    0.167756
    40  H    0.167540
    41  H    0.165653
    42  C   -0.581695
    43  H    0.161177
    44  H    0.160739
    45  H    0.187447
    46  H    0.171989
    47  H    0.168233
 Sum of Mulliken atomic charges =   0.00000
 Mulliken charges with hydrogens summed into heavy atoms:
              1
     2  C   -0.251237
     3  C   -0.187919
     4  C    0.275112
     5  C    0.041699
     6  C   -0.151528
     7  C    0.188602
    14  O   -0.304400
    15  C    0.302357
    16  O   -0.100590
    18  O   -0.200695
    19  C    0.292156
    23  O   -0.267570
    24  Si   0.804488
    25  C   -0.127329
    29  C    0.017495
    30  C   -0.130252
    34  C   -0.078799
    38  C   -0.049257
    42  C   -0.072332
 Sum of Mulliken charges with hydrogens summed into heavy atoms =   0.00000
 Electronic spatial extent (au):  <R**2>=           6780.3947
 Charge=              0.0000 electrons
 Dipole moment (field-independent basis, Debye):
    X=              0.0011    Y=             -1.0922    Z=              3.4521  Tot=              3.6207
 Quadrupole moment (field-independent basis, Debye-Ang):
   XX=           -122.9566   YY=           -123.9605   ZZ=           -123.2101
   XY=             -0.0127   XZ=             -4.0893   YZ=              7.2216
 Traceless Quadrupole moment (field-independent basis, Debye-Ang):
   XX=              0.4191   YY=             -0.5848   ZZ=              0.1657
   XY=             -0.0127   XZ=             -4.0893   YZ=              7.2216
 Octapole moment (field-independent basis, Debye-Ang**2):
  XXX=            -58.6492  YYY=             22.6982  ZZZ=             19.9959  XYY=            -14.1885
  XXY=            -15.9560  XXZ=             15.7261  XZZ=            -13.0508  YZZ=              0.2993
  YYZ=             -0.5805  XYZ=            -24.1980
 Hexadecapole moment (field-independent basis, Debye-Ang**3):
 XXXX=          -6482.2548 YYYY=          -1426.0969 ZZZZ=          -1000.1690 XXXY=             69.0016
 XXXZ=            -39.1365 YYYX=            -41.3571 YYYZ=             -4.1070 ZZZX=            -34.1602
 ZZZY=              2.3748 XXYY=          -1365.7839 XXZZ=          -1317.8774 YYZZ=           -416.4202
 XXYZ=             75.3975 YYXZ=              7.9795 ZZXY=             -2.0005
 N-N= 1.804931186106D+03 E-N=-6.280983651154D+03  KE= 1.131547326787D+03
 1\1\GINC-COMPUTE-8-10\SP\RmPW1PW91\6-31+G(d,p)\C14H28O4Si1\ELUCIANO.IQ
 UIR\06-Dec-2022\0\\# mPW1PW91/6-31+g** scrf=(PCM,solvent=chloroform) n
 mr\\comment\\0,1\H,0,-0.4965,-1.392653,0.610056\C,0,-0.513425,-0.52945
 7,-0.07146\C,0,-2.635557,-1.442973,-1.111235\C,0,-2.748513,0.064122,0.
 958403\C,0,-3.438103,-0.44427,-0.298631\C,0,-1.32119,0.574928,0.636432
 \C,0,-1.2039,-0.943723,-1.376128\H,0,-3.156927,-1.637435,-2.054676\H,0
 ,-3.352601,0.882545,1.373659\H,0,-0.818281,0.831965,1.589062\H,0,-0.61
 1499,-1.727645,-1.861385\H,0,-2.603574,-2.387548,-0.552026\H,0,-1.2205
 21,-0.077535,-2.044979\O,0,-4.1156,0.590472,-1.038139\C,0,-4.904107,-0
 .405032,-0.368444\O,0,-2.697371,-1.030518,1.879987\H,0,-2.239791,-0.72
 1944,2.678343\O,0,-1.325386,1.702023,-0.215067\C,0,-1.845054,2.89517,0
 .338968\H,0,-2.941533,2.885594,0.394526\H,0,-1.538501,3.706686,-0.3265
 31\H,0,-1.433313,3.087112,1.343012\O,0,0.801248,-0.069114,-0.340706\Si
 ,0,2.232993,-0.653832,0.307064\C,0,2.155004,-0.621329,2.20032\H,0,3.06
 752,-1.037343,2.644257\H,0,1.315686,-1.223057,2.571445\H,0,2.030472,0.
 397004,2.585968\C,0,3.565045,0.535136,-0.372825\C,0,2.519107,-2.441314
 ,-0.246273\H,0,3.44862,-2.847166,0.171589\H,0,2.578839,-2.522096,-1.33
 7383\H,0,1.702855,-3.093704,0.088759\C,0,3.58089,0.46745,-1.915267\H,0
 ,3.84457,-0.533464,-2.27886\H,0,4.325665,1.168118,-2.320461\H,0,2.6062
 01,0.733635,-2.338525\C,0,4.958677,0.150519,0.168185\H,0,5.252788,-0.8
 63936,-0.129489\H,0,5.006091,0.205049,1.263052\H,0,5.722707,0.83724,-0
 .224104\C,0,3.230544,1.979747,0.058506\H,0,3.969202,2.682298,-0.354672
 \H,0,3.24899,2.094993,1.149632\H,0,2.239713,2.283926,-0.295699\H,0,-5.
 428197,-1.10214,-1.0228\H,0,-5.480213,-0.051617,0.487435\\Version=EM64
 L-G09RevC.01\State=1-A\HF=-1140.6197933\RMSD=4.686e-09\Dipole=0.000422
 4,-0.4296994,1.3581536\Quadrupole=0.3115924,-0.4347755,0.1231831,-0.00
 94165,-3.0402842,5.3690586\PG=C01 [X(C14H28O4Si1)]\\@


 IT IS A SIMPLE TASK TO MAKE THINGS COMPLEX,
 BUT A COMPLEX TASK TO MAKE THEM SIMPLE.
 Job cpu time:  0 days  3 hours 27 minutes 45.3 seconds.
 File lengths (MBytes):  RWF=    305 Int=      0 D2E=      0 Chk=     16 Scr=      1
 Normal termination of Gaussian 09 at Tue Dec  6 22:44:19 2022.
