 Entering Gaussian System, Link 0=g09
 Input=/home/eluciano.iquir/todos_optB3L_MPW_B_PCM/02_epoxido28_007_optB3L_nmr_MPW_B_PCM.gjc
 Output=/home/eluciano.iquir/todos_optB3L_MPW_B_PCM/02_epoxido28_007_optB3L_nmr_MPW_B_PCM.log
 Initial command:
 /share/apps/Gaussian09/EM64T.SSE4.2-enabled/g09/l1.exe /tmp/Gau-35223.inp -scrdir=/tmp/
 Entering Link 1 = /share/apps/Gaussian09/EM64T.SSE4.2-enabled/g09/l1.exe PID=     35224.
  
 Copyright (c) 1988,1990,1992,1993,1995,1998,2003,2009,2011,
            Gaussian, Inc.  All Rights Reserved.
  
 This is part of the Gaussian(R) 09 program.  It is based on
 the Gaussian(R) 03 system (copyright 2003, Gaussian, Inc.),
 the Gaussian(R) 98 system (copyright 1998, Gaussian, Inc.),
 the Gaussian(R) 94 system (copyright 1995, Gaussian, Inc.),
 the Gaussian 92(TM) system (copyright 1992, Gaussian, Inc.),
 the Gaussian 90(TM) system (copyright 1990, Gaussian, Inc.),
 the Gaussian 88(TM) system (copyright 1988, Gaussian, Inc.),
 the Gaussian 86(TM) system (copyright 1986, Carnegie Mellon
 University), and the Gaussian 82(TM) system (copyright 1983,
 Carnegie Mellon University). Gaussian is a federally registered
 trademark of Gaussian, Inc.
  
 This software contains proprietary and confidential information,
 including trade secrets, belonging to Gaussian, Inc.
  
 This software is provided under written license and may be
 used, copied, transmitted, or stored only in accord with that
 written license.
  
 The following legend is applicable only to US Government
 contracts under FAR:
  
                    RESTRICTED RIGHTS LEGEND
  
 Use, reproduction and disclosure by the US Government is
 subject to restrictions as set forth in subparagraphs (a)
 and (c) of the Commercial Computer Software - Restricted
 Rights clause in FAR 52.227-19.
  
 Gaussian, Inc.
 340 Quinnipiac St., Bldg. 40, Wallingford CT 06492
  
  
 ---------------------------------------------------------------
 Warning -- This program may not be used in any manner that
 competes with the business of Gaussian, Inc. or will provide
 assistance to any competitor of Gaussian, Inc.  The licensee
 of this program is prohibited from giving any competitor of
 Gaussian, Inc. access to this program.  By using this program,
 the user acknowledges that Gaussian, Inc. is engaged in the
 business of creating and licensing software in the field of
 computational chemistry and represents and warrants to the
 licensee that it is not a competitor of Gaussian, Inc. and that
 it will not use this program in any manner prohibited above.
 ---------------------------------------------------------------
  

 Cite this work as:
 Gaussian 09, Revision C.01,
 M. J. Frisch, G. W. Trucks, H. B. Schlegel, G. E. Scuseria, 
 M. A. Robb, J. R. Cheeseman, G. Scalmani, V. Barone, B. Mennucci, 
 G. A. Petersson, H. Nakatsuji, M. Caricato, X. Li, H. P. Hratchian, 
 A. F. Izmaylov, J. Bloino, G. Zheng, J. L. Sonnenberg, M. Hada, 
 M. Ehara, K. Toyota, R. Fukuda, J. Hasegawa, M. Ishida, T. Nakajima, 
 Y. Honda, O. Kitao, H. Nakai, T. Vreven, J. A. Montgomery, Jr., 
 J. E. Peralta, F. Ogliaro, M. Bearpark, J. J. Heyd, E. Brothers, 
 K. N. Kudin, V. N. Staroverov, T. Keith, R. Kobayashi, J. Normand, 
 K. Raghavachari, A. Rendell, J. C. Burant, S. S. Iyengar, J. Tomasi, 
 M. Cossi, N. Rega, J. M. Millam, M. Klene, J. E. Knox, J. B. Cross, 
 V. Bakken, C. Adamo, J. Jaramillo, R. Gomperts, R. E. Stratmann, 
 O. Yazyev, A. J. Austin, R. Cammi, C. Pomelli, J. W. Ochterski, 
 R. L. Martin, K. Morokuma, V. G. Zakrzewski, G. A. Voth, 
 P. Salvador, J. J. Dannenberg, S. Dapprich, A. D. Daniels, 
 O. Farkas, J. B. Foresman, J. V. Ortiz, J. Cioslowski, 
 and D. J. Fox, Gaussian, Inc., Wallingford CT, 2010.
 
 ******************************************
 Gaussian 09:  EM64L-G09RevC.01 23-Sep-2011
                 6-Dec-2022 
 ******************************************
 %nprocshared=4
 Will use up to    4 processors via shared memory.
 %mem=80MW
 -----------------------------------------------------
 # mPW1PW91/6-31+g** scrf=(PCM,solvent=chloroform) nmr
 -----------------------------------------------------
 1/38=1/1;
 2/12=2,17=6,18=5,40=1/2;
 3/5=1,6=6,7=111,11=2,16=1,25=1,30=1,70=2201,72=7,74=-7/1,2,8,3;
 4//1;
 5/5=2,38=5,53=7/2;
 8/6=1,10=90,11=11/1;
 10/13=100,45=16/2;
 6/7=2,8=2,9=2,10=2,28=1/1;
 99/9=1/99;
 -------
 comment
 -------
 Charge =  0 Multiplicity = 1
 Symbolic Z-Matrix:
 1                     0.1263    0.81273  -1.94799 
 6                     0.53969   0.1777   -1.1505 
 6                     1.86863  -1.9417   -0.70513 
 6                     2.28346   0.13111   0.71448 
 6                     2.86873  -1.1429    0.11666 
 6                     1.63031   0.96347  -0.40098 
 6                     1.18074  -1.07348  -1.7731 
 1                     1.10728  -2.3473   -0.02812 
 1                     1.50409  -0.15539   1.43662 
 1                     2.42046   1.2291   -1.12132 
 1                     1.91058  -0.758    -2.53136 
 1                     2.3775   -2.79554  -1.16479 
 1                     0.40542  -1.64964  -2.28953 
 8                     3.70606  -1.91539   0.98155 
 6                     4.31656  -1.24408  -0.13392 
 8                     3.29413   0.89099   1.35363 
 1                     2.86571   1.73418   1.57731 
 8                     1.14481   2.16221   0.20995 
 6                     1.20699   3.3106   -0.62118 
 1                     2.24171   3.52864  -0.92439 
 1                     0.82153   4.1481   -0.0341 
 1                     0.59264   3.2015   -1.52583 
 8                    -0.49607  -0.2372   -0.27388 
 14                   -1.96301   0.49183   0.12076 
 6                    -1.81888   1.37178   1.78265 
 1                    -2.74682   1.89299   2.04763 
 1                    -1.00993   2.10796   1.74065 
 1                    -1.58576   0.67094   2.59247 
 6                    -3.21894  -0.95191   0.21476 
 6                    -2.45839   1.73917  -1.21543 
 1                    -3.47366   2.11012  -1.02903 
 1                    -2.45005   1.30366  -2.22132 
 1                    -1.79502   2.6116   -1.22093 
 6                    -3.36931  -1.61524  -1.17072 
 1                    -3.75651  -0.91506  -1.92137 
 1                    -4.07332  -2.45852  -1.1187 
 1                    -2.41293  -2.00659  -1.53681 
 6                    -4.59729  -0.42755   0.67377 
 1                    -5.00619   0.32136  -0.01629 
 1                    -4.55547   0.02446   1.6723 
 1                    -5.32246  -1.25286   0.72131 
 6                    -2.72156  -2.00945   1.22366 
 1                    -3.42894  -2.85003   1.27835 
 1                    -2.62734  -1.59787   2.23596 
 1                    -1.74513  -2.41438   0.93545 
 1                     4.67691  -1.89838  -0.92949 
 1                     4.96569  -0.41346   0.13269 
 
                          Input orientation:                          
 ---------------------------------------------------------------------
 Center     Atomic      Atomic             Coordinates (Angstroms)
 Number     Number       Type             X           Y           Z
 ---------------------------------------------------------------------
      1          1           0        0.126296    0.812729   -1.947989
      2          6           0        0.539694    0.177697   -1.150503
      3          6           0        1.868632   -1.941696   -0.705129
      4          6           0        2.283462    0.131108    0.714479
      5          6           0        2.868726   -1.142903    0.116661
      6          6           0        1.630312    0.963473   -0.400978
      7          6           0        1.180741   -1.073476   -1.773100
      8          1           0        1.107281   -2.347300   -0.028119
      9          1           0        1.504089   -0.155394    1.436617
     10          1           0        2.420459    1.229101   -1.121319
     11          1           0        1.910575   -0.757996   -2.531361
     12          1           0        2.377500   -2.795540   -1.164793
     13          1           0        0.405421   -1.649639   -2.289530
     14          8           0        3.706057   -1.915388    0.981552
     15          6           0        4.316557   -1.244076   -0.133924
     16          8           0        3.294126    0.890993    1.353626
     17          1           0        2.865710    1.734184    1.577308
     18          8           0        1.144806    2.162210    0.209945
     19          6           0        1.206986    3.310599   -0.621179
     20          1           0        2.241712    3.528635   -0.924394
     21          1           0        0.821530    4.148101   -0.034100
     22          1           0        0.592638    3.201501   -1.525832
     23          8           0       -0.496070   -0.237199   -0.273877
     24         14           0       -1.963007    0.491831    0.120755
     25          6           0       -1.818881    1.371780    1.782654
     26          1           0       -2.746819    1.892993    2.047628
     27          1           0       -1.009929    2.107955    1.740654
     28          1           0       -1.585761    0.670940    2.592473
     29          6           0       -3.218936   -0.951913    0.214755
     30          6           0       -2.458391    1.739167   -1.215427
     31          1           0       -3.473660    2.110116   -1.029029
     32          1           0       -2.450050    1.303662   -2.221324
     33          1           0       -1.795016    2.611597   -1.220929
     34          6           0       -3.369310   -1.615237   -1.170718
     35          1           0       -3.756510   -0.915064   -1.921367
     36          1           0       -4.073316   -2.458521   -1.118704
     37          1           0       -2.412931   -2.006592   -1.536813
     38          6           0       -4.597286   -0.427549    0.673772
     39          1           0       -5.006193    0.321357   -0.016287
     40          1           0       -4.555473    0.024457    1.672299
     41          1           0       -5.322463   -1.252864    0.721312
     42          6           0       -2.721561   -2.009450    1.223656
     43          1           0       -3.428941   -2.850031    1.278351
     44          1           0       -2.627342   -1.597868    2.235962
     45          1           0       -1.745129   -2.414380    0.935450
     46          1           0        4.676906   -1.898375   -0.929490
     47          1           0        4.965688   -0.413464    0.132690
 ---------------------------------------------------------------------
                    Distance matrix (angstroms):
                    1          2          3          4          5
     1  H    0.000000
     2  C    1.100067   0.000000
     3  C    3.488165   2.540917   0.000000
     4  C    3.493810   2.553636   2.546348   0.000000
     5  C    3.950721   2.962107   1.521051   1.524147   0.000000
     6  C    2.162876   1.539051   2.930753   1.537427   2.497687
     7  C    2.167997   1.537531   1.538688   2.975746   2.534820
     8  H    3.825443   2.820906   1.096591   2.842070   2.138743
     9  H    3.780362   2.781042   2.812622   1.100449   2.140021
    10  H    2.473850   2.154897   3.245255   2.143481   2.712921
    11  H    2.447683   2.159075   2.176701   3.386005   2.842222
    12  H    4.324456   3.495407   1.095120   3.479335   2.148170
    13  H    2.501563   2.157445   2.176375   3.965119   3.480576
    14  O    5.370244   4.353449   2.494337   2.506641   1.430347
    15  C    5.007950   4.161678   2.608694   2.596997   1.472835
    16  O    4.576236   3.790297   3.780824   1.416819   2.418218
    17  H    4.558639   3.908191   4.440245   1.911371   3.226628
    18  O    2.741376   2.480982   4.266536   2.382534   3.728857
    19  C    3.027816   3.246619   5.294471   3.612748   4.810350
    20  H    3.591501   3.765206   5.487421   3.772378   4.827029
    21  H    3.907816   4.133993   6.215491   4.339798   5.675250
    22  H    2.470207   3.047469   5.362293   4.159951   5.172253
    23  O    2.071796   1.418950   2.946711   2.972927   3.506376
    24  Si   2.957679   2.824587   4.613631   4.302921   5.100786
    25  C    4.244284   3.948686   5.546705   4.416954   5.574300
    26  H    5.038523   4.896065   6.601886   5.494111   6.669306
    27  H    4.071204   3.806050   5.537837   3.975850   5.315016
    28  H    4.854589   4.332519   5.443609   4.334647   5.409448
    29  C    4.356834   4.155388   5.263953   5.630190   6.091447
    30  C    2.841750   3.380964   5.703708   5.366150   6.201529
    31  H    3.935401   4.456008   6.712837   6.332515   7.219460
    32  H    2.636908   3.369425   5.610901   5.692096   6.304065
    33  H    2.730564   3.373381   5.866928   5.150982   6.134811
    34  C    4.326480   4.300620   5.268718   6.209470   6.386982
    35  H    4.249960   4.499525   5.845976   6.672587   6.935360
    36  H    5.387535   5.313240   5.978704   7.104602   7.172791
    37  H    3.816453   3.693013   4.362074   5.629759   5.601414
    38  C    5.542937   5.484785   6.782485   6.903510   7.520867
    39  H    5.505939   5.662504   7.270429   7.328662   8.010998
    40  H    5.970496   5.826871   7.126503   6.906506   7.674729
    41  H    6.409432   6.317838   7.363496   7.730816   8.214212
    42  C    5.112173   4.588685   4.979425   5.467312   5.764343
    43  H    6.038608   5.551264   5.729184   6.468129   6.627550
    44  H    5.558682   4.964967   5.383495   5.424045   5.908062
    45  H    4.714943   4.036147   3.996773   4.770522   4.855381
    46  H    5.394022   4.634161   2.817555   3.542599   2.221415
    47  H    5.408557   4.646017   3.553757   2.798102   2.220268
                    6          7          8          9         10
     6  C    0.000000
     7  C    2.496797   0.000000
     8  H    3.372507   2.161708   0.000000
     9  H    2.155122   3.354059   2.665963   0.000000
    10  H    1.101718   2.695103   3.963605   3.049524   0.000000
    11  H    2.753277   1.098702   3.072033   4.034007   2.489328
    12  H    3.907926   2.183523   1.762499   3.807959   4.025105
    13  H    3.448962   1.095347   2.468465   4.162212   3.703004
    14  O    3.808930   3.830685   2.821280   2.855403   3.995327
    15  C    3.487191   3.542505   3.395254   3.400265   3.269058
    16  O    2.419125   4.254639   4.144641   2.075101   2.646311
    17  H    2.456383   4.684796   4.725249   2.333305   2.781357
    18  O    1.430354   3.795184   4.515945   2.646714   2.066458
    19  C    2.395140   4.532960   5.689770   4.041770   2.460750
    20  H    2.688462   4.798478   6.051186   4.437401   2.314862
    21  H    3.306143   5.515253   6.501686   4.598800   3.501311
    22  H    2.711242   4.322318   5.770372   4.568981   2.719361
    23  O    2.445254   2.399734   2.661514   2.633081   3.372586
    24  Si   3.661501   3.989991   4.184435   3.764458   4.615310
    25  C    4.102669   5.255511   5.066841   3.673436   5.140566
    26  H    5.100878   6.230861   6.094497   4.758092   6.097847
    27  H    3.587102   5.221782   5.240270   3.396391   4.553113
    28  H    4.403345   5.454791   4.819725   3.400883   5.491229
    29  C    5.250051   4.829441   4.552169   4.943112   6.192309
    30  C    4.240580   4.633060   5.551840   5.130687   4.906343
    31  H    5.268754   5.687912   6.469575   5.999161   5.960314
    32  H    4.480931   4.362835   5.549259   5.580734   4.993739
    33  H    3.888638   4.768625   5.868286   5.059929   4.437505
    34  C    5.677893   4.621616   4.677747   5.716586   6.450901
    35  H    5.904095   4.942016   5.412222   6.287055   6.587296
    36  H    6.690033   5.472815   5.295312   6.552977   7.467776
    37  H    5.143853   3.720352   3.845014   5.254642   5.831295
    38  C    6.470936   6.307932   6.059718   6.154899   7.430719
    39  H    6.678585   6.581041   6.670565   6.687450   7.563085
    40  H    6.591219   6.780884   6.370513   6.066810   7.610460
    41  H    7.383276   6.967491   6.565139   6.951109   8.337163
    42  C    5.515116   5.008448   4.042414   4.619415   6.513639
    43  H    6.554312   5.806606   4.747306   5.623247   7.524175
    44  H    5.625081   5.554193   4.431153   4.448416   6.689050
    45  H    4.958783   4.206540   3.011513   3.988935   5.904014
    46  H    4.213221   3.689892   3.708939   4.324721   3.861277
    47  H    3.647669   4.288761   4.318899   3.708031   3.278528
                   11         12         13         14         15
    11  H    0.000000
    12  H    2.497421   0.000000
    13  H    1.766069   2.543073   0.000000
    14  O    4.111432   2.673299   4.654546   0.000000
    15  C    3.431141   2.688805   4.484206   1.437935   0.000000
    16  O    4.441453   4.557759   5.298303   2.860752   2.795834
    17  H    4.899429   5.317506   5.696992   3.792161   3.728714
    18  O    4.077838   5.290437   4.617820   4.876699   4.667016
    19  C    4.549428   6.241038   5.294324   6.010411   5.536417
    20  H    4.589902   6.330199   5.661279   5.950993   5.263895
    21  H    5.611784   7.205113   6.234894   6.791019   6.426566
    22  H    4.292512   6.267422   4.914453   6.493297   5.963903
    23  O    3.340569   3.949208   2.621170   4.695774   4.918818
    24  Si   4.858027   5.594590   4.000602   6.218839   6.520058
    25  C    6.087324   6.607845   5.537073   6.478594   6.939710
    26  H    7.048844   7.652492   6.426336   7.568348   8.030669
    27  H    5.915499   6.630276   5.689034   6.245322   6.566704
    28  H    6.365524   6.468460   5.760542   6.106349   6.777749
    29  C    5.821567   6.051629   4.460295   7.033619   7.549211
    30  C    5.201478   6.629628   4.564989   7.495526   7.481264
    31  H    6.282759   7.636751   5.547242   8.473220   8.528734
    32  H    4.833385   6.420666   4.108571   7.649729   7.525635
    33  H    5.177141   6.830093   4.913447   7.456965   7.307470
    34  C    5.519366   5.866769   3.937197   7.401566   7.764358
    35  H    5.701983   6.460238   4.242265   8.069541   8.275120
    36  H    6.379211   6.459778   4.699384   8.076182   8.534321
    37  H    4.608777   4.869196   2.938895   6.617590   6.916324
    38  C    7.261841   7.591794   5.941527   8.441202   8.987529
    39  H    7.438567   8.096483   6.191771   9.049973   9.453998
    40  H    7.751952   8.004223   6.565756   8.514283   9.142458
    41  H    7.946170   8.076303   6.483152   9.056536   9.676891
    42  C    6.092863   5.685336   4.716986   6.432864   7.208601
    43  H    6.884835   6.299736   5.373365   7.202072   8.035319
    44  H    6.635167   6.168306   5.447973   6.464233   7.345697
    45  H    5.303448   4.642453   3.950973   5.474171   6.265557
    46  H    3.393971   2.479423   4.489673   2.143576   1.091276
    47  H    4.068118   3.749195   5.309549   2.136121   1.087369
                   16         17         18         19         20
    16  O    0.000000
    17  H    0.971877   0.000000
    18  O    2.746557   2.239285   0.000000
    19  C    3.756395   3.173294   1.418954   0.000000
    20  H    3.640619   3.141328   2.087354   1.100062   0.000000
    21  H    4.318364   3.549972   2.026778   1.092999   1.786975
    22  H    4.574687   4.116959   2.097126   1.098964   1.785550
    23  O    4.276350   4.314487   2.946815   3.950682   4.701077
    24  Si   5.414494   5.194372   3.529394   4.306364   5.290952
    25  C    5.153451   4.703073   3.446975   4.323575   5.335593
    26  H    6.162683   5.634439   4.312111   4.976416   6.032718
    27  H    4.489507   3.897046   2.643652   3.455332   4.437790
    28  H    5.039490   4.687925   3.918714   5.009470   5.931638
    29  C    6.863913   6.789299   5.360973   6.201337   7.154834
    30  C    6.356956   6.012108   3.897907   4.032061   5.037645
    31  H    7.277790   6.864541   4.782050   4.849324   5.889705
    32  H    6.778357   6.547691   4.423931   4.467905   5.352118
    33  H    5.957195   5.506573   3.300288   3.140115   4.150189
    34  C    7.553468   7.592479   6.045873   6.745987   7.616014
    35  H    7.981158   7.944372   6.167253   6.647030   7.531207
    36  H    8.462320   8.543848   7.095439   7.836572   8.704216
    37  H    7.022901   7.180195   5.752179   6.497284   7.258064
    38  C    8.029641   7.822134   6.316139   7.024260   8.060857
    39  H    8.431871   8.154905   6.424540   6.921348   7.977682
    40  H    7.903711   7.616177   6.261122   7.018882   8.076125
    41  H    8.901772   8.757931   7.331425   8.078439   9.098781
    42  C    6.679667   6.734795   5.777469   6.865844   7.740709
    43  H    7.694190   7.792755   6.869004   7.940617   8.814520
    44  H    6.483574   6.458329   5.698424   6.852618   7.744454
    45  H    6.041064   6.235575   5.461067   6.626723   7.394143
    46  H    3.860735   4.770739   5.501127   6.266483   5.948330
    47  H    2.446715   3.333050   4.608601   5.344605   4.906895
                   21         22         23         24         25
    21  H    0.000000
    22  H    1.781490   0.000000
    23  O    4.585239   3.818028   0.000000
    24  Si   4.598471   4.072454   1.684970   0.000000
    25  C    4.240321   4.484349   2.927108   1.885999   0.000000
    26  H    4.706614   5.062982   3.872076   2.508078   1.096788
    27  H    3.265913   3.799210   3.134028   2.478767   1.094587
    28  H    4.978412   5.301848   3.198141   2.506748   1.096051
    29  C    6.511331   5.899880   2.857197   1.915878   3.133370
    30  C    4.237497   3.397580   2.939939   1.893841   3.087464
    31  H    4.857152   4.239424   3.866030   2.494579   3.344995
    32  H    4.855720   3.652869   3.159880   2.526186   4.053992
    33  H    3.258177   2.478274   3.271056   2.514308   3.249496
    34  C    7.216031   6.246927   3.310411   2.843471   4.477556
    35  H    7.082081   6.001470   3.715399   3.060436   4.764854
    36  H    8.293572   7.346613   4.294729   3.833307   5.307689
    37  H    7.113377   6.013135   2.898295   3.031844   4.773380
    38  C    7.127498   6.703997   4.213579   2.844383   3.490951
    39  H    6.971846   6.474632   4.551873   3.051036   3.807694
    40  H    6.987732   6.842857   4.509414   3.057222   3.052277
    41  H    8.215213   7.738181   5.031505   3.832828   4.504474
    42  C    7.214629   6.760001   3.215010   2.836935   3.544013
    43  H    8.292339   7.788298   4.223510   3.828450   4.546460
    44  H    7.075596   6.895891   3.562728   3.046684   3.110933
    45  H    7.112940   6.562102   2.786169   3.026097   3.880490
    46  H    7.226723   6.560915   5.472569   7.134742   7.761758
    47  H    6.165204   5.911196   5.479705   6.987597   7.206931
                   26         27         28         29         30
    26  H    0.000000
    27  H    1.776859   0.000000
    28  H    1.771532   1.766972   0.000000
    29  C    3.416988   4.070734   3.309752   0.000000
    30  C    3.279387   3.312471   4.050024   3.140981   0.000000
    31  H    3.168794   3.706902   4.330204   3.314801   1.096868
    32  H    4.319645   4.291632   4.931529   3.407827   1.096158
    33  H    3.479337   3.104994   4.283920   4.097236   1.096007
    34  C    4.801346   5.282511   4.750711   1.543420   3.476176
    35  H    4.965640   5.485686   5.253790   2.203034   3.037829
    36  H    5.542646   6.197820   5.454749   2.185851   4.498658
    37  H    5.307208   5.444236   4.990430   2.197722   3.759796
    38  C    3.270569   4.520636   3.735957   1.544507   3.583100
    39  H    3.440139   4.716874   4.315923   2.206555   3.152684
    40  H    2.627457   4.112970   3.175508   2.205462   3.959412
    41  H    4.276619   5.561664   4.600566   2.184490   4.572321
    42  C    3.988562   4.488875   3.216861   1.543907   4.480013
    43  H    4.853180   5.535970   4.185865   2.185907   5.312404
    44  H    3.497979   4.073632   2.521801   2.202843   4.803794
    45  H    4.560020   4.651923   3.505756   2.197798   4.731487
    46  H    8.851519   7.451204   7.630636   8.034265   8.014108
    47  H    8.274630   6.682148   7.081522   8.202727   7.846540
                   31         32         33         34         35
    31  H    0.000000
    32  H    1.766271   0.000000
    33  H    1.762429   1.772161   0.000000
    34  C    3.729507   3.235550   4.510770   0.000000
    35  H    3.166699   2.592211   4.095780   1.097105   0.000000
    36  H    4.608695   4.243204   5.559424   1.099754   1.768302
    37  H    4.281387   3.380490   4.670040   1.096287   1.773279
    38  C    3.256042   3.998662   4.547419   2.514095   2.771159
    39  H    2.563974   3.515818   4.124078   2.786125   2.592253
    40  H    3.580149   4.607545   4.762792   3.489746   3.799405
    41  H    4.217985   4.842075   5.581151   2.743337   3.090319
    42  C    4.755110   4.787308   5.309290   2.511575   3.487115
    43  H    5.470746   5.518978   6.224588   2.743394   3.753611
    44  H    5.012541   5.321438   5.510214   3.486587   4.361723
    45  H    5.226668   4.928080   5.469269   2.777145   3.801974
    46  H    9.083481   7.919304   7.893704   8.054809   8.548288
    47  H    8.884855   7.967627   7.529303   8.521462   8.974825
                   36         37         38         39         40
    36  H    0.000000
    37  H    1.770857   0.000000
    38  C    2.759051   3.485896   0.000000
    39  H    3.132619   3.802151   1.097382   0.000000
    40  H    3.766610   4.360510   1.096865   1.772744   0.000000
    41  H    2.529750   3.759336   1.099676   1.766989   1.767540
    42  C    2.741452   2.777670   2.514583   3.491370   2.775120
    43  H    2.512841   3.109472   2.756622   3.771142   3.112387
    44  H    3.753045   3.800902   2.773223   3.796707   2.582120
    45  H    3.105149   2.593132   3.485796   4.361720   3.793271
    46  H    8.770174   7.116624   9.525986   9.976149   9.782812
    47  H    9.351569   7.731062   9.578280  10.000028   9.654775
                   41         42         43         44         45
    41  H    0.000000
    42  C    2.754898   0.000000
    43  H    2.539027   1.099979   0.000000
    44  H    3.110767   1.096832   1.768472   0.000000
    45  H    3.767266   1.095651   1.772737   1.770967   0.000000
    46  H   10.155255   7.706211   8.454878   7.966331   6.707220
    47  H   10.339106   7.926612   8.815849   7.967476   7.048628
                   46         47
    46  H    0.000000
    47  H    1.848400   0.000000
 Stoichiometry    C14H28O4Si
 Framework group  C1[X(C14H28O4Si)]
 Deg. of freedom   135
 Full point group                 C1      NOp   1
 Largest Abelian subgroup         C1      NOp   1
 Largest concise Abelian subgroup C1      NOp   1
                         Standard orientation:                         
 ---------------------------------------------------------------------
 Center     Atomic      Atomic             Coordinates (Angstroms)
 Number     Number       Type             X           Y           Z
 ---------------------------------------------------------------------
      1          1           0       -0.126296    0.812729    1.947989
      2          6           0       -0.539694    0.177697    1.150503
      3          6           0       -1.868632   -1.941696    0.705129
      4          6           0       -2.283462    0.131108   -0.714479
      5          6           0       -2.868726   -1.142903   -0.116661
      6          6           0       -1.630312    0.963473    0.400978
      7          6           0       -1.180741   -1.073476    1.773100
      8          1           0       -1.107281   -2.347300    0.028119
      9          1           0       -1.504089   -0.155394   -1.436617
     10          1           0       -2.420459    1.229101    1.121319
     11          1           0       -1.910575   -0.757996    2.531361
     12          1           0       -2.377500   -2.795540    1.164793
     13          1           0       -0.405421   -1.649639    2.289530
     14          8           0       -3.706057   -1.915388   -0.981552
     15          6           0       -4.316557   -1.244076    0.133924
     16          8           0       -3.294126    0.890993   -1.353626
     17          1           0       -2.865710    1.734184   -1.577308
     18          8           0       -1.144806    2.162210   -0.209945
     19          6           0       -1.206986    3.310599    0.621179
     20          1           0       -2.241712    3.528635    0.924394
     21          1           0       -0.821530    4.148101    0.034100
     22          1           0       -0.592638    3.201501    1.525832
     23          8           0        0.496070   -0.237199    0.273877
     24         14           0        1.963007    0.491831   -0.120755
     25          6           0        1.818881    1.371780   -1.782654
     26          1           0        2.746819    1.892993   -2.047628
     27          1           0        1.009929    2.107955   -1.740654
     28          1           0        1.585761    0.670940   -2.592473
     29          6           0        3.218936   -0.951913   -0.214755
     30          6           0        2.458391    1.739167    1.215427
     31          1           0        3.473660    2.110116    1.029029
     32          1           0        2.450050    1.303662    2.221324
     33          1           0        1.795016    2.611597    1.220929
     34          6           0        3.369310   -1.615237    1.170718
     35          1           0        3.756510   -0.915064    1.921367
     36          1           0        4.073316   -2.458521    1.118704
     37          1           0        2.412931   -2.006592    1.536813
     38          6           0        4.597286   -0.427549   -0.673772
     39          1           0        5.006193    0.321357    0.016287
     40          1           0        4.555473    0.024457   -1.672299
     41          1           0        5.322463   -1.252864   -0.721312
     42          6           0        2.721561   -2.009450   -1.223656
     43          1           0        3.428941   -2.850031   -1.278351
     44          1           0        2.627342   -1.597868   -2.235962
     45          1           0        1.745129   -2.414380   -0.935450
     46          1           0       -4.676906   -1.898375    0.929490
     47          1           0       -4.965688   -0.413464   -0.132690
 ---------------------------------------------------------------------
 Rotational constants (GHZ):      0.5369366      0.2230860      0.1912986
 Standard basis: 6-31+G(d,p) (6D, 7F)
 There are   505 symmetry adapted basis functions of A   symmetry.
 Integral buffers will be    131072 words long.
 Raffenetti 2 integral format.
 Two-electron integral symmetry is turned on.
   505 basis functions,   828 primitive gaussians,   505 cartesian basis functions
    79 alpha electrons       79 beta electrons
       nuclear repulsion energy      1827.8656973225 Hartrees.
 NAtoms=   47 NActive=   47 NUniq=   47 SFac= 1.00D+00 NAtFMM=   60 NAOKFM=F Big=F
 ------------------------------------------------------------------------------
 Polarizable Continuum Model (PCM)
 =================================
 Model                : PCM.
 Atomic radii         : UFF (Universal Force Field).
 Polarization charges : Total charges.
 Charge compensation  : None.
 Solution method      : Matrix inversion.
 Cavity type          : Scaled VdW (van der Waals Surface) (Alpha=1.100).
 Cavity algorithm     : GePol (No added spheres)
                        Default sphere list used, NSphG=   47.
                        Lebedev-Laikov grids with approx.  5.0 points / Ang**2.
                        Smoothing algorithm: Karplus/York (Gamma=1.0000).
                        Polarization charges: spherical gaussians, with
                                              point-specific exponents (IZeta= 3).
                        Self-potential: point-specific (ISelfS= 7).
                        Self-field    : sphere-specific E.n sum rule (ISelfD= 2).
 Solvent              : Chloroform, Eps=   4.711300 Eps(inf)=   2.090627
 ------------------------------------------------------------------------------
 One-electron integrals computed using PRISM.
 NBasis=   505 RedAO= T  NBF=   505
 NBsUse=   505 1.00D-06 NBFU=   505
 Harris functional with IExCor=  908 diagonalized for initial guess.
 ExpMin= 3.31D-02 ExpMax= 1.61D+04 ExpMxC= 2.43D+03 IAcc=3 IRadAn=         5 AccDes= 0.00D+00
 HarFok:  IExCor=  908 AccDes= 0.00D+00 IRadAn=         5 IDoV= 1
 ScaDFX=  1.000000  1.000000  1.000000  1.000000
 FoFCou: FMM=F IPFlag=           0 FMFlag=      100000 FMFlg1=           0
         NFxFlg=           0 DoJE=T BraDBF=F KetDBF=T FulRan=T
         Omega=  0.000000  0.000000  1.000000  0.000000  0.000000 ICntrl=     500 IOpCl=  0
         NMat0=    1 NMatS0=    1 NMatT0=    0 NMatD0=    1 NMtDS0=    0 NMtDT0=    0
         I1Cent=           4 NGrid=           0.
 Petite list used in FoFCou.
 Initial guess orbital symmetries:
       Occupied  (A) (A) (A) (A) (A) (A) (A) (A) (A) (A) (A) (A)
                 (A) (A) (A) (A) (A) (A) (A) (A) (A) (A) (A) (A)
                 (A) (A) (A) (A) (A) (A) (A) (A) (A) (A) (A) (A)
                 (A) (A) (A) (A) (A) (A) (A) (A) (A) (A) (A) (A)
                 (A) (A) (A) (A) (A) (A) (A) (A) (A) (A) (A) (A)
                 (A) (A) (A) (A) (A) (A) (A) (A) (A) (A) (A) (A)
                 (A) (A) (A) (A) (A) (A) (A)
       Virtual   (A) (A) (A) (A) (A) (A) (A) (A) (A) (A) (A) (A)
                 (A) (A) (A) (A) (A) (A) (A) (A) (A) (A) (A) (A)
                 (A) (A) (A) (A) (A) (A) (A) (A) (A) (A) (A) (A)
                 (A) (A) (A) (A) (A) (A) (A) (A) (A) (A) (A) (A)
                 (A) (A) (A) (A) (A) (A) (A) (A) (A) (A) (A) (A)
                 (A) (A) (A) (A) (A) (A) (A) (A) (A) (A) (A) (A)
                 (A) (A) (A) (A) (A) (A) (A) (A) (A) (A) (A) (A)
                 (A) (A) (A) (A) (A) (A) (A) (A) (A) (A) (A) (A)
                 (A) (A) (A) (A) (A) (A) (A) (A) (A) (A) (A) (A)
                 (A) (A) (A) (A) (A) (A) (A) (A) (A) (A) (A) (A)
                 (A) (A) (A) (A) (A) (A) (A) (A) (A) (A) (A) (A)
                 (A) (A) (A) (A) (A) (A) (A) (A) (A) (A) (A) (A)
                 (A) (A) (A) (A) (A) (A) (A) (A) (A) (A) (A) (A)
                 (A) (A) (A) (A) (A) (A) (A) (A) (A) (A) (A) (A)
                 (A) (A) (A) (A) (A) (A) (A) (A) (A) (A) (A) (A)
                 (A) (A) (A) (A) (A) (A) (A) (A) (A) (A) (A) (A)
                 (A) (A) (A) (A) (A) (A) (A) (A) (A) (A) (A) (A)
                 (A) (A) (A) (A) (A) (A) (A) (A) (A) (A) (A) (A)
                 (A) (A) (A) (A) (A) (A) (A) (A) (A) (A) (A) (A)
                 (A) (A) (A) (A) (A) (A) (A) (A) (A) (A) (A) (A)
                 (A) (A) (A) (A) (A) (A) (A) (A) (A) (A) (A) (A)
                 (A) (A) (A) (A) (A) (A) (A) (A) (A) (A) (A) (A)
                 (A) (A) (A) (A) (A) (A) (A) (A) (A) (A) (A) (A)
                 (A) (A) (A) (A) (A) (A) (A) (A) (A) (A) (A) (A)
                 (A) (A) (A) (A) (A) (A) (A) (A) (A) (A) (A) (A)
                 (A) (A) (A) (A) (A) (A) (A) (A) (A) (A) (A) (A)
                 (A) (A) (A) (A) (A) (A) (A) (A) (A) (A) (A) (A)
                 (A) (A) (A) (A) (A) (A) (A) (A) (A) (A) (A) (A)
                 (A) (A) (A) (A) (A) (A) (A) (A) (A) (A) (A) (A)
                 (A) (A) (A) (A) (A) (A) (A) (A) (A) (A) (A) (A)
                 (A) (A) (A) (A) (A) (A) (A) (A) (A) (A) (A) (A)
                 (A) (A) (A) (A) (A) (A) (A) (A) (A) (A) (A) (A)
                 (A) (A) (A) (A) (A) (A) (A) (A) (A) (A) (A) (A)
                 (A) (A) (A) (A) (A) (A) (A) (A) (A) (A) (A) (A)
                 (A) (A) (A) (A) (A) (A) (A) (A) (A) (A) (A) (A)
                 (A) (A) (A) (A) (A) (A)
 The electronic state of the initial guess is 1-A.
 Requested convergence on RMS density matrix=1.00D-08 within 128 cycles.
 Requested convergence on MAX density matrix=1.00D-06.
 Requested convergence on             energy=1.00D-06.
 No special actions if energy rises.
 Error on total polarization charges =  0.01547
 SCF Done:  E(RmPW1PW91) =  -1140.62565091     A.U. after   13 cycles
             Convg  =    0.4365D-08             -V/T =  2.0080
 Range of M.O.s used for correlation:     1   505
 NBasis=   505 NAE=    79 NBE=    79 NFC=     0 NFV=     0
 NROrb=    505 NOA=    79 NOB=    79 NVA=   426 NVB=   426

 **** Warning!!: The largest alpha MO coefficient is  0.89964717D+02

 NEqPCM:  Using equilibrium solvation (IEInf=0, Eps=   4.7113, EpsInf=   2.0906)
          Differentiating once with respect to magnetic field using GIAOs.
          Electric field/nuclear overlap derivatives assumed to be zero.
 FoFCou: FMM=F IPFlag=           0 FMFlag=    10101102 FMFlg1=           0
         NFxFlg=    40000000 DoJE=F BraDBF=F KetDBF=T FulRan=T
         Omega=  0.000000  0.000000  1.000000  0.000000  0.000000 ICntrl=    6100 IOpCl=  0
         NMat0=    1 NMatS0=    1 NMatT0=    0 NMatD0=    1 NMtDS0=    0 NMtDT0=    0
         I1Cent=           7 NGrid=        3018.
 Symmetry not used in FoFCou.
          There are     3 degrees of freedom in the 1st order CPHF.  IDoFFX=0.
      3 vectors produced by pass  0 Test12= 1.12D-12 3.33D-08 XBig12= 1.48D+02 1.69D+00.
 AX will form     3 AO Fock derivatives at one time.
      3 vectors produced by pass  1 Test12= 1.12D-12 3.33D-08 XBig12= 3.88D-01 9.60D-02.
      3 vectors produced by pass  2 Test12= 1.12D-12 3.33D-08 XBig12= 7.87D-04 4.37D-03.
      3 vectors produced by pass  3 Test12= 1.12D-12 3.33D-08 XBig12= 3.25D-06 2.87D-04.
      3 vectors produced by pass  4 Test12= 1.12D-12 3.33D-08 XBig12= 1.32D-08 1.68D-05.
      3 vectors produced by pass  5 Test12= 1.12D-12 3.33D-08 XBig12= 3.84D-11 7.71D-07.
      1 vectors produced by pass  6 Test12= 1.12D-12 3.33D-08 XBig12= 1.28D-13 3.62D-08.
 Inverted reduced A of dimension    19 with in-core refinement.
 Calculating GIAO nuclear magnetic shielding tensors.
 SCF GIAO Magnetic shielding tensor (ppm):
      1  H    Isotropic =    27.1949   Anisotropy =     3.6653
   XX=    27.9467   YX=     0.4138   ZX=    -1.9491
   XY=     1.2441   YY=    25.9943   ZY=     2.0604
   XZ=    -0.2131   YZ=     3.1084   ZZ=    27.6438
   Eigenvalues:    23.7014    28.2449    29.6384
      2  C    Isotropic =   127.1335   Anisotropy =    52.7711
   XX=   140.6337   YX=   -14.7868   ZX=   -28.6296
   XY=    -8.7420   YY=   116.4989   ZY=    -2.6030
   XZ=   -24.7854   YZ=     2.1088   ZZ=   124.2679
   Eigenvalues:   100.8671   118.2191   162.3142
      3  C    Isotropic =   166.4109   Anisotropy =    31.8665
   XX=   166.4978   YX=     0.8572   ZX=    21.2757
   XY=    -3.8078   YY=   169.9399   ZY=   -11.2269
   XZ=    15.8797   YZ=   -10.7218   ZZ=   162.7949
   Eigenvalues:   143.8714   167.7059   187.6552
      4  C    Isotropic =   127.0660   Anisotropy =    39.1950
   XX=   128.5627   YX=    -6.5408   ZX=    10.7734
   XY=   -18.3051   YY=   133.2530   ZY=   -13.1755
   XZ=    18.6014   YZ=    -9.0359   ZZ=   119.3824
   Eigenvalues:   108.4260   119.5760   153.1960
      5  C    Isotropic =   135.4871   Anisotropy =    60.4773
   XX=    91.8343   YX=    -7.5478   ZX=    13.7583
   XY=    -5.3423   YY=   165.3690   ZY=   -16.4747
   XZ=    17.8068   YZ=   -11.7249   ZZ=   149.2581
   Eigenvalues:    87.6814   142.9747   175.8053
      6  C    Isotropic =   107.4140   Anisotropy =    40.5149
   XX=   105.0084   YX=     8.2446   ZX=     1.7338
   XY=    19.6574   YY=   122.7475   ZY=    -8.4176
   XZ=    -8.7616   YZ=   -16.5305   ZZ=    94.4863
   Eigenvalues:    89.4997    98.3185   134.4239
      7  C    Isotropic =   163.7857   Anisotropy =    20.0749
   XX=   164.1409   YX=     5.1765   ZX=    -7.9924
   XY=     9.6230   YY=   166.9511   ZY=    -9.8705
   XZ=    -3.3550   YZ=    -2.3190   ZZ=   160.2650
   Eigenvalues:   156.0791   158.1089   177.1689
      8  H    Isotropic =    29.0391   Anisotropy =     6.4725
   XX=    31.7118   YX=    -1.1091   ZX=    -1.2206
   XY=    -2.2118   YY=    29.7590   ZY=     3.1147
   XZ=    -0.9104   YZ=     2.0643   ZZ=    25.6465
   Eigenvalues:    24.3878    29.3754    33.3541
      9  H    Isotropic =    27.3877   Anisotropy =     6.2860
   XX=    31.1590   YX=    -1.9875   ZX=     0.1956
   XY=    -1.3645   YY=    24.7579   ZY=     0.6155
   XZ=     0.2007   YZ=    -0.6301   ZZ=    26.2461
   Eigenvalues:    24.3448    26.2399    31.5783
     10  H    Isotropic =    28.6942   Anisotropy =     4.2066
   XX=    28.8100   YX=     0.3417   ZX=    -1.5953
   XY=     2.0016   YY=    30.6564   ZY=    -1.4427
   XZ=    -2.0854   YZ=     0.8545   ZZ=    26.6163
   Eigenvalues:    25.5489    29.0351    31.4986
     11  H    Isotropic =    30.0674   Anisotropy =     9.2314
   XX=    29.4979   YX=     1.0588   ZX=    -3.7294
   XY=     0.7928   YY=    26.4723   ZY=    -0.1143
   XZ=    -3.5668   YZ=     0.4874   ZZ=    34.2319
   Eigenvalues:    25.9460    28.0345    36.2216
     12  H    Isotropic =    30.5665   Anisotropy =    10.5447
   XX=    29.0892   YX=     2.6666   ZX=     0.6947
   XY=     2.9067   YY=    34.7196   ZY=    -4.7261
   XZ=     0.8493   YZ=    -4.4798   ZZ=    27.8906
   Eigenvalues:    24.6474    29.4558    37.5963
     13  H    Isotropic =    29.7244   Anisotropy =     8.7249
   XX=    30.7051   YX=    -0.3559   ZX=     3.3236
   XY=    -1.3810   YY=    28.1385   ZY=    -3.7447
   XZ=     3.6492   YZ=    -3.8462   ZZ=    30.3296
   Eigenvalues:    24.8510    28.7812    35.5410
     14  O    Isotropic =   306.6942   Anisotropy =   113.7352
   XX=   371.5284   YX=     6.2405   ZX=    19.7631
   XY=    -3.3859   YY=   309.8729   ZY=   -97.8288
   XZ=    -5.4526   YZ=  -104.8752   ZZ=   238.6812
   Eigenvalues:   166.6392   370.9257   382.5176
     15  C    Isotropic =   146.8587   Anisotropy =    35.5920
   XX=   111.3969   YX=    -6.3592   ZX=     9.4272
   XY=    -4.4128   YY=   163.7363   ZY=    -0.5282
   XZ=     9.3980   YZ=    -7.3912   ZZ=   165.4429
   Eigenvalues:   109.4036   160.5858   170.5867
     16  O    Isotropic =   311.5329   Anisotropy =    31.2810
   XX=   316.2542   YX=    -2.8774   ZX=     4.6629
   XY=    -4.9345   YY=   329.3028   ZY=   -11.9838
   XZ=   -24.4726   YZ=   -10.6662   ZZ=   289.0419
   Eigenvalues:   282.7374   319.4745   332.3870
     17  H    Isotropic =    29.2647   Anisotropy =    17.9560
   XX=    27.2995   YX=     4.9271   ZX=     2.5977
   XY=     6.8507   YY=    36.7819   ZY=    -6.5721
   XZ=     3.7839   YZ=    -7.6130   ZZ=    23.7127
   Eigenvalues:    17.5097    29.0490    41.2354
     18  O    Isotropic =   309.3953   Anisotropy =    65.4664
   XX=   300.8320   YX=    28.0697   ZX=   -32.4478
   XY=    13.3299   YY=   308.8311   ZY=   -15.8625
   XZ=   -23.2322   YZ=   -15.2842   ZZ=   318.5228
   Eigenvalues:   277.7784   297.3679   353.0396
     19  C    Isotropic =   138.4832   Anisotropy =    82.3164
   XX=   116.0940   YX=    -0.3076   ZX=    -6.9519
   XY=    -0.3873   YY=   170.9780   ZY=    36.8761
   XZ=    -6.0274   YZ=    39.0183   ZZ=   128.3775
   Eigenvalues:   103.7492   118.3395   193.3608
     20  H    Isotropic =    28.3954   Anisotropy =    10.6034
   XX=    28.6457   YX=    -2.9090   ZX=    -0.7621
   XY=    -4.7799   YY=    30.7017   ZY=     4.2367
   XZ=    -2.6310   YZ=     3.6242   ZZ=    25.8387
   Eigenvalues:    23.6005    26.1214    35.4643
     21  H    Isotropic =    27.8508   Anisotropy =    10.2896
   XX=    24.9225   YX=     0.5967   ZX=    -0.8968
   XY=     1.2936   YY=    34.6174   ZY=    -1.1991
   XZ=    -0.0400   YZ=     1.5733   ZZ=    24.0125
   Eigenvalues:    23.7863    25.0556    34.7105
     22  H    Isotropic =    27.9887   Anisotropy =     8.5287
   XX=    26.6992   YX=    -1.0792   ZX=     1.6814
   XY=     0.6894   YY=    29.2239   ZY=     5.8190
   XZ=     2.6571   YZ=     3.6903   ZZ=    28.0430
   Eigenvalues:    22.9778    27.3137    33.6745
     23  O    Isotropic =   287.7772   Anisotropy =    20.7172
   XX=   281.4981   YX=     9.8835   ZX=    20.0465
   XY=    -2.0692   YY=   299.3101   ZY=     0.7476
   XZ=    13.3039   YZ=    -1.5997   ZZ=   282.5233
   Eigenvalues:   265.0455   296.6974   301.5886
     24  Si   Isotropic =   378.1214   Anisotropy =    37.1527
   XX=   401.9519   YX=    12.5416   ZX=     0.7940
   XY=    -3.5089   YY=   373.3266   ZY=    -6.7014
   XZ=    -4.9889   YZ=    -8.0791   ZZ=   359.0859
   Eigenvalues:   355.9433   375.5311   402.8899
     25  C    Isotropic =   198.5230   Anisotropy =     8.1564
   XX=   202.0242   YX=     1.4689   ZX=    -0.6330
   XY=     2.5397   YY=   192.2444   ZY=    -4.6850
   XZ=    -1.3684   YZ=    -2.3348   ZZ=   201.3004
   Eigenvalues:   190.8184   200.7900   203.9606
     26  H    Isotropic =    31.7061   Anisotropy =    10.9192
   XX=    34.5777   YX=     3.6816   ZX=    -3.2475
   XY=     3.3155   YY=    30.7287   ZY=    -3.6218
   XZ=    -3.1898   YZ=    -3.4986   ZZ=    29.8119
   Eigenvalues:    26.6783    29.4544    38.9855
     27  H    Isotropic =    30.9998   Anisotropy =    10.0986
   XX=    33.8828   YX=    -5.1851   ZX=    -1.7945
   XY=    -5.1950   YY=    30.6856   ZY=    -1.5225
   XZ=    -1.5870   YZ=    -1.7434   ZZ=    28.4310
   Eigenvalues:    25.1896    30.0776    37.7322
     28  H    Isotropic =    31.2926   Anisotropy =     8.3172
   XX=    28.1737   YX=     0.1180   ZX=     1.3834
   XY=    -0.2834   YY=    30.3899   ZY=     2.4990
   XZ=     1.2974   YZ=     3.3519   ZZ=    35.3140
   Eigenvalues:    27.7077    29.3326    36.8374
     29  C    Isotropic =   173.0545   Anisotropy =     8.1430
   XX=   175.8110   YX=     3.7927   ZX=    -1.1114
   XY=     2.5579   YY=   172.2181   ZY=    -1.5104
   XZ=    -2.6016   YZ=    -1.8485   ZZ=   171.1344
   Eigenvalues:   169.8507   170.8296   178.4831
     30  C    Isotropic =   201.4912   Anisotropy =     5.0825
   XX=   201.5220   YX=    -0.9247   ZX=     1.5720
   XY=    -0.1934   YY=   198.7921   ZY=     0.8702
   XZ=     0.6892   YZ=    -3.3460   ZZ=   204.1595
   Eigenvalues:   198.4872   201.1068   204.8795
     31  H    Isotropic =    31.5199   Anisotropy =    10.5853
   XX=    36.6866   YX=     4.0063   ZX=    -0.3112
   XY=     3.7066   YY=    30.7004   ZY=     1.4404
   XZ=    -0.6812   YZ=     1.1974   ZZ=    27.1727
   Eigenvalues:    26.3666    29.6163    38.5768
     32  H    Isotropic =    31.4468   Anisotropy =     8.8490
   XX=    28.1962   YX=    -0.2086   ZX=     1.2193
   XY=    -0.1403   YY=    29.0946   ZY=    -0.9556
   XZ=     1.0037   YZ=    -1.3098   ZZ=    37.0497
   Eigenvalues:    28.0574    28.9369    37.3462
     33  H    Isotropic =    31.3696   Anisotropy =     9.7394
   XX=    32.4708   YX=    -3.8834   ZX=     0.6376
   XY=    -4.1283   YY=    34.7193   ZY=     1.7177
   XZ=     0.4713   YZ=     1.8032   ZZ=    26.9187
   Eigenvalues:    26.1340    30.1122    37.8625
     34  C    Isotropic =   170.7690   Anisotropy =    37.5400
   XX=   157.4159   YX=    -2.8924   ZX=     3.3050
   XY=    -1.6888   YY=   164.6960   ZY=   -15.0223
   XZ=    -0.2132   YZ=   -10.9835   ZZ=   190.1950
   Eigenvalues:   156.4556   160.0557   195.7957
     35  H    Isotropic =    30.6401   Anisotropy =     8.2906
   XX=    28.1687   YX=    -0.5737   ZX=     3.2274
   XY=    -0.8332   YY=    29.2891   ZY=     1.0576
   XZ=     3.4835   YZ=     2.3782   ZZ=    34.4625
   Eigenvalues:    26.1256    29.6275    36.1671
     36  H    Isotropic =    31.0000   Anisotropy =     9.8240
   XX=    30.6757   YX=    -4.3449   ZX=     1.2587
   XY=    -4.5934   YY=    32.9725   ZY=    -2.2448
   XZ=     1.9293   YZ=    -2.9160   ZZ=    29.3519
   Eigenvalues:    27.1268    28.3239    37.5494
     37  H    Isotropic =    30.3948   Anisotropy =     7.8735
   XX=    32.4586   YX=     0.3137   ZX=    -2.2136
   XY=     1.1482   YY=    28.7264   ZY=    -3.9239
   XZ=    -3.3769   YZ=    -4.0755   ZZ=    29.9994
   Eigenvalues:    25.0720    30.4687    35.6438
     38  C    Isotropic =   170.3319   Anisotropy =    39.3921
   XX=   187.2322   YX=    15.4044   ZX=   -10.6494
   XY=    10.6969   YY=   163.4765   ZY=    -3.9890
   XZ=    -9.9635   YZ=    -5.8714   ZZ=   160.2869
   Eigenvalues:   156.5986   157.8037   196.5933
     39  H    Isotropic =    30.7283   Anisotropy =     9.0635
   XX=    33.8618   YX=     3.7506   ZX=     1.7414
   XY=     3.0540   YY=    30.9760   ZY=     3.1726
   XZ=     0.4004   YZ=     2.4195   ZZ=    27.3471
   Eigenvalues:    25.7542    29.6600    36.7707
     40  H    Isotropic =    30.7040   Anisotropy =     8.8487
   XX=    31.1536   YX=     0.6832   ZX=    -3.9897
   XY=     0.3148   YY=    28.5198   ZY=    -4.1705
   XZ=    -2.5494   YZ=    -3.6466   ZZ=    32.4385
   Eigenvalues:    25.7280    29.7808    36.6031
     41  H    Isotropic =    30.9612   Anisotropy =    10.1484
   XX=    35.9678   YX=    -3.9865   ZX=    -1.7074
   XY=    -2.7320   YY=    29.5932   ZY=     0.2984
   XZ=    -1.8739   YZ=     0.5425   ZZ=    27.3227
   Eigenvalues:    26.9258    28.2310    37.7268
     42  C    Isotropic =   170.5205   Anisotropy =    37.9590
   XX=   163.5078   YX=     5.3108   ZX=     8.8738
   XY=    10.1494   YY=   173.6770   ZY=    18.5528
   XZ=    11.5386   YZ=    15.0362   ZZ=   174.3767
   Eigenvalues:   156.2278   159.5072   195.8265
     43  H    Isotropic =    31.0010   Anisotropy =     9.8324
   XX=    29.5984   YX=    -2.9043   ZX=    -0.5469
   XY=    -3.6289   YY=    34.8418   ZY=     2.9843
   XZ=    -0.9412   YZ=     3.4063   ZZ=    28.5630
   Eigenvalues:    26.9890    28.4581    37.5560
     44  H    Isotropic =    30.4686   Anisotropy =     8.3081
   XX=    27.0806   YX=    -1.3013   ZX=     1.6818
   XY=    -0.9140   YY=    28.6933   ZY=     1.8332
   XZ=     1.3949   YZ=     0.3285   ZZ=    35.6319
   Eigenvalues:    26.1506    29.2478    36.0074
     45  H    Isotropic =    30.1873   Anisotropy =     8.3129
   XX=    34.1308   YX=     2.3941   ZX=    -1.2329
   XY=     3.2423   YY=    30.6083   ZY=     2.0787
   XZ=    -0.1281   YZ=     2.7408   ZZ=    25.8227
   Eigenvalues:    24.4895    30.3431    35.7292
     46  H    Isotropic =    29.0689   Anisotropy =    10.8345
   XX=    29.0018   YX=     0.1337   ZX=    -2.4583
   XY=     3.5711   YY=    27.3770   ZY=    -4.0863
   XZ=    -5.7593   YZ=    -4.1376   ZZ=    30.8280
   Eigenvalues:    24.4213    26.4935    36.2919
     47  H    Isotropic =    28.3077   Anisotropy =     8.5265
   XX=    31.2308   YX=    -1.7160   ZX=    -2.4001
   XY=    -4.9452   YY=    29.7758   ZY=    -2.1017
   XZ=     0.6522   YZ=    -2.7976   ZZ=    23.9164
   Eigenvalues:    22.5303    28.4008    33.9920
 End of Minotr Frequency-dependent properties file   721 does not exist.
 End of Minotr Frequency-dependent properties file   722 does not exist.

 **********************************************************************

            Population analysis using the SCF density.

 **********************************************************************

 Orbital symmetries:
       Occupied  (A) (A) (A) (A) (A) (A) (A) (A) (A) (A) (A) (A)
                 (A) (A) (A) (A) (A) (A) (A) (A) (A) (A) (A) (A)
                 (A) (A) (A) (A) (A) (A) (A) (A) (A) (A) (A) (A)
                 (A) (A) (A) (A) (A) (A) (A) (A) (A) (A) (A) (A)
                 (A) (A) (A) (A) (A) (A) (A) (A) (A) (A) (A) (A)
                 (A) (A) (A) (A) (A) (A) (A) (A) (A) (A) (A) (A)
                 (A) (A) (A) (A) (A) (A) (A)
       Virtual   (A) (A) (A) (A) (A) (A) (A) (A) (A) (A) (A) (A)
                 (A) (A) (A) (A) (A) (A) (A) (A) (A) (A) (A) (A)
                 (A) (A) (A) (A) (A) (A) (A) (A) (A) (A) (A) (A)
                 (A) (A) (A) (A) (A) (A) (A) (A) (A) (A) (A) (A)
                 (A) (A) (A) (A) (A) (A) (A) (A) (A) (A) (A) (A)
                 (A) (A) (A) (A) (A) (A) (A) (A) (A) (A) (A) (A)
                 (A) (A) (A) (A) (A) (A) (A) (A) (A) (A) (A) (A)
                 (A) (A) (A) (A) (A) (A) (A) (A) (A) (A) (A) (A)
                 (A) (A) (A) (A) (A) (A) (A) (A) (A) (A) (A) (A)
                 (A) (A) (A) (A) (A) (A) (A) (A) (A) (A) (A) (A)
                 (A) (A) (A) (A) (A) (A) (A) (A) (A) (A) (A) (A)
                 (A) (A) (A) (A) (A) (A) (A) (A) (A) (A) (A) (A)
                 (A) (A) (A) (A) (A) (A) (A) (A) (A) (A) (A) (A)
                 (A) (A) (A) (A) (A) (A) (A) (A) (A) (A) (A) (A)
                 (A) (A) (A) (A) (A) (A) (A) (A) (A) (A) (A) (A)
                 (A) (A) (A) (A) (A) (A) (A) (A) (A) (A) (A) (A)
                 (A) (A) (A) (A) (A) (A) (A) (A) (A) (A) (A) (A)
                 (A) (A) (A) (A) (A) (A) (A) (A) (A) (A) (A) (A)
                 (A) (A) (A) (A) (A) (A) (A) (A) (A) (A) (A) (A)
                 (A) (A) (A) (A) (A) (A) (A) (A) (A) (A) (A) (A)
                 (A) (A) (A) (A) (A) (A) (A) (A) (A) (A) (A) (A)
                 (A) (A) (A) (A) (A) (A) (A) (A) (A) (A) (A) (A)
                 (A) (A) (A) (A) (A) (A) (A) (A) (A) (A) (A) (A)
                 (A) (A) (A) (A) (A) (A) (A) (A) (A) (A) (A) (A)
                 (A) (A) (A) (A) (A) (A) (A) (A) (A) (A) (A) (A)
                 (A) (A) (A) (A) (A) (A) (A) (A) (A) (A) (A) (A)
                 (A) (A) (A) (A) (A) (A) (A) (A) (A) (A) (A) (A)
                 (A) (A) (A) (A) (A) (A) (A) (A) (A) (A) (A) (A)
                 (A) (A) (A) (A) (A) (A) (A) (A) (A) (A) (A) (A)
                 (A) (A) (A) (A) (A) (A) (A) (A) (A) (A) (A) (A)
                 (A) (A) (A) (A) (A) (A) (A) (A) (A) (A) (A) (A)
                 (A) (A) (A) (A) (A) (A) (A) (A) (A) (A) (A) (A)
                 (A) (A) (A) (A) (A) (A) (A) (A) (A) (A) (A) (A)
                 (A) (A) (A) (A) (A) (A) (A) (A) (A) (A) (A) (A)
                 (A) (A) (A) (A) (A) (A) (A) (A) (A) (A) (A) (A)
                 (A) (A) (A) (A) (A) (A)
 The electronic state is 1-A.
 Alpha  occ. eigenvalues --  -66.30354 -19.26619 -19.26020 -19.25174 -19.23394
 Alpha  occ. eigenvalues --  -10.31394 -10.31131 -10.30753 -10.30540 -10.29623
 Alpha  occ. eigenvalues --  -10.29558 -10.25394 -10.25216 -10.24559 -10.23530
 Alpha  occ. eigenvalues --  -10.23316 -10.23155 -10.22600 -10.21802  -5.33718
 Alpha  occ. eigenvalues --   -3.67643  -3.67350  -3.67306  -1.10998  -1.08524
 Alpha  occ. eigenvalues --   -1.05412  -1.03325  -0.84861  -0.82077  -0.77641
 Alpha  occ. eigenvalues --   -0.75192  -0.72121  -0.70988  -0.70345  -0.70037
 Alpha  occ. eigenvalues --   -0.69369  -0.68488  -0.64204  -0.62126  -0.58472
 Alpha  occ. eigenvalues --   -0.56268  -0.54692  -0.52960  -0.52671  -0.50729
 Alpha  occ. eigenvalues --   -0.49427  -0.48290  -0.47504  -0.46848  -0.45491
 Alpha  occ. eigenvalues --   -0.45141  -0.44489  -0.44031  -0.43698  -0.43068
 Alpha  occ. eigenvalues --   -0.41951  -0.41085  -0.40723  -0.40271  -0.39827
 Alpha  occ. eigenvalues --   -0.39329  -0.39043  -0.38698  -0.38469  -0.37948
 Alpha  occ. eigenvalues --   -0.37134  -0.36629  -0.35583  -0.34652  -0.34078
 Alpha  occ. eigenvalues --   -0.33553  -0.32977  -0.31653  -0.31392  -0.29939
 Alpha  occ. eigenvalues --   -0.29734  -0.28431  -0.27688  -0.26083
 Alpha virt. eigenvalues --   -0.00283   0.00650   0.01156   0.01509   0.02660
 Alpha virt. eigenvalues --    0.02872   0.03266   0.03467   0.03956   0.04772
 Alpha virt. eigenvalues --    0.05110   0.05325   0.05771   0.06054   0.06523
 Alpha virt. eigenvalues --    0.06684   0.06936   0.07509   0.07878   0.08025
 Alpha virt. eigenvalues --    0.08561   0.08796   0.09306   0.09483   0.09619
 Alpha virt. eigenvalues --    0.10019   0.10340   0.10731   0.10860   0.11758
 Alpha virt. eigenvalues --    0.11917   0.12021   0.12113   0.12842   0.12857
 Alpha virt. eigenvalues --    0.13260   0.13961   0.14223   0.14430   0.14545
 Alpha virt. eigenvalues --    0.14650   0.15201   0.15566   0.16021   0.16153
 Alpha virt. eigenvalues --    0.16678   0.17044   0.17298   0.17536   0.17879
 Alpha virt. eigenvalues --    0.18374   0.18468   0.18938   0.19554   0.19939
 Alpha virt. eigenvalues --    0.20055   0.20189   0.20624   0.20828   0.21187
 Alpha virt. eigenvalues --    0.21901   0.21939   0.22078   0.22388   0.22803
 Alpha virt. eigenvalues --    0.23058   0.23533   0.23619   0.24142   0.24290
 Alpha virt. eigenvalues --    0.24621   0.25106   0.25318   0.25606   0.26253
 Alpha virt. eigenvalues --    0.26737   0.27172   0.27410   0.27786   0.28093
 Alpha virt. eigenvalues --    0.28386   0.28910   0.29233   0.29505   0.29529
 Alpha virt. eigenvalues --    0.30398   0.30517   0.30874   0.31037   0.31151
 Alpha virt. eigenvalues --    0.31651   0.32148   0.32537   0.33182   0.33409
 Alpha virt. eigenvalues --    0.33812   0.34433   0.34866   0.35311   0.36117
 Alpha virt. eigenvalues --    0.36297   0.36927   0.37487   0.38005   0.38318
 Alpha virt. eigenvalues --    0.38957   0.39147   0.39683   0.40564   0.41122
 Alpha virt. eigenvalues --    0.41425   0.41950   0.43196   0.44005   0.44239
 Alpha virt. eigenvalues --    0.45806   0.46337   0.46634   0.46922   0.47670
 Alpha virt. eigenvalues --    0.49527   0.50964   0.51419   0.53632   0.54522
 Alpha virt. eigenvalues --    0.55422   0.59082   0.62846   0.65428   0.65998
 Alpha virt. eigenvalues --    0.67031   0.68978   0.70126   0.71409   0.71968
 Alpha virt. eigenvalues --    0.72321   0.72988   0.73918   0.74516   0.75049
 Alpha virt. eigenvalues --    0.75563   0.76594   0.78237   0.78588   0.78968
 Alpha virt. eigenvalues --    0.79324   0.80499   0.80715   0.81572   0.82576
 Alpha virt. eigenvalues --    0.82871   0.83496   0.85172   0.85340   0.86285
 Alpha virt. eigenvalues --    0.87222   0.87725   0.88145   0.89233   0.90383
 Alpha virt. eigenvalues --    0.90681   0.91554   0.92184   0.92626   0.93133
 Alpha virt. eigenvalues --    0.93943   0.95341   0.96699   0.97515   0.98156
 Alpha virt. eigenvalues --    0.98991   0.99419   1.00634   1.01242   1.02130
 Alpha virt. eigenvalues --    1.02815   1.04291   1.04673   1.04906   1.05858
 Alpha virt. eigenvalues --    1.06315   1.06703   1.07121   1.07680   1.07979
 Alpha virt. eigenvalues --    1.08883   1.09104   1.09384   1.11128   1.11740
 Alpha virt. eigenvalues --    1.12800   1.14060   1.15090   1.16463   1.16733
 Alpha virt. eigenvalues --    1.17501   1.18094   1.19109   1.20136   1.20875
 Alpha virt. eigenvalues --    1.22389   1.23031   1.24196   1.25310   1.25335
 Alpha virt. eigenvalues --    1.27747   1.30262   1.30809   1.32132   1.33333
 Alpha virt. eigenvalues --    1.33924   1.34703   1.35162   1.36093   1.36995
 Alpha virt. eigenvalues --    1.38856   1.40875   1.41652   1.43163   1.43974
 Alpha virt. eigenvalues --    1.45669   1.46231   1.46987   1.47611   1.48744
 Alpha virt. eigenvalues --    1.49321   1.50793   1.51670   1.53205   1.54199
 Alpha virt. eigenvalues --    1.56809   1.57276   1.60854   1.61446   1.63360
 Alpha virt. eigenvalues --    1.64065   1.65591   1.67080   1.67805   1.70501
 Alpha virt. eigenvalues --    1.71392   1.72815   1.73205   1.73979   1.76663
 Alpha virt. eigenvalues --    1.78227   1.79322   1.80213   1.80847   1.81341
 Alpha virt. eigenvalues --    1.82461   1.83252   1.86848   1.87745   1.88975
 Alpha virt. eigenvalues --    1.89367   1.89795   1.90671   1.91188   1.91890
 Alpha virt. eigenvalues --    1.94292   1.94782   1.95086   1.96232   1.96814
 Alpha virt. eigenvalues --    1.98198   1.99051   1.99655   2.01134   2.01543
 Alpha virt. eigenvalues --    2.02726   2.03947   2.04165   2.05153   2.05715
 Alpha virt. eigenvalues --    2.06339   2.07222   2.08453   2.09379   2.09523
 Alpha virt. eigenvalues --    2.09982   2.10996   2.11861   2.12067   2.13738
 Alpha virt. eigenvalues --    2.14199   2.14782   2.15370   2.15835   2.16480
 Alpha virt. eigenvalues --    2.16753   2.17025   2.17418   2.18060   2.19250
 Alpha virt. eigenvalues --    2.19488   2.19867   2.20434   2.21144   2.22009
 Alpha virt. eigenvalues --    2.22204   2.23727   2.24511   2.26929   2.27158
 Alpha virt. eigenvalues --    2.28475   2.29510   2.30030   2.32973   2.35311
 Alpha virt. eigenvalues --    2.35692   2.36969   2.38161   2.39377   2.39818
 Alpha virt. eigenvalues --    2.40447   2.41339   2.42388   2.43474   2.43834
 Alpha virt. eigenvalues --    2.45392   2.46995   2.49039   2.49405   2.52166
 Alpha virt. eigenvalues --    2.53058   2.55814   2.56714   2.57457   2.58158
 Alpha virt. eigenvalues --    2.59387   2.60177   2.61591   2.63763   2.64484
 Alpha virt. eigenvalues --    2.66878   2.67022   2.67880   2.69906   2.70589
 Alpha virt. eigenvalues --    2.71341   2.72984   2.73602   2.74133   2.76495
 Alpha virt. eigenvalues --    2.77084   2.78475   2.78533   2.79751   2.80076
 Alpha virt. eigenvalues --    2.80993   2.81876   2.83180   2.84848   2.85696
 Alpha virt. eigenvalues --    2.85835   2.86691   2.86991   2.88061   2.88327
 Alpha virt. eigenvalues --    2.88465   2.88888   2.88944   2.89948   2.91137
 Alpha virt. eigenvalues --    2.91888   2.92089   2.94771   2.95330   2.97932
 Alpha virt. eigenvalues --    2.99006   2.99114   3.00514   3.04148   3.09007
 Alpha virt. eigenvalues --    3.09799   3.16365   3.19705   3.23505   3.26198
 Alpha virt. eigenvalues --    3.27746   3.29041   3.30111   3.30661   3.31593
 Alpha virt. eigenvalues --    3.31751   3.37143   3.39307   3.41116   3.42614
 Alpha virt. eigenvalues --    3.47072   3.47921   3.47998   3.48775   3.49432
 Alpha virt. eigenvalues --    3.50310   3.50688   3.50982   3.51375   3.51749
 Alpha virt. eigenvalues --    3.52906   3.53142   3.55674   3.56034   3.56516
 Alpha virt. eigenvalues --    3.58312   3.60519   3.62529   4.37540   4.43054
 Alpha virt. eigenvalues --    4.45864   4.49205   4.54259   4.55132   4.57911
 Alpha virt. eigenvalues --    4.59652   4.61781   4.62809   4.65144   4.68737
 Alpha virt. eigenvalues --    4.71794   4.75234   4.81018   4.83643   4.91616
 Alpha virt. eigenvalues --    4.94798
          Condensed to atoms (all electrons):
              1          2          3          4          5          6
     1  H    0.607160   0.089377   0.021257   0.038652  -0.017033   0.139780
     2  C    0.089377  12.066896  -0.654215  -1.771542   2.304790  -4.451253
     3  C    0.021257  -0.654215   7.535936  -0.699435  -1.692424   0.524607
     4  C    0.038652  -1.771542  -0.699435  11.682630  -3.172094  -0.354740
     5  C   -0.017033   2.304790  -1.692424  -3.172094  16.404622  -4.069083
     6  C    0.139780  -4.451253   0.524607  -0.354740  -4.069083  13.669494
     7  C    0.044881  -1.732661   0.543410   0.161147  -0.876200   0.252555
     8  H   -0.000046   0.020093   0.376753  -0.028759   0.106139  -0.065554
     9  H   -0.000265   0.116652  -0.087627   0.317183   0.178355  -0.197104
    10  H   -0.004083   0.024130  -0.035802  -0.100136   0.165187   0.221399
    11  H   -0.002382  -0.076623  -0.067795   0.013883   0.067861  -0.029973
    12  H   -0.000104   0.060329   0.364262   0.022921  -0.120817   0.013569
    13  H   -0.004398  -0.020421  -0.023504  -0.010093   0.047509   0.032488
    14  O    0.000061  -0.090273  -0.122513  -0.084896  -0.025367   0.161015
    15  C   -0.000703  -0.317106   0.113568  -0.213507  -2.786450   1.066671
    16  O   -0.000894   0.073837   0.083510   0.317720  -0.142827  -0.166396
    17  H   -0.000008   0.033295  -0.014105   0.015571   0.073703  -0.121590
    18  O   -0.009018   0.073526  -0.014478  -0.082508   0.120753   0.018652
    19  C   -0.007832   0.083665   0.012211   0.069030  -0.162360  -0.139255
    20  H   -0.000023  -0.019169   0.001041   0.012186   0.000728  -0.008220
    21  H   -0.000037   0.013743  -0.000638  -0.008122   0.003236   0.004794
    22  H    0.001082   0.009477  -0.000052   0.001607  -0.001602  -0.012171
    23  O   -0.055910   0.200012   0.005006  -0.027474   0.141389  -0.303686
    24  Si   0.026694  -0.318484  -0.035862  -0.241235   0.161023   0.041005
    25  C   -0.002994   0.105600   0.001809   0.019522   0.009872  -0.105752
    26  H    0.000001   0.005811  -0.000052   0.000085   0.000081  -0.002068
    27  H   -0.000004  -0.005933  -0.000125   0.002327   0.000466  -0.002623
    28  H   -0.000003   0.003242  -0.000632  -0.001329   0.002279  -0.003046
    29  C   -0.000425  -0.035366  -0.034837  -0.020378   0.019058   0.055944
    30  C   -0.005790   0.077217   0.007139   0.033391  -0.018806  -0.048366
    31  H    0.000034  -0.001751   0.000059   0.000389  -0.000065   0.000282
    32  H    0.000214   0.001411   0.000743   0.000408  -0.000809   0.000729
    33  H   -0.000714   0.004750  -0.000012  -0.001483   0.000162  -0.000202
    34  C   -0.004656  -0.047465   0.041005   0.014888  -0.030268   0.026392
    35  H    0.000003   0.000374  -0.000874  -0.000049   0.000177   0.000374
    36  H    0.000000   0.000267  -0.000077   0.000098  -0.000111  -0.000166
    37  H    0.000008   0.000394   0.006302   0.000713  -0.001297  -0.000281
    38  C    0.000262  -0.015619  -0.004786  -0.012302   0.010317   0.020652
    39  H    0.000000   0.000706  -0.000025  -0.000029   0.000026  -0.000034
    40  H    0.000000  -0.000402   0.000007  -0.000062   0.000005   0.000087
    41  H    0.000000  -0.000396  -0.000048   0.000012   0.000001  -0.000002
    42  C    0.002223   0.038812  -0.023602   0.010402   0.011245  -0.064566
    43  H    0.000000   0.000215  -0.000117   0.000166  -0.000252  -0.000208
    44  H    0.000000  -0.000024   0.001123  -0.000406  -0.000456   0.000296
    45  H   -0.000005  -0.005421  -0.003686   0.001559   0.001577   0.002312
    46  H    0.000000  -0.007371   0.040764  -0.021049  -0.104827   0.013555
    47  H    0.000000  -0.011762  -0.008685   0.113274  -0.240754   0.021682
              7          8          9         10         11         12
     1  H    0.044881  -0.000046  -0.000265  -0.004083  -0.002382  -0.000104
     2  C   -1.732661   0.020093   0.116652   0.024130  -0.076623   0.060329
     3  C    0.543410   0.376753  -0.087627  -0.035802  -0.067795   0.364262
     4  C    0.161147  -0.028759   0.317183  -0.100136   0.013883   0.022921
     5  C   -0.876200   0.106139   0.178355   0.165187   0.067861  -0.120817
     6  C    0.252555  -0.065554  -0.197104   0.221399  -0.029973   0.013569
     7  C    7.302096  -0.057448  -0.015695   0.017441   0.408964  -0.041387
     8  H   -0.057448   0.506359   0.001856   0.000080   0.004218  -0.027316
     9  H   -0.015695   0.001856   0.560114   0.005165   0.000013  -0.000115
    10  H    0.017441   0.000080   0.005165   0.591804   0.000920  -0.000069
    11  H    0.408964   0.004218   0.000013   0.000920   0.533339  -0.004532
    12  H   -0.041387  -0.027316  -0.000115  -0.000069  -0.004532   0.533536
    13  H    0.317402  -0.003326  -0.000017  -0.000080  -0.023421  -0.001887
    14  O    0.063428  -0.014516  -0.017136  -0.002119  -0.001301   0.006928
    15  C    0.190105  -0.032926  -0.034778  -0.009610  -0.009492   0.028884
    16  O    0.007779  -0.000245  -0.041785   0.004799  -0.000212  -0.000475
    17  H   -0.001841  -0.000002  -0.004125  -0.000570   0.000000   0.000003
    18  O    0.029312  -0.000477   0.002983  -0.057689  -0.001299   0.000142
    19  C   -0.071353  -0.001025  -0.005906  -0.013071  -0.002706   0.000458
    20  H    0.006783   0.000000   0.000010   0.009550   0.000007   0.000000
    21  H    0.000044   0.000000   0.000022   0.000179   0.000000   0.000000
    22  H   -0.012976   0.000000  -0.000011  -0.001918   0.000007   0.000000
    23  O   -0.110382   0.010759   0.012745   0.018245   0.013657  -0.002035
    24  Si   0.105052   0.011989   0.037668   0.016838   0.002602  -0.002193
    25  C   -0.045167  -0.000457  -0.004074  -0.002324  -0.000006   0.000052
    26  H    0.000397   0.000000   0.000002   0.000000   0.000000   0.000000
    27  H   -0.000040   0.000000   0.000026   0.000000   0.000000   0.000000
    28  H    0.001724  -0.000001   0.000053   0.000000   0.000000   0.000000
    29  C    0.009896   0.000987  -0.000549   0.000954   0.000075   0.000335
    30  C   -0.071870   0.000132  -0.001127  -0.001598   0.000369   0.000069
    31  H    0.000730   0.000000   0.000000   0.000000   0.000000   0.000000
    32  H   -0.009710   0.000000   0.000000   0.000000   0.000001   0.000000
    33  H    0.003258   0.000000   0.000001   0.000004   0.000000   0.000000
    34  C   -0.007681  -0.000370  -0.000307  -0.000270   0.000227  -0.000293
    35  H    0.000212   0.000000   0.000000   0.000000   0.000000   0.000000
    36  H    0.000919   0.000000   0.000000   0.000000   0.000000   0.000000
    37  H   -0.009549   0.000049   0.000000   0.000000   0.000003  -0.000001
    38  C   -0.007258   0.000488   0.000659   0.000034   0.000066  -0.000004
    39  H    0.000090   0.000000   0.000000   0.000000   0.000000   0.000000
    40  H   -0.000056   0.000000   0.000000   0.000000   0.000000   0.000000
    41  H    0.000057   0.000000   0.000000   0.000000   0.000000   0.000000
    42  C    0.059398  -0.002092  -0.001515  -0.000056  -0.000154   0.000150
    43  H    0.000203  -0.000002   0.000000   0.000000   0.000000   0.000000
    44  H   -0.000983  -0.000008  -0.000005   0.000000   0.000000   0.000000
    45  H    0.002483   0.000833   0.000018   0.000000   0.000001  -0.000003
    46  H    0.008423   0.000033  -0.000092  -0.000133  -0.000064   0.001126
    47  H    0.001284  -0.000132  -0.000100  -0.000134  -0.000067   0.000191
             13         14         15         16         17         18
     1  H   -0.004398   0.000061  -0.000703  -0.000894  -0.000008  -0.009018
     2  C   -0.020421  -0.090273  -0.317106   0.073837   0.033295   0.073526
     3  C   -0.023504  -0.122513   0.113568   0.083510  -0.014105  -0.014478
     4  C   -0.010093  -0.084896  -0.213507   0.317720   0.015571  -0.082508
     5  C    0.047509  -0.025367  -2.786450  -0.142827   0.073703   0.120753
     6  C    0.032488   0.161015   1.066671  -0.166396  -0.121590   0.018652
     7  C    0.317402   0.063428   0.190105   0.007779  -0.001841   0.029312
     8  H   -0.003326  -0.014516  -0.032926  -0.000245  -0.000002  -0.000477
     9  H   -0.000017  -0.017136  -0.034778  -0.041785  -0.004125   0.002983
    10  H   -0.000080  -0.002119  -0.009610   0.004799  -0.000570  -0.057689
    11  H   -0.023421  -0.001301  -0.009492  -0.000212   0.000000  -0.001299
    12  H   -0.001887   0.006928   0.028884  -0.000475   0.000003   0.000142
    13  H    0.527290  -0.000489  -0.002221   0.000071   0.000000  -0.000543
    14  O   -0.000489   8.300337   0.195974   0.026799  -0.000389  -0.002160
    15  C   -0.002221   0.195974   7.058103  -0.064888   0.007802  -0.020511
    16  O    0.000071   0.026799  -0.064888   8.229962   0.218076  -0.007306
    17  H    0.000000  -0.000389   0.007802   0.218076   0.371212   0.032821
    18  O   -0.000543  -0.002160  -0.020511  -0.007306   0.032821   8.337250
    19  C    0.000399   0.001668   0.023403  -0.009094  -0.002137  -0.015509
    20  H   -0.000001   0.000001   0.000225   0.002462  -0.000146  -0.064901
    21  H    0.000000  -0.000003  -0.000278   0.000232  -0.000044  -0.064120
    22  H    0.000006  -0.000001   0.000196  -0.000781   0.000061  -0.041410
    23  O   -0.007592  -0.002538  -0.016405  -0.003516  -0.000079   0.025085
    24  Si   0.001107  -0.005277  -0.018663  -0.000774  -0.000387   0.074492
    25  C   -0.000024  -0.000042  -0.001108  -0.000091   0.000029  -0.033804
    26  H    0.000000   0.000000  -0.000001   0.000003   0.000000   0.000372
    27  H    0.000000   0.000001   0.000117  -0.000042   0.000033  -0.000872
    28  H    0.000000   0.000001   0.000087   0.000051  -0.000002  -0.000128
    29  C   -0.000534   0.000271   0.004855  -0.000163  -0.000028   0.007278
    30  C   -0.000282   0.000009  -0.001087  -0.000708  -0.000023  -0.018124
    31  H    0.000000   0.000000  -0.000005   0.000000   0.000000   0.000101
    32  H    0.000014   0.000000  -0.000020  -0.000001   0.000000   0.000214
    33  H   -0.000002   0.000000   0.000046  -0.000004   0.000000   0.000155
    34  C    0.001599   0.000072  -0.000155   0.000031  -0.000012   0.000089
    35  H   -0.000009   0.000000   0.000001   0.000000   0.000000  -0.000002
    36  H   -0.000004   0.000000   0.000000   0.000000   0.000000   0.000000
    37  H    0.000633   0.000000  -0.000083   0.000000   0.000000  -0.000016
    38  C   -0.000007  -0.000068  -0.000159  -0.000098   0.000003  -0.001123
    39  H    0.000000   0.000000   0.000000   0.000000   0.000000  -0.000001
    40  H    0.000000   0.000000   0.000001   0.000000   0.000000  -0.000003
    41  H    0.000000   0.000000   0.000000   0.000000   0.000000   0.000001
    42  C   -0.002387  -0.000061   0.000697   0.000648   0.000037   0.001097
    43  H    0.000000   0.000000  -0.000007   0.000000   0.000000   0.000002
    44  H    0.000001   0.000001   0.000022   0.000000   0.000000  -0.000017
    45  H    0.000003  -0.000014  -0.000182  -0.000004   0.000000  -0.000058
    46  H   -0.000013  -0.036186   0.434781   0.001362   0.000000   0.000008
    47  H    0.000000  -0.024036   0.492882  -0.005588  -0.000099  -0.000274
             19         20         21         22         23         24
     1  H   -0.007832  -0.000023  -0.000037   0.001082  -0.055910   0.026694
     2  C    0.083665  -0.019169   0.013743   0.009477   0.200012  -0.318484
     3  C    0.012211   0.001041  -0.000638  -0.000052   0.005006  -0.035862
     4  C    0.069030   0.012186  -0.008122   0.001607  -0.027474  -0.241235
     5  C   -0.162360   0.000728   0.003236  -0.001602   0.141389   0.161023
     6  C   -0.139255  -0.008220   0.004794  -0.012171  -0.303686   0.041005
     7  C   -0.071353   0.006783   0.000044  -0.012976  -0.110382   0.105052
     8  H   -0.001025   0.000000   0.000000   0.000000   0.010759   0.011989
     9  H   -0.005906   0.000010   0.000022  -0.000011   0.012745   0.037668
    10  H   -0.013071   0.009550   0.000179  -0.001918   0.018245   0.016838
    11  H   -0.002706   0.000007   0.000000   0.000007   0.013657   0.002602
    12  H    0.000458   0.000000   0.000000   0.000000  -0.002035  -0.002193
    13  H    0.000399  -0.000001   0.000000   0.000006  -0.007592   0.001107
    14  O    0.001668   0.000001  -0.000003  -0.000001  -0.002538  -0.005277
    15  C    0.023403   0.000225  -0.000278   0.000196  -0.016405  -0.018663
    16  O   -0.009094   0.002462   0.000232  -0.000781  -0.003516  -0.000774
    17  H   -0.002137  -0.000146  -0.000044   0.000061  -0.000079  -0.000387
    18  O   -0.015509  -0.064901  -0.064120  -0.041410   0.025085   0.074492
    19  C    5.141464   0.410983   0.414565   0.412326  -0.005975  -0.053054
    20  H    0.410983   0.554551  -0.025326  -0.042331   0.000054   0.001727
    21  H    0.414565  -0.025326   0.518070  -0.029079  -0.000290   0.003028
    22  H    0.412326  -0.042331  -0.029079   0.560234   0.001924   0.000186
    23  O   -0.005975   0.000054  -0.000290   0.001924   8.413614   0.093240
    24  Si  -0.053054   0.001727   0.003028   0.000186   0.093240  13.344422
    25  C    0.015939  -0.000477  -0.000516  -0.000510  -0.048509   0.140748
    26  H   -0.000371   0.000000  -0.000002  -0.000001   0.010183  -0.030398
    27  H    0.003328  -0.000016   0.000144   0.000076  -0.001707  -0.042857
    28  H   -0.000634   0.000000   0.000001   0.000000  -0.011031  -0.022230
    29  C    0.001759   0.000056  -0.000038   0.000402  -0.054870   0.268530
    30  C    0.012314  -0.000676  -0.000710   0.000664  -0.062962   0.205621
    31  H    0.000051   0.000000  -0.000001  -0.000004   0.009476  -0.028881
    32  H    0.001651   0.000000   0.000001   0.000041  -0.000943  -0.037578
    33  H   -0.000509   0.000017   0.000117   0.000669  -0.006564  -0.037210
    34  C    0.000316   0.000017  -0.000007  -0.000255   0.023567  -0.090361
    35  H   -0.000031   0.000000   0.000000   0.000000  -0.002388  -0.000864
    36  H    0.000000   0.000000   0.000000   0.000000  -0.000969   0.016824
    37  H    0.000012   0.000000   0.000000   0.000000   0.009317  -0.006668
    38  C   -0.000419  -0.000003  -0.000009   0.000006   0.014894  -0.030998
    39  H    0.000001   0.000000   0.000000   0.000000   0.000762  -0.010182
    40  H    0.000013   0.000000   0.000000   0.000000   0.000441  -0.012097
    41  H    0.000001   0.000000   0.000000   0.000000  -0.000677   0.019244
    42  C   -0.003392   0.000000   0.000030  -0.000043  -0.005210  -0.148247
    43  H    0.000001   0.000000   0.000000   0.000000  -0.000733   0.021019
    44  H    0.000018   0.000000   0.000000   0.000000  -0.004432   0.009100
    45  H   -0.000083   0.000000   0.000000   0.000000   0.007821  -0.022777
    46  H   -0.000106   0.000000   0.000000   0.000000  -0.000065   0.000057
    47  H    0.001395   0.000000   0.000000   0.000000  -0.000114  -0.000705
             25         26         27         28         29         30
     1  H   -0.002994   0.000001  -0.000004  -0.000003  -0.000425  -0.005790
     2  C    0.105600   0.005811  -0.005933   0.003242  -0.035366   0.077217
     3  C    0.001809  -0.000052  -0.000125  -0.000632  -0.034837   0.007139
     4  C    0.019522   0.000085   0.002327  -0.001329  -0.020378   0.033391
     5  C    0.009872   0.000081   0.000466   0.002279   0.019058  -0.018806
     6  C   -0.105752  -0.002068  -0.002623  -0.003046   0.055944  -0.048366
     7  C   -0.045167   0.000397  -0.000040   0.001724   0.009896  -0.071870
     8  H   -0.000457   0.000000   0.000000  -0.000001   0.000987   0.000132
     9  H   -0.004074   0.000002   0.000026   0.000053  -0.000549  -0.001127
    10  H   -0.002324   0.000000   0.000000   0.000000   0.000954  -0.001598
    11  H   -0.000006   0.000000   0.000000   0.000000   0.000075   0.000369
    12  H    0.000052   0.000000   0.000000   0.000000   0.000335   0.000069
    13  H   -0.000024   0.000000   0.000000   0.000000  -0.000534  -0.000282
    14  O   -0.000042   0.000000   0.000001   0.000001   0.000271   0.000009
    15  C   -0.001108  -0.000001   0.000117   0.000087   0.004855  -0.001087
    16  O   -0.000091   0.000003  -0.000042   0.000051  -0.000163  -0.000708
    17  H    0.000029   0.000000   0.000033  -0.000002  -0.000028  -0.000023
    18  O   -0.033804   0.000372  -0.000872  -0.000128   0.007278  -0.018124
    19  C    0.015939  -0.000371   0.003328  -0.000634   0.001759   0.012314
    20  H   -0.000477   0.000000  -0.000016   0.000000   0.000056  -0.000676
    21  H   -0.000516  -0.000002   0.000144   0.000001  -0.000038  -0.000710
    22  H   -0.000510  -0.000001   0.000076   0.000000   0.000402   0.000664
    23  O   -0.048509   0.010183  -0.001707  -0.011031  -0.054870  -0.062962
    24  Si   0.140748  -0.030398  -0.042857  -0.022230   0.268530   0.205621
    25  C    5.562146   0.394209   0.406050   0.398707  -0.142478   0.036580
    26  H    0.394209   0.497452  -0.021898  -0.022395  -0.018430  -0.011130
    27  H    0.406050  -0.021898   0.476073  -0.021709   0.014075  -0.007927
    28  H    0.398707  -0.022395  -0.021709   0.492659  -0.014543   0.007831
    29  C   -0.142478  -0.018430   0.014075  -0.014543   8.047385  -0.132098
    30  C    0.036580  -0.011130  -0.007927   0.007831  -0.132098   5.511478
    31  H   -0.007747   0.000113   0.000090   0.000018  -0.018226   0.398287
    32  H    0.007576   0.000020   0.000004  -0.000016  -0.021346   0.413296
    33  H   -0.009289   0.000133   0.000458   0.000003   0.015438   0.392465
    34  C    0.000244  -0.000074  -0.001567  -0.002373  -0.310263   0.022195
    35  H   -0.000088   0.000001  -0.000001   0.000000  -0.062301   0.001708
    36  H   -0.001423   0.000000   0.000000   0.000000  -0.153560   0.000164
    37  H   -0.000992   0.000000  -0.000001   0.000001  -0.116053  -0.000796
    38  C    0.023866   0.007597  -0.001923  -0.001488  -0.391181   0.007433
    39  H   -0.000232  -0.000001  -0.000006   0.000024  -0.081288   0.002097
    40  H    0.003874  -0.000085   0.000016   0.000027  -0.084679  -0.000172
    41  H   -0.000139   0.000025   0.000000  -0.000008  -0.151438   0.000986
    42  C   -0.030190   0.008431   0.002122   0.010895  -0.279050  -0.033588
    43  H    0.000346  -0.000001   0.000000  -0.000011  -0.157416  -0.001696
    44  H   -0.000105   0.000061  -0.000003   0.000301  -0.064350   0.000212
    45  H    0.000122   0.000003  -0.000006   0.000030  -0.097478  -0.000808
    46  H    0.000003   0.000000   0.000000   0.000000  -0.000009  -0.000005
    47  H    0.000027   0.000000   0.000000   0.000000   0.000010   0.000007
             31         32         33         34         35         36
     1  H    0.000034   0.000214  -0.000714  -0.004656   0.000003   0.000000
     2  C   -0.001751   0.001411   0.004750  -0.047465   0.000374   0.000267
     3  C    0.000059   0.000743  -0.000012   0.041005  -0.000874  -0.000077
     4  C    0.000389   0.000408  -0.001483   0.014888  -0.000049   0.000098
     5  C   -0.000065  -0.000809   0.000162  -0.030268   0.000177  -0.000111
     6  C    0.000282   0.000729  -0.000202   0.026392   0.000374  -0.000166
     7  C    0.000730  -0.009710   0.003258  -0.007681   0.000212   0.000919
     8  H    0.000000   0.000000   0.000000  -0.000370   0.000000   0.000000
     9  H    0.000000   0.000000   0.000001  -0.000307   0.000000   0.000000
    10  H    0.000000   0.000000   0.000004  -0.000270   0.000000   0.000000
    11  H    0.000000   0.000001   0.000000   0.000227   0.000000   0.000000
    12  H    0.000000   0.000000   0.000000  -0.000293   0.000000   0.000000
    13  H    0.000000   0.000014  -0.000002   0.001599  -0.000009  -0.000004
    14  O    0.000000   0.000000   0.000000   0.000072   0.000000   0.000000
    15  C   -0.000005  -0.000020   0.000046  -0.000155   0.000001   0.000000
    16  O    0.000000  -0.000001  -0.000004   0.000031   0.000000   0.000000
    17  H    0.000000   0.000000   0.000000  -0.000012   0.000000   0.000000
    18  O    0.000101   0.000214   0.000155   0.000089  -0.000002   0.000000
    19  C    0.000051   0.001651  -0.000509   0.000316  -0.000031   0.000000
    20  H    0.000000   0.000000   0.000017   0.000017   0.000000   0.000000
    21  H   -0.000001   0.000001   0.000117  -0.000007   0.000000   0.000000
    22  H   -0.000004   0.000041   0.000669  -0.000255   0.000000   0.000000
    23  O    0.009476  -0.000943  -0.006564   0.023567  -0.002388  -0.000969
    24  Si  -0.028881  -0.037578  -0.037210  -0.090361  -0.000864   0.016824
    25  C   -0.007747   0.007576  -0.009289   0.000244  -0.000088  -0.001423
    26  H    0.000113   0.000020   0.000133  -0.000074   0.000001   0.000000
    27  H    0.000090   0.000004   0.000458  -0.001567  -0.000001   0.000000
    28  H    0.000018  -0.000016   0.000003  -0.002373   0.000000   0.000000
    29  C   -0.018226  -0.021346   0.015438  -0.310263  -0.062301  -0.153560
    30  C    0.398287   0.413296   0.392465   0.022195   0.001708   0.000164
    31  H    0.485860  -0.021539  -0.021126   0.005084   0.000080  -0.000002
    32  H   -0.021539   0.491061  -0.023437   0.011197  -0.000083   0.000002
    33  H   -0.021126  -0.023437   0.496384   0.000915   0.000019   0.000000
    34  C    0.005084   0.011197   0.000915   5.851017   0.420578   0.452875
    35  H    0.000080  -0.000083   0.000019   0.420578   0.535743  -0.027898
    36  H   -0.000002   0.000002   0.000000   0.452875  -0.027898   0.543215
    37  H    0.000017   0.000064  -0.000005   0.480810  -0.026829  -0.027166
    38  C    0.007461   0.003832  -0.000293   0.004622  -0.004807   0.009247
    39  H    0.000553   0.000023  -0.000013  -0.012698   0.002710  -0.000322
    40  H   -0.000004   0.000006  -0.000006   0.004101   0.000028   0.000007
    41  H    0.000007  -0.000004   0.000001   0.005118  -0.000330   0.005412
    42  C    0.000908  -0.004029  -0.000527  -0.269290   0.000339   0.014687
    43  H    0.000000   0.000000   0.000000  -0.001576   0.000033   0.005530
    44  H    0.000000   0.000000  -0.000001   0.003187  -0.000152   0.000019
    45  H    0.000000   0.000002   0.000000  -0.002142   0.000023  -0.000299
    46  H    0.000000   0.000000   0.000000   0.000004   0.000000   0.000000
    47  H    0.000000   0.000000   0.000000   0.000000   0.000000   0.000000
             37         38         39         40         41         42
     1  H    0.000008   0.000262   0.000000   0.000000   0.000000   0.002223
     2  C    0.000394  -0.015619   0.000706  -0.000402  -0.000396   0.038812
     3  C    0.006302  -0.004786  -0.000025   0.000007  -0.000048  -0.023602
     4  C    0.000713  -0.012302  -0.000029  -0.000062   0.000012   0.010402
     5  C   -0.001297   0.010317   0.000026   0.000005   0.000001   0.011245
     6  C   -0.000281   0.020652  -0.000034   0.000087  -0.000002  -0.064566
     7  C   -0.009549  -0.007258   0.000090  -0.000056   0.000057   0.059398
     8  H    0.000049   0.000488   0.000000   0.000000   0.000000  -0.002092
     9  H    0.000000   0.000659   0.000000   0.000000   0.000000  -0.001515
    10  H    0.000000   0.000034   0.000000   0.000000   0.000000  -0.000056
    11  H    0.000003   0.000066   0.000000   0.000000   0.000000  -0.000154
    12  H   -0.000001  -0.000004   0.000000   0.000000   0.000000   0.000150
    13  H    0.000633  -0.000007   0.000000   0.000000   0.000000  -0.002387
    14  O    0.000000  -0.000068   0.000000   0.000000   0.000000  -0.000061
    15  C   -0.000083  -0.000159   0.000000   0.000001   0.000000   0.000697
    16  O    0.000000  -0.000098   0.000000   0.000000   0.000000   0.000648
    17  H    0.000000   0.000003   0.000000   0.000000   0.000000   0.000037
    18  O   -0.000016  -0.001123  -0.000001  -0.000003   0.000001   0.001097
    19  C    0.000012  -0.000419   0.000001   0.000013   0.000001  -0.003392
    20  H    0.000000  -0.000003   0.000000   0.000000   0.000000   0.000000
    21  H    0.000000  -0.000009   0.000000   0.000000   0.000000   0.000030
    22  H    0.000000   0.000006   0.000000   0.000000   0.000000  -0.000043
    23  O    0.009317   0.014894   0.000762   0.000441  -0.000677  -0.005210
    24  Si  -0.006668  -0.030998  -0.010182  -0.012097   0.019244  -0.148247
    25  C   -0.000992   0.023866  -0.000232   0.003874  -0.000139  -0.030190
    26  H    0.000000   0.007597  -0.000001  -0.000085   0.000025   0.008431
    27  H   -0.000001  -0.001923  -0.000006   0.000016   0.000000   0.002122
    28  H    0.000001  -0.001488   0.000024   0.000027  -0.000008   0.010895
    29  C   -0.116053  -0.391181  -0.081288  -0.084679  -0.151438  -0.279050
    30  C   -0.000796   0.007433   0.002097  -0.000172   0.000986  -0.033588
    31  H    0.000017   0.007461   0.000553  -0.000004   0.000007   0.000908
    32  H    0.000064   0.003832   0.000023   0.000006  -0.000004  -0.004029
    33  H   -0.000005  -0.000293  -0.000013  -0.000006   0.000001  -0.000527
    34  C    0.480810   0.004622  -0.012698   0.004101   0.005118  -0.269290
    35  H   -0.026829  -0.004807   0.002710   0.000028  -0.000330   0.000339
    36  H   -0.027166   0.009247  -0.000322   0.000007   0.005412   0.014687
    37  H    0.525586  -0.002298   0.000033  -0.000145   0.000023  -0.007167
    38  C   -0.002298   5.656450   0.444199   0.461096   0.451902  -0.119550
    39  H    0.000033   0.444199   0.536933  -0.027293  -0.028050   0.007821
    40  H   -0.000145   0.461096  -0.027293   0.529695  -0.027481  -0.019174
    41  H    0.000023   0.451902  -0.028050  -0.027481   0.540364   0.015228
    42  C   -0.007167  -0.119550   0.007821  -0.019174   0.015228   6.029346
    43  H   -0.000328   0.009374  -0.000002  -0.000329   0.005399   0.470193
    44  H    0.000040  -0.004278   0.000030   0.002726  -0.000362   0.412276
    45  H    0.003086   0.002758  -0.000146   0.000039   0.000014   0.466014
    46  H    0.000000   0.000000   0.000000   0.000000   0.000000   0.000006
    47  H    0.000000   0.000000   0.000000   0.000000   0.000000  -0.000001
             43         44         45         46         47
     1  H    0.000000   0.000000  -0.000005   0.000000   0.000000
     2  C    0.000215  -0.000024  -0.005421  -0.007371  -0.011762
     3  C   -0.000117   0.001123  -0.003686   0.040764  -0.008685
     4  C    0.000166  -0.000406   0.001559  -0.021049   0.113274
     5  C   -0.000252  -0.000456   0.001577  -0.104827  -0.240754
     6  C   -0.000208   0.000296   0.002312   0.013555   0.021682
     7  C    0.000203  -0.000983   0.002483   0.008423   0.001284
     8  H   -0.000002  -0.000008   0.000833   0.000033  -0.000132
     9  H    0.000000  -0.000005   0.000018  -0.000092  -0.000100
    10  H    0.000000   0.000000   0.000000  -0.000133  -0.000134
    11  H    0.000000   0.000000   0.000001  -0.000064  -0.000067
    12  H    0.000000   0.000000  -0.000003   0.001126   0.000191
    13  H    0.000000   0.000001   0.000003  -0.000013   0.000000
    14  O    0.000000   0.000001  -0.000014  -0.036186  -0.024036
    15  C   -0.000007   0.000022  -0.000182   0.434781   0.492882
    16  O    0.000000   0.000000  -0.000004   0.001362  -0.005588
    17  H    0.000000   0.000000   0.000000   0.000000  -0.000099
    18  O    0.000002  -0.000017  -0.000058   0.000008  -0.000274
    19  C    0.000001   0.000018  -0.000083  -0.000106   0.001395
    20  H    0.000000   0.000000   0.000000   0.000000   0.000000
    21  H    0.000000   0.000000   0.000000   0.000000   0.000000
    22  H    0.000000   0.000000   0.000000   0.000000   0.000000
    23  O   -0.000733  -0.004432   0.007821  -0.000065  -0.000114
    24  Si   0.021019   0.009100  -0.022777   0.000057  -0.000705
    25  C    0.000346  -0.000105   0.000122   0.000003   0.000027
    26  H   -0.000001   0.000061   0.000003   0.000000   0.000000
    27  H    0.000000  -0.000003  -0.000006   0.000000   0.000000
    28  H   -0.000011   0.000301   0.000030   0.000000   0.000000
    29  C   -0.157416  -0.064350  -0.097478  -0.000009   0.000010
    30  C   -0.001696   0.000212  -0.000808  -0.000005   0.000007
    31  H    0.000000   0.000000   0.000000   0.000000   0.000000
    32  H    0.000000   0.000000   0.000002   0.000000   0.000000
    33  H    0.000000  -0.000001   0.000000   0.000000   0.000000
    34  C   -0.001576   0.003187  -0.002142   0.000004   0.000000
    35  H    0.000033  -0.000152   0.000023   0.000000   0.000000
    36  H    0.005530   0.000019  -0.000299   0.000000   0.000000
    37  H   -0.000328   0.000040   0.003086   0.000000   0.000000
    38  C    0.009374  -0.004278   0.002758   0.000000   0.000000
    39  H   -0.000002   0.000030  -0.000146   0.000000   0.000000
    40  H   -0.000329   0.002726   0.000039   0.000000   0.000000
    41  H    0.005399  -0.000362   0.000014   0.000000   0.000000
    42  C    0.470193   0.412276   0.466014   0.000006  -0.000001
    43  H    0.544245  -0.028205  -0.027483   0.000000   0.000000
    44  H   -0.028205   0.534824  -0.025643   0.000000   0.000000
    45  H   -0.027483  -0.025643   0.519359   0.000000   0.000000
    46  H    0.000000   0.000000   0.000000   0.538658  -0.034525
    47  H    0.000000   0.000000   0.000000  -0.034525   0.513702
 Mulliken atomic charges:
              1
     1  H    0.145640
     2  C    0.174637
     3  C   -0.154504
     4  C    0.001866
     5  C   -0.366657
     6  C   -0.141996
     7  C   -0.467213
     8  H    0.193935
     9  H    0.178808
    10  H    0.152930
    11  H    0.173816
    12  H    0.168277
    13  H    0.172731
    14  O   -0.327181
    15  C   -0.088075
    16  O   -0.521452
    17  H    0.392942
    18  O   -0.287985
    19  C   -0.112148
    20  H    0.160891
    21  H    0.171012
    22  H    0.154182
    23  O   -0.275134
    24  Si   0.595769
    25  C   -0.688782
    26  H    0.181927
    27  H    0.203851
    28  H    0.183645
    29  C   -0.003935
    30  C   -0.711314
    31  H    0.189752
    32  H    0.187006
    33  H    0.186403
    34  C   -0.588067
    35  H    0.164304
    36  H    0.162729
    37  H    0.172584
    38  C   -0.538549
    39  H    0.164314
    40  H    0.169819
    41  H    0.165139
    42  C   -0.549116
    43  H    0.161639
    44  H    0.165193
    45  H    0.178181
    46  H    0.165665
    47  H    0.182523
 Sum of Mulliken atomic charges =   0.00000
 Mulliken charges with hydrogens summed into heavy atoms:
              1
     2  C    0.320276
     3  C    0.207708
     4  C    0.180673
     5  C   -0.366657
     6  C    0.010934
     7  C   -0.120666
    14  O   -0.327181
    15  C    0.260112
    16  O   -0.128510
    18  O   -0.287985
    19  C    0.373938
    23  O   -0.275134
    24  Si   0.595769
    25  C   -0.119359
    29  C   -0.003935
    30  C   -0.148154
    34  C   -0.088450
    38  C   -0.039277
    42  C   -0.044104
 Sum of Mulliken charges with hydrogens summed into heavy atoms =   0.00000
 Electronic spatial extent (au):  <R**2>=           6264.7041
 Charge=              0.0000 electrons
 Dipole moment (field-independent basis, Debye):
    X=              2.1016    Y=              3.3766    Z=              4.6035  Tot=              6.0837
 Quadrupole moment (field-independent basis, Debye-Ang):
   XX=           -134.2564   YY=           -121.6469   ZZ=           -126.6512
   XY=             -5.8905   XZ=            -14.0995   YZ=             -2.9414
 Traceless Quadrupole moment (field-independent basis, Debye-Ang):
   XX=             -6.7382   YY=              5.8713   ZZ=              0.8670
   XY=             -5.8905   XZ=            -14.0995   YZ=             -2.9414
 Octapole moment (field-independent basis, Debye-Ang**2):
  XXX=             -0.2815  YYY=             49.1012  ZZZ=              3.4526  XYY=            -11.6831
  XXY=             24.8193  XXZ=             49.0468  XZZ=             -2.2166  YZZ=              8.2449
  YYZ=             12.4833  XYZ=             17.3672
 Hexadecapole moment (field-independent basis, Debye-Ang**3):
 XXXX=          -5600.7514 YYYY=          -1884.9166 ZZZZ=           -988.2194 XXXY=            -23.7071
 XXXZ=           -170.8405 YYYX=            -80.8580 YYYZ=            -26.4787 ZZZX=              1.0459
 ZZZY=             -9.3655 XXYY=          -1269.2490 XXZZ=          -1141.3545 YYZZ=           -499.1425
 XXYZ=            -68.7296 YYXZ=            -33.1230 ZZXY=            -18.2449
 N-N= 1.827865697322D+03 E-N=-6.326189766205D+03  KE= 1.131534563817D+03
 1\1\GINC-COMPUTE-8-17\SP\RmPW1PW91\6-31+G(d,p)\C14H28O4Si1\ELUCIANO.IQ
 UIR\06-Dec-2022\0\\# mPW1PW91/6-31+g** scrf=(PCM,solvent=chloroform) n
 mr\\comment\\0,1\H,0,0.126296,0.812729,-1.947989\C,0,0.539694,0.177697
 ,-1.150503\C,0,1.868632,-1.941696,-0.705129\C,0,2.283462,0.131108,0.71
 4479\C,0,2.868726,-1.142903,0.116661\C,0,1.630312,0.963473,-0.400978\C
 ,0,1.180741,-1.073476,-1.7731\H,0,1.107281,-2.3473,-0.028119\H,0,1.504
 089,-0.155394,1.436617\H,0,2.420459,1.229101,-1.121319\H,0,1.910575,-0
 .757996,-2.531361\H,0,2.3775,-2.79554,-1.164793\H,0,0.405421,-1.649639
 ,-2.28953\O,0,3.706057,-1.915388,0.981552\C,0,4.316557,-1.244076,-0.13
 3924\O,0,3.294126,0.890993,1.353626\H,0,2.86571,1.734184,1.577308\O,0,
 1.144806,2.16221,0.209945\C,0,1.206986,3.310599,-0.621179\H,0,2.241712
 ,3.528635,-0.924394\H,0,0.82153,4.148101,-0.0341\H,0,0.592638,3.201501
 ,-1.525832\O,0,-0.49607,-0.237199,-0.273877\Si,0,-1.963007,0.491831,0.
 120755\C,0,-1.818881,1.37178,1.782654\H,0,-2.746819,1.892993,2.047628\
 H,0,-1.009929,2.107955,1.740654\H,0,-1.585761,0.67094,2.592473\C,0,-3.
 218936,-0.951913,0.214755\C,0,-2.458391,1.739167,-1.215427\H,0,-3.4736
 6,2.110116,-1.029029\H,0,-2.45005,1.303662,-2.221324\H,0,-1.795016,2.6
 11597,-1.220929\C,0,-3.36931,-1.615237,-1.170718\H,0,-3.75651,-0.91506
 4,-1.921367\H,0,-4.073316,-2.458521,-1.118704\H,0,-2.412931,-2.006592,
 -1.536813\C,0,-4.597286,-0.427549,0.673772\H,0,-5.006193,0.321357,-0.0
 16287\H,0,-4.555473,0.024457,1.672299\H,0,-5.322463,-1.252864,0.721312
 \C,0,-2.721561,-2.00945,1.223656\H,0,-3.428941,-2.850031,1.278351\H,0,
 -2.627342,-1.597868,2.235962\H,0,-1.745129,-2.41438,0.93545\H,0,4.6769
 06,-1.898375,-0.92949\H,0,4.965688,-0.413464,0.13269\\Version=EM64L-G0
 9RevC.01\State=1-A\HF=-1140.6256509\RMSD=4.365e-09\Dipole=-0.8268358,1
 .3284748,-1.8111759\Quadrupole=-5.0097181,4.3651325,0.6445856,4.379469
 2,-10.4826322,2.1868655\PG=C01 [X(C14H28O4Si1)]\\@


 ALL MEN WHO EXPLORE
 DEPLORE
 THAT FRUSTRATING HURDLE
 THE GIRDLE.

         -- COLIN FLETCHER
 Job cpu time:  0 days  3 hours 50 minutes 14.2 seconds.
 File lengths (MBytes):  RWF=    297 Int=      0 D2E=      0 Chk=     16 Scr=      1
 Normal termination of Gaussian 09 at Tue Dec  6 23:53:48 2022.
