 Entering Gaussian System, Link 0=g09
 Input=/home/eluciano.iquir/todos_optB3L_MPW_B_PCM/01_epoxido28_015_optB3L_nmr_MPW_B_PCM.gjc
 Output=/home/eluciano.iquir/todos_optB3L_MPW_B_PCM/01_epoxido28_015_optB3L_nmr_MPW_B_PCM.log
 Initial command:
 /share/apps/Gaussian09/EM64T.SSE4.2-enabled/g09/l1.exe /tmp/Gau-39078.inp -scrdir=/tmp/
 Entering Link 1 = /share/apps/Gaussian09/EM64T.SSE4.2-enabled/g09/l1.exe PID=     39079.
  
 Copyright (c) 1988,1990,1992,1993,1995,1998,2003,2009,2011,
            Gaussian, Inc.  All Rights Reserved.
  
 This is part of the Gaussian(R) 09 program.  It is based on
 the Gaussian(R) 03 system (copyright 2003, Gaussian, Inc.),
 the Gaussian(R) 98 system (copyright 1998, Gaussian, Inc.),
 the Gaussian(R) 94 system (copyright 1995, Gaussian, Inc.),
 the Gaussian 92(TM) system (copyright 1992, Gaussian, Inc.),
 the Gaussian 90(TM) system (copyright 1990, Gaussian, Inc.),
 the Gaussian 88(TM) system (copyright 1988, Gaussian, Inc.),
 the Gaussian 86(TM) system (copyright 1986, Carnegie Mellon
 University), and the Gaussian 82(TM) system (copyright 1983,
 Carnegie Mellon University). Gaussian is a federally registered
 trademark of Gaussian, Inc.
  
 This software contains proprietary and confidential information,
 including trade secrets, belonging to Gaussian, Inc.
  
 This software is provided under written license and may be
 used, copied, transmitted, or stored only in accord with that
 written license.
  
 The following legend is applicable only to US Government
 contracts under FAR:
  
                    RESTRICTED RIGHTS LEGEND
  
 Use, reproduction and disclosure by the US Government is
 subject to restrictions as set forth in subparagraphs (a)
 and (c) of the Commercial Computer Software - Restricted
 Rights clause in FAR 52.227-19.
  
 Gaussian, Inc.
 340 Quinnipiac St., Bldg. 40, Wallingford CT 06492
  
  
 ---------------------------------------------------------------
 Warning -- This program may not be used in any manner that
 competes with the business of Gaussian, Inc. or will provide
 assistance to any competitor of Gaussian, Inc.  The licensee
 of this program is prohibited from giving any competitor of
 Gaussian, Inc. access to this program.  By using this program,
 the user acknowledges that Gaussian, Inc. is engaged in the
 business of creating and licensing software in the field of
 computational chemistry and represents and warrants to the
 licensee that it is not a competitor of Gaussian, Inc. and that
 it will not use this program in any manner prohibited above.
 ---------------------------------------------------------------
  

 Cite this work as:
 Gaussian 09, Revision C.01,
 M. J. Frisch, G. W. Trucks, H. B. Schlegel, G. E. Scuseria, 
 M. A. Robb, J. R. Cheeseman, G. Scalmani, V. Barone, B. Mennucci, 
 G. A. Petersson, H. Nakatsuji, M. Caricato, X. Li, H. P. Hratchian, 
 A. F. Izmaylov, J. Bloino, G. Zheng, J. L. Sonnenberg, M. Hada, 
 M. Ehara, K. Toyota, R. Fukuda, J. Hasegawa, M. Ishida, T. Nakajima, 
 Y. Honda, O. Kitao, H. Nakai, T. Vreven, J. A. Montgomery, Jr., 
 J. E. Peralta, F. Ogliaro, M. Bearpark, J. J. Heyd, E. Brothers, 
 K. N. Kudin, V. N. Staroverov, T. Keith, R. Kobayashi, J. Normand, 
 K. Raghavachari, A. Rendell, J. C. Burant, S. S. Iyengar, J. Tomasi, 
 M. Cossi, N. Rega, J. M. Millam, M. Klene, J. E. Knox, J. B. Cross, 
 V. Bakken, C. Adamo, J. Jaramillo, R. Gomperts, R. E. Stratmann, 
 O. Yazyev, A. J. Austin, R. Cammi, C. Pomelli, J. W. Ochterski, 
 R. L. Martin, K. Morokuma, V. G. Zakrzewski, G. A. Voth, 
 P. Salvador, J. J. Dannenberg, S. Dapprich, A. D. Daniels, 
 O. Farkas, J. B. Foresman, J. V. Ortiz, J. Cioslowski, 
 and D. J. Fox, Gaussian, Inc., Wallingford CT, 2010.
 
 ******************************************
 Gaussian 09:  EM64L-G09RevC.01 23-Sep-2011
                 6-Dec-2022 
 ******************************************
 %nprocshared=4
 Will use up to    4 processors via shared memory.
 %mem=80MW
 -----------------------------------------------------
 # mPW1PW91/6-31+g** scrf=(PCM,solvent=chloroform) nmr
 -----------------------------------------------------
 1/38=1/1;
 2/12=2,17=6,18=5,40=1/2;
 3/5=1,6=6,7=111,11=2,16=1,25=1,30=1,70=2201,72=7,74=-7/1,2,8,3;
 4//1;
 5/5=2,38=5,53=7/2;
 8/6=1,10=90,11=11/1;
 10/13=100,45=16/2;
 6/7=2,8=2,9=2,10=2,28=1/1;
 99/9=1/99;
 -------
 comment
 -------
 Charge =  0 Multiplicity = 1
 Symbolic Z-Matrix:
 1                    -0.16098   0.9671    2.03461 
 6                    -0.60618   0.26855   1.31508 
 6                    -2.33919  -1.65161   1.32043 
 6                    -2.35564   0.11708  -0.52268 
 6                    -2.26945  -1.36947  -0.16422 
 6                    -1.7282    1.00528   0.57451 
 6                    -1.17747  -0.95148   2.07124 
 1                    -2.33721  -2.73101   1.50154 
 1                    -1.82035   0.30093  -1.46459 
 1                    -2.5248    1.23203   1.30276 
 1                    -1.52335  -0.63315   3.06158 
 1                    -3.30416  -1.27179   1.67955 
 1                    -0.34505  -1.64379   2.22925 
 6                    -1.67839  -2.31879  -1.11114 
 1                    -1.23345  -1.95669  -2.03736 
 1                    -1.28417  -3.26804  -0.7482 
 8                    -3.11033  -2.18034  -1.01603 
 8                    -3.72852   0.48646  -0.64919 
 1                    -4.13263  -0.20963  -1.19734 
 8                    -1.19742   2.22023   0.06647 
 6                    -2.17303   3.17919  -0.3207 
 1                    -1.62403   4.07119  -0.63343 
 1                    -2.82993   3.43689   0.52377 
 1                    -2.79873   2.82177  -1.14644 
 8                     0.39177  -0.18774   0.40665 
 14                    1.76243   0.62155  -0.15672 
 6                     1.45759   1.21207  -1.92294 
 1                     2.32417   1.74943  -2.32676 
 1                     0.60067   1.89308  -1.93147 
 1                     1.23519   0.38109  -2.60238 
 6                     3.16348  -0.68754  -0.10719 
 6                     2.1613    2.10394   0.94473 
 1                     3.05725   2.62246   0.58219 
 1                     2.34419   1.82272   1.98826 
 1                     1.33128   2.81824   0.92747 
 6                     3.43714  -1.11477   1.35039 
 1                     3.7863   -0.27651   1.96564 
 1                     4.21678  -1.89002   1.38388 
 1                     2.54003  -1.52919   1.82532 
 6                     4.45859  -0.10114  -0.71053 
 1                     4.80471   0.7846   -0.16305 
 1                     4.33143   0.18379  -1.76212 
 1                     5.2694   -0.84326  -0.67102 
 6                     2.75025  -1.93463  -0.91886 
 1                     3.54481  -2.69479  -0.88603 
 1                     2.5721   -1.69776  -1.9753 
 1                     1.83764  -2.39032  -0.51805 
 
                          Input orientation:                          
 ---------------------------------------------------------------------
 Center     Atomic      Atomic             Coordinates (Angstroms)
 Number     Number       Type             X           Y           Z
 ---------------------------------------------------------------------
      1          1           0       -0.160975    0.967100    2.034612
      2          6           0       -0.606178    0.268548    1.315076
      3          6           0       -2.339185   -1.651611    1.320426
      4          6           0       -2.355637    0.117079   -0.522684
      5          6           0       -2.269449   -1.369470   -0.164224
      6          6           0       -1.728201    1.005280    0.574508
      7          6           0       -1.177468   -0.951478    2.071240
      8          1           0       -2.337207   -2.731011    1.501541
      9          1           0       -1.820349    0.300932   -1.464588
     10          1           0       -2.524797    1.232031    1.302757
     11          1           0       -1.523345   -0.633152    3.061582
     12          1           0       -3.304158   -1.271791    1.679551
     13          1           0       -0.345053   -1.643790    2.229247
     14          6           0       -1.678391   -2.318788   -1.111139
     15          1           0       -1.233449   -1.956692   -2.037357
     16          1           0       -1.284172   -3.268042   -0.748199
     17          8           0       -3.110325   -2.180342   -1.016034
     18          8           0       -3.728516    0.486459   -0.649190
     19          1           0       -4.132628   -0.209627   -1.197339
     20          8           0       -1.197421    2.220232    0.066474
     21          6           0       -2.173029    3.179192   -0.320701
     22          1           0       -1.624030    4.071189   -0.633431
     23          1           0       -2.829932    3.436885    0.523772
     24          1           0       -2.798725    2.821774   -1.146436
     25          8           0        0.391766   -0.187742    0.406646
     26         14           0        1.762429    0.621549   -0.156717
     27          6           0        1.457594    1.212065   -1.922936
     28          1           0        2.324166    1.749429   -2.326762
     29          1           0        0.600672    1.893084   -1.931472
     30          1           0        1.235186    0.381090   -2.602383
     31          6           0        3.163476   -0.687535   -0.107191
     32          6           0        2.161299    2.103940    0.944726
     33          1           0        3.057246    2.622462    0.582193
     34          1           0        2.344186    1.822715    1.988256
     35          1           0        1.331276    2.818237    0.927473
     36          6           0        3.437135   -1.114769    1.350390
     37          1           0        3.786303   -0.276509    1.965637
     38          1           0        4.216779   -1.890019    1.383876
     39          1           0        2.540031   -1.529185    1.825316
     40          6           0        4.458590   -0.101144   -0.710532
     41          1           0        4.804715    0.784599   -0.163045
     42          1           0        4.331429    0.183785   -1.762116
     43          1           0        5.269399   -0.843258   -0.671016
     44          6           0        2.750252   -1.934630   -0.918863
     45          1           0        3.544809   -2.694788   -0.886026
     46          1           0        2.572102   -1.697759   -1.975297
     47          1           0        1.837640   -2.390318   -0.518052
 ---------------------------------------------------------------------
                    Distance matrix (angstroms):
                    1          2          3          4          5
     1  H    0.000000
     2  C    1.097230   0.000000
     3  C    3.480274   2.586572   0.000000
     4  C    3.475463   2.541832   2.554523   0.000000
     5  C    3.839284   2.763675   1.512829   1.531584   0.000000
     6  C    2.142326   1.533020   2.826440   1.544800   2.545214
     7  C    2.171530   1.544869   1.550321   3.042752   2.522784
     8  H    4.323907   3.468225   1.094491   3.494201   2.152477
     9  H    3.929593   3.033446   3.440628   1.098871   2.163996
    10  H    2.488665   2.146986   2.889664   2.145686   2.997506
    11  H    2.339129   2.168995   2.175886   3.755332   3.391852
    12  H    3.875345   3.128032   1.097455   2.771009   2.116523
    13  H    2.624598   2.135634   2.191479   3.836174   3.083384
    14  C    4.795348   3.705465   2.606584   2.595841   1.465333
    15  H    5.126372   4.072342   3.548300   2.802511   2.219629
    16  H    5.190572   4.150211   2.829330   3.557800   2.217290
    17  O    5.283133   4.207361   2.516597   2.468014   1.445741
    18  O    4.490118   3.695243   3.221951   1.427320   2.410091
    19  H    5.253972   4.356229   3.410996   1.928625   2.425695
    20  O    2.553062   2.391160   4.226960   2.472210   3.753455
    21  C    3.806470   3.688175   5.104661   3.074196   4.552374
    22  H    4.346763   4.392355   6.089289   4.022748   5.498863
    23  H    3.937741   3.950899   5.173807   3.512996   4.887589
    24  H    4.529526   4.169564   5.129109   2.810831   4.337211
    25  O    2.071100   1.424548   3.230480   2.916298   2.967227
    26  Si   2.936122   2.810887   4.916548   4.164960   4.496694
    27  C    4.282751   3.953998   5.756350   4.207188   4.862946
    28  H    5.080310   4.903357   6.827583   5.274450   5.958641
    29  H    4.143353   3.825660   5.637594   3.725405   4.690951
    30  H    4.877950   4.330101   5.682995   4.157987   4.614276
    31  C    4.286853   4.140921   5.766005   5.592910   5.475853
    32  C    2.805925   3.341370   5.873642   5.148167   5.738107
    33  H    3.899576   4.415734   6.923450   6.066053   6.698234
    34  H    2.647651   3.401949   5.869489   5.594850   6.009063
    35  H    2.622838   3.225659   5.797089   4.795053   5.629735
    36  C    4.212925   4.273546   5.801290   6.211446   5.909656
    37  H    4.139121   4.473724   6.311007   6.638530   6.511759
    38  H    5.267952   5.284417   6.560604   7.131624   6.688702
    39  H    3.683840   3.659347   4.906796   5.673698   5.207195
    40  C    5.478808   5.467324   7.262127   6.820308   6.868305
    41  H    5.433330   5.632842   7.692276   7.200386   7.394850
    42  H    5.933837   5.818613   7.574156   6.801286   6.966882
    43  H    6.331412   6.301038   7.906316   7.686704   7.574164
    44  C    5.061452   4.594573   5.567485   5.516935   5.107473
    45  H    5.972636   5.554899   6.370089   6.546287   6.006918
    46  H    5.536294   4.979396   5.914783   5.448517   5.179611
    47  H    4.667206   4.049960   4.622938   4.885758   4.246823
                    6          7          8          9         10
     6  C    0.000000
     7  C    2.524364   0.000000
     8  H    3.897454   2.199156   0.000000
     9  H    2.159285   3.805773   4.272908   0.000000
    10  H    1.102873   2.678353   3.972456   3.003563   0.000000
    11  H    2.985291   1.096239   2.738085   4.631084   2.752322
    12  H    2.981579   2.186054   1.759547   3.815856   2.649246
    13  H    3.415967   1.094156   2.383334   4.427512   3.725589
    14  C    3.727374   3.499714   2.725814   2.647265   4.376256
    15  H    3.979937   4.230149   3.787037   2.401954   4.794987
    16  H    4.495331   3.650629   2.541381   3.679439   5.098650
    17  O    3.819460   3.844126   2.690563   2.832306   4.167004
    18  O    2.401639   3.997030   4.112602   2.083362   2.411413
    19  H    3.224393   4.468436   4.106686   2.383008   3.303631
    20  O    1.419836   3.752230   5.279520   2.532963   2.065639
    21  C    2.392732   4.875957   6.186923   3.117249   2.559452
    22  H    3.296933   5.722049   7.164960   3.865773   3.552608
    23  H    2.670035   4.937917   6.264324   3.847991   2.358242
    24  H    2.721639   5.217216   6.169133   2.722698   2.932723
    25  O    2.438389   2.411776   3.887712   2.938328   3.365280
    26  Si   3.586982   4.010137   5.549459   3.827482   4.569799
    27  C    4.053304   5.251468   6.455649   3.432952   5.124932
    28  H    5.039127   6.236887   7.513897   4.474203   6.078943
    29  H    3.534371   5.222549   6.465212   2.935008   4.545964
    30  H    4.389067   5.425808   6.268122   3.261487   5.487412
    31  C    5.221000   4.864054   6.084515   5.259097   6.166777
    32  C    4.058611   4.663902   6.627469   4.990907   4.779948
    33  H    5.051321   5.737866   7.655390   5.776655   5.797561
    34  H    4.387621   4.483869   6.548950   5.619725   4.952354
    35  H    3.573765   4.670412   6.676936   4.689512   4.186429
    36  C    5.637135   4.673419   5.998176   6.129392   6.407369
    37  H    5.829921   5.010565   6.613421   6.598062   6.522659
    38  H    6.661878   5.518263   6.608770   7.025733   7.429847
    39  H    5.119164   3.770149   5.033554   5.760704   5.792224
    40  C    6.414973   6.342434   7.615269   6.336824   7.389072
    41  H    6.578121   6.617591   8.132491   6.769004   7.488025
    42  H    6.546280   6.806716   7.976102   6.160083   7.582882
    43  H    7.344034   7.006695   8.132900   7.225196   8.303740
    44  C    5.561454   5.033318   5.689887   5.117221   6.541367
    45  H    6.605172   5.838189   6.348220   6.172033   7.553198
    46  H    5.683356   5.566927   6.103878   4.852753   6.731098
    47  H    5.043708   4.226768   4.650180   4.638927   5.955469
                   11         12         13         14         15
    11  H    0.000000
    12  H    2.342897   0.000000
    13  H    1.761404   3.032631   0.000000
    14  C    4.503000   3.395184   3.659452   0.000000
    15  H    5.275886   4.309563   4.369332   1.089480   0.000000
    16  H    4.638349   3.736219   3.519279   1.090054   1.839603
    17  O    4.641040   2.851178   4.297263   1.441751   2.148437
    18  O    4.459387   2.948653   4.926579   3.505113   3.757839
    19  H    5.012598   3.176641   5.305096   3.237170   3.487564
    20  O    4.149542   4.385725   4.509411   4.713895   4.676975
    21  C    5.137693   5.009163   5.753685   5.576490   5.496092
    22  H    5.982816   6.059715   6.518565   6.408039   6.201525
    23  H    4.971202   4.871585   5.907328   6.093173   6.180519
    24  H    5.592005   4.999894   6.112038   5.261347   5.106620
    25  O    3.303744   4.056514   2.446396   3.336252   3.426902
    26  Si   4.767393   5.711998   3.907181   4.625554   4.377147
    27  C    6.093951   6.466973   5.352202   4.791695   4.158825
    28  H    7.036639   7.540315   6.276614   5.835117   5.145456
    29  H    5.985307   6.188992   5.542153   4.858697   4.265675
    30  H    6.381119   6.455433   5.471923   4.242886   3.446540
    31  C    5.657771   6.735287   4.322400   5.206974   4.966815
    32  C    5.054637   6.465814   4.687993   6.207280   6.075020
    33  H    6.142329   7.539023   5.699941   7.050502   6.800056
    34  H    4.705434   6.447872   4.393944   6.552818   6.579434
    35  H    4.961388   6.227455   4.941091   6.293096   6.178024
    36  C    5.269392   6.751151   3.918826   5.803223   5.830954
    37  H    5.433291   7.165687   4.359708   6.595478   6.636632
    38  H    6.110928   7.552094   4.646030   6.415760   6.435392
    39  H    4.340766   5.851670   2.915477   5.200127   5.416840
    40  C    7.091927   8.206288   5.839267   6.537658   6.132115
    41  H    7.242415   8.566080   6.175779   7.249866   6.891092
    42  H    7.629799   8.500939   6.414086   6.542521   5.968691
    43  H    7.753567   8.900263   6.369808   7.116367   6.737481
    44  C    5.983429   6.621706   4.424488   4.449430   4.137800
    45  H    6.746861   7.450869   5.093187   5.241552   4.970121
    46  H    6.578467   6.933238   5.117704   4.381682   3.814855
    47  H    5.215135   5.702512   3.587353   3.566419   3.453680
                   16         17         18         19         20
    16  H    0.000000
    17  O    2.142350   0.000000
    18  O    4.481172   2.761985   0.000000
    19  H    4.203490   2.227486   0.973812   0.000000
    20  O    5.549087   4.918951   3.150331   4.014583   0.000000
    21  C    6.522243   5.485127   3.127020   4.011560   1.421731
    22  H    7.347992   6.437165   4.156850   4.993640   2.024328
    23  H    6.997380   5.831197   3.299743   4.237486   2.086734
    24  H    6.287951   5.013508   2.562316   3.312292   2.096945
    25  O    3.691976   4.273069   4.306514   4.800353   2.905094
    26  Si   4.975997   5.686189   5.514640   6.043628   3.371396
    27  C    5.382253   5.761665   5.389311   5.813629   3.467457
    28  H    6.378635   6.833359   6.406583   6.841322   4.283784
    29  H    5.620498   5.585904   4.729134   5.231106   2.707758
    30  H    4.806384   5.287807   5.335204   5.580011   4.052508
    31  C    5.181841   6.512684   7.012245   7.392561   5.244301
    32  C    6.602686   7.070337   6.312427   7.039499   3.473593
    33  H    7.437465   7.978733   7.219791   7.929801   4.304642
    34  H    6.824146   7.402831   6.754214   7.498503   4.048981
    35  H    6.833099   6.963536   5.790039   6.598260   2.737378
    36  C    5.597446   7.043056   7.609784   8.038129   5.852331
    37  H    6.482584   7.751027   7.993244   8.527506   5.888806
    38  H    6.058478   7.715589   8.538660   8.899381   6.924108
    39  H    4.926574   6.357971   7.034251   7.443256   5.578548
    40  C    6.558199   7.855245   8.208395   8.605683   6.163034
    41  H    7.337632   8.495076   8.552266   9.051759   6.175707
    42  H    6.669191   7.843815   8.142047   8.491997   6.169201
    43  H    6.988192   8.492738   9.095664   9.438041   7.193652
    44  C    4.252492   5.866530   6.921620   7.101213   5.815315
    45  H    4.864841   6.676254   7.942146   8.075641   6.895899
    46  H    4.340784   5.782996   6.799055   6.911813   5.807649
    47  H    3.251012   4.977392   6.266988   6.392257   5.550715
                   21         22         23         24         25
    21  C    0.000000
    22  H    1.093096   0.000000
    23  H    1.100483   1.787641   0.000000
    24  H    1.095939   1.790006   1.780149   0.000000
    25  O    4.294584   4.825317   4.850874   4.652793   0.000000
    26  Si   4.696409   4.857507   5.429453   5.159909   1.688504
    27  C    4.429240   4.397024   5.414710   4.616315   2.919315
    28  H    5.127696   4.883256   6.126808   5.365362   3.867599
    29  H    3.455731   3.373181   4.492281   3.610353   3.136921
    30  H    4.965015   5.066431   5.969582   4.934487   3.176347
    31  C    6.593592   6.770716   7.302732   6.995936   2.862900
    32  C    4.641538   4.548556   5.183274   5.430477   2.944925
    33  H    5.336754   5.048851   5.943531   6.109033   3.877222
    34  H    5.251337   5.260762   5.614424   6.105239   3.217976
    35  H    3.737430   3.569334   4.226269   4.621474   3.192154
    36  C    7.259792   7.512995   7.789543   7.785657   3.320287
    37  H    7.258295   7.411433   7.722877   7.914983   3.736471
    38  H    8.332594   8.586069   8.875349   8.821608   4.299238
    39  H    6.999081   7.399259   7.429157   7.500965   2.902953
    40  C    7.408842   7.376488   8.195347   7.835948   4.218370
    41  H    7.378878   7.235447   8.111361   7.932808   4.554571
    42  H    7.304664   7.200926   8.191034   7.627394   4.512483
    43  H    8.467146   8.465965   9.238306   8.874295   5.038091
    44  C    7.123740   7.435434   7.878631   7.312066   3.220411
    45  H    8.216867   8.518166   8.956688   8.410749   4.230598
    46  H    7.002757   7.258711   7.860782   7.068166   3.564782
    47  H    6.866138   7.331272   7.538430   7.004045   2.792304
                   26         27         28         29         30
    26  Si   0.000000
    27  C    1.887104   0.000000
    28  H    2.509334   1.096714   0.000000
    29  H    2.473102   1.094612   1.774069   0.000000
    30  H    2.513382   1.096190   1.770366   1.771682   0.000000
    31  C    1.918094   3.132961   3.401431   4.068852   3.329601
    32  C    1.889380   3.084498   3.294668   3.279105   4.050664
    33  H    2.495234   3.289951   3.124358   3.589604   4.299439
    34  H    2.526292   4.056644   4.315687   4.290578   4.937826
    35  H    2.487328   3.274229   3.566262   3.092452   4.290548
    36  C    2.844435   4.477433   4.792054   5.278572   4.765563
    37  H    3.067077   4.770717   4.966584   5.481135   5.273276
    38  H    3.834740   5.307639   5.531401   6.195130   5.471571
    39  H    3.026347   4.768177   5.294871   5.439347   4.995627
    40  C    2.845748   3.492910   3.254625   4.511227   3.768552
    41  H    3.046659   3.805675   3.430115   4.693618   4.342203
    42  H    3.060834   3.056493   2.607522   4.107181   3.214296
    43  H    3.835232   4.507939   4.258863   5.556377   4.637249
    44  C    2.844418   3.546945   3.966865   4.505271   3.239170
    45  H    3.834953   4.549192   4.828743   5.550628   4.212038
    46  H    3.056467   3.116399   3.473918   4.096658   2.549940
    47  H    3.034397   3.885267   4.543748   4.677112   3.519672
                   31         32         33         34         35
    31  C    0.000000
    32  C    3.146938   0.000000
    33  H    3.382693   1.096821   0.000000
    34  H    3.370977   1.096125   1.767785   0.000000
    35  H    4.088756   1.095197   1.771022   1.772657   0.000000
    36  C    1.543360   3.486030   3.834232   3.198472   4.481299
    37  H    2.203060   3.057685   3.293854   2.546950   4.084409
    38  H    2.186023   4.513265   4.727547   4.201937   5.540948
    39  H    2.198100   3.757456   4.364520   3.361568   4.600792
    40  C    1.544408   3.588847   3.324595   3.931335   4.581041
    41  H    2.205440   3.155228   2.643250   3.429283   4.170095
    42  H    2.205015   3.965281   3.614758   4.549782   4.814057
    43  H    2.185649   4.577869   4.298298   4.768229   5.609860
    44  C    1.544283   4.486633   4.807754   4.768005   5.292655
    45  H    2.186564   5.319168   5.537737   5.487333   6.211437
    46  H    2.204562   4.811259   5.043851   5.306170   5.509986
    47  H    2.196843   4.737386   5.275030   4.928267   5.429088
                   36         37         38         39         40
    36  C    0.000000
    37  H    1.096871   0.000000
    38  H    1.099990   1.768381   0.000000
    39  H    1.096399   1.772592   1.771032   0.000000
    40  C    2.513604   2.764888   2.764976   3.485785   0.000000
    41  H    2.787178   2.587354   3.145189   3.799470   1.097308
    42  H    3.489083   3.795415   3.769758   4.360395   1.096897
    43  H    2.741713   3.077778   2.535015   3.761864   1.099866
    44  C    2.508683   3.484696   2.730439   2.781923   2.514655
    45  H    2.740367   3.746782   2.500330   3.117625   2.755501
    46  H    3.485449   4.361788   3.745126   3.804485   2.776265
    47  H    2.770647   3.799235   3.086735   2.593507   3.485218
                   41         42         43         44         45
    41  H    0.000000
    42  H    1.772570   0.000000
    43  H    1.767451   1.767796   0.000000
    44  C    3.490886   2.774685   2.756560   0.000000
    45  H    3.770437   3.110062   2.539410   1.100109   0.000000
    46  H    3.798805   2.584741   3.115563   1.097223   1.768258
    47  H    4.360007   3.793769   3.767461   1.095975   1.772719
                   46         47
    46  H    0.000000
    47  H    1.772748   0.000000
 Stoichiometry    C14H28O4Si
 Framework group  C1[X(C14H28O4Si)]
 Deg. of freedom   135
 Full point group                 C1      NOp   1
 Largest Abelian subgroup         C1      NOp   1
 Largest concise Abelian subgroup C1      NOp   1
                         Standard orientation:                         
 ---------------------------------------------------------------------
 Center     Atomic      Atomic             Coordinates (Angstroms)
 Number     Number       Type             X           Y           Z
 ---------------------------------------------------------------------
      1          1           0       -0.160975    0.967100    2.034612
      2          6           0       -0.606178    0.268548    1.315076
      3          6           0       -2.339185   -1.651611    1.320426
      4          6           0       -2.355637    0.117079   -0.522684
      5          6           0       -2.269449   -1.369470   -0.164224
      6          6           0       -1.728201    1.005280    0.574508
      7          6           0       -1.177468   -0.951478    2.071240
      8          1           0       -2.337207   -2.731011    1.501541
      9          1           0       -1.820349    0.300932   -1.464588
     10          1           0       -2.524797    1.232031    1.302757
     11          1           0       -1.523345   -0.633152    3.061582
     12          1           0       -3.304158   -1.271791    1.679551
     13          1           0       -0.345053   -1.643790    2.229247
     14          6           0       -1.678391   -2.318788   -1.111139
     15          1           0       -1.233449   -1.956692   -2.037357
     16          1           0       -1.284172   -3.268042   -0.748199
     17          8           0       -3.110325   -2.180342   -1.016034
     18          8           0       -3.728516    0.486459   -0.649190
     19          1           0       -4.132628   -0.209627   -1.197339
     20          8           0       -1.197421    2.220232    0.066474
     21          6           0       -2.173029    3.179192   -0.320701
     22          1           0       -1.624030    4.071189   -0.633431
     23          1           0       -2.829932    3.436885    0.523772
     24          1           0       -2.798725    2.821774   -1.146436
     25          8           0        0.391766   -0.187742    0.406646
     26         14           0        1.762429    0.621549   -0.156717
     27          6           0        1.457594    1.212065   -1.922936
     28          1           0        2.324166    1.749429   -2.326762
     29          1           0        0.600672    1.893084   -1.931472
     30          1           0        1.235186    0.381090   -2.602383
     31          6           0        3.163476   -0.687535   -0.107191
     32          6           0        2.161299    2.103940    0.944726
     33          1           0        3.057246    2.622462    0.582193
     34          1           0        2.344186    1.822715    1.988256
     35          1           0        1.331276    2.818237    0.927473
     36          6           0        3.437135   -1.114769    1.350390
     37          1           0        3.786303   -0.276509    1.965637
     38          1           0        4.216779   -1.890019    1.383876
     39          1           0        2.540031   -1.529185    1.825316
     40          6           0        4.458590   -0.101144   -0.710532
     41          1           0        4.804715    0.784599   -0.163045
     42          1           0        4.331429    0.183785   -1.762116
     43          1           0        5.269399   -0.843258   -0.671016
     44          6           0        2.750252   -1.934630   -0.918863
     45          1           0        3.544809   -2.694788   -0.886026
     46          1           0        2.572102   -1.697759   -1.975297
     47          1           0        1.837640   -2.390318   -0.518052
 ---------------------------------------------------------------------
 Rotational constants (GHZ):      0.5067462      0.2479995      0.2094983
 Standard basis: 6-31+G(d,p) (6D, 7F)
 There are   505 symmetry adapted basis functions of A   symmetry.
 Integral buffers will be    131072 words long.
 Raffenetti 2 integral format.
 Two-electron integral symmetry is turned on.
   505 basis functions,   828 primitive gaussians,   505 cartesian basis functions
    79 alpha electrons       79 beta electrons
       nuclear repulsion energy      1849.7934203843 Hartrees.
 NAtoms=   47 NActive=   47 NUniq=   47 SFac= 1.00D+00 NAtFMM=   60 NAOKFM=F Big=F
 ------------------------------------------------------------------------------
 Polarizable Continuum Model (PCM)
 =================================
 Model                : PCM.
 Atomic radii         : UFF (Universal Force Field).
 Polarization charges : Total charges.
 Charge compensation  : None.
 Solution method      : Matrix inversion.
 Cavity type          : Scaled VdW (van der Waals Surface) (Alpha=1.100).
 Cavity algorithm     : GePol (No added spheres)
                        Default sphere list used, NSphG=   47.
                        Lebedev-Laikov grids with approx.  5.0 points / Ang**2.
                        Smoothing algorithm: Karplus/York (Gamma=1.0000).
                        Polarization charges: spherical gaussians, with
                                              point-specific exponents (IZeta= 3).
                        Self-potential: point-specific (ISelfS= 7).
                        Self-field    : sphere-specific E.n sum rule (ISelfD= 2).
 Solvent              : Chloroform, Eps=   4.711300 Eps(inf)=   2.090627
 ------------------------------------------------------------------------------
 One-electron integrals computed using PRISM.
 NBasis=   505 RedAO= T  NBF=   505
 NBsUse=   505 1.00D-06 NBFU=   505
 Harris functional with IExCor=  908 diagonalized for initial guess.
 ExpMin= 3.31D-02 ExpMax= 1.61D+04 ExpMxC= 2.43D+03 IAcc=3 IRadAn=         5 AccDes= 0.00D+00
 HarFok:  IExCor=  908 AccDes= 0.00D+00 IRadAn=         5 IDoV= 1
 ScaDFX=  1.000000  1.000000  1.000000  1.000000
 FoFCou: FMM=F IPFlag=           0 FMFlag=      100000 FMFlg1=           0
         NFxFlg=           0 DoJE=T BraDBF=F KetDBF=T FulRan=T
         Omega=  0.000000  0.000000  1.000000  0.000000  0.000000 ICntrl=     500 IOpCl=  0
         NMat0=    1 NMatS0=    1 NMatT0=    0 NMatD0=    1 NMtDS0=    0 NMtDT0=    0
         I1Cent=           4 NGrid=           0.
 Petite list used in FoFCou.
 Initial guess orbital symmetries:
       Occupied  (A) (A) (A) (A) (A) (A) (A) (A) (A) (A) (A) (A)
                 (A) (A) (A) (A) (A) (A) (A) (A) (A) (A) (A) (A)
                 (A) (A) (A) (A) (A) (A) (A) (A) (A) (A) (A) (A)
                 (A) (A) (A) (A) (A) (A) (A) (A) (A) (A) (A) (A)
                 (A) (A) (A) (A) (A) (A) (A) (A) (A) (A) (A) (A)
                 (A) (A) (A) (A) (A) (A) (A) (A) (A) (A) (A) (A)
                 (A) (A) (A) (A) (A) (A) (A)
       Virtual   (A) (A) (A) (A) (A) (A) (A) (A) (A) (A) (A) (A)
                 (A) (A) (A) (A) (A) (A) (A) (A) (A) (A) (A) (A)
                 (A) (A) (A) (A) (A) (A) (A) (A) (A) (A) (A) (A)
                 (A) (A) (A) (A) (A) (A) (A) (A) (A) (A) (A) (A)
                 (A) (A) (A) (A) (A) (A) (A) (A) (A) (A) (A) (A)
                 (A) (A) (A) (A) (A) (A) (A) (A) (A) (A) (A) (A)
                 (A) (A) (A) (A) (A) (A) (A) (A) (A) (A) (A) (A)
                 (A) (A) (A) (A) (A) (A) (A) (A) (A) (A) (A) (A)
                 (A) (A) (A) (A) (A) (A) (A) (A) (A) (A) (A) (A)
                 (A) (A) (A) (A) (A) (A) (A) (A) (A) (A) (A) (A)
                 (A) (A) (A) (A) (A) (A) (A) (A) (A) (A) (A) (A)
                 (A) (A) (A) (A) (A) (A) (A) (A) (A) (A) (A) (A)
                 (A) (A) (A) (A) (A) (A) (A) (A) (A) (A) (A) (A)
                 (A) (A) (A) (A) (A) (A) (A) (A) (A) (A) (A) (A)
                 (A) (A) (A) (A) (A) (A) (A) (A) (A) (A) (A) (A)
                 (A) (A) (A) (A) (A) (A) (A) (A) (A) (A) (A) (A)
                 (A) (A) (A) (A) (A) (A) (A) (A) (A) (A) (A) (A)
                 (A) (A) (A) (A) (A) (A) (A) (A) (A) (A) (A) (A)
                 (A) (A) (A) (A) (A) (A) (A) (A) (A) (A) (A) (A)
                 (A) (A) (A) (A) (A) (A) (A) (A) (A) (A) (A) (A)
                 (A) (A) (A) (A) (A) (A) (A) (A) (A) (A) (A) (A)
                 (A) (A) (A) (A) (A) (A) (A) (A) (A) (A) (A) (A)
                 (A) (A) (A) (A) (A) (A) (A) (A) (A) (A) (A) (A)
                 (A) (A) (A) (A) (A) (A) (A) (A) (A) (A) (A) (A)
                 (A) (A) (A) (A) (A) (A) (A) (A) (A) (A) (A) (A)
                 (A) (A) (A) (A) (A) (A) (A) (A) (A) (A) (A) (A)
                 (A) (A) (A) (A) (A) (A) (A) (A) (A) (A) (A) (A)
                 (A) (A) (A) (A) (A) (A) (A) (A) (A) (A) (A) (A)
                 (A) (A) (A) (A) (A) (A) (A) (A) (A) (A) (A) (A)
                 (A) (A) (A) (A) (A) (A) (A) (A) (A) (A) (A) (A)
                 (A) (A) (A) (A) (A) (A) (A) (A) (A) (A) (A) (A)
                 (A) (A) (A) (A) (A) (A) (A) (A) (A) (A) (A) (A)
                 (A) (A) (A) (A) (A) (A) (A) (A) (A) (A) (A) (A)
                 (A) (A) (A) (A) (A) (A) (A) (A) (A) (A) (A) (A)
                 (A) (A) (A) (A) (A) (A) (A) (A) (A) (A) (A) (A)
                 (A) (A) (A) (A) (A) (A)
 The electronic state of the initial guess is 1-A.
 Requested convergence on RMS density matrix=1.00D-08 within 128 cycles.
 Requested convergence on MAX density matrix=1.00D-06.
 Requested convergence on             energy=1.00D-06.
 No special actions if energy rises.
 Error on total polarization charges =  0.01538
 SCF Done:  E(RmPW1PW91) =  -1140.61828684     A.U. after   13 cycles
             Convg  =    0.5357D-08             -V/T =  2.0080
 Range of M.O.s used for correlation:     1   505
 NBasis=   505 NAE=    79 NBE=    79 NFC=     0 NFV=     0
 NROrb=    505 NOA=    79 NOB=    79 NVA=   426 NVB=   426

 **** Warning!!: The largest alpha MO coefficient is  0.10799549D+03

 NEqPCM:  Using equilibrium solvation (IEInf=0, Eps=   4.7113, EpsInf=   2.0906)
          Differentiating once with respect to magnetic field using GIAOs.
          Electric field/nuclear overlap derivatives assumed to be zero.
 FoFCou: FMM=F IPFlag=           0 FMFlag=    10101102 FMFlg1=           0
         NFxFlg=    40000000 DoJE=F BraDBF=F KetDBF=T FulRan=T
         Omega=  0.000000  0.000000  1.000000  0.000000  0.000000 ICntrl=    6100 IOpCl=  0
         NMat0=    1 NMatS0=    1 NMatT0=    0 NMatD0=    1 NMtDS0=    0 NMtDT0=    0
         I1Cent=           7 NGrid=        2984.
 Symmetry not used in FoFCou.
          There are     3 degrees of freedom in the 1st order CPHF.  IDoFFX=0.
      3 vectors produced by pass  0 Test12= 1.12D-12 3.33D-08 XBig12= 1.48D+02 2.75D+00.
 AX will form     3 AO Fock derivatives at one time.
      3 vectors produced by pass  1 Test12= 1.12D-12 3.33D-08 XBig12= 3.26D-01 6.44D-02.
      3 vectors produced by pass  2 Test12= 1.12D-12 3.33D-08 XBig12= 8.83D-04 4.07D-03.
      3 vectors produced by pass  3 Test12= 1.12D-12 3.33D-08 XBig12= 4.57D-06 4.05D-04.
      3 vectors produced by pass  4 Test12= 1.12D-12 3.33D-08 XBig12= 1.68D-08 1.76D-05.
      3 vectors produced by pass  5 Test12= 1.12D-12 3.33D-08 XBig12= 4.99D-11 9.18D-07.
      3 vectors produced by pass  6 Test12= 1.12D-12 3.33D-08 XBig12= 1.76D-13 4.70D-08.
 Inverted reduced A of dimension    21 with in-core refinement.
 Calculating GIAO nuclear magnetic shielding tensors.
 SCF GIAO Magnetic shielding tensor (ppm):
      1  H    Isotropic =    27.4357   Anisotropy =     4.7057
   XX=    27.7399   YX=     0.9614   ZX=    -2.7510
   XY=     2.1171   YY=    25.9538   ZY=     2.3405
   XZ=    -1.0175   YZ=     2.9760   ZZ=    28.6133
   Eigenvalues:    23.1390    28.5951    30.5728
      2  C    Isotropic =   122.8875   Anisotropy =    43.4740
   XX=   129.5048   YX=   -19.5968   ZX=   -21.4272
   XY=   -11.1468   YY=   117.2657   ZY=     1.8122
   XZ=   -18.4085   YZ=     5.1156   ZZ=   121.8920
   Eigenvalues:   101.1019   115.6905   151.8701
      3  C    Isotropic =   171.0856   Anisotropy =    20.0670
   XX=   158.0140   YX=     7.4587   ZX=     2.2263
   XY=    12.2009   YY=   171.4139   ZY=    -4.4477
   XZ=     5.9627   YZ=     1.5974   ZZ=   183.8287
   Eigenvalues:   152.2363   176.5569   184.4636
      4  C    Isotropic =   117.9397   Anisotropy =    22.1811
   XX=   132.3181   YX=    -4.5269   ZX=     1.1346
   XY=     0.9652   YY=   115.1703   ZY=     1.8516
   XZ=     4.0463   YZ=     0.9193   ZZ=   106.3306
   Eigenvalues:   105.8141   115.2778   132.7271
      5  C    Isotropic =   133.4701   Anisotropy =    56.1956
   XX=   136.1540   YX=    26.9818   ZX=    23.0924
   XY=    19.6153   YY=   136.9920   ZY=   -36.9124
   XZ=    15.2436   YZ=   -38.0420   ZZ=   127.2645
   Eigenvalues:    78.8052   150.6714   170.9339
      6  C    Isotropic =   110.2370   Anisotropy =    36.8986
   XX=   104.9916   YX=    13.1778   ZX=    -2.7662
   XY=     9.7867   YY=   125.1416   ZY=   -10.6700
   XZ=    -6.7771   YZ=   -12.2476   ZZ=   100.5778
   Eigenvalues:    96.0502    99.8247   134.8361
      7  C    Isotropic =   164.4736   Anisotropy =    26.3107
   XX=   162.8129   YX=     7.3949   ZX=   -10.2677
   XY=     3.5819   YY=   170.3480   ZY=   -12.6215
   XZ=    -4.9824   YZ=   -10.5209   ZZ=   160.2599
   Eigenvalues:   151.3540   160.0528   182.0141
      8  H    Isotropic =    30.5606   Anisotropy =    10.5065
   XX=    26.7960   YX=     2.5711   ZX=     0.3016
   XY=     2.1774   YY=    35.6953   ZY=    -3.9810
   XZ=     0.3799   YZ=    -2.8799   ZZ=    29.1904
   Eigenvalues:    25.6678    28.4489    37.5649
      9  H    Isotropic =    27.9514   Anisotropy =     5.0050
   XX=    30.5547   YX=     0.1458   ZX=    -2.3567
   XY=     0.1254   YY=    26.8066   ZY=    -0.5050
   XZ=    -1.1342   YZ=    -2.2296   ZZ=    26.4928
   Eigenvalues:    24.9823    27.5838    31.2880
     10  H    Isotropic =    28.2177   Anisotropy =     2.3348
   XX=    27.8417   YX=    -0.8200   ZX=    -0.8366
   XY=     0.5137   YY=    29.6684   ZY=    -1.3083
   XZ=    -2.6295   YZ=     0.3982   ZZ=    27.1431
   Eigenvalues:    25.6739    29.2051    29.7743
     11  H    Isotropic =    29.5450   Anisotropy =    10.2226
   XX=    27.2106   YX=     1.5959   ZX=    -2.2327
   XY=     1.1943   YY=    25.5615   ZY=     0.8121
   XZ=    -1.8304   YZ=     1.2043   ZZ=    35.8629
   Eigenvalues:    24.4425    27.8325    36.3600
     12  H    Isotropic =    29.3529   Anisotropy =     8.7650
   XX=    33.0099   YX=    -0.2224   ZX=    -3.1693
   XY=     0.9138   YY=    25.2733   ZY=    -0.8181
   XZ=    -3.6634   YZ=     0.0931   ZZ=    29.7756
   Eigenvalues:    25.2433    27.6192    35.1963
     13  H    Isotropic =    29.6976   Anisotropy =     7.7093
   XX=    32.2404   YX=    -1.1804   ZX=     2.0829
   XY=    -2.1808   YY=    29.1988   ZY=    -3.2709
   XZ=     2.4141   YZ=    -3.5817   ZZ=    27.6536
   Eigenvalues:    24.8354    29.4202    34.8371
     14  C    Isotropic =   136.3046   Anisotropy =    32.1152
   XX=   136.4305   YX=    17.2078   ZX=    16.9541
   XY=    11.7167   YY=   138.2091   ZY=   -22.3941
   XZ=     7.3115   YZ=   -19.3871   ZZ=   134.2743
   Eigenvalues:   104.3189   146.8802   157.7147
     15  H    Isotropic =    28.5710   Anisotropy =     7.6981
   XX=    29.1658   YX=    -0.1237   ZX=    -2.9714
   XY=     2.2532   YY=    26.1719   ZY=    -2.7637
   XZ=    -4.2583   YZ=     0.8490   ZZ=    30.3752
   Eigenvalues:    25.7895    26.2204    33.7031
     16  H    Isotropic =    28.5608   Anisotropy =     8.8584
   XX=    28.3893   YX=    -2.5597   ZX=    -0.4316
   XY=    -4.0830   YY=    32.4804   ZY=     0.6984
   XZ=     1.2120   YZ=    -2.8359   ZZ=    24.8126
   Eigenvalues:    24.6647    26.5512    34.4663
     17  O    Isotropic =   310.0169   Anisotropy =   119.8581
   XX=   175.8331   YX=   -44.1642   ZX=   -51.5095
   XY=   -24.5605   YY=   374.3285   ZY=   -13.8431
   XZ=   -20.9130   YZ=   -10.3334   ZZ=   379.8890
   Eigenvalues:   163.4753   376.6531   389.9222
     18  O    Isotropic =   294.1759   Anisotropy =    72.5889
   XX=   309.1054   YX=     8.0125   ZX=    23.0669
   XY=    26.4373   YY=   301.2778   ZY=    31.1889
   XZ=    11.6052   YZ=    40.2329   ZZ=   272.1445
   Eigenvalues:   247.7203   292.2389   342.5685
     19  H    Isotropic =    29.4489   Anisotropy =    17.7765
   XX=    30.7853   YX=     3.3501   ZX=     7.9400
   XY=     1.6957   YY=    32.3045   ZY=     7.3809
   XZ=     8.9934   YZ=     6.1515   ZZ=    25.2569
   Eigenvalues:    17.8441    29.2027    41.2999
     20  O    Isotropic =   291.3860   Anisotropy =    66.5778
   XX=   297.5187   YX=    37.5424   ZX=    -9.4613
   XY=    37.6569   YY=   296.0575   ZY=    -1.9530
   XZ=   -10.0526   YZ=    -2.9694   ZZ=   280.5820
   Eigenvalues:   257.9893   280.3975   335.7713
     21  C    Isotropic =   138.7537   Anisotropy =    80.7986
   XX=   142.7289   YX=   -37.7743   ZX=     9.4350
   XY=   -37.8787   YY=   155.5792   ZY=   -16.3561
   XZ=     9.7769   YZ=   -18.4253   ZZ=   117.9531
   Eigenvalues:   107.9226   115.7191   192.6195
     22  H    Isotropic =    27.9137   Anisotropy =    10.4911
   XX=    25.9146   YX=    -2.6880   ZX=     0.7750
   XY=    -0.3332   YY=    33.6583   ZY=    -3.1415
   XZ=    -0.2603   YZ=    -3.3101   ZZ=    24.1683
   Eigenvalues:    23.1602    25.6732    34.9078
     23  H    Isotropic =    28.3315   Anisotropy =    10.2375
   XX=    29.3653   YX=    -4.2995   ZX=    -2.2430
   XY=    -5.3034   YY=    30.2602   ZY=     2.8169
   XZ=    -0.2458   YZ=     1.0238   ZZ=    25.3689
   Eigenvalues:    24.5482    25.2897    35.1565
     24  H    Isotropic =    27.5846   Anisotropy =     8.8087
   XX=    27.9864   YX=    -1.2934   ZX=     4.7178
   XY=    -2.8944   YY=    28.5370   ZY=    -3.0678
   XZ=     3.8938   YZ=    -1.5875   ZZ=    26.2303
   Eigenvalues:    22.6662    26.6305    33.4570
     25  O    Isotropic =   275.8245   Anisotropy =    26.2102
   XX=   262.8227   YX=     8.1901   ZX=    13.3498
   XY=    -2.3560   YY=   292.5462   ZY=     0.5996
   XZ=   -10.6097   YZ=    -7.1818   ZZ=   272.1045
   Eigenvalues:   262.2426   271.9330   293.2980
     26  Si   Isotropic =   377.5149   Anisotropy =    34.0778
   XX=   395.9064   YX=    16.7153   ZX=     0.0157
   XY=     1.8123   YY=   374.5608   ZY=    -6.3331
   XZ=    -5.7239   YZ=   -10.5560   ZZ=   362.0776
   Eigenvalues:   357.7405   374.5709   400.2335
     27  C    Isotropic =   199.3686   Anisotropy =     8.0456
   XX=   202.0860   YX=     3.2802   ZX=    -0.2431
   XY=     3.2811   YY=   193.2809   ZY=    -2.6119
   XZ=    -2.3325   YZ=    -0.5488   ZZ=   202.7389
   Eigenvalues:   192.0777   201.2957   204.7323
     28  H    Isotropic =    31.7779   Anisotropy =    11.0836
   XX=    33.8581   YX=     3.3475   ZX=    -3.7661
   XY=     3.0728   YY=    30.2383   ZY=    -3.9605
   XZ=    -3.5433   YZ=    -3.9206   ZZ=    31.2371
   Eigenvalues:    26.7656    29.4010    39.1669
     29  H    Isotropic =    31.1129   Anisotropy =     9.7212
   XX=    34.4475   YX=    -4.8589   ZX=    -1.3372
   XY=    -4.9568   YY=    29.9377   ZY=    -1.3588
   XZ=    -0.5956   YZ=    -1.7417   ZZ=    28.9535
   Eigenvalues:    25.7499    29.9950    37.5937
     30  H    Isotropic =    31.5149   Anisotropy =     7.9404
   XX=    28.8156   YX=     0.8675   ZX=     1.3002
   XY=     0.4198   YY=    31.6919   ZY=     3.1275
   XZ=     1.3588   YZ=     3.8463   ZZ=    34.0371
   Eigenvalues:    28.4645    29.2716    36.8085
     31  C    Isotropic =   172.6363   Anisotropy =     7.9395
   XX=   175.4640   YX=     3.9297   ZX=    -1.7158
   XY=     1.9140   YY=   171.4507   ZY=    -2.1144
   XZ=    -2.1400   YZ=    -1.4070   ZZ=   170.9941
   Eigenvalues:   169.3643   170.6153   177.9293
     32  C    Isotropic =   201.3785   Anisotropy =     5.8614
   XX=   203.1786   YX=     1.1812   ZX=     2.1219
   XY=     1.1373   YY=   198.3225   ZY=     2.6501
   XZ=     2.0666   YZ=    -1.1542   ZZ=   202.6344
   Eigenvalues:   198.0406   200.8087   205.2861
     33  H    Isotropic =    31.7446   Anisotropy =    10.8025
   XX=    35.0664   YX=     4.9953   ZX=    -1.6837
   XY=     4.5712   YY=    32.5514   ZY=     0.1019
   XZ=    -1.9585   YZ=    -0.1791   ZZ=    27.6161
   Eigenvalues:    26.8535    29.4341    38.9463
     34  H    Isotropic =    31.4527   Anisotropy =     9.1235
   XX=    28.5561   YX=    -0.1760   ZX=     2.6718
   XY=    -0.1756   YY=    29.0228   ZY=     0.5566
   XZ=     2.5243   YZ=    -0.0827   ZZ=    36.7792
   Eigenvalues:    27.7603    29.0628    37.5350
     35  H    Isotropic =    31.0406   Anisotropy =     9.5248
   XX=    34.3136   YX=    -3.4868   ZX=     0.8697
   XY=    -3.9265   YY=    32.8922   ZY=     1.6607
   XZ=     0.8415   YZ=     1.6232   ZZ=    25.9162
   Eigenvalues:    25.1962    30.5352    37.3905
     36  C    Isotropic =   170.0069   Anisotropy =    37.7270
   XX=   157.9472   YX=    -2.7513   ZX=     7.1758
   XY=    -1.7674   YY=   159.6059   ZY=   -10.0470
   XZ=     3.0463   YZ=    -6.1163   ZZ=   192.4676
   Eigenvalues:   156.3587   158.5038   195.1582
     37  H    Isotropic =    30.6131   Anisotropy =     8.5093
   XX=    28.6044   YX=    -0.0026   ZX=     3.5599
   XY=    -0.2740   YY=    29.8010   ZY=     2.1320
   XZ=     3.6741   YZ=     3.4565   ZZ=    33.4338
   Eigenvalues:    26.0162    29.5371    36.2859
     38  H    Isotropic =    31.0315   Anisotropy =     9.8789
   XX=    31.7792   YX=    -4.3187   ZX=     2.1881
   XY=    -4.4270   YY=    31.3388   ZY=    -2.1482
   XZ=     2.8568   YZ=    -2.9447   ZZ=    29.9766
   Eigenvalues:    27.1720    28.3051    37.6175
     39  H    Isotropic =    30.4116   Anisotropy =     7.6137
   XX=    32.0771   YX=     0.1442   ZX=    -1.6967
   XY=     0.8357   YY=    27.6522   ZY=    -3.7883
   XZ=    -3.1150   YZ=    -3.9442   ZZ=    31.5055
   Eigenvalues:    25.1450    30.6024    35.4874
     40  C    Isotropic =   170.1232   Anisotropy =    39.4470
   XX=   183.4326   YX=    15.4326   ZX=   -13.6144
   XY=    11.5648   YY=   164.1737   ZY=    -6.1079
   XZ=   -11.1389   YZ=    -8.0835   ZZ=   162.7634
   Eigenvalues:   156.3343   157.6142   196.4212
     41  H    Isotropic =    30.7468   Anisotropy =     9.2083
   XX=    33.2530   YX=     4.1876   ZX=     0.5628
   XY=     3.4786   YY=    32.4487   ZY=     2.4961
   XZ=    -0.5522   YZ=     1.5222   ZZ=    26.5386
   Eigenvalues:    25.7004    29.6543    36.8856
     42  H    Isotropic =    30.7689   Anisotropy =     8.6514
   XX=    30.9728   YX=     0.3707   ZX=    -3.5765
   XY=     0.0832   YY=    27.5818   ZY=    -3.6659
   XZ=    -2.0293   YZ=    -3.1128   ZZ=    33.7522
   Eigenvalues:    25.8861    29.8841    36.5365
     43  H    Isotropic =    31.0042   Anisotropy =    10.2053
   XX=    36.6272   YX=    -3.4455   ZX=    -1.4898
   XY=    -2.2075   YY=    28.9209   ZY=    -0.1688
   XZ=    -1.8758   YZ=     0.3167   ZZ=    27.4644
   Eigenvalues:    27.0069    28.1979    37.8077
     44  C    Isotropic =   170.6267   Anisotropy =    37.4225
   XX=   162.7747   YX=     6.0405   ZX=     6.2863
   XY=    10.6848   YY=   180.8246   ZY=    17.3451
   XZ=     9.3123   YZ=    14.5113   ZZ=   168.2809
   Eigenvalues:   156.3547   159.9504   195.5751
     45  H    Isotropic =    31.0418   Anisotropy =     9.6422
   XX=    30.5401   YX=    -3.4322   ZX=    -0.3084
   XY=    -4.1226   YY=    34.7737   ZY=     2.0101
   XZ=    -0.6863   YZ=     2.3998   ZZ=    27.8115
   Eigenvalues:    26.9945    28.6610    37.4699
     46  H    Isotropic =    30.5742   Anisotropy =     7.8846
   XX=    28.0703   YX=    -1.1261   ZX=     1.8973
   XY=    -0.5446   YY=    28.9266   ZY=     2.9415
   XZ=     1.9100   YZ=     1.6381   ZZ=    34.7258
   Eigenvalues:    26.5488    29.3433    35.8307
     47  H    Isotropic =    30.3482   Anisotropy =     8.6179
   XX=    34.0942   YX=     2.3835   ZX=    -1.5993
   XY=     3.5729   YY=    31.6367   ZY=     0.9174
   XZ=    -0.8563   YZ=     1.8357   ZZ=    25.3138
   Eigenvalues:    24.6410    30.3102    36.0935
 End of Minotr Frequency-dependent properties file   721 does not exist.
 End of Minotr Frequency-dependent properties file   722 does not exist.

 **********************************************************************

            Population analysis using the SCF density.

 **********************************************************************

 Orbital symmetries:
       Occupied  (A) (A) (A) (A) (A) (A) (A) (A) (A) (A) (A) (A)
                 (A) (A) (A) (A) (A) (A) (A) (A) (A) (A) (A) (A)
                 (A) (A) (A) (A) (A) (A) (A) (A) (A) (A) (A) (A)
                 (A) (A) (A) (A) (A) (A) (A) (A) (A) (A) (A) (A)
                 (A) (A) (A) (A) (A) (A) (A) (A) (A) (A) (A) (A)
                 (A) (A) (A) (A) (A) (A) (A) (A) (A) (A) (A) (A)
                 (A) (A) (A) (A) (A) (A) (A)
       Virtual   (A) (A) (A) (A) (A) (A) (A) (A) (A) (A) (A) (A)
                 (A) (A) (A) (A) (A) (A) (A) (A) (A) (A) (A) (A)
                 (A) (A) (A) (A) (A) (A) (A) (A) (A) (A) (A) (A)
                 (A) (A) (A) (A) (A) (A) (A) (A) (A) (A) (A) (A)
                 (A) (A) (A) (A) (A) (A) (A) (A) (A) (A) (A) (A)
                 (A) (A) (A) (A) (A) (A) (A) (A) (A) (A) (A) (A)
                 (A) (A) (A) (A) (A) (A) (A) (A) (A) (A) (A) (A)
                 (A) (A) (A) (A) (A) (A) (A) (A) (A) (A) (A) (A)
                 (A) (A) (A) (A) (A) (A) (A) (A) (A) (A) (A) (A)
                 (A) (A) (A) (A) (A) (A) (A) (A) (A) (A) (A) (A)
                 (A) (A) (A) (A) (A) (A) (A) (A) (A) (A) (A) (A)
                 (A) (A) (A) (A) (A) (A) (A) (A) (A) (A) (A) (A)
                 (A) (A) (A) (A) (A) (A) (A) (A) (A) (A) (A) (A)
                 (A) (A) (A) (A) (A) (A) (A) (A) (A) (A) (A) (A)
                 (A) (A) (A) (A) (A) (A) (A) (A) (A) (A) (A) (A)
                 (A) (A) (A) (A) (A) (A) (A) (A) (A) (A) (A) (A)
                 (A) (A) (A) (A) (A) (A) (A) (A) (A) (A) (A) (A)
                 (A) (A) (A) (A) (A) (A) (A) (A) (A) (A) (A) (A)
                 (A) (A) (A) (A) (A) (A) (A) (A) (A) (A) (A) (A)
                 (A) (A) (A) (A) (A) (A) (A) (A) (A) (A) (A) (A)
                 (A) (A) (A) (A) (A) (A) (A) (A) (A) (A) (A) (A)
                 (A) (A) (A) (A) (A) (A) (A) (A) (A) (A) (A) (A)
                 (A) (A) (A) (A) (A) (A) (A) (A) (A) (A) (A) (A)
                 (A) (A) (A) (A) (A) (A) (A) (A) (A) (A) (A) (A)
                 (A) (A) (A) (A) (A) (A) (A) (A) (A) (A) (A) (A)
                 (A) (A) (A) (A) (A) (A) (A) (A) (A) (A) (A) (A)
                 (A) (A) (A) (A) (A) (A) (A) (A) (A) (A) (A) (A)
                 (A) (A) (A) (A) (A) (A) (A) (A) (A) (A) (A) (A)
                 (A) (A) (A) (A) (A) (A) (A) (A) (A) (A) (A) (A)
                 (A) (A) (A) (A) (A) (A) (A) (A) (A) (A) (A) (A)
                 (A) (A) (A) (A) (A) (A) (A) (A) (A) (A) (A) (A)
                 (A) (A) (A) (A) (A) (A) (A) (A) (A) (A) (A) (A)
                 (A) (A) (A) (A) (A) (A) (A) (A) (A) (A) (A) (A)
                 (A) (A) (A) (A) (A) (A) (A) (A) (A) (A) (A) (A)
                 (A) (A) (A) (A) (A) (A) (A) (A) (A) (A) (A) (A)
                 (A) (A) (A) (A) (A) (A)
 The electronic state is 1-A.
 Alpha  occ. eigenvalues --  -66.30102 -19.26981 -19.25499 -19.25327 -19.23120
 Alpha  occ. eigenvalues --  -10.31561 -10.30834 -10.30627 -10.30415 -10.30313
 Alpha  occ. eigenvalues --  -10.28497 -10.25446 -10.25243 -10.24477 -10.23477
 Alpha  occ. eigenvalues --  -10.23270 -10.23249 -10.22065 -10.21765  -5.33469
 Alpha  occ. eigenvalues --   -3.67388  -3.67098  -3.67065  -1.11480  -1.07542
 Alpha  occ. eigenvalues --   -1.05436  -1.02895  -0.84531  -0.82023  -0.77352
 Alpha  occ. eigenvalues --   -0.75109  -0.71924  -0.70276  -0.70174  -0.69909
 Alpha  occ. eigenvalues --   -0.69252  -0.69032  -0.63945  -0.63182  -0.57783
 Alpha  occ. eigenvalues --   -0.55667  -0.54737  -0.53487  -0.53210  -0.50275
 Alpha  occ. eigenvalues --   -0.48940  -0.47624  -0.47195  -0.46570  -0.44808
 Alpha  occ. eigenvalues --   -0.44451  -0.44403  -0.44273  -0.43189  -0.42692
 Alpha  occ. eigenvalues --   -0.41652  -0.41357  -0.40723  -0.40450  -0.39956
 Alpha  occ. eigenvalues --   -0.39467  -0.39100  -0.38760  -0.38589  -0.37155
 Alpha  occ. eigenvalues --   -0.37048  -0.36732  -0.36163  -0.34345  -0.33581
 Alpha  occ. eigenvalues --   -0.33512  -0.32216  -0.31691  -0.31185  -0.30756
 Alpha  occ. eigenvalues --   -0.29247  -0.28255  -0.27416  -0.26198
 Alpha virt. eigenvalues --   -0.00113   0.00858   0.01261   0.01486   0.02465
 Alpha virt. eigenvalues --    0.03129   0.03288   0.03472   0.03665   0.04987
 Alpha virt. eigenvalues --    0.05262   0.05414   0.05687   0.05928   0.06291
 Alpha virt. eigenvalues --    0.06821   0.07393   0.08000   0.08159   0.08297
 Alpha virt. eigenvalues --    0.08631   0.08964   0.09140   0.09416   0.09543
 Alpha virt. eigenvalues --    0.09929   0.10402   0.11109   0.11266   0.11775
 Alpha virt. eigenvalues --    0.12085   0.12166   0.12667   0.13021   0.13282
 Alpha virt. eigenvalues --    0.13502   0.13698   0.13931   0.14642   0.14896
 Alpha virt. eigenvalues --    0.15090   0.15524   0.15800   0.16162   0.16465
 Alpha virt. eigenvalues --    0.16649   0.17195   0.17513   0.17635   0.18255
 Alpha virt. eigenvalues --    0.18572   0.18787   0.19359   0.19572   0.19825
 Alpha virt. eigenvalues --    0.20240   0.20463   0.20668   0.20997   0.21251
 Alpha virt. eigenvalues --    0.21610   0.21839   0.22006   0.22741   0.22898
 Alpha virt. eigenvalues --    0.23368   0.23551   0.24037   0.24199   0.24283
 Alpha virt. eigenvalues --    0.24584   0.25031   0.25368   0.25599   0.25853
 Alpha virt. eigenvalues --    0.26560   0.26929   0.27279   0.27883   0.28104
 Alpha virt. eigenvalues --    0.28367   0.28591   0.28912   0.29284   0.29348
 Alpha virt. eigenvalues --    0.29911   0.30652   0.30836   0.31035   0.31819
 Alpha virt. eigenvalues --    0.32656   0.32947   0.33208   0.33833   0.34308
 Alpha virt. eigenvalues --    0.34794   0.35250   0.35706   0.36234   0.36508
 Alpha virt. eigenvalues --    0.36617   0.37791   0.37983   0.38330   0.38952
 Alpha virt. eigenvalues --    0.39174   0.39501   0.40415   0.40973   0.41096
 Alpha virt. eigenvalues --    0.41730   0.42205   0.43083   0.44135   0.45349
 Alpha virt. eigenvalues --    0.46109   0.46307   0.47020   0.47720   0.48055
 Alpha virt. eigenvalues --    0.49774   0.51557   0.52934   0.53000   0.55085
 Alpha virt. eigenvalues --    0.55656   0.58885   0.62318   0.64293   0.65259
 Alpha virt. eigenvalues --    0.67077   0.69205   0.69591   0.70292   0.71489
 Alpha virt. eigenvalues --    0.72652   0.73527   0.74097   0.75101   0.75364
 Alpha virt. eigenvalues --    0.75996   0.77307   0.77734   0.78543   0.79088
 Alpha virt. eigenvalues --    0.79292   0.79947   0.80546   0.81458   0.82207
 Alpha virt. eigenvalues --    0.83348   0.84449   0.85043   0.85314   0.86283
 Alpha virt. eigenvalues --    0.86440   0.87805   0.88772   0.89605   0.90364
 Alpha virt. eigenvalues --    0.91047   0.91246   0.92046   0.92493   0.93345
 Alpha virt. eigenvalues --    0.95164   0.96374   0.96890   0.97710   0.98173
 Alpha virt. eigenvalues --    0.98702   0.99878   1.00536   1.01008   1.01382
 Alpha virt. eigenvalues --    1.01675   1.03809   1.04050   1.04921   1.05826
 Alpha virt. eigenvalues --    1.06370   1.06932   1.07454   1.08427   1.08741
 Alpha virt. eigenvalues --    1.10029   1.10177   1.10703   1.11066   1.12272
 Alpha virt. eigenvalues --    1.12927   1.13810   1.14776   1.16354   1.16737
 Alpha virt. eigenvalues --    1.17827   1.17855   1.19959   1.20121   1.21543
 Alpha virt. eigenvalues --    1.22513   1.23668   1.24582   1.25957   1.26014
 Alpha virt. eigenvalues --    1.27711   1.30180   1.31588   1.33888   1.34552
 Alpha virt. eigenvalues --    1.34947   1.35678   1.36168   1.36961   1.37688
 Alpha virt. eigenvalues --    1.38618   1.40521   1.41509   1.42335   1.42876
 Alpha virt. eigenvalues --    1.44516   1.46213   1.47201   1.48794   1.49236
 Alpha virt. eigenvalues --    1.49675   1.51630   1.52841   1.54082   1.55501
 Alpha virt. eigenvalues --    1.57881   1.58725   1.60107   1.62429   1.65381
 Alpha virt. eigenvalues --    1.65922   1.66797   1.67358   1.68410   1.69753
 Alpha virt. eigenvalues --    1.70973   1.72921   1.73655   1.74254   1.76451
 Alpha virt. eigenvalues --    1.77457   1.78383   1.79639   1.80703   1.82186
 Alpha virt. eigenvalues --    1.83313   1.83757   1.84419   1.86196   1.87761
 Alpha virt. eigenvalues --    1.88816   1.89463   1.90915   1.91280   1.92011
 Alpha virt. eigenvalues --    1.93289   1.94323   1.95356   1.96575   1.96820
 Alpha virt. eigenvalues --    1.97515   1.98790   1.99665   2.00311   2.01963
 Alpha virt. eigenvalues --    2.03061   2.03618   2.05330   2.06133   2.06410
 Alpha virt. eigenvalues --    2.07256   2.07517   2.08018   2.08801   2.09897
 Alpha virt. eigenvalues --    2.10318   2.11267   2.11817   2.12886   2.13494
 Alpha virt. eigenvalues --    2.14344   2.14554   2.14954   2.15333   2.15956
 Alpha virt. eigenvalues --    2.16520   2.17041   2.18601   2.19002   2.19414
 Alpha virt. eigenvalues --    2.19847   2.20584   2.21086   2.21915   2.22344
 Alpha virt. eigenvalues --    2.23628   2.24570   2.26026   2.27170   2.27969
 Alpha virt. eigenvalues --    2.30078   2.30988   2.32508   2.34031   2.36544
 Alpha virt. eigenvalues --    2.37180   2.37547   2.39545   2.40543   2.41318
 Alpha virt. eigenvalues --    2.41720   2.43074   2.43895   2.44522   2.45987
 Alpha virt. eigenvalues --    2.46564   2.48813   2.49248   2.52208   2.53913
 Alpha virt. eigenvalues --    2.56141   2.57107   2.57472   2.58399   2.59614
 Alpha virt. eigenvalues --    2.59671   2.60616   2.63376   2.64326   2.64940
 Alpha virt. eigenvalues --    2.65772   2.66447   2.68022   2.69570   2.69850
 Alpha virt. eigenvalues --    2.70523   2.70961   2.72177   2.73192   2.74059
 Alpha virt. eigenvalues --    2.75617   2.75976   2.77040   2.78654   2.79280
 Alpha virt. eigenvalues --    2.82033   2.82364   2.82716   2.83584   2.85310
 Alpha virt. eigenvalues --    2.85910   2.87059   2.87404   2.87800   2.88363
 Alpha virt. eigenvalues --    2.88783   2.89334   2.89850   2.90350   2.90824
 Alpha virt. eigenvalues --    2.91443   2.92458   2.94588   2.95626   2.99048
 Alpha virt. eigenvalues --    2.99605   3.00767   3.02530   3.05891   3.08096
 Alpha virt. eigenvalues --    3.10229   3.12895   3.19559   3.21396   3.25753
 Alpha virt. eigenvalues --    3.27961   3.28725   3.29808   3.30738   3.31365
 Alpha virt. eigenvalues --    3.31720   3.35507   3.39633   3.43066   3.44374
 Alpha virt. eigenvalues --    3.47269   3.47899   3.48343   3.48857   3.48979
 Alpha virt. eigenvalues --    3.50459   3.50917   3.51360   3.51791   3.52233
 Alpha virt. eigenvalues --    3.52716   3.53510   3.55109   3.55984   3.56487
 Alpha virt. eigenvalues --    3.57268   3.60538   3.62485   4.38749   4.43926
 Alpha virt. eigenvalues --    4.46203   4.46622   4.53055   4.56229   4.60518
 Alpha virt. eigenvalues --    4.61958   4.63570   4.68298   4.68976   4.69487
 Alpha virt. eigenvalues --    4.71245   4.72962   4.76716   4.87419   4.97370
 Alpha virt. eigenvalues --    5.04529
          Condensed to atoms (all electrons):
              1          2          3          4          5          6
     1  H    0.591224   0.156110  -0.033841   0.013635   0.043536   0.128935
     2  C    0.156110  11.662657   1.547810   1.110639  -2.375442  -4.292574
     3  C   -0.033841   1.547810  10.403100  -1.048769  -2.784687  -0.530867
     4  C    0.013635   1.110639  -1.048769   9.514687  -3.559027  -1.331305
     5  C    0.043536  -2.375442  -2.784687  -3.559027  16.518040   1.128920
     6  C    0.128935  -4.292574  -0.530867  -1.331305   1.128920  11.312126
     7  C    0.018833  -2.212217  -0.941119  -0.373894   0.463310   0.663362
     8  H   -0.000104   0.086146   0.498277   0.066182  -0.238856  -0.040360
     9  H   -0.000259   0.055963  -0.073909   0.399495  -0.029604  -0.217788
    10  H   -0.003752   0.024508  -0.026365  -0.065225   0.031546   0.235848
    11  H   -0.003444  -0.086010  -0.029123   0.011537   0.047527   0.025458
    12  H   -0.000178  -0.067989   0.425510  -0.092561   0.025783   0.068515
    13  H   -0.001117  -0.147125  -0.103082  -0.036181   0.067575   0.057250
    14  C   -0.005080   0.126262  -0.801687   0.720010  -2.628308  -0.388230
    15  H   -0.000002   0.019522  -0.045911   0.142950  -0.214413  -0.015561
    16  H   -0.000001   0.011182   0.066507   0.018258  -0.125565  -0.012275
    17  O   -0.000048   0.031078  -0.147590  -0.036510   0.114289   0.004371
    18  O   -0.000850   0.083849  -0.116229   0.258551   0.044847  -0.181276
    19  H    0.000006  -0.018047  -0.039550   0.034703  -0.013751   0.041965
    20  O   -0.003535  -0.015995   0.050024  -0.078118  -0.063610   0.147813
    21  C   -0.003188   0.063916  -0.060089   0.069636  -0.014978  -0.255685
    22  H   -0.000005  -0.014426   0.001370   0.005653   0.000948   0.025349
    23  H   -0.000042   0.015903   0.001055   0.008051   0.005476  -0.050534
    24  H    0.000009  -0.017781  -0.004545  -0.012787  -0.012183   0.040815
    25  O   -0.054311   0.050422  -0.051099   0.061819  -0.028856  -0.186483
    26  Si   0.013516  -0.058330   0.028685   0.089124  -0.156140  -0.032849
    27  C   -0.001103   0.064971   0.013684   0.003648   0.016121  -0.072217
    28  H    0.000001   0.005745   0.000055  -0.000122  -0.000705  -0.002914
    29  H   -0.000003  -0.014962  -0.000302   0.007623  -0.004296   0.005654
    30  H   -0.000004   0.008302   0.000271  -0.000897  -0.001741  -0.008278
    31  C    0.003145  -0.087283   0.010060  -0.008178  -0.017412   0.070265
    32  C   -0.005432   0.059968   0.003617  -0.009355   0.043802  -0.041883
    33  H    0.000067  -0.001340   0.000001  -0.000461   0.000304   0.001948
    34  H   -0.000126  -0.013692  -0.000377  -0.000054  -0.000047   0.009089
    35  H   -0.000163  -0.026283  -0.000642  -0.002194   0.000645   0.027460
    36  C   -0.007185  -0.103738  -0.022118  -0.026878   0.053423   0.034935
    37  H    0.000000   0.002700   0.000348   0.000435  -0.000444  -0.000013
    38  H    0.000000   0.000147  -0.000139  -0.000070   0.000017   0.000304
    39  H    0.000032  -0.006684  -0.002328  -0.000799   0.003675  -0.000894
    40  C    0.000058  -0.020950  -0.001117  -0.005644   0.011718   0.025218
    41  H    0.000000   0.000851   0.000021   0.000073  -0.000037  -0.000267
    42  H    0.000000  -0.000294   0.000011  -0.000124   0.000169   0.000136
    43  H    0.000000  -0.000304  -0.000003   0.000018  -0.000023   0.000153
    44  C    0.002808   0.092991   0.007208   0.030152  -0.058865  -0.028052
    45  H    0.000000   0.000188  -0.000119   0.000296  -0.000426   0.000469
    46  H    0.000000  -0.001419   0.000427  -0.002833   0.001623   0.000577
    47  H   -0.000005  -0.002159  -0.002853  -0.000301   0.005371   0.000250
              7          8          9         10         11         12
     1  H    0.018833  -0.000104  -0.000259  -0.003752  -0.003444  -0.000178
     2  C   -2.212217   0.086146   0.055963   0.024508  -0.086010  -0.067989
     3  C   -0.941119   0.498277  -0.073909  -0.026365  -0.029123   0.425510
     4  C   -0.373894   0.066182   0.399495  -0.065225   0.011537  -0.092561
     5  C    0.463310  -0.238856  -0.029604   0.031546   0.047527   0.025783
     6  C    0.663362  -0.040360  -0.217788   0.235848   0.025458   0.068515
     7  C    7.645065  -0.084535   0.039248   0.048106   0.356481   0.002961
     8  H   -0.084535   0.519804  -0.000087   0.000052   0.001063  -0.025421
     9  H    0.039248  -0.000087   0.589833   0.004962   0.000010  -0.000086
    10  H    0.048106   0.000052   0.004962   0.573926   0.000566  -0.000629
    11  H    0.356481   0.001063   0.000010   0.000566   0.531142  -0.007768
    12  H    0.002961  -0.025421  -0.000086  -0.000629  -0.007768   0.512578
    13  H    0.506855  -0.007535  -0.000008   0.000032  -0.023883   0.003469
    14  C    0.387481   0.035433   0.088646   0.007733  -0.009268  -0.024115
    15  H   -0.002092   0.000137   0.002745  -0.000002   0.000000  -0.000133
    16  H   -0.000408   0.001412   0.000174   0.000004  -0.000011   0.000026
    17  O    0.023374   0.009365   0.003322  -0.000700  -0.000546  -0.012265
    18  O    0.010646  -0.000216  -0.053014   0.002594   0.000171   0.004168
    19  H    0.003017  -0.000041  -0.002822   0.000035   0.000000   0.000146
    20  O    0.022468   0.000035   0.011467  -0.037747  -0.000816  -0.000364
    21  C    0.027267  -0.000028   0.018944   0.019476   0.000371   0.000906
    22  H   -0.002488   0.000000  -0.000111  -0.000066   0.000000   0.000000
    23  H    0.001395   0.000000   0.000052   0.009318   0.000000   0.000001
    24  H    0.003159   0.000000   0.001066  -0.001483   0.000000   0.000000
    25  O    0.025831   0.000819   0.006034   0.014903   0.012271  -0.000150
    26  Si  -0.060711   0.001994  -0.007887   0.002084  -0.002395  -0.003655
    27  C   -0.033473  -0.000086   0.001325  -0.001263   0.000104   0.000127
    28  H   -0.000015   0.000000   0.000016   0.000000   0.000000   0.000000
    29  H   -0.000061   0.000000   0.000386   0.000010   0.000000   0.000000
    30  H    0.001107   0.000000   0.000244   0.000000   0.000000   0.000000
    31  C   -0.001824   0.000353   0.000217   0.000359   0.000331   0.000002
    32  C   -0.045434  -0.000003  -0.000197  -0.000602   0.000887   0.000097
    33  H    0.000645   0.000000   0.000000   0.000000   0.000000   0.000000
    34  H    0.001366   0.000000   0.000000   0.000001   0.000001   0.000000
    35  H    0.000444   0.000000  -0.000001  -0.000015   0.000001   0.000000
    36  C    0.062230  -0.000156   0.000474   0.000087   0.000416   0.000016
    37  H   -0.001852   0.000000   0.000000   0.000000   0.000000   0.000000
    38  H    0.000764   0.000000   0.000000   0.000000   0.000000   0.000000
    39  H    0.002559  -0.000001   0.000000   0.000000   0.000001   0.000000
    40  C   -0.002565   0.000000   0.000014  -0.000021   0.000059   0.000002
    41  H   -0.000010   0.000000   0.000000   0.000000   0.000000   0.000000
    42  H   -0.000036   0.000000   0.000000   0.000000   0.000000   0.000000
    43  H   -0.000022   0.000000   0.000000   0.000000   0.000000   0.000000
    44  C   -0.017898  -0.000283  -0.000370  -0.000111  -0.000385   0.000064
    45  H   -0.000178   0.000000   0.000000   0.000000   0.000000   0.000000
    46  H    0.000410   0.000000   0.000001   0.000000   0.000000   0.000000
    47  H    0.000834  -0.000005   0.000000   0.000000   0.000000   0.000000
             13         14         15         16         17         18
     1  H   -0.001117  -0.005080  -0.000002  -0.000001  -0.000048  -0.000850
     2  C   -0.147125   0.126262   0.019522   0.011182   0.031078   0.083849
     3  C   -0.103082  -0.801687  -0.045911   0.066507  -0.147590  -0.116229
     4  C   -0.036181   0.720010   0.142950   0.018258  -0.036510   0.258551
     5  C    0.067575  -2.628308  -0.214413  -0.125565   0.114289   0.044847
     6  C    0.057250  -0.388230  -0.015561  -0.012275   0.004371  -0.181276
     7  C    0.506855   0.387481  -0.002092  -0.000408   0.023374   0.010646
     8  H   -0.007535   0.035433   0.000137   0.001412   0.009365  -0.000216
     9  H   -0.000008   0.088646   0.002745   0.000174   0.003322  -0.053014
    10  H    0.000032   0.007733  -0.000002   0.000004  -0.000700   0.002594
    11  H   -0.023883  -0.009268   0.000000  -0.000011  -0.000546   0.000171
    12  H    0.003469  -0.024115  -0.000133   0.000026  -0.012265   0.004168
    13  H    0.514583   0.002553  -0.000030  -0.000126  -0.000970   0.000056
    14  C    0.002553   7.427377   0.460247   0.405913   0.102904   0.040092
    15  H   -0.000030   0.460247   0.536305  -0.032247  -0.024821   0.001417
    16  H   -0.000126   0.405913  -0.032247   0.523542  -0.027337  -0.000550
    17  O   -0.000970   0.102904  -0.024821  -0.027337   8.339491  -0.026192
    18  O    0.000056   0.040092   0.001417  -0.000550  -0.026192   8.261821
    19  H   -0.000001  -0.010342  -0.000035  -0.000007   0.020600   0.219625
    20  O   -0.000674   0.012392  -0.000168   0.000059   0.001588  -0.003870
    21  C    0.000298   0.015634   0.000761  -0.000062  -0.000939  -0.014932
    22  H    0.000000  -0.000346   0.000000   0.000000  -0.000003   0.000368
    23  H    0.000000   0.000049   0.000000   0.000000  -0.000002   0.001729
    24  H    0.000000   0.000329   0.000001   0.000000   0.000041  -0.008204
    25  O   -0.006032   0.012668   0.000471   0.000355   0.004252   0.000893
    26  Si  -0.007772  -0.036969   0.007515   0.002197  -0.002630  -0.009896
    27  C    0.000231   0.011281  -0.002209   0.000282   0.001997   0.001124
    28  H    0.000000   0.000268   0.000001   0.000000   0.000001   0.000001
    29  H    0.000000   0.001358   0.000009   0.000000  -0.000008   0.000019
    30  H    0.000000   0.001943   0.000147   0.000000   0.000037   0.000019
    31  C    0.002060   0.011115  -0.002597  -0.001180  -0.000758  -0.000355
    32  C    0.000477  -0.007783  -0.000243  -0.000039  -0.000454   0.000371
    33  H    0.000000  -0.000050   0.000000   0.000000   0.000000   0.000000
    34  H    0.000005  -0.000005   0.000000   0.000000   0.000000  -0.000001
    35  H   -0.000003  -0.000003   0.000000   0.000000   0.000000  -0.000008
    36  C    0.001379  -0.008581  -0.000333  -0.000203  -0.000536  -0.000068
    37  H   -0.000005  -0.000010   0.000000   0.000000   0.000000   0.000000
    38  H   -0.000005   0.000052   0.000000   0.000000   0.000000   0.000000
    39  H    0.000736  -0.000620   0.000000   0.000000  -0.000003   0.000000
    40  C    0.000317  -0.002146  -0.000139  -0.000008  -0.000054  -0.000050
    41  H    0.000000  -0.000007   0.000000   0.000000   0.000000   0.000000
    42  H    0.000000  -0.000014   0.000000   0.000000   0.000000   0.000000
    43  H    0.000000   0.000013   0.000000   0.000000   0.000000   0.000000
    44  C   -0.003132   0.009693   0.002230   0.000945   0.001896   0.000544
    45  H   -0.000001   0.000177   0.000001   0.000001   0.000000   0.000000
    46  H    0.000001   0.001256  -0.000031  -0.000009  -0.000008   0.000000
    47  H    0.000113  -0.004212  -0.000019   0.000151   0.000014  -0.000002
             19         20         21         22         23         24
     1  H    0.000006  -0.003535  -0.003188  -0.000005  -0.000042   0.000009
     2  C   -0.018047  -0.015995   0.063916  -0.014426   0.015903  -0.017781
     3  C   -0.039550   0.050024  -0.060089   0.001370   0.001055  -0.004545
     4  C    0.034703  -0.078118   0.069636   0.005653   0.008051  -0.012787
     5  C   -0.013751  -0.063610  -0.014978   0.000948   0.005476  -0.012183
     6  C    0.041965   0.147813  -0.255685   0.025349  -0.050534   0.040815
     7  C    0.003017   0.022468   0.027267  -0.002488   0.001395   0.003159
     8  H   -0.000041   0.000035  -0.000028   0.000000   0.000000   0.000000
     9  H   -0.002822   0.011467   0.018944  -0.000111   0.000052   0.001066
    10  H    0.000035  -0.037747   0.019476  -0.000066   0.009318  -0.001483
    11  H    0.000000  -0.000816   0.000371   0.000000   0.000000   0.000000
    12  H    0.000146  -0.000364   0.000906   0.000000   0.000001   0.000000
    13  H   -0.000001  -0.000674   0.000298   0.000000   0.000000   0.000000
    14  C   -0.010342   0.012392   0.015634  -0.000346   0.000049   0.000329
    15  H   -0.000035  -0.000168   0.000761   0.000000   0.000000   0.000001
    16  H   -0.000007   0.000059  -0.000062   0.000000   0.000000   0.000000
    17  O    0.020600   0.001588  -0.000939  -0.000003  -0.000002   0.000041
    18  O    0.219625  -0.003870  -0.014932   0.000368   0.001729  -0.008204
    19  H    0.377519   0.000675   0.000114  -0.000007  -0.000002   0.000362
    20  O    0.000675   8.356794  -0.029800  -0.074214  -0.054941  -0.052077
    21  C    0.000114  -0.029800   5.116985   0.419594   0.419160   0.419731
    22  H   -0.000007  -0.074214   0.419594   0.532531  -0.027081  -0.029121
    23  H   -0.000002  -0.054941   0.419160  -0.027081   0.566186  -0.041241
    24  H    0.000362  -0.052077   0.419731  -0.029121  -0.041241   0.541295
    25  O    0.000304   0.048041   0.003509  -0.000116  -0.000067   0.000231
    26  Si   0.002250   0.113474  -0.030890  -0.002819  -0.002366   0.003560
    27  C   -0.000119  -0.038074   0.006404   0.000607   0.000131  -0.001042
    28  H    0.000000   0.000578  -0.000198   0.000000   0.000000   0.000000
    29  H   -0.000001   0.001574   0.005024   0.000101  -0.000004   0.000038
    30  H    0.000000   0.000140   0.000566  -0.000001   0.000000  -0.000001
    31  C    0.000014   0.010110   0.000982  -0.000169  -0.000022   0.000072
    32  C   -0.000074  -0.047977   0.010860   0.002430   0.000032  -0.001082
    33  H    0.000000   0.000351  -0.000326  -0.000002   0.000000   0.000000
    34  H    0.000000  -0.000537  -0.000351  -0.000001   0.000000   0.000000
    35  H    0.000000   0.001480   0.002170   0.000050  -0.000013   0.000002
    36  C   -0.000008  -0.002453  -0.000350   0.000007   0.000033  -0.000045
    37  H    0.000000  -0.000009  -0.000003   0.000000   0.000000   0.000000
    38  H    0.000000   0.000001   0.000002   0.000000   0.000000   0.000000
    39  H    0.000000  -0.000029  -0.000026   0.000000   0.000000   0.000000
    40  C    0.000003  -0.000900   0.000170   0.000012   0.000001  -0.000005
    41  H    0.000000  -0.000002   0.000006   0.000000   0.000000   0.000000
    42  H    0.000000  -0.000002  -0.000002   0.000000   0.000000   0.000000
    43  H    0.000000   0.000001   0.000002   0.000000   0.000000   0.000000
    44  C   -0.000008   0.001270   0.001163   0.000023  -0.000016   0.000038
    45  H    0.000000   0.000002   0.000002   0.000000   0.000000   0.000000
    46  H    0.000000  -0.000017  -0.000005   0.000000   0.000000   0.000000
    47  H    0.000000  -0.000029  -0.000045   0.000000   0.000000   0.000000
             25         26         27         28         29         30
     1  H   -0.054311   0.013516  -0.001103   0.000001  -0.000003  -0.000004
     2  C    0.050422  -0.058330   0.064971   0.005745  -0.014962   0.008302
     3  C   -0.051099   0.028685   0.013684   0.000055  -0.000302   0.000271
     4  C    0.061819   0.089124   0.003648  -0.000122   0.007623  -0.000897
     5  C   -0.028856  -0.156140   0.016121  -0.000705  -0.004296  -0.001741
     6  C   -0.186483  -0.032849  -0.072217  -0.002914   0.005654  -0.008278
     7  C    0.025831  -0.060711  -0.033473  -0.000015  -0.000061   0.001107
     8  H    0.000819   0.001994  -0.000086   0.000000   0.000000   0.000000
     9  H    0.006034  -0.007887   0.001325   0.000016   0.000386   0.000244
    10  H    0.014903   0.002084  -0.001263   0.000000   0.000010   0.000000
    11  H    0.012271  -0.002395   0.000104   0.000000   0.000000   0.000000
    12  H   -0.000150  -0.003655   0.000127   0.000000   0.000000   0.000000
    13  H   -0.006032  -0.007772   0.000231   0.000000   0.000000   0.000000
    14  C    0.012668  -0.036969   0.011281   0.000268   0.001358   0.001943
    15  H    0.000471   0.007515  -0.002209   0.000001   0.000009   0.000147
    16  H    0.000355   0.002197   0.000282   0.000000   0.000000   0.000000
    17  O    0.004252  -0.002630   0.001997   0.000001  -0.000008   0.000037
    18  O    0.000893  -0.009896   0.001124   0.000001   0.000019   0.000019
    19  H    0.000304   0.002250  -0.000119   0.000000  -0.000001   0.000000
    20  O    0.048041   0.113474  -0.038074   0.000578   0.001574   0.000140
    21  C    0.003509  -0.030890   0.006404  -0.000198   0.005024   0.000566
    22  H   -0.000116  -0.002819   0.000607   0.000000   0.000101  -0.000001
    23  H   -0.000067  -0.002366   0.000131   0.000000  -0.000004   0.000000
    24  H    0.000231   0.003560  -0.001042   0.000000   0.000038  -0.000001
    25  O    8.398442   0.079867  -0.055214   0.009317  -0.001538  -0.009056
    26  Si   0.079867  13.498287   0.127923  -0.032059  -0.060937  -0.024525
    27  C   -0.055214   0.127923   5.549460   0.399023   0.414372   0.398356
    28  H    0.009317  -0.032059   0.399023   0.497242  -0.021663  -0.022777
    29  H   -0.001538  -0.060937   0.414372  -0.021663   0.477027  -0.021701
    30  H   -0.009056  -0.024525   0.398356  -0.022777  -0.021701   0.498888
    31  C   -0.071677   0.350770  -0.155152  -0.018813   0.015241  -0.014698
    32  C   -0.062475   0.133706   0.044695  -0.011480  -0.005088   0.007303
    33  H    0.010020  -0.024992  -0.010715   0.000183   0.000110   0.000023
    34  H   -0.004501  -0.019002   0.005180   0.000021   0.000003  -0.000017
    35  H   -0.003108  -0.060889  -0.007583   0.000116   0.000390   0.000004
    36  C    0.042050  -0.122622  -0.021069   0.000006  -0.001269  -0.002303
    37  H   -0.002721  -0.001767  -0.000186   0.000001  -0.000001   0.000000
    38  H   -0.000921   0.010324  -0.001273   0.000000   0.000000   0.000000
    39  H    0.009162  -0.002192  -0.001079   0.000000  -0.000001   0.000002
    40  C    0.022336  -0.118516   0.025030   0.006921  -0.000884  -0.001225
    41  H    0.000768  -0.012632  -0.000441  -0.000006  -0.000005   0.000023
    42  H    0.000463  -0.018670   0.005820  -0.000061   0.000012   0.000038
    43  H   -0.000678   0.015163   0.000392   0.000027   0.000000  -0.000007
    44  C   -0.018856  -0.198676   0.007536   0.009532   0.002564   0.010755
    45  H   -0.000671   0.013998   0.000501  -0.000001   0.000000  -0.000007
    46  H   -0.003579   0.003471   0.001119   0.000056   0.000000   0.000259
    47  H    0.005928  -0.005247  -0.000978   0.000003  -0.000006   0.000030
             31         32         33         34         35         36
     1  H    0.003145  -0.005432   0.000067  -0.000126  -0.000163  -0.007185
     2  C   -0.087283   0.059968  -0.001340  -0.013692  -0.026283  -0.103738
     3  C    0.010060   0.003617   0.000001  -0.000377  -0.000642  -0.022118
     4  C   -0.008178  -0.009355  -0.000461  -0.000054  -0.002194  -0.026878
     5  C   -0.017412   0.043802   0.000304  -0.000047   0.000645   0.053423
     6  C    0.070265  -0.041883   0.001948   0.009089   0.027460   0.034935
     7  C   -0.001824  -0.045434   0.000645   0.001366   0.000444   0.062230
     8  H    0.000353  -0.000003   0.000000   0.000000   0.000000  -0.000156
     9  H    0.000217  -0.000197   0.000000   0.000000  -0.000001   0.000474
    10  H    0.000359  -0.000602   0.000000   0.000001  -0.000015   0.000087
    11  H    0.000331   0.000887   0.000000   0.000001   0.000001   0.000416
    12  H    0.000002   0.000097   0.000000   0.000000   0.000000   0.000016
    13  H    0.002060   0.000477   0.000000   0.000005  -0.000003   0.001379
    14  C    0.011115  -0.007783  -0.000050  -0.000005  -0.000003  -0.008581
    15  H   -0.002597  -0.000243   0.000000   0.000000   0.000000  -0.000333
    16  H   -0.001180  -0.000039   0.000000   0.000000   0.000000  -0.000203
    17  O   -0.000758  -0.000454   0.000000   0.000000   0.000000  -0.000536
    18  O   -0.000355   0.000371   0.000000  -0.000001  -0.000008  -0.000068
    19  H    0.000014  -0.000074   0.000000   0.000000   0.000000  -0.000008
    20  O    0.010110  -0.047977   0.000351  -0.000537   0.001480  -0.002453
    21  C    0.000982   0.010860  -0.000326  -0.000351   0.002170  -0.000350
    22  H   -0.000169   0.002430  -0.000002  -0.000001   0.000050   0.000007
    23  H   -0.000022   0.000032   0.000000   0.000000  -0.000013   0.000033
    24  H    0.000072  -0.001082   0.000000   0.000000   0.000002  -0.000045
    25  O   -0.071677  -0.062475   0.010020  -0.004501  -0.003108   0.042050
    26  Si   0.350770   0.133706  -0.024992  -0.019002  -0.060889  -0.122622
    27  C   -0.155152   0.044695  -0.010715   0.005180  -0.007583  -0.021069
    28  H   -0.018813  -0.011480   0.000183   0.000021   0.000116   0.000006
    29  H    0.015241  -0.005088   0.000110   0.000003   0.000390  -0.001269
    30  H   -0.014698   0.007303   0.000023  -0.000017   0.000004  -0.002303
    31  C    8.070744  -0.156165  -0.019368  -0.017207   0.017156  -0.282904
    32  C   -0.156165   5.593709   0.394182   0.395241   0.415438   0.042422
    33  H   -0.019368   0.394182   0.490209  -0.021503  -0.020117   0.005738
    34  H   -0.017207   0.395241  -0.021503   0.494730  -0.022844   0.010375
    35  H    0.017156   0.415438  -0.020117  -0.022844   0.470639   0.000277
    36  C   -0.282904   0.042422   0.005738   0.010375   0.000277   5.876494
    37  H   -0.067928   0.000935   0.000095   0.000021   0.000013   0.427062
    38  H   -0.151231   0.000879  -0.000001  -0.000002   0.000000   0.452922
    39  H   -0.113152  -0.001311   0.000012   0.000049  -0.000005   0.474104
    40  C   -0.387854   0.016737   0.007081   0.004448   0.000150   0.013167
    41  H   -0.083504   0.003063   0.000300   0.000001  -0.000006  -0.010320
    42  H   -0.088552  -0.000208   0.000007   0.000007  -0.000005   0.004272
    43  H   -0.151776   0.000997   0.000010  -0.000004   0.000000   0.004320
    44  C   -0.357796  -0.038404   0.001114  -0.004289  -0.000672  -0.306228
    45  H   -0.158566  -0.001246   0.000000   0.000000   0.000000   0.001828
    46  H   -0.059662   0.000088   0.000000   0.000000  -0.000001   0.000342
    47  H   -0.105037  -0.001004   0.000000   0.000002   0.000000  -0.003557
             37         38         39         40         41         42
     1  H    0.000000   0.000000   0.000032   0.000058   0.000000   0.000000
     2  C    0.002700   0.000147  -0.006684  -0.020950   0.000851  -0.000294
     3  C    0.000348  -0.000139  -0.002328  -0.001117   0.000021   0.000011
     4  C    0.000435  -0.000070  -0.000799  -0.005644   0.000073  -0.000124
     5  C   -0.000444   0.000017   0.003675   0.011718  -0.000037   0.000169
     6  C   -0.000013   0.000304  -0.000894   0.025218  -0.000267   0.000136
     7  C   -0.001852   0.000764   0.002559  -0.002565  -0.000010  -0.000036
     8  H    0.000000   0.000000  -0.000001   0.000000   0.000000   0.000000
     9  H    0.000000   0.000000   0.000000   0.000014   0.000000   0.000000
    10  H    0.000000   0.000000   0.000000  -0.000021   0.000000   0.000000
    11  H    0.000000   0.000000   0.000001   0.000059   0.000000   0.000000
    12  H    0.000000   0.000000   0.000000   0.000002   0.000000   0.000000
    13  H   -0.000005  -0.000005   0.000736   0.000317   0.000000   0.000000
    14  C   -0.000010   0.000052  -0.000620  -0.002146  -0.000007  -0.000014
    15  H    0.000000   0.000000   0.000000  -0.000139   0.000000   0.000000
    16  H    0.000000   0.000000   0.000000  -0.000008   0.000000   0.000000
    17  O    0.000000   0.000000  -0.000003  -0.000054   0.000000   0.000000
    18  O    0.000000   0.000000   0.000000  -0.000050   0.000000   0.000000
    19  H    0.000000   0.000000   0.000000   0.000003   0.000000   0.000000
    20  O   -0.000009   0.000001  -0.000029  -0.000900  -0.000002  -0.000002
    21  C   -0.000003   0.000002  -0.000026   0.000170   0.000006  -0.000002
    22  H    0.000000   0.000000   0.000000   0.000012   0.000000   0.000000
    23  H    0.000000   0.000000   0.000000   0.000001   0.000000   0.000000
    24  H    0.000000   0.000000   0.000000  -0.000005   0.000000   0.000000
    25  O   -0.002721  -0.000921   0.009162   0.022336   0.000768   0.000463
    26  Si  -0.001767   0.010324  -0.002192  -0.118516  -0.012632  -0.018670
    27  C   -0.000186  -0.001273  -0.001079   0.025030  -0.000441   0.005820
    28  H    0.000001   0.000000   0.000000   0.006921  -0.000006  -0.000061
    29  H   -0.000001   0.000000  -0.000001  -0.000884  -0.000005   0.000012
    30  H    0.000000   0.000000   0.000002  -0.001225   0.000023   0.000038
    31  C   -0.067928  -0.151231  -0.113152  -0.387854  -0.083504  -0.088552
    32  C    0.000935   0.000879  -0.001311   0.016737   0.003063  -0.000208
    33  H    0.000095  -0.000001   0.000012   0.007081   0.000300   0.000007
    34  H    0.000021  -0.000002   0.000049   0.004448   0.000001   0.000007
    35  H    0.000013   0.000000  -0.000005   0.000150  -0.000006  -0.000005
    36  C    0.427062   0.452922   0.474104   0.013167  -0.010320   0.004272
    37  H    0.535147  -0.027992  -0.026583  -0.006719   0.002733   0.000027
    38  H   -0.027992   0.544409  -0.027444   0.011253  -0.000304   0.000001
    39  H   -0.026583  -0.027444   0.526453  -0.000753   0.000035  -0.000147
    40  C   -0.006719   0.011253  -0.000753   5.652320   0.446639   0.463874
    41  H    0.002733  -0.000304   0.000035   0.446639   0.534549  -0.027117
    42  H    0.000027   0.000001  -0.000147   0.463874  -0.027117   0.531574
    43  H   -0.000344   0.005411   0.000023   0.451662  -0.027982  -0.027622
    44  C    0.002436   0.015742  -0.007280  -0.086611   0.007536  -0.014521
    45  H    0.000036   0.005639  -0.000315   0.012440  -0.000005  -0.000337
    46  H   -0.000153   0.000023   0.000023  -0.000246   0.000035   0.002793
    47  H    0.000028  -0.000302   0.003126  -0.001765  -0.000147   0.000038
             43         44         45         46         47
     1  H    0.000000   0.002808   0.000000   0.000000  -0.000005
     2  C   -0.000304   0.092991   0.000188  -0.001419  -0.002159
     3  C   -0.000003   0.007208  -0.000119   0.000427  -0.002853
     4  C    0.000018   0.030152   0.000296  -0.002833  -0.000301
     5  C   -0.000023  -0.058865  -0.000426   0.001623   0.005371
     6  C    0.000153  -0.028052   0.000469   0.000577   0.000250
     7  C   -0.000022  -0.017898  -0.000178   0.000410   0.000834
     8  H    0.000000  -0.000283   0.000000   0.000000  -0.000005
     9  H    0.000000  -0.000370   0.000000   0.000001   0.000000
    10  H    0.000000  -0.000111   0.000000   0.000000   0.000000
    11  H    0.000000  -0.000385   0.000000   0.000000   0.000000
    12  H    0.000000   0.000064   0.000000   0.000000   0.000000
    13  H    0.000000  -0.003132  -0.000001   0.000001   0.000113
    14  C    0.000013   0.009693   0.000177   0.001256  -0.004212
    15  H    0.000000   0.002230   0.000001  -0.000031  -0.000019
    16  H    0.000000   0.000945   0.000001  -0.000009   0.000151
    17  O    0.000000   0.001896   0.000000  -0.000008   0.000014
    18  O    0.000000   0.000544   0.000000   0.000000  -0.000002
    19  H    0.000000  -0.000008   0.000000   0.000000   0.000000
    20  O    0.000001   0.001270   0.000002  -0.000017  -0.000029
    21  C    0.000002   0.001163   0.000002  -0.000005  -0.000045
    22  H    0.000000   0.000023   0.000000   0.000000   0.000000
    23  H    0.000000  -0.000016   0.000000   0.000000   0.000000
    24  H    0.000000   0.000038   0.000000   0.000000   0.000000
    25  O   -0.000678  -0.018856  -0.000671  -0.003579   0.005928
    26  Si   0.015163  -0.198676   0.013998   0.003471  -0.005247
    27  C    0.000392   0.007536   0.000501   0.001119  -0.000978
    28  H    0.000027   0.009532  -0.000001   0.000056   0.000003
    29  H    0.000000   0.002564   0.000000   0.000000  -0.000006
    30  H   -0.000007   0.010755  -0.000007   0.000259   0.000030
    31  C   -0.151776  -0.357796  -0.158566  -0.059662  -0.105037
    32  C    0.000997  -0.038404  -0.001246   0.000088  -0.001004
    33  H    0.000010   0.001114   0.000000   0.000000   0.000000
    34  H   -0.000004  -0.004289   0.000000   0.000000   0.000002
    35  H    0.000000  -0.000672   0.000000  -0.000001   0.000000
    36  C    0.004320  -0.306228   0.001828   0.000342  -0.003557
    37  H   -0.000344   0.002436   0.000036  -0.000153   0.000028
    38  H    0.005411   0.015742   0.005639   0.000023  -0.000302
    39  H    0.000023  -0.007280  -0.000315   0.000023   0.003126
    40  C    0.451662  -0.086611   0.012440  -0.000246  -0.001765
    41  H   -0.027982   0.007536  -0.000005   0.000035  -0.000147
    42  H   -0.027622  -0.014521  -0.000337   0.002793   0.000038
    43  H    0.542108   0.019277   0.005430  -0.000347   0.000014
    44  C    0.019277   6.129758   0.470500   0.409536   0.467091
    45  H    0.005430   0.470500   0.545357  -0.028362  -0.027746
    46  H   -0.000347   0.409536  -0.028362   0.537366  -0.026263
    47  H    0.000014   0.467091  -0.027746  -0.026263   0.523225
 Mulliken atomic charges:
              1
     1  H    0.151863
     2  C    0.303212
     3  C   -0.189580
     4  C    0.125111
     5  C   -0.299253
     6  C   -0.366882
     7  C   -0.538384
     8  H    0.176647
     9  H    0.161506
    10  H    0.161830
    11  H    0.175255
    12  H    0.190945
    13  H    0.179689
    14  C    0.044895
    15  H    0.166526
    16  H    0.169021
    17  O   -0.376244
    18  O   -0.517192
    19  H    0.383477
    20  O   -0.274378
    21  C   -0.211759
    22  H    0.161932
    23  H    0.147759
    24  H    0.170847
    25  O   -0.259066
    26  Si   0.620129
    27  C   -0.698170
    28  H    0.181700
    29  H    0.201212
    30  H    0.178780
    31  C    0.017829
    32  C   -0.733997
    33  H    0.186474
    34  H    0.184020
    35  H    0.208121
    36  C   -0.585454
    37  H    0.164712
    38  H    0.161792
    39  H    0.171654
    40  C   -0.533457
    41  H    0.166162
    42  H    0.168467
    43  H    0.164091
    44  C   -0.561948
    45  H    0.161115
    46  H    0.163530
    47  H    0.175461
 Sum of Mulliken atomic charges =   0.00000
 Mulliken charges with hydrogens summed into heavy atoms:
              1
     2  C    0.455074
     3  C    0.178011
     4  C    0.286617
     5  C   -0.299253
     6  C   -0.205052
     7  C   -0.183440
    14  C    0.380443
    17  O   -0.376244
    18  O   -0.133715
    20  O   -0.274378
    21  C    0.268780
    25  O   -0.259066
    26  Si   0.620129
    27  C   -0.136479
    31  C    0.017829
    32  C   -0.155381
    36  C   -0.087296
    40  C   -0.034738
    44  C   -0.061842
 Sum of Mulliken charges with hydrogens summed into heavy atoms =   0.00000
 Electronic spatial extent (au):  <R**2>=           5875.7819
 Charge=              0.0000 electrons
 Dipole moment (field-independent basis, Debye):
    X=              1.4967    Y=              0.3152    Z=              0.9940  Tot=              1.8241
 Quadrupole moment (field-independent basis, Debye-Ang):
   XX=           -136.1770   YY=           -124.4030   ZZ=           -121.1747
   XY=             -3.1503   XZ=             -3.4957   YZ=             -1.2992
 Traceless Quadrupole moment (field-independent basis, Debye-Ang):
   XX=             -8.9254   YY=              2.8485   ZZ=              6.0769
   XY=             -3.1503   XZ=             -3.4957   YZ=             -1.2992
 Octapole moment (field-independent basis, Debye-Ang**2):
  XXX=             10.5805  YYY=             15.2343  ZZZ=              1.4889  XYY=             -7.0739
  XXY=             22.5355  XXZ=              6.0476  XZZ=            -21.9519  YZZ=             -0.8645
  YYZ=             -0.0170  XYZ=              6.2484
 Hexadecapole moment (field-independent basis, Debye-Ang**3):
 XXXX=          -5030.9957 YYYY=          -1957.6808 ZZZZ=          -1063.3100 XXXY=            -29.1038
 XXXZ=             12.6465 YYYX=            -69.5484 YYYZ=            -29.8253 ZZZX=             15.5011
 ZZZY=             18.4886 XXYY=          -1193.1327 XXZZ=           -970.6647 YYZZ=           -526.5450
 XXYZ=            -21.8452 YYXZ=            -18.7911 ZZXY=              1.3809
 N-N= 1.849793420384D+03 E-N=-6.370304819656D+03  KE= 1.131545175735D+03
 1\1\GINC-COMPUTE-8-10\SP\RmPW1PW91\6-31+G(d,p)\C14H28O4Si1\ELUCIANO.IQ
 UIR\06-Dec-2022\0\\# mPW1PW91/6-31+g** scrf=(PCM,solvent=chloroform) n
 mr\\comment\\0,1\H,0,-0.160975,0.9671,2.034612\C,0,-0.606178,0.268548,
 1.315076\C,0,-2.339185,-1.651611,1.320426\C,0,-2.355637,0.117079,-0.52
 2684\C,0,-2.269449,-1.36947,-0.164224\C,0,-1.728201,1.00528,0.574508\C
 ,0,-1.177468,-0.951478,2.07124\H,0,-2.337207,-2.731011,1.501541\H,0,-1
 .820349,0.300932,-1.464588\H,0,-2.524797,1.232031,1.302757\H,0,-1.5233
 45,-0.633152,3.061582\H,0,-3.304158,-1.271791,1.679551\H,0,-0.345053,-
 1.64379,2.229247\C,0,-1.678391,-2.318788,-1.111139\H,0,-1.233449,-1.95
 6692,-2.037357\H,0,-1.284172,-3.268042,-0.748199\O,0,-3.110325,-2.1803
 42,-1.016034\O,0,-3.728516,0.486459,-0.64919\H,0,-4.132628,-0.209627,-
 1.197339\O,0,-1.197421,2.220232,0.066474\C,0,-2.173029,3.179192,-0.320
 701\H,0,-1.62403,4.071189,-0.633431\H,0,-2.829932,3.436885,0.523772\H,
 0,-2.798725,2.821774,-1.146436\O,0,0.391766,-0.187742,0.406646\Si,0,1.
 762429,0.621549,-0.156717\C,0,1.457594,1.212065,-1.922936\H,0,2.324166
 ,1.749429,-2.326762\H,0,0.600672,1.893084,-1.931472\H,0,1.235186,0.381
 09,-2.602383\C,0,3.163476,-0.687535,-0.107191\C,0,2.161299,2.10394,0.9
 44726\H,0,3.057246,2.622462,0.582193\H,0,2.344186,1.822715,1.988256\H,
 0,1.331276,2.818237,0.927473\C,0,3.437135,-1.114769,1.35039\H,0,3.7863
 03,-0.276509,1.965637\H,0,4.216779,-1.890019,1.383876\H,0,2.540031,-1.
 529185,1.825316\C,0,4.45859,-0.101144,-0.710532\H,0,4.804715,0.784599,
 -0.163045\H,0,4.331429,0.183785,-1.762116\H,0,5.269399,-0.843258,-0.67
 1016\C,0,2.750252,-1.93463,-0.918863\H,0,3.544809,-2.694788,-0.886026\
 H,0,2.572102,-1.697759,-1.975297\H,0,1.83764,-2.390318,-0.518052\\Vers
 ion=EM64L-G09RevC.01\State=1-A\HF=-1140.6182868\RMSD=5.357e-09\Dipole=
 0.5888333,0.1240062,0.3910862\Quadrupole=-6.6358173,2.1178195,4.517997
 8,-2.3421707,-2.5989331,-0.965917\PG=C01 [X(C14H28O4Si1)]\\@


 WE SHOULD BE CAREFUL TO GET OUT OF AN EXPERIENCE ONLY THE WISDOM
 THAT IS IN IT -- AND STOP THERE;
 LEST WE BE LIKE THE CAT THAT SITS DOWN ON A HOT STOVE-LID.
 SHE WILL NEVER SIT DOWN ON A HOT STOVE LID AGAIN;
 BUT ALSO SHE WILL NEVER SIT DOWN ON A COLD ONE ANY MORE.

                                                     -- MARK TWAIN
 Job cpu time:  0 days  4 hours  6 minutes 20.3 seconds.
 File lengths (MBytes):  RWF=    294 Int=      0 D2E=      0 Chk=     16 Scr=      1
 Normal termination of Gaussian 09 at Tue Dec  6 14:11:53 2022.
