 Entering Gaussian System, Link 0=g09
 Input=/home/eluciano.iquir/todos_optB3L_MPW_B_PCM/01_epoxido28_008_optB3L_nmr_MPW_B_PCM.gjc
 Output=/home/eluciano.iquir/todos_optB3L_MPW_B_PCM/01_epoxido28_008_optB3L_nmr_MPW_B_PCM.log
 Initial command:
 /share/apps/Gaussian09/EM64T.SSE4.2-enabled/g09/l1.exe /tmp/Gau-53568.inp -scrdir=/tmp/
 Entering Link 1 = /share/apps/Gaussian09/EM64T.SSE4.2-enabled/g09/l1.exe PID=     53569.
  
 Copyright (c) 1988,1990,1992,1993,1995,1998,2003,2009,2011,
            Gaussian, Inc.  All Rights Reserved.
  
 This is part of the Gaussian(R) 09 program.  It is based on
 the Gaussian(R) 03 system (copyright 2003, Gaussian, Inc.),
 the Gaussian(R) 98 system (copyright 1998, Gaussian, Inc.),
 the Gaussian(R) 94 system (copyright 1995, Gaussian, Inc.),
 the Gaussian 92(TM) system (copyright 1992, Gaussian, Inc.),
 the Gaussian 90(TM) system (copyright 1990, Gaussian, Inc.),
 the Gaussian 88(TM) system (copyright 1988, Gaussian, Inc.),
 the Gaussian 86(TM) system (copyright 1986, Carnegie Mellon
 University), and the Gaussian 82(TM) system (copyright 1983,
 Carnegie Mellon University). Gaussian is a federally registered
 trademark of Gaussian, Inc.
  
 This software contains proprietary and confidential information,
 including trade secrets, belonging to Gaussian, Inc.
  
 This software is provided under written license and may be
 used, copied, transmitted, or stored only in accord with that
 written license.
  
 The following legend is applicable only to US Government
 contracts under FAR:
  
                    RESTRICTED RIGHTS LEGEND
  
 Use, reproduction and disclosure by the US Government is
 subject to restrictions as set forth in subparagraphs (a)
 and (c) of the Commercial Computer Software - Restricted
 Rights clause in FAR 52.227-19.
  
 Gaussian, Inc.
 340 Quinnipiac St., Bldg. 40, Wallingford CT 06492
  
  
 ---------------------------------------------------------------
 Warning -- This program may not be used in any manner that
 competes with the business of Gaussian, Inc. or will provide
 assistance to any competitor of Gaussian, Inc.  The licensee
 of this program is prohibited from giving any competitor of
 Gaussian, Inc. access to this program.  By using this program,
 the user acknowledges that Gaussian, Inc. is engaged in the
 business of creating and licensing software in the field of
 computational chemistry and represents and warrants to the
 licensee that it is not a competitor of Gaussian, Inc. and that
 it will not use this program in any manner prohibited above.
 ---------------------------------------------------------------
  

 Cite this work as:
 Gaussian 09, Revision C.01,
 M. J. Frisch, G. W. Trucks, H. B. Schlegel, G. E. Scuseria, 
 M. A. Robb, J. R. Cheeseman, G. Scalmani, V. Barone, B. Mennucci, 
 G. A. Petersson, H. Nakatsuji, M. Caricato, X. Li, H. P. Hratchian, 
 A. F. Izmaylov, J. Bloino, G. Zheng, J. L. Sonnenberg, M. Hada, 
 M. Ehara, K. Toyota, R. Fukuda, J. Hasegawa, M. Ishida, T. Nakajima, 
 Y. Honda, O. Kitao, H. Nakai, T. Vreven, J. A. Montgomery, Jr., 
 J. E. Peralta, F. Ogliaro, M. Bearpark, J. J. Heyd, E. Brothers, 
 K. N. Kudin, V. N. Staroverov, T. Keith, R. Kobayashi, J. Normand, 
 K. Raghavachari, A. Rendell, J. C. Burant, S. S. Iyengar, J. Tomasi, 
 M. Cossi, N. Rega, J. M. Millam, M. Klene, J. E. Knox, J. B. Cross, 
 V. Bakken, C. Adamo, J. Jaramillo, R. Gomperts, R. E. Stratmann, 
 O. Yazyev, A. J. Austin, R. Cammi, C. Pomelli, J. W. Ochterski, 
 R. L. Martin, K. Morokuma, V. G. Zakrzewski, G. A. Voth, 
 P. Salvador, J. J. Dannenberg, S. Dapprich, A. D. Daniels, 
 O. Farkas, J. B. Foresman, J. V. Ortiz, J. Cioslowski, 
 and D. J. Fox, Gaussian, Inc., Wallingford CT, 2010.
 
 ******************************************
 Gaussian 09:  EM64L-G09RevC.01 23-Sep-2011
                 6-Dec-2022 
 ******************************************
 %nprocshared=4
 Will use up to    4 processors via shared memory.
 %mem=80MW
 -----------------------------------------------------
 # mPW1PW91/6-31+g** scrf=(PCM,solvent=chloroform) nmr
 -----------------------------------------------------
 1/38=1/1;
 2/12=2,17=6,18=5,40=1/2;
 3/5=1,6=6,7=111,11=2,16=1,25=1,30=1,70=2201,72=7,74=-7/1,2,8,3;
 4//1;
 5/5=2,38=5,53=7/2;
 8/6=1,10=90,11=11/1;
 10/13=100,45=16/2;
 6/7=2,8=2,9=2,10=2,28=1/1;
 99/9=1/99;
 -------
 comment
 -------
 Charge =  0 Multiplicity = 1
 Symbolic Z-Matrix:
 1                     0.08107   0.47254  -2.06422 
 6                     0.49233  -0.04875  -1.18918 
 6                     1.7574   -2.10099  -0.43022 
 6                     2.26251   0.20135   0.63971 
 6                     2.75469  -1.20665   0.27739 
 6                     1.57319   0.86081  -0.57581 
 6                     1.11432  -1.38166  -1.62422 
 1                     0.97349  -2.38149   0.2832 
 1                     1.53246   0.13855   1.45261 
 1                     2.33993   1.03435  -1.35091 
 1                     1.87078  -1.19208  -2.39671 
 1                     2.26082  -3.0191   -0.75152 
 1                     0.33705  -2.00971  -2.07267 
 6                     3.89355  -1.77523   1.00651 
 1                     4.33038  -1.22445   1.83668 
 1                     4.02336  -2.85686   1.033 
 8                     4.09297  -1.17659  -0.29378 
 8                     3.34366   0.98931   1.12043 
 1                     4.08931   0.77642   0.52722 
 8                     0.95376   2.09401  -0.24119 
 6                     1.79562   3.2397   -0.25703 
 1                     2.54743   3.20278   0.53641 
 1                     1.14234   4.1043   -0.11006 
 1                     2.30417   3.34224  -1.22871 
 8                    -0.54259  -0.32715  -0.25508 
 14                   -1.95269   0.53562   0.08614 
 6                    -1.7409    1.47267   1.71016 
 1                    -2.63819   2.04842   1.96829 
 1                    -0.89999   2.16739   1.62133 
 1                    -1.52888   0.7948    2.54526 
 6                    -3.31408  -0.80817   0.25169 
 6                    -2.34066   1.74521  -1.31319 
 1                    -3.26795   2.29334  -1.1073 
 1                    -2.46122   1.24609  -2.28173 
 1                    -1.53206   2.47744  -1.40676 
 6                    -3.49234  -1.54715  -1.09119 
 1                    -3.82488  -0.87229  -1.88947 
 1                    -4.24951  -2.33965  -0.99823 
 1                    -2.55846  -2.01944  -1.41807 
 6                    -4.65512  -0.15584   0.65064 
 1                    -4.99658   0.57336  -0.09492 
 1                    -4.5896    0.35933   1.61662 
 1                    -5.44207  -0.9189    0.74132 
 6                    -2.90932  -1.83292   1.33269 
 1                    -3.67303  -2.61973   1.4231 
 1                    -2.80413  -1.36787   2.32046 
 1                    -1.95804  -2.31945   1.089 
 
                          Input orientation:                          
 ---------------------------------------------------------------------
 Center     Atomic      Atomic             Coordinates (Angstroms)
 Number     Number       Type             X           Y           Z
 ---------------------------------------------------------------------
      1          1           0        0.081070    0.472543   -2.064224
      2          6           0        0.492334   -0.048748   -1.189182
      3          6           0        1.757400   -2.100987   -0.430222
      4          6           0        2.262508    0.201351    0.639707
      5          6           0        2.754694   -1.206651    0.277389
      6          6           0        1.573192    0.860812   -0.575810
      7          6           0        1.114316   -1.381660   -1.624218
      8          1           0        0.973485   -2.381493    0.283195
      9          1           0        1.532461    0.138550    1.452611
     10          1           0        2.339925    1.034346   -1.350912
     11          1           0        1.870783   -1.192078   -2.396705
     12          1           0        2.260824   -3.019102   -0.751519
     13          1           0        0.337046   -2.009711   -2.072675
     14          6           0        3.893546   -1.775233    1.006512
     15          1           0        4.330378   -1.224452    1.836675
     16          1           0        4.023361   -2.856857    1.032999
     17          8           0        4.092972   -1.176586   -0.293777
     18          8           0        3.343656    0.989314    1.120429
     19          1           0        4.089312    0.776423    0.527215
     20          8           0        0.953763    2.094005   -0.241191
     21          6           0        1.795615    3.239702   -0.257026
     22          1           0        2.547429    3.202778    0.536406
     23          1           0        1.142341    4.104298   -0.110062
     24          1           0        2.304173    3.342240   -1.228711
     25          8           0       -0.542586   -0.327148   -0.255081
     26         14           0       -1.952686    0.535620    0.086141
     27          6           0       -1.740901    1.472666    1.710161
     28          1           0       -2.638191    2.048416    1.968288
     29          1           0       -0.899985    2.167394    1.621333
     30          1           0       -1.528883    0.794799    2.545256
     31          6           0       -3.314080   -0.808166    0.251694
     32          6           0       -2.340658    1.745212   -1.313188
     33          1           0       -3.267949    2.293337   -1.107302
     34          1           0       -2.461219    1.246092   -2.281727
     35          1           0       -1.532060    2.477437   -1.406763
     36          6           0       -3.492342   -1.547148   -1.091188
     37          1           0       -3.824883   -0.872294   -1.889465
     38          1           0       -4.249506   -2.339647   -0.998226
     39          1           0       -2.558455   -2.019436   -1.418066
     40          6           0       -4.655117   -0.155842    0.650643
     41          1           0       -4.996577    0.573356   -0.094924
     42          1           0       -4.589597    0.359327    1.616617
     43          1           0       -5.442070   -0.918895    0.741318
     44          6           0       -2.909315   -1.832919    1.332694
     45          1           0       -3.673032   -2.619733    1.423101
     46          1           0       -2.804128   -1.367868    2.320462
     47          1           0       -1.958037   -2.319453    1.089003
 ---------------------------------------------------------------------
                    Distance matrix (angstroms):
                    1          2          3          4          5
     1  H    0.000000
     2  C    1.098445   0.000000
     3  C    3.478951   2.527469   0.000000
     4  C    3.484747   2.557518   2.588560   0.000000
     5  C    3.930790   2.934253   1.514974   1.534924   0.000000
     6  C    2.143025   1.540058   2.971091   1.545162   2.529486
     7  C    2.167780   1.533875   1.535127   2.991592   2.517455
     8  H    3.801618   2.800196   1.096435   2.908567   2.133774
     9  H    3.819190   2.845350   2.934482   1.094406   2.164386
    10  H    2.434515   2.147753   3.319235   2.159268   2.800976
    11  H    2.466694   2.159962   2.169338   3.363761   2.816432
    12  H    4.320429   3.484553   1.095264   3.508109   2.141854
    13  H    2.495432   2.156397   2.173336   3.994148   3.465938
    14  C    5.386733   4.401144   2.594887   2.588767   1.466932
    15  H    6.012772   5.026795   3.539400   2.782397   2.216860
    16  H    6.018252   5.029087   2.801238   3.550763   2.214417
    17  O    4.685026   3.877933   2.515558   2.474005   1.455377
    18  O    4.588413   3.813386   3.804036   1.421570   2.424841
    19  H    4.782667   4.070034   3.825440   1.918483   2.403373
    20  O    2.591174   2.388094   4.275456   2.463927   3.795604
    21  C    3.723278   3.658054   5.343633   3.202139   4.579900
    22  H    4.505595   4.215862   5.448710   3.016689   4.421890
    23  H    4.258484   4.339908   6.243906   4.129155   5.563810
    24  H    3.724974   3.844883   5.528586   3.654847   4.812870
    25  O    2.073994   1.421658   2.909831   2.991406   3.453854
    26  Si   2.960441   2.818875   4.580728   4.264508   5.023098
    27  C    4.308806   3.963361   5.439701   4.334674   5.426044
    28  H    5.112623   4.916086   6.503200   5.403113   6.522102
    29  H    4.173526   3.840421   5.430437   3.851010   5.152382
    30  H    4.893169   4.329309   5.295158   4.284617   5.243859
    31  C    4.304734   4.140245   5.277907   5.680494   6.081897
    32  C    2.836989   3.355520   5.689196   5.233206   6.099676
    33  H    3.930257   4.430778   6.709892   6.165582   7.102078
    34  H    2.666256   3.404958   5.694537   5.651536   6.306407
    35  H    2.655945   3.244553   5.721551   4.875177   5.897892
    36  C    4.218439   4.258221   5.320094   6.258718   6.404249
    37  H    4.134682   4.450504   5.899234   6.678754   6.935264
    38  H    5.272443   5.269699   6.038419   7.179542   7.209001
    39  H    3.687082   3.639136   4.428215   5.692803   5.636022
    40  C    5.495165   5.467420   6.787653   6.926849   7.493251
    41  H    5.447091   5.631390   7.271915   7.305641   7.961736
    42  H    5.947818   5.819369   7.108239   6.923197   7.627872
    43  H    6.349192   6.300884   7.389331   7.786257   8.214924
    44  C    5.079036   4.595034   4.995794   5.600557   5.795419
    45  H    5.984721   5.548357   5.761380   6.618373   6.680203
    46  H    5.562100   4.992428   5.376920   5.564008   5.924579
    47  H    4.679320   4.043581   4.019981   4.936529   4.909876
                    6          7          8          9         10
     6  C    0.000000
     7  C    2.517619   0.000000
     8  H    3.407357   2.158176   0.000000
     9  H    2.153558   3.457276   2.833832   0.000000
    10  H    1.103982   2.722848   4.025596   3.051916   0.000000
    11  H    2.760177   1.097688   3.066222   4.086841   2.504145
    12  H    3.944293   2.181124   1.770429   3.919116   4.098289
    13  H    3.465338   1.095313   2.468481   4.297870   3.714667
    14  C    3.851820   3.847046   3.068794   3.071855   3.983079
    15  H    4.215505   4.727108   3.875664   3.135860   4.384607
    16  H    4.734201   4.207083   3.176464   3.918306   4.863995
    17  O    3.252664   3.268718   3.393508   3.366849   3.013126
    18  O    2.455256   4.257295   4.204879   2.028441   2.667776
    19  H    2.748572   4.258707   4.443012   2.792978   2.579581
    20  O    1.420010   3.744167   4.506157   2.650974   2.067801
    21  C    2.410438   4.867275   5.706625   3.550951   2.521201
    22  H    2.769651   5.266800   5.807366   3.355456   2.882208
    23  H    3.304959   5.691150   6.499896   4.280339   3.521153
    24  H    2.667976   4.887475   6.067760   4.248371   2.311403
    25  O    2.447577   2.394129   2.609319   2.727436   3.370961
    26  Si   3.602186   4.000974   4.136527   3.764459   4.554158
    27  C    4.072253   5.236175   4.925309   3.544164   5.120101
    28  H    5.061480   6.225177   5.958845   4.616043   6.068531
    29  H    3.556852   5.214096   5.098321   3.171982   4.540380
    30  H    4.400941   5.395182   4.633314   3.316076   5.495924
    31  C    5.230266   4.843411   4.567227   5.082070   6.158812
    32  C    4.079720   4.670216   5.528262   5.023152   4.734407
    33  H    5.076540   5.742565   6.463535   5.851512   5.752622
    34  H    4.397166   4.485738   5.615638   5.578657   4.895124
    35  H    3.598131   4.684359   5.722142   4.799761   4.132541
    36  C    5.632364   4.640345   4.746438   5.878872   6.383330
    37  H    5.819670   4.972474   5.479276   6.394718   6.475351
    38  H    6.657716   5.484541   5.378050   6.751237   7.411398
    39  H    5.106440   3.733431   3.937001   5.443646   5.772713
    40  C    6.428811   6.321707   6.063803   6.246274   7.372475
    41  H    6.593614   6.595744   6.672012   6.724006   7.457498
    42  H    6.560350   6.787391   6.343342   6.128233   7.568365
    43  H    7.356364   6.985421   6.596091   7.090008   8.291684
    44  C    5.566996   5.013638   4.059374   4.861116   6.555720
    45  H    6.605506   5.808414   4.790226   5.891193   7.563273
    46  H    5.702310   5.560116   4.410017   4.672094   6.760984
    47  H    5.035401   4.204804   3.040887   4.284573   5.972741
                   11         12         13         14         15
    11  H    0.000000
    12  H    2.489334   0.000000
    13  H    1.768013   2.542685   0.000000
    14  C    4.001690   2.702529   4.710102   0.000000
    15  H    4.896137   3.768630   5.643257   1.087820   0.000000
    16  H    4.378122   2.513437   4.894056   1.089708   1.845237
    17  O    3.059521   2.638401   4.238579   1.445303   2.144173
    18  O    4.392955   4.554571   5.313169   2.821006   2.527328
    19  H    4.164874   4.402788   5.348034   2.603651   2.403393
    20  O    4.035531   5.302142   4.535985   5.016980   5.170224
    21  C    4.921844   6.295520   5.742851   5.580987   5.544121
    22  H    5.326889   6.360242   6.234031   5.178187   4.946713
    23  H    5.814719   7.239150   6.471588   6.586710   6.507606
    24  H    4.702348   6.379362   5.764134   5.806105   5.861465
    25  O    3.340510   3.918185   2.628387   4.834029   5.378325
    26  Si   4.875283   5.575965   4.047477   6.353389   6.755673
    27  C    6.083705   6.499973   5.545689   6.541480   6.644613
    28  H    7.062918   7.554961   6.453667   7.629475   7.699996
    29  H    5.925187   6.520804   5.711755   6.237007   6.237603
    30  H    6.318891   6.306857   5.715965   6.194799   6.237820
    31  C    5.834742   6.080644   4.491895   7.311282   7.818133
    32  C    5.247658   6.647390   4.674010   7.525944   7.952563
    33  H    6.341707   7.675671   5.695977   8.503439   8.875608
    34  H    4.972337   6.544548   4.298167   7.766850   8.318089
    35  H    5.101438   6.710235   4.906271   7.303855   7.654545
    36  C    5.531144   5.948188   3.980137   7.681387   8.358915
    37  H    5.727143   6.552827   4.318441   8.293137   8.973094
    38  H    6.382053   6.550337   4.722262   8.405167   9.104654
    39  H    4.610901   4.966796   2.968591   6.896849   7.660376
    40  C    7.276502   7.615416   5.981219   8.707968   9.126211
    41  H    7.454904   8.124453   6.247501   9.260849   9.693053
    42  H    7.762095   7.996882   6.595076   8.768825   9.062160
    43  H    7.962389   8.122439   6.519710   9.378559   9.838390
    44  C    6.096592   5.699238   4.708148   6.810921   7.282677
    45  H    6.882078   6.332386   5.354746   7.624948   8.134643
    46  H    6.643595   6.149584   5.438620   6.837488   7.152328
    47  H    5.299151   4.655730   3.919127   5.877415   6.426679
                   16         17         18         19         20
    16  H    0.000000
    17  O    2.142076   0.000000
    18  O    3.906747   2.693061   0.000000
    19  H    3.668909   2.118557   0.976334   0.000000
    20  O    5.962971   4.533670   2.964109   3.486852   0.000000
    21  C    6.617783   4.978233   3.059095   3.455984   1.421825
    22  H    6.256529   4.717705   2.423733   2.874837   2.091365
    23  H    7.620009   6.052083   4.007870   4.490603   2.023372
    24  H    6.819072   4.949110   3.483568   3.585166   2.087317
    25  O    5.376472   4.712901   4.327583   4.825384   2.846267
    26  Si   6.936756   6.294916   5.415425   6.062860   3.314084
    27  C    7.240859   6.713299   5.141414   5.989616   3.384531
    28  H    8.325428   7.799111   6.133764   6.996710   4.217346
    29  H    7.058936   6.307097   4.432524   5.293862   2.628833
    30  H    6.815345   6.599373   5.080315   5.969669   3.951677
    31  C    7.658042   7.436242   6.950617   7.576084   5.184594
    32  C    8.196607   7.139166   6.229390   6.757969   3.481960
    33  H    9.179792   8.178346   7.097646   7.687780   4.314248
    34  H    8.358910   7.264897   6.733289   7.142843   4.067536
    35  H    8.078975   6.799383   5.689799   6.183328   2.772164
    36  C    7.919173   7.636110   7.619433   8.093188   5.809332
    37  H    8.606638   8.082774   7.994561   8.437600   5.860989
    38  H    8.534267   8.452568   8.557265   9.031763   6.877818
    39  H    7.073139   6.798228   7.094466   7.469522   5.535441
    40  C    9.097124   8.857929   8.093976   8.794850   6.108741
    41  H    9.715856   9.258604   8.438578   9.109428   6.143315
    42  H    9.212356   9.021953   7.973681   8.756953   6.098311
    43  H    9.666186   9.594522   8.998554   9.683346   7.137897
    44  C    7.014290   7.218601   6.863651   7.512539   5.728981
    45  H    7.709920   8.083388   7.896249   8.520004   6.811492
    46  H    7.105579   7.378402   6.692655   7.438631   5.715626
    47  H    6.005752   6.311334   6.249550   6.816926   5.452211
                   21         22         23         24         25
    21  C    0.000000
    22  H    1.093674   0.000000
    23  H    1.093568   1.790232   0.000000
    24  H    1.101507   1.787250   1.783805   0.000000
    25  O    4.264928   4.757628   4.743176   4.745145   0.000000
    26  Si   4.634607   5.250477   4.727912   5.265624   1.687952
    27  C    4.415788   4.770824   4.307178   5.338061   2.921894
    28  H    5.101943   5.502135   4.778976   6.026752   3.870172
    29  H    3.456058   3.759488   3.304606   4.446307   3.141879
    30  H    4.988248   5.142972   5.013874   5.951857   3.173867
    31  C    6.538579   7.108166   6.642504   7.140185   2.858212
    32  C    4.523023   5.425762   4.375395   4.912442   2.940634
    33  H    5.220944   6.111258   4.870803   5.671286   3.875671
    34  H    5.118059   6.071001   5.086366   5.311463   3.203675
    35  H    3.602272   4.576489   3.388293   3.936530   3.189220
    36  C    7.181382   7.854279   7.374397   7.584498   3.299778
    37  H    7.152857   7.943389   7.253003   7.467544   3.707003
    38  H    8.259661   8.903477   8.448981   8.676847   4.282951
    39  H    6.925639   7.560525   7.273712   7.240758   2.877516
    40  C    7.346123   7.947959   7.234500   8.012507   4.214569
    41  H    7.298599   8.014017   7.081956   7.890066   4.546932
    42  H    7.251071   7.758171   7.061256   8.032293   4.511408
    43  H    8.406825   8.992345   8.325370   9.057735   5.034672
    44  C    7.098948   7.467823   7.331303   7.779687   3.223318
    45  H    8.189133   8.566329   8.411361   8.848967   4.227521
    46  H    7.002198   7.260360   7.171239   7.802338   3.582051
    47  H    6.841484   7.148400   7.232889   7.456071   2.789147
                   26         27         28         29         30
    26  Si   0.000000
    27  C    1.886889   0.000000
    28  H    2.510169   1.096926   0.000000
    29  H    2.475415   1.094384   1.776484   0.000000
    30  H    2.508790   1.096284   1.770596   1.770074   0.000000
    31  C    1.920042   3.131168   3.400527   4.069118   3.319164
    32  C    1.889909   3.094290   3.308858   3.296239   4.055842
    33  H    2.498758   3.308092   3.148942   3.615047   4.314064
    34  H    2.523921   4.062679   4.328703   4.303502   4.936870
    35  H    2.485225   3.281523   3.577507   3.108860   4.295315
    36  C    2.845095   4.475978   4.797713   5.279764   4.750117
    37  H    3.064370   4.774843   4.982072   5.488209   5.264747
    38  H    3.836456   5.306806   5.536392   6.196354   5.457363
    39  H    3.026203   4.759094   5.293503   5.433048   4.968688
    40  C    2.846035   3.502467   3.265415   4.521137   3.777117
    41  H    3.049505   3.829689   3.463326   4.718958   4.363999
    42  H    3.053970   3.059958   2.604742   4.108816   3.227999
    43  H    3.836753   4.511859   4.262878   5.561487   4.637238
    44  C    2.842360   3.526268   3.942366   4.485892   3.206369
    45  H    3.834489   4.534673   4.812457   5.535853   4.185169
    46  H    3.056208   3.093793   3.438395   4.075858   2.520696
    47  H    3.026087   3.848786   4.507109   4.640544   3.464594
                   31         32         33         34         35
    31  C    0.000000
    32  C    3.148991   0.000000
    33  H    3.386491   1.096676   0.000000
    34  H    3.371286   1.096232   1.768279   0.000000
    35  H    4.089164   1.094870   1.771124   1.773446   0.000000
    36  C    1.543115   3.495039   3.847069   3.206679   4.487714
    37  H    2.202179   3.063716   3.308047   2.549707   4.087877
    38  H    2.186951   4.519842   4.737076   4.207478   5.545783
    39  H    2.196871   3.772401   4.381777   3.379207   4.612535
    40  C    1.543719   3.581530   3.318597   3.921403   4.573900
    41  H    2.204437   3.148225   2.640341   3.415073   4.165252
    42  H    2.202952   3.944891   3.592615   4.529176   4.793303
    43  H    2.186397   4.575720   4.296817   4.765652   5.606915
    44  C    1.543540   4.486322   4.807098   4.769186   5.289672
    45  H    2.186965   5.321207   5.541235   5.489886   6.210719
    46  H    2.202979   4.807232   5.036777   5.303821   5.504247
    47  H    2.196344   4.736921   5.274226   4.932355   5.424063
                   36         37         38         39         40
    36  C    0.000000
    37  H    1.096931   0.000000
    38  H    1.099997   1.768541   0.000000
    39  H    1.096380   1.772566   1.771568   0.000000
    40  C    2.514310   2.766720   2.766278   3.485474   0.000000
    41  H    2.784206   2.585179   3.140009   3.797066   1.097358
    42  H    3.488671   3.793981   3.773265   4.358136   1.096721
    43  H    2.748494   3.088444   2.542982   3.766877   1.099894
    44  C    2.509340   3.484734   2.736069   2.779311   2.515076
    45  H    2.739477   3.748292   2.504715   3.110445   2.762597
    46  H    3.484987   4.360163   3.747954   3.802826   2.771906
    47  H    2.775568   3.801402   3.099639   2.595363   3.485343
                   41         42         43         44         45
    41  H    0.000000
    42  H    1.772234   0.000000
    43  H    1.767648   1.768251   0.000000
    44  C    3.490690   2.776671   2.756812   0.000000
    45  H    3.775181   3.122873   2.546993   1.100233   0.000000
    46  H    3.795955   2.581957   3.107090   1.096824   1.768450
    47  H    4.359215   3.792011   3.771065   1.095915   1.772850
                   46         47
    46  H    0.000000
    47  H    1.771405   0.000000
 Stoichiometry    C14H28O4Si
 Framework group  C1[X(C14H28O4Si)]
 Deg. of freedom   135
 Full point group                 C1      NOp   1
 Largest Abelian subgroup         C1      NOp   1
 Largest concise Abelian subgroup C1      NOp   1
                         Standard orientation:                         
 ---------------------------------------------------------------------
 Center     Atomic      Atomic             Coordinates (Angstroms)
 Number     Number       Type             X           Y           Z
 ---------------------------------------------------------------------
      1          1           0        0.081070    0.472543   -2.064224
      2          6           0        0.492334   -0.048748   -1.189182
      3          6           0        1.757400   -2.100987   -0.430222
      4          6           0        2.262508    0.201351    0.639707
      5          6           0        2.754694   -1.206651    0.277389
      6          6           0        1.573192    0.860812   -0.575810
      7          6           0        1.114316   -1.381660   -1.624218
      8          1           0        0.973485   -2.381493    0.283195
      9          1           0        1.532461    0.138550    1.452611
     10          1           0        2.339925    1.034346   -1.350912
     11          1           0        1.870783   -1.192078   -2.396705
     12          1           0        2.260824   -3.019102   -0.751519
     13          1           0        0.337046   -2.009711   -2.072675
     14          6           0        3.893546   -1.775233    1.006512
     15          1           0        4.330378   -1.224452    1.836675
     16          1           0        4.023361   -2.856857    1.032999
     17          8           0        4.092972   -1.176586   -0.293777
     18          8           0        3.343656    0.989314    1.120429
     19          1           0        4.089312    0.776423    0.527215
     20          8           0        0.953763    2.094005   -0.241191
     21          6           0        1.795615    3.239702   -0.257026
     22          1           0        2.547429    3.202778    0.536406
     23          1           0        1.142341    4.104298   -0.110062
     24          1           0        2.304173    3.342240   -1.228711
     25          8           0       -0.542586   -0.327148   -0.255081
     26         14           0       -1.952686    0.535620    0.086141
     27          6           0       -1.740901    1.472666    1.710161
     28          1           0       -2.638191    2.048416    1.968288
     29          1           0       -0.899985    2.167394    1.621333
     30          1           0       -1.528883    0.794799    2.545256
     31          6           0       -3.314080   -0.808166    0.251694
     32          6           0       -2.340658    1.745212   -1.313188
     33          1           0       -3.267949    2.293337   -1.107302
     34          1           0       -2.461219    1.246092   -2.281727
     35          1           0       -1.532060    2.477437   -1.406763
     36          6           0       -3.492342   -1.547148   -1.091188
     37          1           0       -3.824883   -0.872294   -1.889465
     38          1           0       -4.249506   -2.339647   -0.998226
     39          1           0       -2.558455   -2.019436   -1.418066
     40          6           0       -4.655117   -0.155842    0.650643
     41          1           0       -4.996577    0.573356   -0.094924
     42          1           0       -4.589597    0.359327    1.616617
     43          1           0       -5.442070   -0.918895    0.741318
     44          6           0       -2.909315   -1.832919    1.332694
     45          1           0       -3.673032   -2.619733    1.423101
     46          1           0       -2.804128   -1.367868    2.320462
     47          1           0       -1.958037   -2.319453    1.089003
 ---------------------------------------------------------------------
 Rotational constants (GHZ):      0.5595461      0.2211943      0.1894390
 Standard basis: 6-31+G(d,p) (6D, 7F)
 There are   505 symmetry adapted basis functions of A   symmetry.
 Integral buffers will be    131072 words long.
 Raffenetti 2 integral format.
 Two-electron integral symmetry is turned on.
   505 basis functions,   828 primitive gaussians,   505 cartesian basis functions
    79 alpha electrons       79 beta electrons
       nuclear repulsion energy      1831.4831805875 Hartrees.
 NAtoms=   47 NActive=   47 NUniq=   47 SFac= 1.00D+00 NAtFMM=   60 NAOKFM=F Big=F
 ------------------------------------------------------------------------------
 Polarizable Continuum Model (PCM)
 =================================
 Model                : PCM.
 Atomic radii         : UFF (Universal Force Field).
 Polarization charges : Total charges.
 Charge compensation  : None.
 Solution method      : Matrix inversion.
 Cavity type          : Scaled VdW (van der Waals Surface) (Alpha=1.100).
 Cavity algorithm     : GePol (No added spheres)
                        Default sphere list used, NSphG=   47.
                        Lebedev-Laikov grids with approx.  5.0 points / Ang**2.
                        Smoothing algorithm: Karplus/York (Gamma=1.0000).
                        Polarization charges: spherical gaussians, with
                                              point-specific exponents (IZeta= 3).
                        Self-potential: point-specific (ISelfS= 7).
                        Self-field    : sphere-specific E.n sum rule (ISelfD= 2).
 Solvent              : Chloroform, Eps=   4.711300 Eps(inf)=   2.090627
 ------------------------------------------------------------------------------
 One-electron integrals computed using PRISM.
 NBasis=   505 RedAO= T  NBF=   505
 NBsUse=   505 1.00D-06 NBFU=   505
 Harris functional with IExCor=  908 diagonalized for initial guess.
 ExpMin= 3.31D-02 ExpMax= 1.61D+04 ExpMxC= 2.43D+03 IAcc=3 IRadAn=         5 AccDes= 0.00D+00
 HarFok:  IExCor=  908 AccDes= 0.00D+00 IRadAn=         5 IDoV= 1
 ScaDFX=  1.000000  1.000000  1.000000  1.000000
 FoFCou: FMM=F IPFlag=           0 FMFlag=      100000 FMFlg1=           0
         NFxFlg=           0 DoJE=T BraDBF=F KetDBF=T FulRan=T
         Omega=  0.000000  0.000000  1.000000  0.000000  0.000000 ICntrl=     500 IOpCl=  0
         NMat0=    1 NMatS0=    1 NMatT0=    0 NMatD0=    1 NMtDS0=    0 NMtDT0=    0
         I1Cent=           4 NGrid=           0.
 Petite list used in FoFCou.
 Initial guess orbital symmetries:
       Occupied  (A) (A) (A) (A) (A) (A) (A) (A) (A) (A) (A) (A)
                 (A) (A) (A) (A) (A) (A) (A) (A) (A) (A) (A) (A)
                 (A) (A) (A) (A) (A) (A) (A) (A) (A) (A) (A) (A)
                 (A) (A) (A) (A) (A) (A) (A) (A) (A) (A) (A) (A)
                 (A) (A) (A) (A) (A) (A) (A) (A) (A) (A) (A) (A)
                 (A) (A) (A) (A) (A) (A) (A) (A) (A) (A) (A) (A)
                 (A) (A) (A) (A) (A) (A) (A)
       Virtual   (A) (A) (A) (A) (A) (A) (A) (A) (A) (A) (A) (A)
                 (A) (A) (A) (A) (A) (A) (A) (A) (A) (A) (A) (A)
                 (A) (A) (A) (A) (A) (A) (A) (A) (A) (A) (A) (A)
                 (A) (A) (A) (A) (A) (A) (A) (A) (A) (A) (A) (A)
                 (A) (A) (A) (A) (A) (A) (A) (A) (A) (A) (A) (A)
                 (A) (A) (A) (A) (A) (A) (A) (A) (A) (A) (A) (A)
                 (A) (A) (A) (A) (A) (A) (A) (A) (A) (A) (A) (A)
                 (A) (A) (A) (A) (A) (A) (A) (A) (A) (A) (A) (A)
                 (A) (A) (A) (A) (A) (A) (A) (A) (A) (A) (A) (A)
                 (A) (A) (A) (A) (A) (A) (A) (A) (A) (A) (A) (A)
                 (A) (A) (A) (A) (A) (A) (A) (A) (A) (A) (A) (A)
                 (A) (A) (A) (A) (A) (A) (A) (A) (A) (A) (A) (A)
                 (A) (A) (A) (A) (A) (A) (A) (A) (A) (A) (A) (A)
                 (A) (A) (A) (A) (A) (A) (A) (A) (A) (A) (A) (A)
                 (A) (A) (A) (A) (A) (A) (A) (A) (A) (A) (A) (A)
                 (A) (A) (A) (A) (A) (A) (A) (A) (A) (A) (A) (A)
                 (A) (A) (A) (A) (A) (A) (A) (A) (A) (A) (A) (A)
                 (A) (A) (A) (A) (A) (A) (A) (A) (A) (A) (A) (A)
                 (A) (A) (A) (A) (A) (A) (A) (A) (A) (A) (A) (A)
                 (A) (A) (A) (A) (A) (A) (A) (A) (A) (A) (A) (A)
                 (A) (A) (A) (A) (A) (A) (A) (A) (A) (A) (A) (A)
                 (A) (A) (A) (A) (A) (A) (A) (A) (A) (A) (A) (A)
                 (A) (A) (A) (A) (A) (A) (A) (A) (A) (A) (A) (A)
                 (A) (A) (A) (A) (A) (A) (A) (A) (A) (A) (A) (A)
                 (A) (A) (A) (A) (A) (A) (A) (A) (A) (A) (A) (A)
                 (A) (A) (A) (A) (A) (A) (A) (A) (A) (A) (A) (A)
                 (A) (A) (A) (A) (A) (A) (A) (A) (A) (A) (A) (A)
                 (A) (A) (A) (A) (A) (A) (A) (A) (A) (A) (A) (A)
                 (A) (A) (A) (A) (A) (A) (A) (A) (A) (A) (A) (A)
                 (A) (A) (A) (A) (A) (A) (A) (A) (A) (A) (A) (A)
                 (A) (A) (A) (A) (A) (A) (A) (A) (A) (A) (A) (A)
                 (A) (A) (A) (A) (A) (A) (A) (A) (A) (A) (A) (A)
                 (A) (A) (A) (A) (A) (A) (A) (A) (A) (A) (A) (A)
                 (A) (A) (A) (A) (A) (A) (A) (A) (A) (A) (A) (A)
                 (A) (A) (A) (A) (A) (A) (A) (A) (A) (A) (A) (A)
                 (A) (A) (A) (A) (A) (A)
 The electronic state of the initial guess is 1-A.
 Requested convergence on RMS density matrix=1.00D-08 within 128 cycles.
 Requested convergence on MAX density matrix=1.00D-06.
 Requested convergence on             energy=1.00D-06.
 No special actions if energy rises.
 Error on total polarization charges =  0.01539
 SCF Done:  E(RmPW1PW91) =  -1140.62596122     A.U. after   13 cycles
             Convg  =    0.4658D-08             -V/T =  2.0080
 Range of M.O.s used for correlation:     1   505
 NBasis=   505 NAE=    79 NBE=    79 NFC=     0 NFV=     0
 NROrb=    505 NOA=    79 NOB=    79 NVA=   426 NVB=   426

 **** Warning!!: The largest alpha MO coefficient is  0.73650136D+02

 NEqPCM:  Using equilibrium solvation (IEInf=0, Eps=   4.7113, EpsInf=   2.0906)
          Differentiating once with respect to magnetic field using GIAOs.
          Electric field/nuclear overlap derivatives assumed to be zero.
 FoFCou: FMM=F IPFlag=           0 FMFlag=    10101102 FMFlg1=           0
         NFxFlg=    40000000 DoJE=F BraDBF=F KetDBF=T FulRan=T
         Omega=  0.000000  0.000000  1.000000  0.000000  0.000000 ICntrl=    6100 IOpCl=  0
         NMat0=    1 NMatS0=    1 NMatT0=    0 NMatD0=    1 NMtDS0=    0 NMtDT0=    0
         I1Cent=           7 NGrid=        3007.
 Symmetry not used in FoFCou.
          There are     3 degrees of freedom in the 1st order CPHF.  IDoFFX=0.
      3 vectors produced by pass  0 Test12= 1.12D-12 3.33D-08 XBig12= 1.55D+02 2.98D+00.
 AX will form     3 AO Fock derivatives at one time.
      3 vectors produced by pass  1 Test12= 1.12D-12 3.33D-08 XBig12= 3.94D-01 1.03D-01.
      3 vectors produced by pass  2 Test12= 1.12D-12 3.33D-08 XBig12= 9.46D-04 5.14D-03.
      3 vectors produced by pass  3 Test12= 1.12D-12 3.33D-08 XBig12= 5.03D-06 2.53D-04.
      3 vectors produced by pass  4 Test12= 1.12D-12 3.33D-08 XBig12= 1.80D-08 1.53D-05.
      3 vectors produced by pass  5 Test12= 1.12D-12 3.33D-08 XBig12= 6.22D-11 1.06D-06.
      2 vectors produced by pass  6 Test12= 1.12D-12 3.33D-08 XBig12= 2.36D-13 6.93D-08.
 Inverted reduced A of dimension    20 with in-core refinement.
 Calculating GIAO nuclear magnetic shielding tensors.
 SCF GIAO Magnetic shielding tensor (ppm):
      1  H    Isotropic =    27.3974   Anisotropy =     3.8705
   XX=    28.3753   YX=    -1.2005   ZX=    -1.9542
   XY=    -1.6058   YY=    24.8319   ZY=    -1.4980
   XZ=    -0.2206   YZ=    -2.4047   ZZ=    28.9849
   Eigenvalues:    23.4625    28.7519    29.9777
      2  C    Isotropic =   121.5924   Anisotropy =    36.8373
   XX=   130.5902   YX=    13.7643   ZX=   -19.3101
   XY=     5.4431   YY=   116.1515   ZY=     4.3203
   XZ=   -19.0634   YZ=    -1.3523   ZZ=   118.0356
   Eigenvalues:   100.8373   117.7894   146.1506
      3  C    Isotropic =   167.3896   Anisotropy =    29.6595
   XX=   170.6011   YX=     5.3721   ZX=     9.8778
   XY=     3.5142   YY=   170.8881   ZY=    10.7439
   XZ=    14.6845   YZ=    15.0436   ZZ=   160.6795
   Eigenvalues:   148.7065   166.2996   187.1625
      4  C    Isotropic =   123.8344   Anisotropy =    38.6377
   XX=   130.9908   YX=     8.6769   ZX=    18.9088
   XY=    18.3002   YY=   129.4515   ZY=     3.0629
   XZ=    18.2264   YZ=    -1.2011   ZZ=   111.0610
   Eigenvalues:    98.5898   123.3207   149.5929
      5  C    Isotropic =   134.3079   Anisotropy =    59.5238
   XX=   112.6169   YX=    20.3524   ZX=   -21.1167
   XY=    24.2636   YY=   155.2450   ZY=    23.2236
   XZ=   -17.3812   YZ=    28.1789   ZZ=   135.0618
   Eigenvalues:    86.1397   142.7935   173.9904
      6  C    Isotropic =   110.0969   Anisotropy =    34.4489
   XX=   107.7254   YX=    -5.7511   ZX=    -1.0786
   XY=   -13.1743   YY=   124.4118   ZY=     7.2855
   XZ=   -13.5255   YZ=    13.1727   ZZ=    98.1536
   Eigenvalues:    93.2741   103.9539   133.0629
      7  C    Isotropic =   164.0334   Anisotropy =    18.9152
   XX=   163.7814   YX=    -4.9582   ZX=    -5.0122
   XY=    -9.0618   YY=   170.2956   ZY=     9.3894
   XZ=    -1.5399   YZ=     0.4488   ZZ=   158.0231
   Eigenvalues:   156.1441   159.3125   176.6435
      8  H    Isotropic =    28.9734   Anisotropy =     7.3357
   XX=    32.1736   YX=     1.1631   ZX=    -1.8847
   XY=     1.9340   YY=    28.7241   ZY=    -3.4352
   XZ=    -1.5420   YZ=    -2.9574   ZZ=    26.0225
   Eigenvalues:    23.8602    29.1962    33.8638
      9  H    Isotropic =    27.3135   Anisotropy =     5.5384
   XX=    30.9380   YX=     0.4908   ZX=     0.0445
   XY=     0.7766   YY=    24.2763   ZY=    -0.7991
   XZ=    -0.4685   YZ=     1.3452   ZZ=    26.7263
   Eigenvalues:    24.1830    26.7518    31.0058
     10  H    Isotropic =    28.7389   Anisotropy =     3.2987
   XX=    28.4757   YX=    -0.1586   ZX=    -0.8402
   XY=    -2.1498   YY=    30.3788   ZY=     0.5315
   XZ=    -1.9508   YZ=    -1.3881   ZZ=    27.3623
   Eigenvalues:    26.1688    29.1099    30.9381
     11  H    Isotropic =    29.8479   Anisotropy =     8.8348
   XX=    29.6318   YX=    -1.2592   ZX=    -3.3325
   XY=    -1.1199   YY=    26.0955   ZY=     1.2639
   XZ=    -3.0789   YZ=     0.4832   ZZ=    33.8163
   Eigenvalues:    25.7308    28.0750    35.7378
     12  H    Isotropic =    30.4686   Anisotropy =    10.6472
   XX=    28.5564   YX=    -2.5610   ZX=     1.7452
   XY=    -2.6423   YY=    36.2308   ZY=     3.0416
   XZ=     1.9132   YZ=     2.9887   ZZ=    26.6186
   Eigenvalues:    24.2253    29.6136    37.5667
     13  H    Isotropic =    29.8238   Anisotropy =     9.0479
   XX=    30.7049   YX=     0.9193   ZX=     3.4412
   XY=     1.9698   YY=    29.2910   ZY=     4.0671
   XZ=     3.5416   YZ=     3.9189   ZZ=    29.4756
   Eigenvalues:    24.9308    28.6849    35.8558
     14  C    Isotropic =   146.4593   Anisotropy =    31.5525
   XX=   129.6190   YX=    21.6525   ZX=   -16.8866
   XY=    16.6600   YY=   157.6847   ZY=    12.3022
   XZ=   -20.2017   YZ=     4.7048   ZZ=   152.0742
   Eigenvalues:   110.0213   161.8623   167.4943
     15  H    Isotropic =    28.5358   Anisotropy =     9.1657
   XX=    25.6784   YX=    -2.0346   ZX=     4.8016
   XY=     1.2112   YY=    28.5453   ZY=     2.7941
   XZ=     5.6012   YZ=     0.1279   ZZ=    31.3838
   Eigenvalues:    22.3994    28.5618    34.6463
     16  H    Isotropic =    29.0195   Anisotropy =    11.3046
   XX=    25.3893   YX=    -0.0257   ZX=     2.0160
   XY=    -3.7280   YY=    35.2343   ZY=    -3.8898
   XZ=     1.6621   YZ=    -1.7779   ZZ=    26.4348
   Eigenvalues:    23.9948    26.5077    36.5559
     17  O    Isotropic =   312.4733   Anisotropy =   124.6258
   XX=   317.1766   YX=   -19.8806   ZX=    80.9238
   XY=   -40.7127   YY=   373.6826   ZY=    52.7517
   XZ=    93.0838   YZ=    60.6730   ZZ=   246.5607
   Eigenvalues:   168.0566   373.8062   395.5572
     18  O    Isotropic =   308.9346   Anisotropy =    41.0211
   XX=   334.1987   YX=    15.2515   ZX=    -3.5911
   XY=   -16.8963   YY=   279.1233   ZY=    -0.6372
   XZ=   -10.0793   YZ=     4.4745   ZZ=   313.4819
   Eigenvalues:   279.0129   311.5090   336.2820
     19  H    Isotropic =    29.7624   Anisotropy =    14.0552
   XX=    35.4470   YX=    -0.7367   ZX=    -6.9454
   XY=     0.5720   YY=    29.4329   ZY=     4.6244
   XZ=    -6.6697   YZ=     4.2059   ZZ=    24.4072
   Eigenvalues:    19.5506    30.6040    39.1325
     20  O    Isotropic =   295.0598   Anisotropy =    70.6007
   XX=   311.5622   YX=   -39.1254   ZX=   -11.8759
   XY=   -28.2842   YY=   295.1783   ZY=     6.4854
   XZ=   -14.5585   YZ=    11.9899   ZZ=   278.4388
   Eigenvalues:   268.5511   274.5013   342.1269
     21  C    Isotropic =   136.4666   Anisotropy =    85.7327
   XX=   129.3168   YX=    37.6026   ZX=    -2.7819
   XY=    36.5391   YY=   172.2042   ZY=    -1.6546
   XZ=    -3.3811   YZ=     1.2039   ZZ=   107.8789
   Eigenvalues:   105.3325   110.4456   193.6218
     22  H    Isotropic =    27.0769   Anisotropy =     8.9411
   XX=    27.2934   YX=     2.4572   ZX=     4.3164
   XY=     3.5515   YY=    30.3887   ZY=     1.7908
   XZ=     2.9850   YZ=    -0.0510   ZZ=    23.5485
   Eigenvalues:    21.2338    26.9593    33.0376
     23  H    Isotropic =    27.8199   Anisotropy =    10.6136
   XX=    25.5778   YX=     2.3863   ZX=    -0.0431
   XY=    -0.7698   YY=    34.8114   ZY=     0.6404
   XZ=    -0.3726   YZ=     0.2114   ZZ=    23.0704
   Eigenvalues:    23.0324    25.5316    34.8956
     24  H    Isotropic =    28.3103   Anisotropy =    10.3436
   XX=    27.7631   YX=     3.4962   ZX=    -2.6220
   XY=     4.5923   YY=    30.2736   ZY=    -4.7515
   XZ=    -1.1814   YZ=    -2.4346   ZZ=    26.8941
   Eigenvalues:    24.3158    25.4089    35.2060
     25  O    Isotropic =   290.2655   Anisotropy =    21.0250
   XX=   286.1887   YX=    -2.8413   ZX=    17.9829
   XY=     3.6717   YY=   304.1943   ZY=    -3.5173
   XZ=    12.2392   YZ=     0.9468   ZZ=   280.4134
   Eigenvalues:   267.8732   298.6411   304.2822
     26  Si   Isotropic =   378.3601   Anisotropy =    32.5801
   XX=   397.3692   YX=   -17.0235   ZX=     4.3893
   XY=     0.2220   YY=   373.9962   ZY=     4.0796
   XZ=    -0.3700   YZ=     5.6959   ZZ=   363.7149
   Eigenvalues:   361.0103   373.9898   400.0801
     27  C    Isotropic =   198.7218   Anisotropy =     8.5248
   XX=   202.0531   YX=    -2.7844   ZX=     0.0354
   XY=    -3.3637   YY=   192.8688   ZY=     5.2753
   XZ=    -1.2768   YZ=     2.5967   ZZ=   201.2434
   Eigenvalues:   190.6878   201.0725   204.4049
     28  H    Isotropic =    31.7344   Anisotropy =    10.9064
   XX=    34.2226   YX=    -3.9641   ZX=    -2.9731
   XY=    -3.5538   YY=    31.4190   ZY=     3.7062
   XZ=    -2.8878   YZ=     3.5915   ZZ=    29.5615
   Eigenvalues:    26.7251    29.4727    39.0053
     29  H    Isotropic =    30.8683   Anisotropy =    10.1584
   XX=    34.1492   YX=     4.9276   ZX=    -2.2883
   XY=     5.0754   YY=    30.2729   ZY=     1.3723
   XZ=    -1.5482   YZ=     1.5097   ZZ=    28.1830
   Eigenvalues:    25.1289    29.8354    37.6406
     30  H    Isotropic =    31.3161   Anisotropy =     8.1962
   XX=    28.4260   YX=    -0.0972   ZX=     1.3277
   XY=     0.3317   YY=    30.1120   ZY=    -2.4062
   XZ=     1.4054   YZ=    -3.1612   ZZ=    35.4102
   Eigenvalues:    27.8628    29.3052    36.7802
     31  C    Isotropic =   172.6208   Anisotropy =     7.5865
   XX=   174.8599   YX=    -3.9912   ZX=    -0.7509
   XY=    -2.0004   YY=   172.9713   ZY=     1.4214
   XZ=    -2.2515   YZ=     1.8462   ZZ=   170.0313
   Eigenvalues:   169.2958   170.8882   177.6785
     32  C    Isotropic =   201.2146   Anisotropy =     4.7476
   XX=   202.9762   YX=    -1.2562   ZX=     1.8134
   XY=    -0.1533   YY=   198.0686   ZY=    -0.7218
   XZ=     1.3460   YZ=     2.0566   ZZ=   202.5990
   Eigenvalues:   197.7929   201.4713   204.3797
     33  H    Isotropic =    31.6925   Anisotropy =    10.6799
   XX=    35.4290   YX=    -5.0010   ZX=    -0.3215
   XY=    -4.5932   YY=    31.9945   ZY=    -1.2071
   XZ=    -0.5996   YZ=    -0.9522   ZZ=    27.6541
   Eigenvalues:    26.8871    29.3781    38.8124
     34  H    Isotropic =    31.4594   Anisotropy =     8.8970
   XX=    28.3807   YX=     0.5735   ZX=     2.0258
   XY=     0.6141   YY=    29.3664   ZY=     1.2344
   XZ=     1.9915   YZ=     1.6564   ZZ=    36.6312
   Eigenvalues:    27.8658    29.1217    37.3908
     35  H    Isotropic =    31.0458   Anisotropy =     9.6030
   XX=    33.9173   YX=     3.8873   ZX=     0.3761
   XY=     4.2508   YY=    32.2343   ZY=    -2.5902
   XZ=     0.3138   YZ=    -2.8789   ZZ=    26.9858
   Eigenvalues:    25.2981    30.3915    37.4478
     36  C    Isotropic =   170.4281   Anisotropy =    37.4460
   XX=   157.0994   YX=     3.7527   ZX=     3.7863
   XY=     2.1513   YY=   165.8564   ZY=    16.3605
   XZ=     0.4087   YZ=    11.8576   ZZ=   188.3285
   Eigenvalues:   155.8804   160.0118   195.3921
     37  H    Isotropic =    30.6417   Anisotropy =     8.3483
   XX=    28.2218   YX=     0.8252   ZX=     3.0665
   XY=     1.1565   YY=    28.9562   ZY=    -0.9192
   XZ=     3.2605   YZ=    -2.2945   ZZ=    34.7472
   Eigenvalues:    26.0938    29.6241    36.2073
     38  H    Isotropic =    31.0538   Anisotropy =     9.8178
   XX=    31.2538   YX=     4.4474   ZX=     1.1974
   XY=     4.8340   YY=    32.7663   ZY=     1.9238
   XZ=     1.9025   YZ=     2.6272   ZZ=    29.1412
   Eigenvalues:    27.2314    28.3310    37.5989
     39  H    Isotropic =    30.4127   Anisotropy =     7.7578
   XX=    32.4491   YX=    -0.7046   ZX=    -1.7909
   XY=    -1.4483   YY=    29.4413   ZY=     4.0999
   XZ=    -2.9770   YZ=     4.3715   ZZ=    29.3477
   Eigenvalues:    25.0277    30.6258    35.5845
     40  C    Isotropic =   170.3693   Anisotropy =    38.9838
   XX=   185.1306   YX=   -17.6741   ZX=    -8.8420
   XY=   -13.2561   YY=   165.9187   ZY=     3.9961
   XZ=    -8.2540   YZ=     5.4564   ZZ=   160.0585
   Eigenvalues:   157.3146   157.4348   196.3585
     41  H    Isotropic =    30.7256   Anisotropy =     9.0488
   XX=    33.3416   YX=    -3.7511   ZX=     1.7741
   XY=    -3.1280   YY=    31.0859   ZY=    -3.5416
   XZ=     0.5872   YZ=    -2.7995   ZZ=    27.7493
   Eigenvalues:    25.7347    29.6841    36.7581
     42  H    Isotropic =    30.7003   Anisotropy =     8.8445
   XX=    31.1944   YX=    -1.1848   ZX=    -3.6052
   XY=    -0.6983   YY=    29.1384   ZY=     4.6286
   XZ=    -2.2199   YZ=     4.1064   ZZ=    31.7682
   Eigenvalues:    25.6831    29.8212    36.5967
     43  H    Isotropic =    30.9419   Anisotropy =    10.2256
   XX=    36.4971   YX=     3.3743   ZX=    -1.8376
   XY=     2.1336   YY=    29.0634   ZY=    -0.3006
   XZ=    -1.9541   YZ=    -0.4867   ZZ=    27.2653
   Eigenvalues:    26.8759    28.1909    37.7590
     44  C    Isotropic =   170.3297   Anisotropy =    37.6900
   XX=   161.9542   YX=    -3.4906   ZX=     7.8631
   XY=    -8.1392   YY=   172.4664   ZY=   -19.1008
   XZ=    11.1141   YZ=   -15.3465   ZZ=   176.5684
   Eigenvalues:   155.8153   159.7174   195.4563
     45  H    Isotropic =    31.0472   Anisotropy =     9.8029
   XX=    30.0882   YX=     3.2236   ZX=    -0.8917
   XY=     3.9833   YY=    34.0146   ZY=    -3.1770
   XZ=    -1.4172   YZ=    -3.5493   ZZ=    29.0388
   Eigenvalues:    27.0897    28.4695    37.5825
     46  H    Isotropic =    30.5003   Anisotropy =     8.2629
   XX=    27.2198   YX=     1.5377   ZX=     1.3468
   XY=     1.2107   YY=    28.4868   ZY=    -1.5432
   XZ=     1.1338   YZ=     0.0790   ZZ=    35.7942
   Eigenvalues:    26.1258    29.3661    36.0089
     47  H    Isotropic =    30.2432   Anisotropy =     8.2153
   XX=    33.7124   YX=    -2.6421   ZX=    -1.0429
   XY=    -3.3572   YY=    30.8035   ZY=    -2.4294
   XZ=     0.0689   YZ=    -3.0676   ZZ=    26.2138
   Eigenvalues:    24.5749    30.4347    35.7201
 End of Minotr Frequency-dependent properties file   721 does not exist.
 End of Minotr Frequency-dependent properties file   722 does not exist.

 **********************************************************************

            Population analysis using the SCF density.

 **********************************************************************

 Orbital symmetries:
       Occupied  (A) (A) (A) (A) (A) (A) (A) (A) (A) (A) (A) (A)
                 (A) (A) (A) (A) (A) (A) (A) (A) (A) (A) (A) (A)
                 (A) (A) (A) (A) (A) (A) (A) (A) (A) (A) (A) (A)
                 (A) (A) (A) (A) (A) (A) (A) (A) (A) (A) (A) (A)
                 (A) (A) (A) (A) (A) (A) (A) (A) (A) (A) (A) (A)
                 (A) (A) (A) (A) (A) (A) (A) (A) (A) (A) (A) (A)
                 (A) (A) (A) (A) (A) (A) (A)
       Virtual   (A) (A) (A) (A) (A) (A) (A) (A) (A) (A) (A) (A)
                 (A) (A) (A) (A) (A) (A) (A) (A) (A) (A) (A) (A)
                 (A) (A) (A) (A) (A) (A) (A) (A) (A) (A) (A) (A)
                 (A) (A) (A) (A) (A) (A) (A) (A) (A) (A) (A) (A)
                 (A) (A) (A) (A) (A) (A) (A) (A) (A) (A) (A) (A)
                 (A) (A) (A) (A) (A) (A) (A) (A) (A) (A) (A) (A)
                 (A) (A) (A) (A) (A) (A) (A) (A) (A) (A) (A) (A)
                 (A) (A) (A) (A) (A) (A) (A) (A) (A) (A) (A) (A)
                 (A) (A) (A) (A) (A) (A) (A) (A) (A) (A) (A) (A)
                 (A) (A) (A) (A) (A) (A) (A) (A) (A) (A) (A) (A)
                 (A) (A) (A) (A) (A) (A) (A) (A) (A) (A) (A) (A)
                 (A) (A) (A) (A) (A) (A) (A) (A) (A) (A) (A) (A)
                 (A) (A) (A) (A) (A) (A) (A) (A) (A) (A) (A) (A)
                 (A) (A) (A) (A) (A) (A) (A) (A) (A) (A) (A) (A)
                 (A) (A) (A) (A) (A) (A) (A) (A) (A) (A) (A) (A)
                 (A) (A) (A) (A) (A) (A) (A) (A) (A) (A) (A) (A)
                 (A) (A) (A) (A) (A) (A) (A) (A) (A) (A) (A) (A)
                 (A) (A) (A) (A) (A) (A) (A) (A) (A) (A) (A) (A)
                 (A) (A) (A) (A) (A) (A) (A) (A) (A) (A) (A) (A)
                 (A) (A) (A) (A) (A) (A) (A) (A) (A) (A) (A) (A)
                 (A) (A) (A) (A) (A) (A) (A) (A) (A) (A) (A) (A)
                 (A) (A) (A) (A) (A) (A) (A) (A) (A) (A) (A) (A)
                 (A) (A) (A) (A) (A) (A) (A) (A) (A) (A) (A) (A)
                 (A) (A) (A) (A) (A) (A) (A) (A) (A) (A) (A) (A)
                 (A) (A) (A) (A) (A) (A) (A) (A) (A) (A) (A) (A)
                 (A) (A) (A) (A) (A) (A) (A) (A) (A) (A) (A) (A)
                 (A) (A) (A) (A) (A) (A) (A) (A) (A) (A) (A) (A)
                 (A) (A) (A) (A) (A) (A) (A) (A) (A) (A) (A) (A)
                 (A) (A) (A) (A) (A) (A) (A) (A) (A) (A) (A) (A)
                 (A) (A) (A) (A) (A) (A) (A) (A) (A) (A) (A) (A)
                 (A) (A) (A) (A) (A) (A) (A) (A) (A) (A) (A) (A)
                 (A) (A) (A) (A) (A) (A) (A) (A) (A) (A) (A) (A)
                 (A) (A) (A) (A) (A) (A) (A) (A) (A) (A) (A) (A)
                 (A) (A) (A) (A) (A) (A) (A) (A) (A) (A) (A) (A)
                 (A) (A) (A) (A) (A) (A) (A) (A) (A) (A) (A) (A)
                 (A) (A) (A) (A) (A) (A)
 The electronic state is 1-A.
 Alpha  occ. eigenvalues --  -66.30032 -19.27168 -19.25296 -19.25223 -19.23096
 Alpha  occ. eigenvalues --  -10.31896 -10.30682 -10.30624 -10.30302 -10.30220
 Alpha  occ. eigenvalues --  -10.28269 -10.25461 -10.25024 -10.24360 -10.23391
 Alpha  occ. eigenvalues --  -10.23180 -10.23123 -10.22020 -10.21571  -5.33388
 Alpha  occ. eigenvalues --   -3.67311  -3.67015  -3.66983  -1.11564  -1.07332
 Alpha  occ. eigenvalues --   -1.05287  -1.02840  -0.84526  -0.81930  -0.77446
 Alpha  occ. eigenvalues --   -0.75386  -0.71770  -0.70186  -0.70057  -0.69921
 Alpha  occ. eigenvalues --   -0.69219  -0.68970  -0.63763  -0.62012  -0.59229
 Alpha  occ. eigenvalues --   -0.56384  -0.55030  -0.52497  -0.51888  -0.50987
 Alpha  occ. eigenvalues --   -0.48205  -0.48150  -0.47589  -0.46450  -0.45674
 Alpha  occ. eigenvalues --   -0.44557  -0.44347  -0.43928  -0.42794  -0.41959
 Alpha  occ. eigenvalues --   -0.41447  -0.41020  -0.40633  -0.40342  -0.39774
 Alpha  occ. eigenvalues --   -0.39396  -0.38918  -0.38527  -0.38473  -0.38076
 Alpha  occ. eigenvalues --   -0.36989  -0.36463  -0.35336  -0.33963  -0.33799
 Alpha  occ. eigenvalues --   -0.33463  -0.32844  -0.32509  -0.31327  -0.30572
 Alpha  occ. eigenvalues --   -0.29721  -0.28880  -0.26540  -0.25520
 Alpha virt. eigenvalues --   -0.00058   0.00802   0.01270   0.01518   0.02465
 Alpha virt. eigenvalues --    0.02902   0.03259   0.03791   0.03967   0.04568
 Alpha virt. eigenvalues --    0.04914   0.05685   0.05803   0.06047   0.06361
 Alpha virt. eigenvalues --    0.07055   0.07149   0.07637   0.07978   0.08226
 Alpha virt. eigenvalues --    0.08300   0.08740   0.09004   0.09391   0.09685
 Alpha virt. eigenvalues --    0.10011   0.10342   0.10608   0.11470   0.11894
 Alpha virt. eigenvalues --    0.11960   0.12062   0.12470   0.13107   0.13130
 Alpha virt. eigenvalues --    0.13382   0.14082   0.14282   0.14434   0.14996
 Alpha virt. eigenvalues --    0.15069   0.15557   0.15643   0.16168   0.16539
 Alpha virt. eigenvalues --    0.16608   0.17068   0.17649   0.17745   0.17834
 Alpha virt. eigenvalues --    0.18234   0.18547   0.18677   0.19111   0.20016
 Alpha virt. eigenvalues --    0.20163   0.20330   0.20756   0.21123   0.21399
 Alpha virt. eigenvalues --    0.21687   0.21943   0.22417   0.22521   0.22902
 Alpha virt. eigenvalues --    0.22995   0.23274   0.24053   0.24342   0.24423
 Alpha virt. eigenvalues --    0.24602   0.24959   0.25429   0.25914   0.26267
 Alpha virt. eigenvalues --    0.26483   0.26870   0.27250   0.27762   0.27880
 Alpha virt. eigenvalues --    0.28083   0.28294   0.28720   0.29335   0.29603
 Alpha virt. eigenvalues --    0.30077   0.30490   0.31078   0.31313   0.31564
 Alpha virt. eigenvalues --    0.31703   0.32194   0.32577   0.33167   0.33424
 Alpha virt. eigenvalues --    0.33828   0.34355   0.35141   0.35467   0.36474
 Alpha virt. eigenvalues --    0.36903   0.37110   0.37810   0.38411   0.38632
 Alpha virt. eigenvalues --    0.39192   0.39548   0.40067   0.40789   0.41274
 Alpha virt. eigenvalues --    0.41852   0.42975   0.43523   0.43646   0.44760
 Alpha virt. eigenvalues --    0.45549   0.45791   0.46741   0.48210   0.48549
 Alpha virt. eigenvalues --    0.49220   0.51165   0.52050   0.53833   0.54888
 Alpha virt. eigenvalues --    0.55106   0.59105   0.62362   0.64205   0.66003
 Alpha virt. eigenvalues --    0.66907   0.68960   0.69993   0.71325   0.71985
 Alpha virt. eigenvalues --    0.72720   0.73159   0.73644   0.74270   0.75364
 Alpha virt. eigenvalues --    0.75622   0.76998   0.77397   0.78534   0.79120
 Alpha virt. eigenvalues --    0.79546   0.79615   0.80921   0.81447   0.82151
 Alpha virt. eigenvalues --    0.82743   0.84002   0.85171   0.85824   0.86037
 Alpha virt. eigenvalues --    0.87101   0.88272   0.88455   0.89527   0.90293
 Alpha virt. eigenvalues --    0.90703   0.91801   0.92951   0.93451   0.93709
 Alpha virt. eigenvalues --    0.94472   0.96321   0.96780   0.98051   0.98672
 Alpha virt. eigenvalues --    0.99091   1.00196   1.00471   1.01758   1.02894
 Alpha virt. eigenvalues --    1.02986   1.04055   1.05036   1.05277   1.06129
 Alpha virt. eigenvalues --    1.06390   1.07010   1.07168   1.07797   1.08283
 Alpha virt. eigenvalues --    1.08916   1.09685   1.10057   1.11005   1.11582
 Alpha virt. eigenvalues --    1.14378   1.14729   1.15391   1.16648   1.16859
 Alpha virt. eigenvalues --    1.17757   1.18708   1.19324   1.20026   1.22341
 Alpha virt. eigenvalues --    1.23069   1.23840   1.24196   1.24934   1.25431
 Alpha virt. eigenvalues --    1.27281   1.28911   1.29782   1.31680   1.33385
 Alpha virt. eigenvalues --    1.33670   1.35448   1.35900   1.36563   1.37418
 Alpha virt. eigenvalues --    1.39312   1.39755   1.41097   1.42767   1.42917
 Alpha virt. eigenvalues --    1.44072   1.45378   1.47393   1.48002   1.48373
 Alpha virt. eigenvalues --    1.49767   1.52017   1.52747   1.54517   1.54978
 Alpha virt. eigenvalues --    1.55599   1.58542   1.59361   1.61657   1.63402
 Alpha virt. eigenvalues --    1.64103   1.66427   1.66811   1.68488   1.69633
 Alpha virt. eigenvalues --    1.69971   1.72365   1.73036   1.75436   1.76732
 Alpha virt. eigenvalues --    1.77049   1.79026   1.79886   1.81474   1.82540
 Alpha virt. eigenvalues --    1.82990   1.83798   1.85147   1.85935   1.87152
 Alpha virt. eigenvalues --    1.89573   1.90944   1.91889   1.92441   1.93567
 Alpha virt. eigenvalues --    1.95010   1.95645   1.96033   1.96871   1.97189
 Alpha virt. eigenvalues --    1.97798   1.99647   2.00509   2.01311   2.02159
 Alpha virt. eigenvalues --    2.02956   2.04103   2.06213   2.06392   2.07007
 Alpha virt. eigenvalues --    2.07457   2.07748   2.08938   2.09623   2.09886
 Alpha virt. eigenvalues --    2.10313   2.10931   2.11965   2.12649   2.12680
 Alpha virt. eigenvalues --    2.14464   2.14844   2.15628   2.16026   2.16368
 Alpha virt. eigenvalues --    2.16668   2.17063   2.17474   2.18036   2.19112
 Alpha virt. eigenvalues --    2.19348   2.19915   2.19925   2.21002   2.22012
 Alpha virt. eigenvalues --    2.22272   2.23244   2.25447   2.25523   2.26855
 Alpha virt. eigenvalues --    2.27338   2.30016   2.30872   2.31161   2.36083
 Alpha virt. eigenvalues --    2.36266   2.38084   2.39234   2.39679   2.40562
 Alpha virt. eigenvalues --    2.41728   2.42583   2.43356   2.44072   2.45654
 Alpha virt. eigenvalues --    2.46020   2.47874   2.49757   2.51743   2.53475
 Alpha virt. eigenvalues --    2.54947   2.56843   2.57135   2.57988   2.59053
 Alpha virt. eigenvalues --    2.59834   2.60593   2.62195   2.63248   2.65328
 Alpha virt. eigenvalues --    2.67136   2.67637   2.68625   2.69910   2.70814
 Alpha virt. eigenvalues --    2.71025   2.72810   2.73225   2.74109   2.75619
 Alpha virt. eigenvalues --    2.75980   2.76922   2.78467   2.78513   2.79477
 Alpha virt. eigenvalues --    2.80465   2.81474   2.83396   2.84208   2.85281
 Alpha virt. eigenvalues --    2.86294   2.87232   2.87536   2.88391   2.88491
 Alpha virt. eigenvalues --    2.89208   2.89510   2.89783   2.90603   2.91545
 Alpha virt. eigenvalues --    2.92078   2.93653   2.94887   2.95769   2.98335
 Alpha virt. eigenvalues --    2.99247   2.99934   3.01631   3.03924   3.06512
 Alpha virt. eigenvalues --    3.11907   3.12701   3.20204   3.24644   3.27593
 Alpha virt. eigenvalues --    3.28661   3.29588   3.30486   3.30741   3.31485
 Alpha virt. eigenvalues --    3.32101   3.37382   3.37919   3.39794   3.45306
 Alpha virt. eigenvalues --    3.47964   3.48022   3.48664   3.49056   3.49730
 Alpha virt. eigenvalues --    3.50476   3.50765   3.51258   3.51489   3.52115
 Alpha virt. eigenvalues --    3.52572   3.53723   3.55691   3.55947   3.56695
 Alpha virt. eigenvalues --    3.57365   3.60565   3.62935   4.36825   4.41951
 Alpha virt. eigenvalues --    4.45771   4.50430   4.53855   4.56313   4.59079
 Alpha virt. eigenvalues --    4.61963   4.63134   4.65718   4.67191   4.68710
 Alpha virt. eigenvalues --    4.70959   4.75885   4.80278   4.84077   4.94339
 Alpha virt. eigenvalues --    4.99312
          Condensed to atoms (all electrons):
              1          2          3          4          5          6
     1  H    0.595900   0.219731  -0.008212   0.027750   0.031328   0.042128
     2  C    0.219731  11.012994   0.412692  -1.823889   0.469600  -3.583974
     3  C   -0.008212   0.412692   8.555490  -2.622400  -0.423181  -0.149630
     4  C    0.027750  -1.823889  -2.622400  13.795939  -3.777058   0.295786
     5  C    0.031328   0.469600  -0.423181  -3.777058  11.033822  -0.107580
     6  C    0.042128  -3.583974  -0.149630   0.295786  -0.107580  10.311046
     7  C   -0.016929  -1.259939   0.247252  -0.076770  -0.019892   0.463988
     8  H   -0.000058  -0.060977   0.383399   0.031681  -0.053422   0.038086
     9  H   -0.000203   0.066510  -0.014529   0.348813  -0.007134  -0.142016
    10  H   -0.004550   0.117440  -0.015702  -0.212697   0.112242   0.264787
    11  H   -0.002245  -0.106312  -0.037942   0.005977   0.004068   0.026832
    12  H   -0.000108   0.060334   0.329948   0.067241  -0.036453  -0.000087
    13  H   -0.004938  -0.031457  -0.052575   0.002518   0.034547   0.014300
    14  C    0.005835   0.288086  -0.325673   0.438661  -1.792389  -0.753688
    15  H    0.000000  -0.004440  -0.038533   0.126102  -0.141163   0.005222
    16  H    0.000000   0.006855   0.046801  -0.025204  -0.140162  -0.012824
    17  O   -0.000388  -0.001169  -0.044245  -0.293441   0.287334   0.007162
    18  O   -0.000570   0.080790   0.094761   0.112964   0.122476  -0.160330
    19  H   -0.000009   0.024908   0.004011   0.057324  -0.053785  -0.070732
    20  O    0.002213  -0.107079   0.022145  -0.332072   0.119649   0.330468
    21  C   -0.007428   0.082433   0.019376   0.067548  -0.104950  -0.161941
    22  H    0.000023  -0.034625  -0.006256   0.047443  -0.030284   0.041177
    23  H   -0.000023  -0.004982   0.000246   0.000176   0.002676   0.005137
    24  H   -0.000080   0.051334   0.002624  -0.032327   0.014029  -0.050481
    25  O   -0.049222   0.084822  -0.046258  -0.048937   0.120289  -0.162800
    26  Si   0.027009  -0.485510   0.001641  -0.336810   0.170012   0.305427
    27  C   -0.002876   0.119205   0.002543   0.056758  -0.014780  -0.141592
    28  H    0.000002   0.004368   0.000020  -0.000491  -0.000250  -0.000826
    29  H    0.000000  -0.009446   0.000442   0.004620  -0.001476  -0.002182
    30  H   -0.000003   0.006737  -0.000388  -0.004067   0.003637  -0.007246
    31  C    0.003326  -0.054049  -0.021812  -0.015600   0.024116   0.062565
    32  C   -0.004934   0.110159  -0.003374   0.039452  -0.004578  -0.098600
    33  H    0.000065  -0.001881  -0.000020   0.000145   0.000098   0.001832
    34  H   -0.000092  -0.013744   0.000040   0.000094  -0.000479   0.010130
    35  H   -0.000212  -0.008780   0.000356   0.000597  -0.000579   0.008027
    36  C   -0.006077  -0.048255   0.054339  -0.003065  -0.027583   0.014712
    37  H    0.000002   0.000600  -0.000636   0.000031  -0.000009   0.000923
    38  H    0.000000   0.000152  -0.000014   0.000052  -0.000094  -0.000119
    39  H    0.000011  -0.002826   0.004906   0.000710  -0.000725  -0.000732
    40  C    0.000669  -0.011543   0.000410  -0.007134   0.006573   0.009569
    41  H    0.000000   0.000559  -0.000013  -0.000028   0.000016   0.000048
    42  H    0.000000  -0.000236   0.000012  -0.000023   0.000010  -0.000084
    43  H    0.000000  -0.000440  -0.000048   0.000002   0.000017   0.000020
    44  C    0.001682   0.053022  -0.042023   0.025805  -0.004103  -0.040659
    45  H    0.000000  -0.000089   0.000046   0.000076  -0.000258   0.000410
    46  H    0.000000   0.000483   0.001210  -0.000817  -0.000083  -0.000613
    47  H   -0.000005  -0.003279  -0.003164   0.002359  -0.000135   0.001632
              7          8          9         10         11         12
     1  H   -0.016929  -0.000058  -0.000203  -0.004550  -0.002245  -0.000108
     2  C   -1.259939  -0.060977   0.066510   0.117440  -0.106312   0.060334
     3  C    0.247252   0.383399  -0.014529  -0.015702  -0.037942   0.329948
     4  C   -0.076770   0.031681   0.348813  -0.212697   0.005977   0.067241
     5  C   -0.019892  -0.053422  -0.007134   0.112242   0.004068  -0.036453
     6  C    0.463988   0.038086  -0.142016   0.264787   0.026832  -0.000087
     7  C    6.581365  -0.025593   0.012766   0.003098   0.415474  -0.063712
     8  H   -0.025593   0.512553   0.000159  -0.000005   0.004362  -0.023722
     9  H    0.012766   0.000159   0.527109   0.004861  -0.000011  -0.000079
    10  H    0.003098  -0.000005   0.004861   0.588255   0.000470  -0.000043
    11  H    0.415474   0.004362  -0.000011   0.000470   0.527163  -0.003885
    12  H   -0.063712  -0.023722  -0.000079  -0.000043  -0.003885   0.527150
    13  H    0.373910  -0.003383   0.000001   0.000063  -0.023230  -0.001476
    14  C   -0.144598  -0.014345   0.030619   0.023328  -0.001727  -0.020313
    15  H   -0.004392   0.000217  -0.000194  -0.000026   0.000002   0.000088
    16  H    0.002763  -0.000203   0.000199   0.000007  -0.000016   0.000624
    17  O    0.035675   0.008465   0.010606   0.004799   0.003091  -0.001290
    18  O   -0.007567  -0.000163  -0.050023  -0.002159   0.000126  -0.000670
    19  H   -0.004103  -0.000036   0.006882   0.003064  -0.000037  -0.000010
    20  O    0.038905  -0.000686   0.000169  -0.053494  -0.001280   0.000111
    21  C   -0.007060   0.000128  -0.003167  -0.008680   0.000231   0.000269
    22  H    0.002694   0.000000  -0.000006  -0.001402   0.000000   0.000000
    23  H   -0.001120   0.000000  -0.000003   0.000002   0.000000   0.000000
    24  H    0.001409   0.000000   0.000020   0.009866  -0.000001   0.000000
    25  O   -0.040040   0.008090   0.011223   0.015923   0.012523  -0.001621
    26  Si   0.132344   0.000903   0.012452   0.004503  -0.001953  -0.004590
    27  C   -0.026562  -0.000263  -0.001722  -0.001247   0.000017   0.000121
    28  H    0.000106   0.000000   0.000003   0.000000   0.000000   0.000000
    29  H   -0.000723   0.000000   0.000065   0.000001   0.000000   0.000000
    30  H    0.001413   0.000000   0.000224   0.000001   0.000000   0.000000
    31  C   -0.015180   0.001166  -0.000946   0.000164   0.000025   0.000137
    32  C   -0.058172   0.000409   0.000225  -0.000013   0.000620   0.000139
    33  H    0.000849   0.000000   0.000000   0.000000   0.000000   0.000000
    34  H    0.000180   0.000000   0.000000   0.000001   0.000001   0.000000
    35  H   -0.002129   0.000000  -0.000002  -0.000012   0.000000   0.000000
    36  C    0.002459   0.000048   0.000212   0.000051   0.000313  -0.000267
    37  H   -0.000191   0.000000   0.000000   0.000000   0.000000   0.000000
    38  H    0.000499   0.000000   0.000000   0.000000   0.000000   0.000000
    39  H   -0.003869   0.000029   0.000000   0.000000   0.000002  -0.000001
    40  C   -0.006574   0.000177   0.000293   0.000025   0.000033  -0.000008
    41  H    0.000012   0.000000   0.000000   0.000000   0.000000   0.000000
    42  H   -0.000094   0.000000   0.000000   0.000000   0.000000   0.000000
    43  H   -0.000006   0.000000   0.000000   0.000000   0.000000   0.000000
    44  C    0.026513  -0.001999  -0.001391  -0.000151  -0.000180   0.000475
    45  H   -0.000131  -0.000002   0.000000   0.000000   0.000000   0.000000
    46  H   -0.000685  -0.000009   0.000000   0.000000   0.000000   0.000000
    47  H    0.003323   0.000738  -0.000003   0.000000   0.000001  -0.000002
             13         14         15         16         17         18
     1  H   -0.004938   0.005835   0.000000   0.000000  -0.000388  -0.000570
     2  C   -0.031457   0.288086  -0.004440   0.006855  -0.001169   0.080790
     3  C   -0.052575  -0.325673  -0.038533   0.046801  -0.044245   0.094761
     4  C    0.002518   0.438661   0.126102  -0.025204  -0.293441   0.112964
     5  C    0.034547  -1.792389  -0.141163  -0.140162   0.287334   0.122476
     6  C    0.014300  -0.753688   0.005222  -0.012824   0.007162  -0.160330
     7  C    0.373910  -0.144598  -0.004392   0.002763   0.035675  -0.007567
     8  H   -0.003383  -0.014345   0.000217  -0.000203   0.008465  -0.000163
     9  H    0.000001   0.030619  -0.000194   0.000199   0.010606  -0.050023
    10  H    0.000063   0.023328  -0.000026   0.000007   0.004799  -0.002159
    11  H   -0.023230  -0.001727   0.000002  -0.000016   0.003091   0.000126
    12  H   -0.001476  -0.020313   0.000088   0.000624  -0.001290  -0.000670
    13  H    0.527430   0.000963   0.000001  -0.000001  -0.000141   0.000073
    14  C    0.000963   7.514899   0.432401   0.489564   0.066744  -0.120009
    15  H    0.000001   0.432401   0.509191  -0.031685  -0.035504   0.000751
    16  H   -0.000001   0.489564  -0.031685   0.518257  -0.031555   0.000525
    17  O   -0.000141   0.066744  -0.035504  -0.031555   8.344288   0.008562
    18  O    0.000073  -0.120009   0.000751   0.000525   0.008562   8.236947
    19  H    0.000001   0.007957  -0.001661   0.000219   0.030732   0.250628
    20  O   -0.000510  -0.011879  -0.000030   0.000036   0.002683   0.006975
    21  C    0.000406  -0.013845   0.000403  -0.000069  -0.002153  -0.010090
    22  H    0.000000   0.004290   0.000001   0.000000   0.000143  -0.019172
    23  H    0.000000  -0.000055   0.000000   0.000000  -0.000008   0.001435
    24  H    0.000000  -0.000714   0.000000   0.000000  -0.000043   0.003613
    25  O   -0.007664   0.035310  -0.000113  -0.000039   0.000888  -0.003493
    26  Si  -0.000412  -0.012005  -0.000879   0.000014   0.001358  -0.016389
    27  C   -0.000110   0.001949   0.000063   0.000016   0.000133   0.002940
    28  H    0.000000  -0.000020   0.000000   0.000000   0.000000   0.000003
    29  H    0.000000   0.000087   0.000000   0.000000   0.000002   0.000083
    30  H    0.000000  -0.000066   0.000000   0.000000   0.000000  -0.000002
    31  C    0.000177   0.003062   0.000002   0.000010  -0.000170  -0.000513
    32  C   -0.000078   0.003303   0.000009   0.000001  -0.000057   0.000911
    33  H    0.000000   0.000005   0.000000   0.000000   0.000000  -0.000001
    34  H    0.000007  -0.000016   0.000000   0.000000   0.000000  -0.000001
    35  H   -0.000002   0.000034   0.000000   0.000000  -0.000001  -0.000016
    36  C    0.002260  -0.000514   0.000000   0.000002   0.000086   0.000053
    37  H   -0.000007  -0.000010   0.000000   0.000000   0.000000   0.000000
    38  H   -0.000003   0.000004   0.000000   0.000000   0.000000   0.000000
    39  H    0.000543   0.000028   0.000000   0.000000   0.000000   0.000000
    40  C    0.000064   0.001145  -0.000001   0.000001  -0.000004  -0.000003
    41  H    0.000000   0.000000   0.000000   0.000000   0.000000   0.000000
    42  H    0.000000   0.000002   0.000000   0.000000   0.000000   0.000000
    43  H    0.000000   0.000001   0.000000   0.000000   0.000000   0.000000
    44  C   -0.002983  -0.001864   0.000011  -0.000017  -0.000021   0.000177
    45  H    0.000000  -0.000008   0.000000   0.000000   0.000000   0.000000
    46  H    0.000001   0.000045   0.000000   0.000000   0.000000   0.000001
    47  H    0.000002  -0.000326   0.000000   0.000000   0.000000  -0.000001
             19         20         21         22         23         24
     1  H   -0.000009   0.002213  -0.007428   0.000023  -0.000023  -0.000080
     2  C    0.024908  -0.107079   0.082433  -0.034625  -0.004982   0.051334
     3  C    0.004011   0.022145   0.019376  -0.006256   0.000246   0.002624
     4  C    0.057324  -0.332072   0.067548   0.047443   0.000176  -0.032327
     5  C   -0.053785   0.119649  -0.104950  -0.030284   0.002676   0.014029
     6  C   -0.070732   0.330468  -0.161941   0.041177   0.005137  -0.050481
     7  C   -0.004103   0.038905  -0.007060   0.002694  -0.001120   0.001409
     8  H   -0.000036  -0.000686   0.000128   0.000000   0.000000   0.000000
     9  H    0.006882   0.000169  -0.003167  -0.000006  -0.000003   0.000020
    10  H    0.003064  -0.053494  -0.008680  -0.001402   0.000002   0.009866
    11  H   -0.000037  -0.001280   0.000231   0.000000   0.000000  -0.000001
    12  H   -0.000010   0.000111   0.000269   0.000000   0.000000   0.000000
    13  H    0.000001  -0.000510   0.000406   0.000000   0.000000   0.000000
    14  C    0.007957  -0.011879  -0.013845   0.004290  -0.000055  -0.000714
    15  H   -0.001661  -0.000030   0.000403   0.000001   0.000000   0.000000
    16  H    0.000219   0.000036  -0.000069   0.000000   0.000000   0.000000
    17  O    0.030732   0.002683  -0.002153   0.000143  -0.000008  -0.000043
    18  O    0.250628   0.006975  -0.010090  -0.019172   0.001435   0.003613
    19  H    0.360967  -0.001029  -0.001073  -0.000023  -0.000006  -0.000083
    20  O   -0.001029   8.374495  -0.047291  -0.060141  -0.069922  -0.060136
    21  C   -0.001073  -0.047291   5.134623   0.410374   0.428238   0.415537
    22  H   -0.000023  -0.060141   0.410374   0.538103  -0.029189  -0.041225
    23  H   -0.000006  -0.069922   0.428238  -0.029189   0.533742  -0.027082
    24  H   -0.000083  -0.060136   0.415537  -0.041225  -0.027082   0.572719
    25  O    0.000266   0.040514  -0.006738   0.000179  -0.000265  -0.000088
    26  Si   0.001754   0.104633  -0.062774   0.002756  -0.002022  -0.001808
    27  C   -0.000094  -0.041230   0.016712  -0.001167   0.000851   0.000074
    28  H    0.000000   0.000706   0.000055   0.000000  -0.000001   0.000000
    29  H    0.000000   0.000759   0.004906  -0.000011   0.000175  -0.000008
    30  H    0.000000   0.000007   0.000042   0.000000  -0.000001   0.000000
    31  C    0.000003   0.009363  -0.000489   0.000056  -0.000161  -0.000083
    32  C   -0.000014  -0.037042   0.015831  -0.000408   0.001429  -0.000556
    33  H    0.000000   0.000500  -0.000565   0.000000  -0.000003   0.000000
    34  H    0.000000  -0.000420  -0.000124   0.000000  -0.000001   0.000000
    35  H    0.000000   0.001301   0.003585  -0.000001   0.000141  -0.000009
    36  C    0.000004  -0.004010   0.000652  -0.000035   0.000018   0.000046
    37  H    0.000000  -0.000011  -0.000008   0.000000   0.000000   0.000000
    38  H    0.000000   0.000002   0.000004   0.000000   0.000000   0.000000
    39  H    0.000000  -0.000043  -0.000012   0.000000   0.000000   0.000000
    40  C    0.000003  -0.000849  -0.000420   0.000001   0.000006  -0.000002
    41  H    0.000000  -0.000002   0.000003   0.000000   0.000000   0.000000
    42  H    0.000000  -0.000002  -0.000002   0.000000   0.000000   0.000000
    43  H    0.000000   0.000002   0.000002   0.000000   0.000000   0.000000
    44  C   -0.000039   0.003068   0.000838   0.000048   0.000023  -0.000032
    45  H    0.000000   0.000004   0.000003   0.000000   0.000000   0.000000
    46  H    0.000000  -0.000024   0.000000   0.000000   0.000000   0.000000
    47  H    0.000000  -0.000061  -0.000035   0.000000   0.000000   0.000000
             25         26         27         28         29         30
     1  H   -0.049222   0.027009  -0.002876   0.000002   0.000000  -0.000003
     2  C    0.084822  -0.485510   0.119205   0.004368  -0.009446   0.006737
     3  C   -0.046258   0.001641   0.002543   0.000020   0.000442  -0.000388
     4  C   -0.048937  -0.336810   0.056758  -0.000491   0.004620  -0.004067
     5  C    0.120289   0.170012  -0.014780  -0.000250  -0.001476   0.003637
     6  C   -0.162800   0.305427  -0.141592  -0.000826  -0.002182  -0.007246
     7  C   -0.040040   0.132344  -0.026562   0.000106  -0.000723   0.001413
     8  H    0.008090   0.000903  -0.000263   0.000000   0.000000   0.000000
     9  H    0.011223   0.012452  -0.001722   0.000003   0.000065   0.000224
    10  H    0.015923   0.004503  -0.001247   0.000000   0.000001   0.000001
    11  H    0.012523  -0.001953   0.000017   0.000000   0.000000   0.000000
    12  H   -0.001621  -0.004590   0.000121   0.000000   0.000000   0.000000
    13  H   -0.007664  -0.000412  -0.000110   0.000000   0.000000   0.000000
    14  C    0.035310  -0.012005   0.001949  -0.000020   0.000087  -0.000066
    15  H   -0.000113  -0.000879   0.000063   0.000000   0.000000   0.000000
    16  H   -0.000039   0.000014   0.000016   0.000000   0.000000   0.000000
    17  O    0.000888   0.001358   0.000133   0.000000   0.000002   0.000000
    18  O   -0.003493  -0.016389   0.002940   0.000003   0.000083  -0.000002
    19  H    0.000266   0.001754  -0.000094   0.000000   0.000000   0.000000
    20  O    0.040514   0.104633  -0.041230   0.000706   0.000759   0.000007
    21  C   -0.006738  -0.062774   0.016712   0.000055   0.004906   0.000042
    22  H    0.000179   0.002756  -0.001167   0.000000  -0.000011   0.000000
    23  H   -0.000265  -0.002022   0.000851  -0.000001   0.000175  -0.000001
    24  H   -0.000088  -0.001808   0.000074   0.000000  -0.000008   0.000000
    25  O    8.370827   0.056253  -0.045224   0.009820  -0.002163  -0.010390
    26  Si   0.056253  13.250505   0.153177  -0.030801  -0.049921  -0.019203
    27  C   -0.045224   0.153177   5.562856   0.395461   0.410514   0.396710
    28  H    0.009820  -0.030801   0.395461   0.499561  -0.021712  -0.022819
    29  H   -0.002163  -0.049921   0.410514  -0.021712   0.473035  -0.021537
    30  H   -0.010390  -0.019203   0.396710  -0.022819  -0.021537   0.497426
    31  C   -0.038437   0.299958  -0.127827  -0.017418   0.012417  -0.014582
    32  C   -0.061079   0.173340   0.034852  -0.010906  -0.004319   0.006913
    33  H    0.009931  -0.030304  -0.008934   0.000143   0.000087   0.000023
    34  H   -0.004763  -0.020411   0.005166   0.000021   0.000002  -0.000017
    35  H   -0.004643  -0.054657  -0.008038   0.000114   0.000417   0.000004
    36  C    0.032315  -0.090948  -0.016874   0.000156  -0.001300  -0.002738
    37  H   -0.002564  -0.001104  -0.000342   0.000001  -0.000001   0.000000
    38  H   -0.000933   0.016791  -0.001492   0.000000   0.000000   0.000000
    39  H    0.008424  -0.009562  -0.000942   0.000000   0.000000   0.000002
    40  C    0.017373  -0.059445   0.021121   0.005500  -0.001227  -0.000949
    41  H    0.000726  -0.014364  -0.000291  -0.000005  -0.000005   0.000020
    42  H    0.000525  -0.011207   0.004215  -0.000022   0.000012   0.000024
    43  H   -0.000622   0.019603  -0.000028   0.000026   0.000000  -0.000007
    44  C   -0.012833  -0.130402  -0.019525   0.008877   0.002259   0.010922
    45  H   -0.000666   0.018319   0.000081  -0.000001   0.000000  -0.000006
    46  H   -0.003852   0.008172   0.000812   0.000056   0.000003   0.000199
    47  H    0.007020  -0.023637   0.000235   0.000005  -0.000006   0.000032
             31         32         33         34         35         36
     1  H    0.003326  -0.004934   0.000065  -0.000092  -0.000212  -0.006077
     2  C   -0.054049   0.110159  -0.001881  -0.013744  -0.008780  -0.048255
     3  C   -0.021812  -0.003374  -0.000020   0.000040   0.000356   0.054339
     4  C   -0.015600   0.039452   0.000145   0.000094   0.000597  -0.003065
     5  C    0.024116  -0.004578   0.000098  -0.000479  -0.000579  -0.027583
     6  C    0.062565  -0.098600   0.001832   0.010130   0.008027   0.014712
     7  C   -0.015180  -0.058172   0.000849   0.000180  -0.002129   0.002459
     8  H    0.001166   0.000409   0.000000   0.000000   0.000000   0.000048
     9  H   -0.000946   0.000225   0.000000   0.000000  -0.000002   0.000212
    10  H    0.000164  -0.000013   0.000000   0.000001  -0.000012   0.000051
    11  H    0.000025   0.000620   0.000000   0.000001   0.000000   0.000313
    12  H    0.000137   0.000139   0.000000   0.000000   0.000000  -0.000267
    13  H    0.000177  -0.000078   0.000000   0.000007  -0.000002   0.002260
    14  C    0.003062   0.003303   0.000005  -0.000016   0.000034  -0.000514
    15  H    0.000002   0.000009   0.000000   0.000000   0.000000   0.000000
    16  H    0.000010   0.000001   0.000000   0.000000   0.000000   0.000002
    17  O   -0.000170  -0.000057   0.000000   0.000000  -0.000001   0.000086
    18  O   -0.000513   0.000911  -0.000001  -0.000001  -0.000016   0.000053
    19  H    0.000003  -0.000014   0.000000   0.000000   0.000000   0.000004
    20  O    0.009363  -0.037042   0.000500  -0.000420   0.001301  -0.004010
    21  C   -0.000489   0.015831  -0.000565  -0.000124   0.003585   0.000652
    22  H    0.000056  -0.000408   0.000000   0.000000  -0.000001  -0.000035
    23  H   -0.000161   0.001429  -0.000003  -0.000001   0.000141   0.000018
    24  H   -0.000083  -0.000556   0.000000   0.000000  -0.000009   0.000046
    25  O   -0.038437  -0.061079   0.009931  -0.004763  -0.004643   0.032315
    26  Si   0.299958   0.173340  -0.030304  -0.020411  -0.054657  -0.090948
    27  C   -0.127827   0.034852  -0.008934   0.005166  -0.008038  -0.016874
    28  H   -0.017418  -0.010906   0.000143   0.000021   0.000114   0.000156
    29  H    0.012417  -0.004319   0.000087   0.000002   0.000417  -0.001300
    30  H   -0.014582   0.006913   0.000023  -0.000017   0.000004  -0.002738
    31  C    8.001680  -0.137524  -0.018785  -0.017184   0.014745  -0.300386
    32  C   -0.137524   5.554172   0.395813   0.397114   0.413912   0.020693
    33  H   -0.018785   0.395813   0.490847  -0.021540  -0.020427   0.005655
    34  H   -0.017184   0.397114  -0.021540   0.495012  -0.022998   0.010123
    35  H    0.014745   0.413912  -0.020427  -0.022998   0.473934   0.001004
    36  C   -0.300386   0.020693   0.005655   0.010123   0.001004   5.859908
    37  H   -0.063986   0.001176   0.000086   0.000051   0.000014   0.423493
    38  H   -0.157441   0.000627  -0.000002  -0.000003   0.000000   0.455931
    39  H   -0.108026  -0.000907   0.000011   0.000048  -0.000005   0.475572
    40  C   -0.395775   0.013047   0.008620   0.004516  -0.000592   0.018947
    41  H   -0.083816   0.003973   0.000274   0.000006  -0.000005  -0.011368
    42  H   -0.086122  -0.000663   0.000001   0.000008  -0.000005   0.004328
    43  H   -0.153656   0.001123   0.000010  -0.000005   0.000000   0.005595
    44  C   -0.283420  -0.030303   0.001262  -0.004126  -0.000479  -0.289587
    45  H   -0.163016  -0.001192   0.000000   0.000000   0.000000   0.002887
    46  H   -0.065492  -0.000453   0.000000   0.000000  -0.000001   0.000330
    47  H   -0.094154  -0.000707   0.000000   0.000002   0.000000  -0.002518
             37         38         39         40         41         42
     1  H    0.000002   0.000000   0.000011   0.000669   0.000000   0.000000
     2  C    0.000600   0.000152  -0.002826  -0.011543   0.000559  -0.000236
     3  C   -0.000636  -0.000014   0.004906   0.000410  -0.000013   0.000012
     4  C    0.000031   0.000052   0.000710  -0.007134  -0.000028  -0.000023
     5  C   -0.000009  -0.000094  -0.000725   0.006573   0.000016   0.000010
     6  C    0.000923  -0.000119  -0.000732   0.009569   0.000048  -0.000084
     7  C   -0.000191   0.000499  -0.003869  -0.006574   0.000012  -0.000094
     8  H    0.000000   0.000000   0.000029   0.000177   0.000000   0.000000
     9  H    0.000000   0.000000   0.000000   0.000293   0.000000   0.000000
    10  H    0.000000   0.000000   0.000000   0.000025   0.000000   0.000000
    11  H    0.000000   0.000000   0.000002   0.000033   0.000000   0.000000
    12  H    0.000000   0.000000  -0.000001  -0.000008   0.000000   0.000000
    13  H   -0.000007  -0.000003   0.000543   0.000064   0.000000   0.000000
    14  C   -0.000010   0.000004   0.000028   0.001145   0.000000   0.000002
    15  H    0.000000   0.000000   0.000000  -0.000001   0.000000   0.000000
    16  H    0.000000   0.000000   0.000000   0.000001   0.000000   0.000000
    17  O    0.000000   0.000000   0.000000  -0.000004   0.000000   0.000000
    18  O    0.000000   0.000000   0.000000  -0.000003   0.000000   0.000000
    19  H    0.000000   0.000000   0.000000   0.000003   0.000000   0.000000
    20  O   -0.000011   0.000002  -0.000043  -0.000849  -0.000002  -0.000002
    21  C   -0.000008   0.000004  -0.000012  -0.000420   0.000003  -0.000002
    22  H    0.000000   0.000000   0.000000   0.000001   0.000000   0.000000
    23  H    0.000000   0.000000   0.000000   0.000006   0.000000   0.000000
    24  H    0.000000   0.000000   0.000000  -0.000002   0.000000   0.000000
    25  O   -0.002564  -0.000933   0.008424   0.017373   0.000726   0.000525
    26  Si  -0.001104   0.016791  -0.009562  -0.059445  -0.014364  -0.011207
    27  C   -0.000342  -0.001492  -0.000942   0.021121  -0.000291   0.004215
    28  H    0.000001   0.000000   0.000000   0.005500  -0.000005  -0.000022
    29  H   -0.000001   0.000000   0.000000  -0.001227  -0.000005   0.000012
    30  H    0.000000   0.000000   0.000002  -0.000949   0.000020   0.000024
    31  C   -0.063986  -0.157441  -0.108026  -0.395775  -0.083816  -0.086122
    32  C    0.001176   0.000627  -0.000907   0.013047   0.003973  -0.000663
    33  H    0.000086  -0.000002   0.000011   0.008620   0.000274   0.000001
    34  H    0.000051  -0.000003   0.000048   0.004516   0.000006   0.000008
    35  H    0.000014   0.000000  -0.000005  -0.000592  -0.000005  -0.000005
    36  C    0.423493   0.455931   0.475572   0.018947  -0.011368   0.004328
    37  H    0.536383  -0.028017  -0.026802  -0.005961   0.002764   0.000031
    38  H   -0.028017   0.545195  -0.027385   0.008530  -0.000319  -0.000002
    39  H   -0.026802  -0.027385   0.525850  -0.000921   0.000035  -0.000147
    40  C   -0.005961   0.008530  -0.000921   5.681567   0.450249   0.460350
    41  H    0.002764  -0.000319   0.000035   0.450249   0.535145  -0.027266
    42  H    0.000031  -0.000002  -0.000147   0.460350  -0.027266   0.531727
    43  H   -0.000334   0.005361   0.000019   0.450441  -0.028062  -0.027728
    44  C    0.000770   0.016111  -0.008265  -0.132680   0.006074  -0.018573
    45  H    0.000038   0.005601  -0.000319   0.010765  -0.000007  -0.000316
    46  H   -0.000153   0.000026   0.000031  -0.002882   0.000033   0.002781
    47  H    0.000023  -0.000312   0.003084   0.000694  -0.000147   0.000038
             43         44         45         46         47
     1  H    0.000000   0.001682   0.000000   0.000000  -0.000005
     2  C   -0.000440   0.053022  -0.000089   0.000483  -0.003279
     3  C   -0.000048  -0.042023   0.000046   0.001210  -0.003164
     4  C    0.000002   0.025805   0.000076  -0.000817   0.002359
     5  C    0.000017  -0.004103  -0.000258  -0.000083  -0.000135
     6  C    0.000020  -0.040659   0.000410  -0.000613   0.001632
     7  C   -0.000006   0.026513  -0.000131  -0.000685   0.003323
     8  H    0.000000  -0.001999  -0.000002  -0.000009   0.000738
     9  H    0.000000  -0.001391   0.000000   0.000000  -0.000003
    10  H    0.000000  -0.000151   0.000000   0.000000   0.000000
    11  H    0.000000  -0.000180   0.000000   0.000000   0.000001
    12  H    0.000000   0.000475   0.000000   0.000000  -0.000002
    13  H    0.000000  -0.002983   0.000000   0.000001   0.000002
    14  C    0.000001  -0.001864  -0.000008   0.000045  -0.000326
    15  H    0.000000   0.000011   0.000000   0.000000   0.000000
    16  H    0.000000  -0.000017   0.000000   0.000000   0.000000
    17  O    0.000000  -0.000021   0.000000   0.000000   0.000000
    18  O    0.000000   0.000177   0.000000   0.000001  -0.000001
    19  H    0.000000  -0.000039   0.000000   0.000000   0.000000
    20  O    0.000002   0.003068   0.000004  -0.000024  -0.000061
    21  C    0.000002   0.000838   0.000003   0.000000  -0.000035
    22  H    0.000000   0.000048   0.000000   0.000000   0.000000
    23  H    0.000000   0.000023   0.000000   0.000000   0.000000
    24  H    0.000000  -0.000032   0.000000   0.000000   0.000000
    25  O   -0.000622  -0.012833  -0.000666  -0.003852   0.007020
    26  Si   0.019603  -0.130402   0.018319   0.008172  -0.023637
    27  C   -0.000028  -0.019525   0.000081   0.000812   0.000235
    28  H    0.000026   0.008877  -0.000001   0.000056   0.000005
    29  H    0.000000   0.002259   0.000000   0.000003  -0.000006
    30  H   -0.000007   0.010922  -0.000006   0.000199   0.000032
    31  C   -0.153656  -0.283420  -0.163016  -0.065492  -0.094154
    32  C    0.001123  -0.030303  -0.001192  -0.000453  -0.000707
    33  H    0.000010   0.001262   0.000000   0.000000   0.000000
    34  H   -0.000005  -0.004126   0.000000   0.000000   0.000002
    35  H    0.000000  -0.000479   0.000000  -0.000001   0.000000
    36  C    0.005595  -0.289587   0.002887   0.000330  -0.002518
    37  H   -0.000334   0.000770   0.000038  -0.000153   0.000023
    38  H    0.005361   0.016111   0.005601   0.000026  -0.000312
    39  H    0.000019  -0.008265  -0.000319   0.000031   0.003084
    40  C    0.450441  -0.132680   0.010765  -0.002882   0.000694
    41  H   -0.028062   0.006074  -0.000007   0.000033  -0.000147
    42  H   -0.027728  -0.018573  -0.000316   0.002781   0.000038
    43  H    0.542464   0.017488   0.005383  -0.000359   0.000012
    44  C    0.017488   6.060309   0.472156   0.415250   0.464760
    45  H    0.005383   0.472156   0.545556  -0.028306  -0.027728
    46  H   -0.000359   0.415250  -0.028306   0.536244  -0.026181
    47  H    0.000012   0.464760  -0.027728  -0.026181   0.522747
 Mulliken atomic charges:
              1
     1  H    0.151488
     2  C    0.385107
     3  C   -0.328085
     4  C    0.056208
     5  C    0.186047
     6  C   -0.612676
     7  C   -0.560964
     8  H    0.194258
     9  H    0.188019
    10  H    0.147230
    11  H    0.177487
    12  H    0.171697
    13  H    0.171703
    14  C   -0.134259
    15  H    0.184159
    16  H    0.175881
    17  O   -0.402565
    18  O   -0.533619
    19  H    0.384012
    20  O   -0.229463
    21  C   -0.163283
    22  H    0.176658
    23  H    0.160551
    24  H    0.143487
    25  O   -0.287796
    26  Si   0.710194
    27  C   -0.725421
    28  H    0.180269
    29  H    0.206150
    30  H    0.179685
    31  C    0.003080
    32  C   -0.733365
    33  H    0.186204
    34  H    0.183401
    35  H    0.205407
    36  C   -0.586668
    37  H    0.163753
    38  H    0.161250
    39  H    0.172183
    40  C   -0.543721
    41  H    0.165761
    42  H    0.168426
    43  H    0.163726
    44  C   -0.562244
    45  H    0.160720
    46  H    0.164232
    47  H    0.175696
 Sum of Mulliken atomic charges =   0.00000
 Mulliken charges with hydrogens summed into heavy atoms:
              1
     2  C    0.536595
     3  C    0.037870
     4  C    0.244227
     5  C    0.186047
     6  C   -0.465446
     7  C   -0.211774
    14  C    0.225780
    17  O   -0.402565
    18  O   -0.149607
    20  O   -0.229463
    21  C    0.317413
    25  O   -0.287796
    26  Si   0.710194
    27  C   -0.159318
    31  C    0.003080
    32  C   -0.158353
    36  C   -0.089482
    40  C   -0.045807
    44  C   -0.061595
 Sum of Mulliken charges with hydrogens summed into heavy atoms =   0.00000
 Electronic spatial extent (au):  <R**2>=           6280.3950
 Charge=              0.0000 electrons
 Dipole moment (field-independent basis, Debye):
    X=             -0.0572    Y=             -0.7474    Z=             -0.9563  Tot=              1.2150
 Quadrupole moment (field-independent basis, Debye-Ang):
   XX=           -129.5076   YY=           -120.5690   ZZ=           -125.7090
   XY=             -2.9312   XZ=              0.7094   YZ=             -4.7437
 Traceless Quadrupole moment (field-independent basis, Debye-Ang):
   XX=             -4.2457   YY=              4.6928   ZZ=             -0.4471
   XY=             -2.9312   XZ=              0.7094   YZ=             -4.7437
 Octapole moment (field-independent basis, Debye-Ang**2):
  XXX=             19.1438  YYY=             10.3947  ZZZ=             -6.5347  XYY=             31.8449
  XXY=              6.3054  XXZ=             13.9229  XZZ=             12.3664  YZZ=             -4.4775
  YYZ=             -0.4550  XYZ=            -20.3502
 Hexadecapole moment (field-independent basis, Debye-Ang**3):
 XXXX=          -5728.9167 YYYY=          -1851.5574 ZZZZ=           -935.3964 XXXY=              3.2952
 XXXZ=            103.9798 YYYX=            -19.3939 YYYZ=             -5.1326 ZZZX=              2.9124
 ZZZY=             -7.7578 XXYY=          -1209.6010 XXZZ=          -1107.2997 YYZZ=           -498.1279
 XXYZ=            -76.9661 YYXZ=              6.3317 ZZXY=            -18.4887
 N-N= 1.831483180587D+03 E-N=-6.333872817256D+03  KE= 1.131542318800D+03
 1\1\GINC-COMPUTE-8-11\SP\RmPW1PW91\6-31+G(d,p)\C14H28O4Si1\ELUCIANO.IQ
 UIR\06-Dec-2022\0\\# mPW1PW91/6-31+g** scrf=(PCM,solvent=chloroform) n
 mr\\comment\\0,1\H,0,0.08107,0.472543,-2.064224\C,0,0.492334,-0.048748
 ,-1.189182\C,0,1.7574,-2.100987,-0.430222\C,0,2.262508,0.201351,0.6397
 07\C,0,2.754694,-1.206651,0.277389\C,0,1.573192,0.860812,-0.57581\C,0,
 1.114316,-1.38166,-1.624218\H,0,0.973485,-2.381493,0.283195\H,0,1.5324
 61,0.13855,1.452611\H,0,2.339925,1.034346,-1.350912\H,0,1.870783,-1.19
 2078,-2.396705\H,0,2.260824,-3.019102,-0.751519\H,0,0.337046,-2.009711
 ,-2.072675\C,0,3.893546,-1.775233,1.006512\H,0,4.330378,-1.224452,1.83
 6675\H,0,4.023361,-2.856857,1.032999\O,0,4.092972,-1.176586,-0.293777\
 O,0,3.343656,0.989314,1.120429\H,0,4.089312,0.776423,0.527215\O,0,0.95
 3763,2.094005,-0.241191\C,0,1.795615,3.239702,-0.257026\H,0,2.547429,3
 .202778,0.536406\H,0,1.142341,4.104298,-0.110062\H,0,2.304173,3.34224,
 -1.228711\O,0,-0.542586,-0.327148,-0.255081\Si,0,-1.952686,0.53562,0.0
 86141\C,0,-1.740901,1.472666,1.710161\H,0,-2.638191,2.048416,1.968288\
 H,0,-0.899985,2.167394,1.621333\H,0,-1.528883,0.794799,2.545256\C,0,-3
 .31408,-0.808166,0.251694\C,0,-2.340658,1.745212,-1.313188\H,0,-3.2679
 49,2.293337,-1.107302\H,0,-2.461219,1.246092,-2.281727\H,0,-1.53206,2.
 477437,-1.406763\C,0,-3.492342,-1.547148,-1.091188\H,0,-3.824883,-0.87
 2294,-1.889465\H,0,-4.249506,-2.339647,-0.998226\H,0,-2.558455,-2.0194
 36,-1.418066\C,0,-4.655117,-0.155842,0.650643\H,0,-4.996577,0.573356,-
 0.094924\H,0,-4.589597,0.359327,1.616617\H,0,-5.44207,-0.918895,0.7413
 18\C,0,-2.909315,-1.832919,1.332694\H,0,-3.673032,-2.619733,1.423101\H
 ,0,-2.804128,-1.367868,2.320462\H,0,-1.958037,-2.319453,1.089003\\Vers
 ion=EM64L-G09RevC.01\State=1-A\HF=-1140.6259612\RMSD=4.658e-09\Dipole=
 -0.0225188,-0.2940364,-0.3762277\Quadrupole=-3.1566066,3.4890126,-0.33
 24059,-2.1792638,0.5274473,-3.5268611\PG=C01 [X(C14H28O4Si1)]\\@


 You never know when you're making a memory.
                        -- Rickie Lee Jones
 Job cpu time:  0 days  3 hours 43 minutes 17.0 seconds.
 File lengths (MBytes):  RWF=    296 Int=      0 D2E=      0 Chk=     16 Scr=      1
 Normal termination of Gaussian 09 at Tue Dec  6 17:06:50 2022.
