 Entering Gaussian System, Link 0=g09
 Input=/home/eluciano.iquir/todos_optB3L_MPW_B_PCM/02_epoxido28_016_optB3L_nmr_MPW_B_PCM.gjc
 Output=/home/eluciano.iquir/todos_optB3L_MPW_B_PCM/02_epoxido28_016_optB3L_nmr_MPW_B_PCM.log
 Initial command:
 /share/apps/Gaussian09/EM64T.SSE4.2-enabled/g09/l1.exe /tmp/Gau-95986.inp -scrdir=/tmp/
 Entering Link 1 = /share/apps/Gaussian09/EM64T.SSE4.2-enabled/g09/l1.exe PID=     95987.
  
 Copyright (c) 1988,1990,1992,1993,1995,1998,2003,2009,2011,
            Gaussian, Inc.  All Rights Reserved.
  
 This is part of the Gaussian(R) 09 program.  It is based on
 the Gaussian(R) 03 system (copyright 2003, Gaussian, Inc.),
 the Gaussian(R) 98 system (copyright 1998, Gaussian, Inc.),
 the Gaussian(R) 94 system (copyright 1995, Gaussian, Inc.),
 the Gaussian 92(TM) system (copyright 1992, Gaussian, Inc.),
 the Gaussian 90(TM) system (copyright 1990, Gaussian, Inc.),
 the Gaussian 88(TM) system (copyright 1988, Gaussian, Inc.),
 the Gaussian 86(TM) system (copyright 1986, Carnegie Mellon
 University), and the Gaussian 82(TM) system (copyright 1983,
 Carnegie Mellon University). Gaussian is a federally registered
 trademark of Gaussian, Inc.
  
 This software contains proprietary and confidential information,
 including trade secrets, belonging to Gaussian, Inc.
  
 This software is provided under written license and may be
 used, copied, transmitted, or stored only in accord with that
 written license.
  
 The following legend is applicable only to US Government
 contracts under FAR:
  
                    RESTRICTED RIGHTS LEGEND
  
 Use, reproduction and disclosure by the US Government is
 subject to restrictions as set forth in subparagraphs (a)
 and (c) of the Commercial Computer Software - Restricted
 Rights clause in FAR 52.227-19.
  
 Gaussian, Inc.
 340 Quinnipiac St., Bldg. 40, Wallingford CT 06492
  
  
 ---------------------------------------------------------------
 Warning -- This program may not be used in any manner that
 competes with the business of Gaussian, Inc. or will provide
 assistance to any competitor of Gaussian, Inc.  The licensee
 of this program is prohibited from giving any competitor of
 Gaussian, Inc. access to this program.  By using this program,
 the user acknowledges that Gaussian, Inc. is engaged in the
 business of creating and licensing software in the field of
 computational chemistry and represents and warrants to the
 licensee that it is not a competitor of Gaussian, Inc. and that
 it will not use this program in any manner prohibited above.
 ---------------------------------------------------------------
  

 Cite this work as:
 Gaussian 09, Revision C.01,
 M. J. Frisch, G. W. Trucks, H. B. Schlegel, G. E. Scuseria, 
 M. A. Robb, J. R. Cheeseman, G. Scalmani, V. Barone, B. Mennucci, 
 G. A. Petersson, H. Nakatsuji, M. Caricato, X. Li, H. P. Hratchian, 
 A. F. Izmaylov, J. Bloino, G. Zheng, J. L. Sonnenberg, M. Hada, 
 M. Ehara, K. Toyota, R. Fukuda, J. Hasegawa, M. Ishida, T. Nakajima, 
 Y. Honda, O. Kitao, H. Nakai, T. Vreven, J. A. Montgomery, Jr., 
 J. E. Peralta, F. Ogliaro, M. Bearpark, J. J. Heyd, E. Brothers, 
 K. N. Kudin, V. N. Staroverov, T. Keith, R. Kobayashi, J. Normand, 
 K. Raghavachari, A. Rendell, J. C. Burant, S. S. Iyengar, J. Tomasi, 
 M. Cossi, N. Rega, J. M. Millam, M. Klene, J. E. Knox, J. B. Cross, 
 V. Bakken, C. Adamo, J. Jaramillo, R. Gomperts, R. E. Stratmann, 
 O. Yazyev, A. J. Austin, R. Cammi, C. Pomelli, J. W. Ochterski, 
 R. L. Martin, K. Morokuma, V. G. Zakrzewski, G. A. Voth, 
 P. Salvador, J. J. Dannenberg, S. Dapprich, A. D. Daniels, 
 O. Farkas, J. B. Foresman, J. V. Ortiz, J. Cioslowski, 
 and D. J. Fox, Gaussian, Inc., Wallingford CT, 2010.
 
 ******************************************
 Gaussian 09:  EM64L-G09RevC.01 23-Sep-2011
                 6-Dec-2022 
 ******************************************
 %nprocshared=4
 Will use up to    4 processors via shared memory.
 %mem=80MW
 -----------------------------------------------------
 # mPW1PW91/6-31+g** scrf=(PCM,solvent=chloroform) nmr
 -----------------------------------------------------
 1/38=1/1;
 2/12=2,17=6,18=5,40=1/2;
 3/5=1,6=6,7=111,11=2,16=1,25=1,30=1,70=2201,72=7,74=-7/1,2,8,3;
 4//1;
 5/5=2,38=5,53=7/2;
 8/6=1,10=90,11=11/1;
 10/13=100,45=16/2;
 6/7=2,8=2,9=2,10=2,28=1/1;
 99/9=1/99;
 -------
 comment
 -------
 Charge =  0 Multiplicity = 1
 Symbolic Z-Matrix:
 1                    -0.22983  -0.6958    0.85969 
 6                    -0.45003  -0.06539  -0.0139 
 6                    -2.24251  -1.72592  -0.64433 
 6                    -2.77203   0.2077    0.95898 
 6                    -3.29229  -0.79746  -0.06091 
 6                    -1.51994   0.95139   0.43725 
 6                    -1.00747  -0.94896  -1.13367 
 1                    -2.68998  -2.29668  -1.46486 
 1                    -3.55836   0.9521    1.14362 
 1                    -1.10463   1.56491   1.25826 
 1                    -0.23122  -1.64423  -1.47229 
 1                    -1.94456  -2.44268   0.13272 
 1                    -1.27387  -0.30934  -1.98174 
 8                    -4.25015  -0.26166  -0.99004 
 6                    -4.70409  -1.19658  -0.00172 
 8                    -2.46779  -0.53796   2.14213 
 1                    -2.15761   0.09028   2.81341 
 8                    -1.97463   1.79327  -0.60488 
 6                    -1.19252   2.9461   -0.87362 
 1                    -0.98115   3.50642   0.05153 
 1                    -1.79331   3.57625  -1.53579 
 1                    -0.24397   2.69892  -1.35986 
 8                     0.72804   0.6104   -0.44982 
 14                    2.25916   0.59012   0.24432 
 6                     3.10726   2.11087  -0.47758 
 1                     4.13161   2.22438  -0.104 
 1                     2.55303   3.01776  -0.2094 
 1                     3.15232   2.06379  -1.57131 
 6                     3.21901  -1.01211  -0.21011 
 6                     2.11917   0.76213   2.12665 
 1                     3.11044   0.78714   2.59506 
 1                     1.56248  -0.06208   2.58771 
 1                     1.60934   1.69679   2.38995 
 6                     2.54651  -2.25439   0.41355 
 1                     2.50937  -2.19746   1.5083 
 1                     3.10925  -3.16336   0.15491 
 1                     1.5218   -2.39591   0.04988 
 6                     4.66518  -0.91474   0.32459 
 1                     4.69578  -0.80589   1.41584 
 1                     5.21085  -0.0696   -0.11212 
 1                     5.22622  -1.82694   0.07461 
 6                     3.26121  -1.18104  -1.74388 
 1                     3.79834  -2.1019   -2.01461 
 1                     3.77877  -0.3469   -2.23293 
 1                     2.25527  -1.24443  -2.17402 
 1                    -5.00069  -2.17477  -0.38214 
 1                    -5.35251  -0.78455   0.77223 
 
                          Input orientation:                          
 ---------------------------------------------------------------------
 Center     Atomic      Atomic             Coordinates (Angstroms)
 Number     Number       Type             X           Y           Z
 ---------------------------------------------------------------------
      1          1           0       -0.229826   -0.695802    0.859694
      2          6           0       -0.450030   -0.065389   -0.013898
      3          6           0       -2.242509   -1.725922   -0.644325
      4          6           0       -2.772034    0.207696    0.958984
      5          6           0       -3.292287   -0.797459   -0.060909
      6          6           0       -1.519936    0.951393    0.437248
      7          6           0       -1.007467   -0.948957   -1.133673
      8          1           0       -2.689978   -2.296680   -1.464862
      9          1           0       -3.558358    0.952102    1.143620
     10          1           0       -1.104631    1.564912    1.258258
     11          1           0       -0.231222   -1.644231   -1.472292
     12          1           0       -1.944557   -2.442685    0.132724
     13          1           0       -1.273866   -0.309342   -1.981741
     14          8           0       -4.250154   -0.261661   -0.990038
     15          6           0       -4.704088   -1.196577   -0.001722
     16          8           0       -2.467786   -0.537955    2.142125
     17          1           0       -2.157614    0.090282    2.813408
     18          8           0       -1.974633    1.793273   -0.604880
     19          6           0       -1.192524    2.946097   -0.873622
     20          1           0       -0.981147    3.506422    0.051526
     21          1           0       -1.793313    3.576250   -1.535786
     22          1           0       -0.243965    2.698916   -1.359863
     23          8           0        0.728040    0.610395   -0.449820
     24         14           0        2.259160    0.590121    0.244317
     25          6           0        3.107262    2.110868   -0.477579
     26          1           0        4.131608    2.224378   -0.103995
     27          1           0        2.553027    3.017765   -0.209397
     28          1           0        3.152315    2.063795   -1.571309
     29          6           0        3.219014   -1.012109   -0.210107
     30          6           0        2.119168    0.762130    2.126650
     31          1           0        3.110441    0.787137    2.595060
     32          1           0        1.562479   -0.062075    2.587712
     33          1           0        1.609339    1.696785    2.389951
     34          6           0        2.546510   -2.254387    0.413547
     35          1           0        2.509370   -2.197459    1.508301
     36          1           0        3.109250   -3.163358    0.154907
     37          1           0        1.521797   -2.395906    0.049880
     38          6           0        4.665181   -0.914742    0.324594
     39          1           0        4.695776   -0.805886    1.415842
     40          1           0        5.210853   -0.069597   -0.112124
     41          1           0        5.226216   -1.826940    0.074611
     42          6           0        3.261215   -1.181035   -1.743884
     43          1           0        3.798336   -2.101905   -2.014611
     44          1           0        3.778767   -0.346898   -2.232933
     45          1           0        2.255272   -1.244433   -2.174024
     46          1           0       -5.000688   -2.174770   -0.382141
     47          1           0       -5.352514   -0.784553    0.772228
 ---------------------------------------------------------------------
                    Distance matrix (angstroms):
                    1          2          3          4          5
     1  H    0.000000
     2  C    1.099579   0.000000
     3  C    2.715532   2.523448   0.000000
     4  C    2.699813   2.532346   2.567075   0.000000
     5  C    3.199455   2.935398   1.518042   1.523542   0.000000
     6  C    2.134501   1.543398   2.976563   1.546946   2.539266
     7  C    2.154606   1.531445   1.538982   2.971659   2.528671
     8  H    3.744158   3.478696   1.095114   3.486210   2.140449
     9  H    3.724960   3.469415   3.478508   1.098424   2.140712
    10  H    2.456617   2.169047   3.967893   2.170676   3.479488
    11  H    2.517475   2.160447   2.176575   3.974476   3.475506
    12  H    2.553505   2.811876   1.098330   2.896885   2.135565
    13  H    3.051741   2.147237   2.175695   3.340614   2.828759
    14  O    4.446687   3.928398   2.508828   2.490747   1.438009
    15  C    4.583867   4.401902   2.598560   2.574446   1.468326
    16  O    2.584185   2.990500   3.037486   1.431218   2.366538
    17  H    2.855047   3.306620   3.906625   1.957086   3.215162
    18  O    3.374140   2.475540   3.529596   2.365496   2.957027
    19  C    4.146637   3.218613   4.794039   3.654058   4.368492
    20  H    4.344687   3.611675   5.427031   3.861651   4.886451
    21  H    5.141327   4.169183   5.395323   4.304524   4.852990
    22  H    4.055952   3.081472   4.907684   4.239618   4.817072
    23  O    2.082903   1.426380   3.784227   3.794392   4.277421
    24  Si   2.868334   2.799300   5.139919   5.096068   5.730367
    25  C    4.560905   4.195881   6.585500   6.344438   7.041747
    26  H    5.336502   5.122749   7.518390   7.270296   8.015458
    27  H    4.762122   4.308412   6.759356   6.133341   6.981811
    28  H    4.996402   4.464957   6.657731   6.704133   7.211170
    29  C    3.624779   3.794293   5.525062   6.224737   6.516546
    30  C    3.041137   3.444926   5.735236   5.059120   6.041654
    31  H    4.045737   4.495600   6.742637   6.133189   7.110558
    32  H    2.569049   3.289161   5.262355   4.638268   5.578955
    33  H    3.383591   3.622809   5.979840   4.843705   6.021122
    34  C    3.215008   3.735462   4.932856   5.886108   6.036497
    35  H    3.190432   3.952323   5.237986   5.829215   6.171033
    36  H    4.211293   4.721693   5.598778   6.826423   6.828157
    37  H    2.571835   3.053437   3.885975   5.103156   5.073728
    38  C    4.929032   5.196283   7.022321   7.548144   7.967664
    39  H    4.958122   5.391828   7.295927   7.550116   8.123424
    40  H    5.562153   5.661737   7.653709   8.059197   8.534389
    41  H    5.627097   5.943960   7.503927   8.300233   8.581555
    42  C    4.381944   4.243920   5.638875   6.755306   6.777014
    43  H    5.144399   5.118483   6.205712   7.572733   7.469636
    44  H    5.074928   4.783941   6.378177   7.308139   7.410837
    45  H    3.959817   3.657178   4.775128   6.099035   5.953188
    46  H    5.146904   5.029272   2.806734   3.527274   2.217839
    47  H    5.124203   5.016925   3.544704   2.770977   2.222345
                    6          7          8          9         10
     6  C    0.000000
     7  C    2.518283   0.000000
     8  H    3.941700   2.181029   0.000000
     9  H    2.157342   3.912433   4.255919   0.000000
    10  H    1.105867   3.471356   4.984035   2.531690   0.000000
    11  H    3.470503   1.095730   2.543860   4.965257   4.303179
    12  H    3.434065   2.170973   1.768969   3.892408   4.246544
    13  H    2.738889   1.095123   2.494404   4.071612   3.746874
    14  O    3.311002   3.317835   2.607855   2.550353   4.276157
    15  C    3.865914   3.873969   2.721699   2.690971   4.708446
    16  O    2.454217   3.610029   4.019059   2.099197   2.657341
    17  H    2.606584   4.240555   4.927940   2.343717   2.387844
    18  O    1.414759   2.955479   4.240165   2.504597   2.068897
    19  C    2.409237   3.908109   5.484400   3.693569   2.541714
    20  H    2.639555   4.610400   6.236628   3.789358   2.289304
    21  H    3.295068   4.610504   5.941409   4.144967   3.510904
    22  H    2.812747   3.733775   5.563271   4.505995   2.980146
    23  O    2.440608   2.431300   4.600461   4.585741   2.680917
    24  Si   3.801224   3.865032   5.979037   5.897736   3.646009
    25  C    4.857186   5.169524   7.349095   6.957120   4.588163
    26  H    5.818366   6.127021   8.296141   7.893719   5.450580
    27  H    4.612708   5.409832   7.570246   6.591407   4.200387
    28  H    5.205926   5.154802   7.290916   7.323922   5.135847
    29  C    5.170305   4.326674   6.175817   7.184948   5.243190
    30  C    4.016588   4.830463   6.736703   5.765131   3.433867
    31  H    5.111118   5.820192   7.722548   6.826915   4.489856
    32  H    3.892672   4.608675   6.284919   5.416357   3.395292
    33  H    3.763113   5.124798   7.020789   5.367773   2.943425
    34  C    5.178182   4.090084   5.563364   6.934262   5.350833
    35  H    5.224723   4.572409   5.990222   6.846170   5.222926
    36  H    6.200021   4.848852   6.083242   7.897567   6.428897
    37  H    4.539450   3.145097   4.476979   6.181699   4.903711
    38  C    6.461488   5.857188   7.694821   8.472456   6.349106
    39  H    6.533051   6.248798   8.066615   8.443658   6.268193
    40  H    6.829916   6.362731   8.319431   8.917389   6.665951
    41  H    7.304876   6.410118   8.078166   9.275484   7.279100
    42  C    5.671331   4.318317   6.061288   7.706785   5.967721
    43  H    6.604412   5.020068   6.514475   8.568683   6.942356
    44  H    6.073852   4.947614   6.799724   8.180582   6.300080
    45  H    5.088476   3.437310   5.105451   7.044844   5.564344
    46  H    4.749729   4.244200   2.554707   3.766376   5.644058
    47  H    4.220708   4.747517   3.792123   2.524460   4.878598
                   11         12         13         14         15
    11  H    0.000000
    12  H    2.479742   0.000000
    13  H    1.768777   3.077652   0.000000
    14  O    4.277369   3.366487   3.137521   0.000000
    15  C    4.729641   3.030820   4.058828   1.434187   0.000000
    16  O    4.392047   2.817704   4.299300   3.614363   3.167161
    17  H    5.008667   3.694236   4.892255   4.355317   4.008178
    18  O    3.950737   4.299803   2.609178   3.090161   4.093034
    19  C    4.727961   5.533286   3.439830   4.433099   5.500276
    20  H    5.423434   6.027157   4.333580   5.096049   5.998444
    21  H    5.449549   6.247750   3.945444   4.589496   5.797055
    22  H    4.344621   5.617463   3.239914   4.995131   6.075534
    23  O    2.654990   4.099199   2.683342   5.082788   5.742295
    24  Si   3.760462   5.184747   4.271609   6.679845   7.193028
    25  C    5.122079   6.828484   5.226299   7.747456   8.496047
    26  H    5.989379   7.665331   6.258180   8.787457   9.475385
    27  H    5.575047   7.082501   5.371774   7.592582   8.394613
    28  H    5.020715   7.013572   5.038979   7.780885   8.649665
    29  C    3.727844   5.369036   4.880424   7.547181   7.927988
    30  C    4.926184   5.546210   5.435035   7.164507   7.411027
    31  H    5.798415   6.484432   6.432070   8.254166   8.470257
    32  H    4.712135   4.898323   5.383855   6.828384   6.874745
    33  H    5.428349   5.904275   5.607950   7.042265   7.345135
    34  C    3.412400   4.503776   4.910792   7.220502   7.339113
    35  H    4.086666   4.667956   5.482541   7.461915   7.437467
    36  H    4.014259   5.104981   5.649989   7.993220   8.058599
    37  H    2.440307   3.467659   4.036950   6.241142   6.340560
    38  C    5.266471   6.786756   6.399841   9.035373   9.379185
    39  H    5.772300   6.958414   6.886708   9.279768   9.514177
    40  H    5.826295   7.542638   6.753112   9.503593   9.979395
    41  H    5.675378   7.197396   6.984465   9.663600   9.950584
    42  C    3.533473   5.675692   4.624217   7.604880   8.153614
    43  H    4.091566   6.140684   5.379739   8.319522   8.784222
    44  H    4.282716   6.537973   5.059013   8.125000   8.812439
    45  H    2.614368   4.939176   3.655979   6.684926   7.290671
    46  H    4.921149   3.110756   4.464050   2.143088   1.090666
    47  H    5.657256   3.843506   4.944243   2.143407   1.090513
                   16         17         18         19         20
    16  O    0.000000
    17  H    0.970314   0.000000
    18  O    3.636463   3.823396   0.000000
    19  C    4.781176   4.762486   1.418774   0.000000
    20  H    4.789330   4.547755   2.086328   1.102063   0.000000
    21  H    5.559553   5.585712   2.019522   1.093847   1.784390
    22  H    5.261809   5.280456   2.094135   1.094209   1.785363
    23  O    4.272024   4.387046   2.954266   3.053470   3.399947
    24  Si   5.217111   5.134000   4.482601   4.326030   4.363665
    25  C    6.705242   6.529340   5.093401   4.398024   4.352311
    26  H    7.498503   7.253959   6.141898   5.427669   5.273337
    27  H    6.586453   6.316458   4.706962   3.804666   3.577325
    28  H    7.221096   7.163508   5.224248   4.488079   4.669076
    29  C    6.172318   6.266182   5.916078   5.964002   6.174701
    30  C    4.767663   4.383364   5.028292   4.973796   4.631331
    31  H    5.751316   5.318429   6.091790   5.933664   5.532194
    32  H    4.082652   3.730046   5.113328   5.349764   5.063244
    33  H    4.656010   4.117050   4.671528   4.479076   3.931111
    34  C    5.574700   5.778026   6.153168   6.533163   6.764787
    35  H    5.284673   5.358899   6.363785   6.770062   6.843987
    36  H    6.476504   6.737482   7.140822   7.542451   7.824832
    37  H    4.873012   5.230323   5.495721   6.062787   6.411100
    38  C    7.370523   7.331766   7.230795   7.117198   7.176509
    39  H    7.205269   7.051614   7.438636   7.347864   7.258430
    40  H    8.016389   7.929603   7.439375   7.118815   7.152311
    41  H    8.070549   8.105411   8.088255   8.054890   8.183926
    42  C    6.952415   7.193668   6.128454   6.134033   6.572167
    43  H    7.680409   7.974258   7.105415   7.189775   7.652824
    44  H    7.628700   7.803672   6.350787   6.115985   6.536330
    45  H    6.437044   6.791871   5.438931   5.580223   6.164260
    46  H    3.932769   4.839945   4.995196   6.400543   6.972856
    47  H    3.202980   3.890905   4.466732   5.825126   6.167717
                   21         22         23         24         25
    21  H    0.000000
    22  H    1.789174   0.000000
    23  O    4.041391   2.476871   0.000000
    24  Si   5.339314   3.645003   1.681239   0.000000
    25  C    5.223292   3.514961   2.812985   1.884962   0.000000
    26  H    6.243578   4.576902   3.782699   2.509617   1.096236
    27  H    4.578415   3.041118   3.030480   2.487101   1.096157
    28  H    5.171849   3.461619   3.040924   2.503186   1.095669
    29  C    6.923430   5.204409   2.982437   1.922228   3.136402
    30  C    6.053116   4.635872   2.931972   1.895353   3.094743
    31  H    6.992127   5.527057   3.870189   2.507885   3.345652
    32  H    6.442203   5.144867   3.221041   2.530262   4.062517
    33  H    5.524657   4.301175   3.165633   2.500144   3.261590
    34  C    7.525310   5.955413   3.501316   2.863989   4.490434
    35  H    7.817625   6.307274   3.858940   3.070971   4.781514
    36  H    8.503875   6.921332   4.503006   3.849578   5.312015
    37  H    7.012199   5.573374   3.149221   3.081861   4.806550
    38  C    8.083450   6.324210   4.292649   2.839013   3.496414
    39  H    8.368005   6.662523   4.607546   3.042763   3.823071
    40  H    8.023550   6.243121   4.546652   3.045451   3.051734
    41  H    9.003423   7.243202   5.142880   3.830719   4.505687
    42  C    6.944301   5.242879   3.361666   2.845005   3.530419
    43  H    7.983562   6.310053   4.385414   3.836512   4.537346
    44  H    6.850196   5.120704   3.660989   3.053519   3.093994
    45  H    6.327509   4.739097   2.957314   3.035453   3.855108
    46  H    6.685236   6.880056   6.370247   7.793745   9.171404
    47  H    6.083703   6.540462   6.357076   7.752806   9.028471
                   26         27         28         29         30
    26  H    0.000000
    27  H    1.769884   0.000000
    28  H    1.771387   1.767487   0.000000
    29  C    3.364363   4.084535   3.364299   0.000000
    30  C    3.341236   3.276162   4.054211   3.133372   0.000000
    31  H    3.223871   3.626485   4.357779   3.334372   1.096656
    32  H    4.367331   4.276730   4.934000   3.387398   1.096264
    33  H    3.586079   3.064661   4.266972   4.085274   1.096737
    34  C    4.779092   5.308831   4.790965   1.544170   3.495242
    35  H    4.978333   5.490988   5.296760   2.204898   3.048570
    36  H    5.489986   6.216782   5.504980   2.184755   4.503053
    37  H    5.308655   5.517109   5.017547   2.205229   3.826620
    38  C    3.212859   4.495659   3.841210   1.544922   3.541396
    39  H    3.436668   4.674728   4.420454   2.206142   3.098843
    40  H    2.535184   4.074961   3.304264   2.205754   3.906712
    41  H    4.200386   5.540557   4.706159   2.184920   4.535184
    42  C    3.878615   4.526158   3.251240   1.543628   4.478973
    43  H    4.741123   5.569615   4.238740   2.186208   5.307763
    44  H    3.356834   4.113161   2.577136   2.201739   4.794807
    45  H    4.454021   4.702632   3.480276   2.199942   4.747696
    46  H   10.140449   9.167926   9.265582   8.303305   8.100109
    47  H    9.988494   8.827162   9.270241   8.630635   7.749369
                   31         32         33         34         35
    31  H    0.000000
    32  H    1.765616   0.000000
    33  H    1.767155   1.770563   0.000000
    34  C    3.785219   3.240608   4.516218   0.000000
    35  H    3.232668   2.573246   4.092982   1.096862   0.000000
    36  H    4.643356   4.234265   5.555731   1.099909   1.767623
    37  H    4.374185   3.448045   4.715264   1.096503   1.772477
    38  C    3.235525   3.933892   4.519286   2.508252   2.773814
    39  H    2.538024   3.426964   4.091252   2.778866   2.593337
    40  H    3.531936   4.538701   4.727725   3.485450   3.801524
    41  H    4.202686   4.780522   5.555109   2.734669   3.094189
    42  C    4.766851   4.785447   5.300862   2.513443   3.489283
    43  H    5.483505   5.508297   6.214654   2.736105   3.752529
    44  H    5.004219   5.313349   5.500374   3.487238   4.362657
    45  H    5.253832   4.955004   5.467894   2.792911   3.812131
    46  H    9.133840   7.507241   8.146526   7.589444   7.744369
    47  H    8.798553   7.185756   7.565809   8.042614   8.021679
                   36         37         38         39         40
    36  H    0.000000
    37  H    1.766358   0.000000
    38  C    2.739706   3.485710   0.000000
    39  H    3.108809   3.803703   1.097091   0.000000
    40  H    3.749586   4.364298   1.096700   1.772599   0.000000
    41  H    2.504797   3.747940   1.099708   1.767150   1.767303
    42  C    2.749201   2.778322   2.514087   3.490354   2.774711
    43  H    2.511639   3.087262   2.762726   3.775324   3.121688
    44  H    3.752663   3.808357   2.765704   3.790136   2.574023
    45  H    3.136155   2.609526   3.487040   4.362972   3.790400
    46  H    8.187602   6.540516   9.773237   9.956305  10.429776
    47  H    8.811427   7.097492  10.028536  10.068904  10.624404
                   41         42         43         44         45
    41  H    0.000000
    42  C    2.754151   0.000000
    43  H    2.545446   1.099906   0.000000
    44  H    3.100063   1.096729   1.768643   0.000000
    45  H    3.771231   1.095884   1.772489   1.769202   0.000000
    46  H   10.243006   8.432135   8.949474   9.156712   7.531622
    47  H   10.652829   8.982446   9.656083   9.623036   8.171309
                   46         47
    46  H    0.000000
    47  H    1.840938   0.000000
 Stoichiometry    C14H28O4Si
 Framework group  C1[X(C14H28O4Si)]
 Deg. of freedom   135
 Full point group                 C1      NOp   1
 Largest Abelian subgroup         C1      NOp   1
 Largest concise Abelian subgroup C1      NOp   1
                         Standard orientation:                         
 ---------------------------------------------------------------------
 Center     Atomic      Atomic             Coordinates (Angstroms)
 Number     Number       Type             X           Y           Z
 ---------------------------------------------------------------------
      1          1           0       -0.229826   -0.695802    0.859694
      2          6           0       -0.450030   -0.065389   -0.013898
      3          6           0       -2.242509   -1.725922   -0.644325
      4          6           0       -2.772034    0.207696    0.958984
      5          6           0       -3.292287   -0.797459   -0.060909
      6          6           0       -1.519936    0.951393    0.437248
      7          6           0       -1.007467   -0.948957   -1.133673
      8          1           0       -2.689978   -2.296680   -1.464862
      9          1           0       -3.558358    0.952102    1.143620
     10          1           0       -1.104631    1.564912    1.258258
     11          1           0       -0.231222   -1.644231   -1.472292
     12          1           0       -1.944557   -2.442685    0.132724
     13          1           0       -1.273866   -0.309342   -1.981741
     14          8           0       -4.250154   -0.261661   -0.990038
     15          6           0       -4.704088   -1.196577   -0.001722
     16          8           0       -2.467786   -0.537955    2.142125
     17          1           0       -2.157614    0.090282    2.813408
     18          8           0       -1.974633    1.793273   -0.604880
     19          6           0       -1.192524    2.946097   -0.873622
     20          1           0       -0.981147    3.506422    0.051526
     21          1           0       -1.793313    3.576250   -1.535786
     22          1           0       -0.243965    2.698916   -1.359863
     23          8           0        0.728040    0.610395   -0.449820
     24         14           0        2.259160    0.590121    0.244317
     25          6           0        3.107262    2.110868   -0.477579
     26          1           0        4.131608    2.224378   -0.103995
     27          1           0        2.553027    3.017765   -0.209397
     28          1           0        3.152315    2.063795   -1.571309
     29          6           0        3.219014   -1.012109   -0.210107
     30          6           0        2.119168    0.762130    2.126650
     31          1           0        3.110441    0.787137    2.595060
     32          1           0        1.562479   -0.062075    2.587712
     33          1           0        1.609339    1.696785    2.389951
     34          6           0        2.546510   -2.254387    0.413547
     35          1           0        2.509370   -2.197459    1.508301
     36          1           0        3.109250   -3.163358    0.154907
     37          1           0        1.521797   -2.395906    0.049880
     38          6           0        4.665181   -0.914742    0.324594
     39          1           0        4.695776   -0.805886    1.415842
     40          1           0        5.210853   -0.069597   -0.112124
     41          1           0        5.226216   -1.826940    0.074611
     42          6           0        3.261215   -1.181035   -1.743884
     43          1           0        3.798336   -2.101905   -2.014611
     44          1           0        3.778767   -0.346898   -2.232933
     45          1           0        2.255272   -1.244433   -2.174024
     46          1           0       -5.000688   -2.174770   -0.382141
     47          1           0       -5.352514   -0.784553    0.772228
 ---------------------------------------------------------------------
 Rotational constants (GHZ):      0.6057354      0.1989846      0.1828418
 Standard basis: 6-31+G(d,p) (6D, 7F)
 There are   505 symmetry adapted basis functions of A   symmetry.
 Integral buffers will be    131072 words long.
 Raffenetti 2 integral format.
 Two-electron integral symmetry is turned on.
   505 basis functions,   828 primitive gaussians,   505 cartesian basis functions
    79 alpha electrons       79 beta electrons
       nuclear repulsion energy      1814.1550498616 Hartrees.
 NAtoms=   47 NActive=   47 NUniq=   47 SFac= 1.00D+00 NAtFMM=   60 NAOKFM=F Big=F
 ------------------------------------------------------------------------------
 Polarizable Continuum Model (PCM)
 =================================
 Model                : PCM.
 Atomic radii         : UFF (Universal Force Field).
 Polarization charges : Total charges.
 Charge compensation  : None.
 Solution method      : Matrix inversion.
 Cavity type          : Scaled VdW (van der Waals Surface) (Alpha=1.100).
 Cavity algorithm     : GePol (No added spheres)
                        Default sphere list used, NSphG=   47.
                        Lebedev-Laikov grids with approx.  5.0 points / Ang**2.
                        Smoothing algorithm: Karplus/York (Gamma=1.0000).
                        Polarization charges: spherical gaussians, with
                                              point-specific exponents (IZeta= 3).
                        Self-potential: point-specific (ISelfS= 7).
                        Self-field    : sphere-specific E.n sum rule (ISelfD= 2).
 Solvent              : Chloroform, Eps=   4.711300 Eps(inf)=   2.090627
 ------------------------------------------------------------------------------
 One-electron integrals computed using PRISM.
 NBasis=   505 RedAO= T  NBF=   505
 NBsUse=   505 1.00D-06 NBFU=   505
 Harris functional with IExCor=  908 diagonalized for initial guess.
 ExpMin= 3.31D-02 ExpMax= 1.61D+04 ExpMxC= 2.43D+03 IAcc=3 IRadAn=         5 AccDes= 0.00D+00
 HarFok:  IExCor=  908 AccDes= 0.00D+00 IRadAn=         5 IDoV= 1
 ScaDFX=  1.000000  1.000000  1.000000  1.000000
 FoFCou: FMM=F IPFlag=           0 FMFlag=      100000 FMFlg1=           0
         NFxFlg=           0 DoJE=T BraDBF=F KetDBF=T FulRan=T
         Omega=  0.000000  0.000000  1.000000  0.000000  0.000000 ICntrl=     500 IOpCl=  0
         NMat0=    1 NMatS0=    1 NMatT0=    0 NMatD0=    1 NMtDS0=    0 NMtDT0=    0
         I1Cent=           4 NGrid=           0.
 Petite list used in FoFCou.
 Initial guess orbital symmetries:
       Occupied  (A) (A) (A) (A) (A) (A) (A) (A) (A) (A) (A) (A)
                 (A) (A) (A) (A) (A) (A) (A) (A) (A) (A) (A) (A)
                 (A) (A) (A) (A) (A) (A) (A) (A) (A) (A) (A) (A)
                 (A) (A) (A) (A) (A) (A) (A) (A) (A) (A) (A) (A)
                 (A) (A) (A) (A) (A) (A) (A) (A) (A) (A) (A) (A)
                 (A) (A) (A) (A) (A) (A) (A) (A) (A) (A) (A) (A)
                 (A) (A) (A) (A) (A) (A) (A)
       Virtual   (A) (A) (A) (A) (A) (A) (A) (A) (A) (A) (A) (A)
                 (A) (A) (A) (A) (A) (A) (A) (A) (A) (A) (A) (A)
                 (A) (A) (A) (A) (A) (A) (A) (A) (A) (A) (A) (A)
                 (A) (A) (A) (A) (A) (A) (A) (A) (A) (A) (A) (A)
                 (A) (A) (A) (A) (A) (A) (A) (A) (A) (A) (A) (A)
                 (A) (A) (A) (A) (A) (A) (A) (A) (A) (A) (A) (A)
                 (A) (A) (A) (A) (A) (A) (A) (A) (A) (A) (A) (A)
                 (A) (A) (A) (A) (A) (A) (A) (A) (A) (A) (A) (A)
                 (A) (A) (A) (A) (A) (A) (A) (A) (A) (A) (A) (A)
                 (A) (A) (A) (A) (A) (A) (A) (A) (A) (A) (A) (A)
                 (A) (A) (A) (A) (A) (A) (A) (A) (A) (A) (A) (A)
                 (A) (A) (A) (A) (A) (A) (A) (A) (A) (A) (A) (A)
                 (A) (A) (A) (A) (A) (A) (A) (A) (A) (A) (A) (A)
                 (A) (A) (A) (A) (A) (A) (A) (A) (A) (A) (A) (A)
                 (A) (A) (A) (A) (A) (A) (A) (A) (A) (A) (A) (A)
                 (A) (A) (A) (A) (A) (A) (A) (A) (A) (A) (A) (A)
                 (A) (A) (A) (A) (A) (A) (A) (A) (A) (A) (A) (A)
                 (A) (A) (A) (A) (A) (A) (A) (A) (A) (A) (A) (A)
                 (A) (A) (A) (A) (A) (A) (A) (A) (A) (A) (A) (A)
                 (A) (A) (A) (A) (A) (A) (A) (A) (A) (A) (A) (A)
                 (A) (A) (A) (A) (A) (A) (A) (A) (A) (A) (A) (A)
                 (A) (A) (A) (A) (A) (A) (A) (A) (A) (A) (A) (A)
                 (A) (A) (A) (A) (A) (A) (A) (A) (A) (A) (A) (A)
                 (A) (A) (A) (A) (A) (A) (A) (A) (A) (A) (A) (A)
                 (A) (A) (A) (A) (A) (A) (A) (A) (A) (A) (A) (A)
                 (A) (A) (A) (A) (A) (A) (A) (A) (A) (A) (A) (A)
                 (A) (A) (A) (A) (A) (A) (A) (A) (A) (A) (A) (A)
                 (A) (A) (A) (A) (A) (A) (A) (A) (A) (A) (A) (A)
                 (A) (A) (A) (A) (A) (A) (A) (A) (A) (A) (A) (A)
                 (A) (A) (A) (A) (A) (A) (A) (A) (A) (A) (A) (A)
                 (A) (A) (A) (A) (A) (A) (A) (A) (A) (A) (A) (A)
                 (A) (A) (A) (A) (A) (A) (A) (A) (A) (A) (A) (A)
                 (A) (A) (A) (A) (A) (A) (A) (A) (A) (A) (A) (A)
                 (A) (A) (A) (A) (A) (A) (A) (A) (A) (A) (A) (A)
                 (A) (A) (A) (A) (A) (A) (A) (A) (A) (A) (A) (A)
                 (A) (A) (A) (A) (A) (A)
 The electronic state of the initial guess is 1-A.
 Requested convergence on RMS density matrix=1.00D-08 within 128 cycles.
 Requested convergence on MAX density matrix=1.00D-06.
 Requested convergence on             energy=1.00D-06.
 No special actions if energy rises.
 Error on total polarization charges =  0.01527
 SCF Done:  E(RmPW1PW91) =  -1140.61889487     A.U. after   14 cycles
             Convg  =    0.1170D-08             -V/T =  2.0080
 Range of M.O.s used for correlation:     1   505
 NBasis=   505 NAE=    79 NBE=    79 NFC=     0 NFV=     0
 NROrb=    505 NOA=    79 NOB=    79 NVA=   426 NVB=   426

 **** Warning!!: The largest alpha MO coefficient is  0.96805073D+02

 NEqPCM:  Using equilibrium solvation (IEInf=0, Eps=   4.7113, EpsInf=   2.0906)
          Differentiating once with respect to magnetic field using GIAOs.
          Electric field/nuclear overlap derivatives assumed to be zero.
 FoFCou: FMM=F IPFlag=           0 FMFlag=    10101102 FMFlg1=           0
         NFxFlg=    40000000 DoJE=F BraDBF=F KetDBF=T FulRan=T
         Omega=  0.000000  0.000000  1.000000  0.000000  0.000000 ICntrl=    6100 IOpCl=  0
         NMat0=    1 NMatS0=    1 NMatT0=    0 NMatD0=    1 NMtDS0=    0 NMtDT0=    0
         I1Cent=           7 NGrid=        3032.
 Symmetry not used in FoFCou.
          There are     3 degrees of freedom in the 1st order CPHF.  IDoFFX=0.
      3 vectors produced by pass  0 Test12= 1.12D-12 3.33D-08 XBig12= 1.90D+02 2.06D+00.
 AX will form     3 AO Fock derivatives at one time.
      3 vectors produced by pass  1 Test12= 1.12D-12 3.33D-08 XBig12= 4.64D-01 1.08D-01.
      3 vectors produced by pass  2 Test12= 1.12D-12 3.33D-08 XBig12= 1.05D-03 4.96D-03.
      3 vectors produced by pass  3 Test12= 1.12D-12 3.33D-08 XBig12= 5.81D-06 4.47D-04.
      3 vectors produced by pass  4 Test12= 1.12D-12 3.33D-08 XBig12= 1.93D-08 2.06D-05.
      3 vectors produced by pass  5 Test12= 1.12D-12 3.33D-08 XBig12= 6.55D-11 1.09D-06.
      3 vectors produced by pass  6 Test12= 1.12D-12 3.33D-08 XBig12= 2.61D-13 5.28D-08.
 Inverted reduced A of dimension    21 with in-core refinement.
 Calculating GIAO nuclear magnetic shielding tensors.
 SCF GIAO Magnetic shielding tensor (ppm):
      1  H    Isotropic =    27.1554   Anisotropy =     8.8111
   XX=    32.7566   YX=     2.2744   ZX=    -1.3407
   XY=     0.3192   YY=    24.0448   ZY=    -2.3467
   XZ=     0.3060   YZ=    -1.8638   ZZ=    24.6647
   Eigenvalues:    22.1863    26.2504    33.0294
      2  C    Isotropic =   121.4650   Anisotropy =    53.7777
   XX=   137.9145   YX=    14.7827   ZX=   -14.0413
   XY=    30.1043   YY=   122.5096   ZY=    -0.9274
   XZ=   -17.4233   YZ=    -0.5729   ZZ=   103.9708
   Eigenvalues:    94.7854   112.2928   157.3168
      3  C    Isotropic =   165.3101   Anisotropy =    23.3743
   XX=   176.6241   YX=    -4.0378   ZX=    -1.8729
   XY=    -2.0464   YY=   163.1448   ZY=    12.4385
   XZ=    -8.8968   YZ=    13.3228   ZZ=   156.1616
   Eigenvalues:   146.1065   168.9310   180.8930
      4  C    Isotropic =   114.9955   Anisotropy =    27.1421
   XX=   111.3637   YX=    -3.9451   ZX=     8.9198
   XY=    -3.4905   YY=   110.8414   ZY=   -17.9214
   XZ=     4.6270   YZ=    -6.3811   ZZ=   122.7813
   Eigenvalues:   103.2423   108.6539   133.0902
      5  C    Isotropic =   138.2780   Anisotropy =    57.4647
   XX=    95.8931   YX=   -19.4672   ZX=    -0.6624
   XY=   -20.2712   YY=   155.8530   ZY=    16.4299
   XZ=     0.6029   YZ=    12.8043   ZZ=   163.0878
   Eigenvalues:    89.6586   148.5875   176.5878
      6  C    Isotropic =   110.7108   Anisotropy =    45.7565
   XX=    95.2728   YX=     3.7605   ZX=    -1.3445
   XY=    -4.0187   YY=   109.2886   ZY=   -22.5365
   XZ=    21.2020   YZ=   -15.7274   ZZ=   127.5709
   Eigenvalues:    90.0685   100.8487   141.2151
      7  C    Isotropic =   167.2995   Anisotropy =    28.1296
   XX=   177.1527   YX=    11.3669   ZX=    -4.9809
   XY=    16.0830   YY=   163.6479   ZY=     6.8964
   XZ=     1.6256   YZ=     9.3278   ZZ=   161.0980
   Eigenvalues:   149.6965   166.1495   186.0526
      8  H    Isotropic =    30.5405   Anisotropy =    10.1691
   XX=    30.7592   YX=     2.9832   ZX=     1.2284
   XY=     2.2131   YY=    31.6944   ZY=     6.1824
   XZ=     0.1333   YZ=     5.4680   ZZ=    29.1679
   Eigenvalues:    24.2684    30.0332    37.3199
      9  H    Isotropic =    28.3221   Anisotropy =     4.7637
   XX=    28.4341   YX=    -2.6799   ZX=    -2.0120
   XY=    -1.4606   YY=    28.8045   ZY=     1.5920
   XZ=    -0.3455   YZ=     0.9590   ZZ=    27.7276
   Eigenvalues:    26.5406    26.9278    31.4979
     10  H    Isotropic =    28.2558   Anisotropy =     2.0066
   XX=    28.4325   YX=    -0.9459   ZX=    -0.0189
   XY=    -0.4719   YY=    27.1782   ZY=    -0.8819
   XZ=     1.4314   YZ=     1.9834   ZZ=    29.1568
   Eigenvalues:    26.6048    28.5691    29.5936
     11  H    Isotropic =    29.7848   Anisotropy =     9.6096
   XX=    34.7284   YX=    -2.0164   ZX=    -1.5341
   XY=    -1.9921   YY=    28.5623   ZY=     3.4500
   XZ=    -2.4041   YZ=     3.2383   ZZ=    26.0637
   Eigenvalues:    23.7204    29.4428    36.1912
     12  H    Isotropic =    29.1959   Anisotropy =     6.9470
   XX=    29.0512   YX=    -0.5158   ZX=    -0.0379
   XY=    -1.8639   YY=    32.5370   ZY=    -3.1060
   XZ=    -0.4092   YZ=    -2.5797   ZZ=    25.9995
   Eigenvalues:    24.8403    28.9202    33.8272
     13  H    Isotropic =    29.0743   Anisotropy =     4.0823
   XX=    28.4749   YX=     0.8817   ZX=     0.6576
   XY=    -0.3079   YY=    27.3501   ZY=    -0.9184
   XZ=     0.1253   YZ=    -1.6436   ZZ=    31.3978
   Eigenvalues:    26.8847    28.5423    31.7958
     14  O    Isotropic =   295.5920   Anisotropy =   138.4969
   XX=   358.6875   YX=   -23.9531   ZX=    18.6022
   XY=    17.5769   YY=   287.8068   ZY=   128.3869
   XZ=   -10.9205   YZ=   114.7702   ZZ=   240.2817
   Eigenvalues:   140.0513   358.8014   387.9232
     15  C    Isotropic =   146.8219   Anisotropy =    44.1419
   XX=   117.5053   YX=   -15.1982   ZX=    -4.1250
   XY=   -15.8067   YY=   162.4742   ZY=    10.6253
   XZ=     1.4468   YZ=    13.3554   ZZ=   160.4863
   Eigenvalues:   112.5638   151.6521   176.2499
     16  O    Isotropic =   289.9140   Anisotropy =    73.2096
   XX=   274.3521   YX=    21.3403   ZX=    25.3557
   XY=    27.4652   YY=   278.0369   ZY=    25.4648
   XZ=    16.6154   YZ=    13.2890   ZZ=   317.3531
   Eigenvalues:   251.6229   279.3988   338.7205
     17  H    Isotropic =    30.5084   Anisotropy =    18.0059
   XX=    24.7143   YX=     4.2275   ZX=     3.5696
   XY=     3.2258   YY=    28.5711   ZY=     5.2583
   XZ=     4.3210   YZ=     6.4641   ZZ=    38.2399
   Eigenvalues:    22.4360    26.5769    42.5124
     18  O    Isotropic =   310.9933   Anisotropy =    46.2816
   XX=   313.9510   YX=     1.6260   ZX=    19.3493
   XY=     2.5816   YY=   298.8251   ZY=    -9.8118
   XZ=    24.4979   YZ=   -21.0065   ZZ=   320.2037
   Eigenvalues:   284.1933   306.9388   341.8477
     19  C    Isotropic =   135.3547   Anisotropy =    84.4924
   XX=   123.4742   YX=    34.2762   ZX=    -7.3878
   XY=    34.1097   YY=   169.2899   ZY=   -15.4410
   XZ=    -6.6759   YZ=   -17.9005   ZZ=   113.3000
   Eigenvalues:   104.6521   109.7290   191.6829
     20  H    Isotropic =    28.3419   Anisotropy =     8.6136
   XX=    27.2833   YX=     1.6635   ZX=     1.1289
   XY=     1.7998   YY=    33.3153   ZY=     3.2011
   XZ=    -0.6097   YZ=     0.2247   ZZ=    24.4272
   Eigenvalues:    24.1072    26.8343    34.0843
     21  H    Isotropic =    27.8249   Anisotropy =    10.8275
   XX=    25.3509   YX=     0.7629   ZX=     0.2087
   XY=    -1.5818   YY=    32.4241   ZY=    -5.5641
   XZ=     1.5246   YZ=    -4.1829   ZZ=    25.6999
   Eigenvalues:    22.9969    25.4347    35.0433
     22  H    Isotropic =    27.1887   Anisotropy =     7.0865
   XX=    29.8758   YX=    -0.4525   ZX=    -2.3839
   XY=     2.0277   YY=    28.5467   ZY=    -4.4723
   XZ=    -1.9001   YZ=    -2.8056   ZZ=    23.1435
   Eigenvalues:    21.0285    28.6246    31.9130
     23  O    Isotropic =   277.5969   Anisotropy =    41.8682
   XX=   274.4316   YX=     7.7530   ZX=     6.1388
   XY=    19.4127   YY=   280.9591   ZY=    21.4676
   XZ=    10.9775   YZ=    14.8390   ZZ=   277.4000
   Eigenvalues:   259.9471   267.3345   305.5090
     24  Si   Isotropic =   378.4358   Anisotropy =    37.8489
   XX=   397.3652   YX=     1.8766   ZX=    18.4316
   XY=     7.5714   YY=   368.8789   ZY=     9.9790
   XZ=     8.1180   YZ=    -1.0506   ZZ=   369.0632
   Eigenvalues:   362.7046   368.9344   403.6684
     25  C    Isotropic =   198.8775   Anisotropy =     7.3999
   XX=   202.8530   YX=     0.1895   ZX=    -0.1287
   XY=     3.2690   YY=   198.2743   ZY=    -5.1692
   XZ=    -0.0834   YZ=    -3.3982   ZZ=   195.5054
   Eigenvalues:   192.3038   200.5180   203.8108
     26  H    Isotropic =    31.6394   Anisotropy =    10.7058
   XX=    37.3565   YX=     2.9119   ZX=     2.3064
   XY=     2.7541   YY=    30.4244   ZY=    -0.0773
   XZ=     2.3549   YZ=    -0.0337   ZZ=    27.1373
   Eigenvalues:    26.4988    29.6428    38.7766
     27  H    Isotropic =    31.5580   Anisotropy =     9.5814
   XX=    30.6173   YX=    -2.6600   ZX=    -1.2583
   XY=    -2.5145   YY=    36.8729   ZY=     0.9832
   XZ=    -1.1745   YZ=     0.7517   ZZ=    27.1838
   Eigenvalues:    26.7963    29.9321    37.9456
     28  H    Isotropic =    31.2682   Anisotropy =     8.8827
   XX=    27.6524   YX=     0.8053   ZX=    -1.8882
   XY=     0.9557   YY=    29.7453   ZY=    -2.0688
   XZ=    -1.7408   YZ=    -1.1876   ZZ=    36.4068
   Eigenvalues:    27.1594    29.4551    37.1900
     29  C    Isotropic =   171.5659   Anisotropy =     7.8688
   XX=   175.6137   YX=     1.2674   ZX=     2.1550
   XY=     1.1240   YY=   170.1239   ZY=     2.2873
   XZ=     2.2906   YZ=     2.3263   ZZ=   168.9599
   Eigenvalues:   167.0245   170.8614   176.8117
     30  C    Isotropic =   201.2403   Anisotropy =     8.1141
   XX=   203.9802   YX=    -3.8451   ZX=     0.4402
   XY=    -5.5181   YY=   198.2737   ZY=     1.0017
   XZ=    -1.2518   YZ=    -0.5836   ZZ=   201.4669
   Eigenvalues:   195.6444   201.4268   206.6497
     31  H    Isotropic =    31.5225   Anisotropy =    10.7749
   XX=    35.2953   YX=    -0.2163   ZX=     4.8842
   XY=    -0.5619   YY=    27.0400   ZY=     1.4398
   XZ=     4.4550   YZ=     1.5545   ZZ=    32.2321
   Eigenvalues:    26.2239    29.6377    38.7058
     32  H    Isotropic =    31.0718   Anisotropy =     7.6830
   XX=    30.2002   YX=     3.0842   ZX=    -2.0111
   XY=     2.7508   YY=    31.1299   ZY=    -2.2325
   XZ=    -2.2167   YZ=    -2.9158   ZZ=    31.8854
   Eigenvalues:    27.7090    29.3126    36.1938
     33  H    Isotropic =    31.6104   Anisotropy =     9.7732
   XX=    30.3537   YX=    -3.6475   ZX=    -0.9599
   XY=    -3.5611   YY=    34.0903   ZY=     3.6167
   XZ=    -1.2411   YZ=     3.8304   ZZ=    30.3872
   Eigenvalues:    27.4353    29.2701    38.1259
     34  C    Isotropic =   170.1775   Anisotropy =    38.0455
   XX=   166.5450   YX=    11.0396   ZX=    -9.0224
   XY=    15.5707   YY=   180.6135   ZY=   -13.7091
   XZ=    -9.7301   YZ=    -9.7514   ZZ=   163.3740
   Eigenvalues:   155.4342   159.5571   195.5412
     35  H    Isotropic =    30.4518   Anisotropy =     7.4393
   XX=    27.3309   YX=    -0.3946   ZX=    -2.1200
   XY=    -0.1295   YY=    30.0150   ZY=    -3.0668
   XZ=    -1.6469   YZ=    -1.6107   ZZ=    34.0096
   Eigenvalues:    26.5822    29.3620    35.4114
     36  H    Isotropic =    30.9093   Anisotropy =     9.4422
   XX=    29.0044   YX=    -1.8026   ZX=    -0.5462
   XY=    -2.6236   YY=    36.6068   ZY=     0.1884
   XZ=    -0.4356   YZ=    -0.4192   ZZ=    27.1167
   Eigenvalues:    26.9431    28.5806    37.2041
     37  H    Isotropic =    30.3784   Anisotropy =     9.4866
   XX=    36.1812   YX=     1.1025   ZX=     1.4967
   XY=     2.2775   YY=    30.0690   ZY=     0.0077
   XZ=     0.7633   YZ=    -0.7443   ZZ=    24.8851
   Eigenvalues:    24.7176    29.7149    36.7028
     38  C    Isotropic =   169.3559   Anisotropy =    40.2568
   XX=   190.7338   YX=     6.3964   ZX=    14.2188
   XY=     2.1319   YY=   157.3800   ZY=     0.4253
   XZ=    12.3851   YZ=     2.1218   ZZ=   159.9539
   Eigenvalues:   154.9573   156.9166   196.1938
     39  H    Isotropic =    30.6952   Anisotropy =     8.7268
   XX=    31.3765   YX=    -1.1279   ZX=     4.4597
   XY=    -1.0932   YY=    26.7426   ZY=     1.3426
   XZ=     2.7304   YZ=     1.2864   ZZ=    33.9666
   Eigenvalues:    25.8127    29.7599    36.5131
     40  H    Isotropic =    30.7040   Anisotropy =     9.1652
   XX=    34.9441   YX=     3.6387   ZX=    -1.1970
   XY=     2.5644   YY=    31.1898   ZY=    -1.3978
   XZ=    -0.0940   YZ=    -0.9753   ZZ=    25.9781
   Eigenvalues:    25.7206    29.5774    36.8141
     41  H    Isotropic =    30.9819   Anisotropy =    10.0024
   XX=    34.6129   YX=    -5.0817   ZX=    -0.0370
   XY=    -3.8991   YY=    31.0097   ZY=     0.7030
   XZ=     0.4822   YZ=     0.2391   ZZ=    27.3233
   Eigenvalues:    27.0389    28.2567    37.6502
     42  C    Isotropic =   170.3886   Anisotropy =    36.8986
   XX=   157.5242   YX=    -0.3362   ZX=    -1.9835
   XY=     0.2831   YY=   158.8091   ZY=     4.8715
   XZ=     1.2142   YZ=    -0.1933   ZZ=   194.8324
   Eigenvalues:   157.5202   158.6578   194.9877
     43  H    Isotropic =    30.9823   Anisotropy =     9.5980
   XX=    29.3864   YX=    -2.9633   ZX=    -2.2049
   XY=    -2.8900   YY=    31.8320   ZY=     3.3668
   XZ=    -2.6693   YZ=     4.2261   ZZ=    31.7286
   Eigenvalues:    27.4321    28.1339    37.3810
     44  H    Isotropic =    30.5362   Anisotropy =     8.7435
   XX=    27.9741   YX=     1.3602   ZX=    -3.4176
   XY=     1.2496   YY=    30.5361   ZY=    -1.8810
   XZ=    -3.8518   YZ=    -3.1600   ZZ=    33.0984
   Eigenvalues:    26.0892    29.1541    36.3652
     45  H    Isotropic =    30.2375   Anisotropy =     7.8946
   XX=    32.9823   YX=    -0.9262   ZX=     2.1359
   XY=    -0.3748   YY=    25.7233   ZY=     1.9262
   XZ=     3.6660   YZ=     1.9887   ZZ=    32.0070
   Eigenvalues:    24.8826    30.3294    35.5006
     46  H    Isotropic =    29.1416   Anisotropy =    10.9350
   XX=    28.3583   YX=     2.4187   ZX=    -1.6775
   XY=     6.4541   YY=    33.5444   ZY=     1.6619
   XZ=     0.6588   YZ=     3.3198   ZZ=    25.5222
   Eigenvalues:    23.8125    27.1807    36.4317
     47  H    Isotropic =    29.0050   Anisotropy =    10.9316
   XX=    31.2378   YX=     1.7553   ZX=    -4.1294
   XY=    -1.9137   YY=    25.9270   ZY=     2.7932
   XZ=    -6.8968   YZ=     1.2557   ZZ=    29.8501
   Eigenvalues:    23.8605    26.8617    36.2927
 End of Minotr Frequency-dependent properties file   721 does not exist.
 End of Minotr Frequency-dependent properties file   722 does not exist.

 **********************************************************************

            Population analysis using the SCF density.

 **********************************************************************

 Orbital symmetries:
       Occupied  (A) (A) (A) (A) (A) (A) (A) (A) (A) (A) (A) (A)
                 (A) (A) (A) (A) (A) (A) (A) (A) (A) (A) (A) (A)
                 (A) (A) (A) (A) (A) (A) (A) (A) (A) (A) (A) (A)
                 (A) (A) (A) (A) (A) (A) (A) (A) (A) (A) (A) (A)
                 (A) (A) (A) (A) (A) (A) (A) (A) (A) (A) (A) (A)
                 (A) (A) (A) (A) (A) (A) (A) (A) (A) (A) (A) (A)
                 (A) (A) (A) (A) (A) (A) (A)
       Virtual   (A) (A) (A) (A) (A) (A) (A) (A) (A) (A) (A) (A)
                 (A) (A) (A) (A) (A) (A) (A) (A) (A) (A) (A) (A)
                 (A) (A) (A) (A) (A) (A) (A) (A) (A) (A) (A) (A)
                 (A) (A) (A) (A) (A) (A) (A) (A) (A) (A) (A) (A)
                 (A) (A) (A) (A) (A) (A) (A) (A) (A) (A) (A) (A)
                 (A) (A) (A) (A) (A) (A) (A) (A) (A) (A) (A) (A)
                 (A) (A) (A) (A) (A) (A) (A) (A) (A) (A) (A) (A)
                 (A) (A) (A) (A) (A) (A) (A) (A) (A) (A) (A) (A)
                 (A) (A) (A) (A) (A) (A) (A) (A) (A) (A) (A) (A)
                 (A) (A) (A) (A) (A) (A) (A) (A) (A) (A) (A) (A)
                 (A) (A) (A) (A) (A) (A) (A) (A) (A) (A) (A) (A)
                 (A) (A) (A) (A) (A) (A) (A) (A) (A) (A) (A) (A)
                 (A) (A) (A) (A) (A) (A) (A) (A) (A) (A) (A) (A)
                 (A) (A) (A) (A) (A) (A) (A) (A) (A) (A) (A) (A)
                 (A) (A) (A) (A) (A) (A) (A) (A) (A) (A) (A) (A)
                 (A) (A) (A) (A) (A) (A) (A) (A) (A) (A) (A) (A)
                 (A) (A) (A) (A) (A) (A) (A) (A) (A) (A) (A) (A)
                 (A) (A) (A) (A) (A) (A) (A) (A) (A) (A) (A) (A)
                 (A) (A) (A) (A) (A) (A) (A) (A) (A) (A) (A) (A)
                 (A) (A) (A) (A) (A) (A) (A) (A) (A) (A) (A) (A)
                 (A) (A) (A) (A) (A) (A) (A) (A) (A) (A) (A) (A)
                 (A) (A) (A) (A) (A) (A) (A) (A) (A) (A) (A) (A)
                 (A) (A) (A) (A) (A) (A) (A) (A) (A) (A) (A) (A)
                 (A) (A) (A) (A) (A) (A) (A) (A) (A) (A) (A) (A)
                 (A) (A) (A) (A) (A) (A) (A) (A) (A) (A) (A) (A)
                 (A) (A) (A) (A) (A) (A) (A) (A) (A) (A) (A) (A)
                 (A) (A) (A) (A) (A) (A) (A) (A) (A) (A) (A) (A)
                 (A) (A) (A) (A) (A) (A) (A) (A) (A) (A) (A) (A)
                 (A) (A) (A) (A) (A) (A) (A) (A) (A) (A) (A) (A)
                 (A) (A) (A) (A) (A) (A) (A) (A) (A) (A) (A) (A)
                 (A) (A) (A) (A) (A) (A) (A) (A) (A) (A) (A) (A)
                 (A) (A) (A) (A) (A) (A) (A) (A) (A) (A) (A) (A)
                 (A) (A) (A) (A) (A) (A) (A) (A) (A) (A) (A) (A)
                 (A) (A) (A) (A) (A) (A) (A) (A) (A) (A) (A) (A)
                 (A) (A) (A) (A) (A) (A) (A) (A) (A) (A) (A) (A)
                 (A) (A) (A) (A) (A) (A)
 The electronic state is 1-A.
 Alpha  occ. eigenvalues --  -66.30522 -19.26357 -19.26202 -19.25230 -19.23480
 Alpha  occ. eigenvalues --  -10.31359 -10.31105 -10.30490 -10.30442 -10.29818
 Alpha  occ. eigenvalues --  -10.28232 -10.25218 -10.24877 -10.24400 -10.23719
 Alpha  occ. eigenvalues --  -10.23697 -10.23407 -10.22683 -10.22383  -5.33914
 Alpha  occ. eigenvalues --   -3.67823  -3.67557  -3.67503  -1.11018  -1.07519
 Alpha  occ. eigenvalues --   -1.06333  -1.03040  -0.84296  -0.82362  -0.77653
 Alpha  occ. eigenvalues --   -0.75130  -0.72306  -0.70708  -0.70318  -0.69762
 Alpha  occ. eigenvalues --   -0.69616  -0.68322  -0.65051  -0.61781  -0.57297
 Alpha  occ. eigenvalues --   -0.57099  -0.53922  -0.53734  -0.52428  -0.51202
 Alpha  occ. eigenvalues --   -0.49399  -0.47972  -0.47562  -0.46071  -0.45396
 Alpha  occ. eigenvalues --   -0.44803  -0.44666  -0.43647  -0.43015  -0.42160
 Alpha  occ. eigenvalues --   -0.41612  -0.41220  -0.40943  -0.40300  -0.40120
 Alpha  occ. eigenvalues --   -0.39805  -0.39370  -0.39063  -0.38984  -0.38232
 Alpha  occ. eigenvalues --   -0.37359  -0.36599  -0.35590  -0.34407  -0.33834
 Alpha  occ. eigenvalues --   -0.33684  -0.32819  -0.31803  -0.31014  -0.30372
 Alpha  occ. eigenvalues --   -0.29706  -0.28643  -0.27604  -0.25429
 Alpha virt. eigenvalues --   -0.00597   0.00588   0.01196   0.01534   0.02526
 Alpha virt. eigenvalues --    0.02853   0.03111   0.03775   0.04123   0.04508
 Alpha virt. eigenvalues --    0.04746   0.04970   0.05527   0.06400   0.06496
 Alpha virt. eigenvalues --    0.06826   0.07010   0.07531   0.07805   0.07847
 Alpha virt. eigenvalues --    0.08077   0.08826   0.09327   0.09606   0.09813
 Alpha virt. eigenvalues --    0.10116   0.10356   0.10452   0.10895   0.11128
 Alpha virt. eigenvalues --    0.11821   0.12229   0.12423   0.12648   0.12965
 Alpha virt. eigenvalues --    0.13009   0.13590   0.13831   0.14312   0.14477
 Alpha virt. eigenvalues --    0.14762   0.15464   0.15602   0.16136   0.16305
 Alpha virt. eigenvalues --    0.16626   0.16940   0.17115   0.17833   0.18276
 Alpha virt. eigenvalues --    0.18569   0.18863   0.19134   0.19380   0.19834
 Alpha virt. eigenvalues --    0.20337   0.20418   0.20589   0.20792   0.21439
 Alpha virt. eigenvalues --    0.21537   0.21739   0.22114   0.22389   0.22968
 Alpha virt. eigenvalues --    0.23326   0.23838   0.24050   0.24231   0.24273
 Alpha virt. eigenvalues --    0.24756   0.25109   0.25406   0.25744   0.26014
 Alpha virt. eigenvalues --    0.26573   0.26634   0.27275   0.27583   0.27754
 Alpha virt. eigenvalues --    0.28310   0.28651   0.29156   0.29476   0.29938
 Alpha virt. eigenvalues --    0.30129   0.30167   0.30433   0.31018   0.31794
 Alpha virt. eigenvalues --    0.32211   0.32353   0.32724   0.33025   0.33544
 Alpha virt. eigenvalues --    0.34111   0.34640   0.35374   0.35552   0.35893
 Alpha virt. eigenvalues --    0.36148   0.36989   0.37542   0.38515   0.39047
 Alpha virt. eigenvalues --    0.39060   0.39467   0.39713   0.40337   0.41111
 Alpha virt. eigenvalues --    0.42080   0.42286   0.43358   0.43389   0.44036
 Alpha virt. eigenvalues --    0.44726   0.45738   0.46713   0.47535   0.48443
 Alpha virt. eigenvalues --    0.49467   0.50999   0.52643   0.53077   0.54266
 Alpha virt. eigenvalues --    0.54945   0.58486   0.62199   0.65722   0.66345
 Alpha virt. eigenvalues --    0.68057   0.68682   0.69513   0.69909   0.71197
 Alpha virt. eigenvalues --    0.72029   0.73356   0.73616   0.74554   0.75240
 Alpha virt. eigenvalues --    0.76345   0.77090   0.77723   0.78269   0.79033
 Alpha virt. eigenvalues --    0.79715   0.80032   0.80677   0.81180   0.81804
 Alpha virt. eigenvalues --    0.82708   0.83675   0.84149   0.84771   0.85461
 Alpha virt. eigenvalues --    0.85709   0.87033   0.87440   0.87949   0.89877
 Alpha virt. eigenvalues --    0.90946   0.91923   0.92526   0.93003   0.93499
 Alpha virt. eigenvalues --    0.94870   0.95399   0.95715   0.98035   0.98419
 Alpha virt. eigenvalues --    0.98776   0.99005   0.99707   1.00466   1.01075
 Alpha virt. eigenvalues --    1.03110   1.03588   1.04071   1.04738   1.05266
 Alpha virt. eigenvalues --    1.05972   1.06645   1.06798   1.07350   1.07859
 Alpha virt. eigenvalues --    1.08849   1.09167   1.10361   1.11054   1.11633
 Alpha virt. eigenvalues --    1.12588   1.12664   1.14521   1.15619   1.16865
 Alpha virt. eigenvalues --    1.18606   1.18983   1.20274   1.20952   1.21267
 Alpha virt. eigenvalues --    1.23043   1.23466   1.24792   1.25282   1.26892
 Alpha virt. eigenvalues --    1.28033   1.28671   1.29832   1.31071   1.32777
 Alpha virt. eigenvalues --    1.33050   1.34534   1.35358   1.36434   1.37116
 Alpha virt. eigenvalues --    1.37849   1.39322   1.40422   1.42514   1.45165
 Alpha virt. eigenvalues --    1.46724   1.47511   1.47755   1.48604   1.49513
 Alpha virt. eigenvalues --    1.49867   1.51056   1.52622   1.54091   1.54539
 Alpha virt. eigenvalues --    1.56248   1.59068   1.60897   1.62588   1.63197
 Alpha virt. eigenvalues --    1.63667   1.64489   1.65680   1.67073   1.67283
 Alpha virt. eigenvalues --    1.70091   1.71099   1.71949   1.74625   1.75121
 Alpha virt. eigenvalues --    1.77955   1.78507   1.79760   1.80177   1.82142
 Alpha virt. eigenvalues --    1.82948   1.83810   1.85756   1.86545   1.86914
 Alpha virt. eigenvalues --    1.89935   1.90454   1.91123   1.91272   1.92507
 Alpha virt. eigenvalues --    1.93265   1.94690   1.95198   1.95758   1.97110
 Alpha virt. eigenvalues --    1.97538   1.98608   1.99514   2.01235   2.01824
 Alpha virt. eigenvalues --    2.03386   2.04692   2.05885   2.06238   2.06444
 Alpha virt. eigenvalues --    2.07204   2.07521   2.08394   2.08617   2.09833
 Alpha virt. eigenvalues --    2.10203   2.10914   2.11130   2.11422   2.12293
 Alpha virt. eigenvalues --    2.13353   2.14360   2.14819   2.15555   2.16091
 Alpha virt. eigenvalues --    2.16164   2.16746   2.17420   2.17687   2.18519
 Alpha virt. eigenvalues --    2.19033   2.19239   2.19705   2.21172   2.21691
 Alpha virt. eigenvalues --    2.21709   2.23483   2.24178   2.25325   2.27030
 Alpha virt. eigenvalues --    2.28362   2.29663   2.30675   2.32158   2.35298
 Alpha virt. eigenvalues --    2.36096   2.37158   2.37705   2.38690   2.39010
 Alpha virt. eigenvalues --    2.39614   2.41328   2.41887   2.42991   2.43458
 Alpha virt. eigenvalues --    2.44207   2.44796   2.47743   2.50139   2.51022
 Alpha virt. eigenvalues --    2.55191   2.56264   2.56841   2.57904   2.58488
 Alpha virt. eigenvalues --    2.59620   2.60555   2.62242   2.62971   2.66866
 Alpha virt. eigenvalues --    2.67604   2.68031   2.68755   2.69295   2.69849
 Alpha virt. eigenvalues --    2.72398   2.72836   2.72914   2.74495   2.75864
 Alpha virt. eigenvalues --    2.76036   2.77251   2.78095   2.78647   2.79138
 Alpha virt. eigenvalues --    2.81706   2.82485   2.83591   2.83986   2.85323
 Alpha virt. eigenvalues --    2.85588   2.86451   2.86695   2.87988   2.88250
 Alpha virt. eigenvalues --    2.88655   2.89054   2.89966   2.90759   2.90909
 Alpha virt. eigenvalues --    2.92543   2.94059   2.94689   2.97632   2.97969
 Alpha virt. eigenvalues --    2.98561   2.98890   3.00702   3.03010   3.05872
 Alpha virt. eigenvalues --    3.09063   3.12881   3.18612   3.25819   3.27314
 Alpha virt. eigenvalues --    3.27695   3.28057   3.30499   3.30918   3.31673
 Alpha virt. eigenvalues --    3.32202   3.36290   3.39589   3.39800   3.47194
 Alpha virt. eigenvalues --    3.47766   3.48252   3.48644   3.48874   3.49046
 Alpha virt. eigenvalues --    3.49836   3.50352   3.50585   3.50928   3.51116
 Alpha virt. eigenvalues --    3.52104   3.52372   3.55113   3.56096   3.56904
 Alpha virt. eigenvalues --    3.57301   3.60334   3.63813   4.36588   4.44463
 Alpha virt. eigenvalues --    4.46470   4.48962   4.54122   4.55325   4.57424
 Alpha virt. eigenvalues --    4.59746   4.63436   4.64517   4.66117   4.69463
 Alpha virt. eigenvalues --    4.71569   4.74178   4.76985   4.86247   4.96645
 Alpha virt. eigenvalues --    5.05481
          Condensed to atoms (all electrons):
              1          2          3          4          5          6
     1  H    0.595151   0.241891  -0.016801  -0.025057   0.025446   0.080369
     2  C    0.241891  12.812631   0.220633   0.302785   0.325830  -4.254901
     3  C   -0.016801   0.220633   9.036073  -3.156361  -0.007308   0.712971
     4  C   -0.025057   0.302785  -3.156361  14.635067  -4.031922  -4.069284
     5  C    0.025446   0.325830  -0.007308  -4.031922  13.473119   1.006563
     6  C    0.080369  -4.254901   0.712971  -4.069284   1.006563  13.374919
     7  C   -0.043482  -1.426226  -0.446306   1.051859  -0.517998  -1.284483
     8  H   -0.000030   0.049357   0.369413   0.035718  -0.023508   0.000665
     9  H   -0.000156   0.093505   0.042270   0.087429   0.112833   0.084152
    10  H   -0.002132   0.061295  -0.031999   0.083007  -0.009700   0.194107
    11  H   -0.004889  -0.011415   0.007784   0.000670   0.025765   0.020878
    12  H    0.002930  -0.030554   0.351477   0.056620  -0.086061   0.006680
    13  H    0.004863  -0.123815  -0.072134   0.005920   0.010802  -0.006112
    14  O   -0.000172  -0.028941  -0.130845  -0.132587   0.242546   0.039948
    15  C   -0.002223  -0.396276  -0.496136   1.408956  -4.265567  -0.887471
    16  O    0.001035  -0.023332   0.019103  -0.028047  -0.142031   0.148625
    17  H   -0.000231  -0.014056   0.009987   0.076509  -0.006907  -0.057621
    18  O    0.011514  -0.263804  -0.055420  -0.130738   0.059319   0.448577
    19  C    0.004889  -0.316933  -0.052863   0.040823  -0.051286   0.059480
    20  H    0.000029   0.015395  -0.004477   0.022535  -0.008814  -0.045034
    21  H    0.000009  -0.015319   0.001971  -0.008177  -0.002134   0.032776
    22  H   -0.000167   0.035571   0.006255  -0.011469   0.007812  -0.019270
    23  O   -0.064822   0.124956   0.001280   0.113984  -0.018537  -0.026828
    24  Si   0.068978  -1.161195   0.093284  -0.355725  -0.025168   0.751392
    25  C   -0.000844  -0.012272   0.001788  -0.006569   0.005678   0.010458
    26  H    0.000002   0.007030   0.000013   0.000079  -0.000002  -0.001599
    27  H   -0.000003  -0.018006   0.000092   0.000188  -0.000113   0.007956
    28  H   -0.000002  -0.004930   0.000050   0.000225  -0.000025   0.000459
    29  C   -0.031573   0.076098   0.003742  -0.024774  -0.012132   0.046538
    30  C   -0.000924   0.050762  -0.004376   0.063711   0.008112  -0.070899
    31  H   -0.000011   0.008051  -0.000175   0.000681  -0.000077  -0.001826
    32  H    0.001037  -0.013158  -0.000585  -0.006308   0.002361   0.017045
    33  H   -0.000108  -0.019654  -0.000196  -0.000353   0.000352   0.014561
    34  C    0.003474   0.053545  -0.008070   0.027539   0.009150  -0.081500
    35  H   -0.000003  -0.001223  -0.000353  -0.000515   0.000038   0.001595
    36  H    0.000041   0.000709  -0.000443   0.000144   0.000155   0.000577
    37  H    0.000206   0.013547   0.002535   0.000351  -0.000098  -0.005676
    38  C   -0.001137  -0.027847   0.011977  -0.012123  -0.002984   0.038595
    39  H    0.000000  -0.000920   0.000060   0.000038  -0.000037  -0.000173
    40  H    0.000000   0.000852   0.000019  -0.000017   0.000005  -0.000089
    41  H    0.000001  -0.000552  -0.000017   0.000005   0.000002   0.000255
    42  C    0.000285   0.044315  -0.006644   0.028178  -0.003933  -0.058646
    43  H    0.000002   0.003737   0.000132  -0.000037   0.000034   0.001088
    44  H   -0.000001  -0.000174   0.000113  -0.000065   0.000116  -0.000242
    45  H    0.000010  -0.010401  -0.000089   0.000567  -0.001119  -0.005089
    46  H    0.000000   0.001126   0.077629  -0.035466  -0.147367  -0.007056
    47  H   -0.000001  -0.001487  -0.027713   0.111045  -0.128220   0.009227
              7          8          9         10         11         12
     1  H   -0.043482  -0.000030  -0.000156  -0.002132  -0.004889   0.002930
     2  C   -1.426226   0.049357   0.093505   0.061295  -0.011415  -0.030554
     3  C   -0.446306   0.369413   0.042270  -0.031999   0.007784   0.351477
     4  C    1.051859   0.035718   0.087429   0.083007   0.000670   0.056620
     5  C   -0.517998  -0.023508   0.112833  -0.009700   0.025765  -0.086061
     6  C   -1.284483   0.000665   0.084152   0.194107   0.020878   0.006680
     7  C    8.105183  -0.023213  -0.024770   0.009395   0.280013  -0.012234
     8  H   -0.023213   0.524859  -0.000098   0.000012  -0.002283  -0.021877
     9  H   -0.024770  -0.000098   0.575551  -0.006798   0.000014  -0.000085
    10  H    0.009395   0.000012  -0.006798   0.610090  -0.000142  -0.000009
    11  H    0.280013  -0.002283   0.000014  -0.000142   0.547956  -0.004276
    12  H   -0.012234  -0.021877  -0.000085  -0.000009  -0.004276   0.522486
    13  H    0.481545  -0.003366  -0.000089   0.000042  -0.025789   0.004192
    14  O    0.037160   0.000534   0.001857  -0.000451  -0.000031   0.010728
    15  C    0.049921  -0.078969  -0.085594   0.000872   0.004933   0.009069
    16  O   -0.028137   0.000509  -0.030102  -0.019430   0.000371   0.001462
    17  H    0.020265   0.000008  -0.006026   0.006010  -0.000005   0.000047
    18  O    0.029723   0.000810  -0.003524  -0.050400  -0.001477   0.000742
    19  C    0.073813  -0.000112  -0.005129   0.011717  -0.002252   0.000693
    20  H   -0.007833   0.000000  -0.000094   0.010995   0.000001   0.000000
    21  H   -0.000484   0.000000  -0.000016   0.000049  -0.000001   0.000000
    22  H    0.010641   0.000000   0.000009  -0.001701  -0.000005   0.000000
    23  O   -0.072550  -0.000698  -0.001124  -0.000040   0.000421   0.000003
    24  Si  -0.035331  -0.001399   0.004179   0.006783  -0.008090   0.000190
    25  C    0.003017  -0.000018  -0.000002  -0.002387   0.000318  -0.000016
    26  H   -0.000827   0.000000   0.000000   0.000000   0.000000   0.000000
    27  H    0.001578   0.000000   0.000000  -0.000008   0.000000   0.000000
    28  H    0.002071   0.000000   0.000000   0.000000   0.000001   0.000000
    29  C   -0.102343   0.000572   0.000301   0.001600   0.013199  -0.001309
    30  C   -0.009178   0.000028  -0.000844  -0.001578   0.000037   0.000128
    31  H   -0.001664   0.000000   0.000000   0.000019   0.000000   0.000000
    32  H    0.000598   0.000000   0.000000   0.000080   0.000003   0.000000
    33  H    0.001699   0.000000   0.000000   0.000128   0.000000   0.000000
    34  C    0.060283  -0.000462  -0.000096  -0.000610  -0.000359   0.000678
    35  H    0.001009   0.000000   0.000000   0.000000  -0.000006  -0.000002
    36  H    0.003085   0.000000   0.000000   0.000000  -0.000017   0.000000
    37  H   -0.016337  -0.000002   0.000000   0.000000   0.002169   0.000156
    38  C   -0.061509   0.000005   0.000017  -0.000057   0.002101  -0.000001
    39  H   -0.000180   0.000000   0.000000   0.000000   0.000000   0.000000
    40  H   -0.000154   0.000000   0.000000   0.000000   0.000000   0.000000
    41  H    0.000035   0.000000   0.000000   0.000000   0.000000   0.000000
    42  C    0.065215   0.000084  -0.000049   0.000088  -0.007442   0.000124
    43  H   -0.001076   0.000000   0.000000   0.000000   0.000001   0.000000
    44  H    0.001492   0.000000   0.000000   0.000000   0.000002   0.000000
    45  H    0.002684   0.000000   0.000000   0.000000   0.001290   0.000003
    46  H    0.000792   0.000284   0.000056   0.000001  -0.000001  -0.000361
    47  H   -0.001601   0.000045   0.001013   0.000000   0.000001   0.000278
             13         14         15         16         17         18
     1  H    0.004863  -0.000172  -0.002223   0.001035  -0.000231   0.011514
     2  C   -0.123815  -0.028941  -0.396276  -0.023332  -0.014056  -0.263804
     3  C   -0.072134  -0.130845  -0.496136   0.019103   0.009987  -0.055420
     4  C    0.005920  -0.132587   1.408956  -0.028047   0.076509  -0.130738
     5  C    0.010802   0.242546  -4.265567  -0.142031  -0.006907   0.059319
     6  C   -0.006112   0.039948  -0.887471   0.148625  -0.057621   0.448577
     7  C    0.481545   0.037160   0.049921  -0.028137   0.020265   0.029723
     8  H   -0.003366   0.000534  -0.078969   0.000509   0.000008   0.000810
     9  H   -0.000089   0.001857  -0.085594  -0.030102  -0.006026  -0.003524
    10  H    0.000042  -0.000451   0.000872  -0.019430   0.006010  -0.050400
    11  H   -0.025789  -0.000031   0.004933   0.000371  -0.000005  -0.001477
    12  H    0.004192   0.010728   0.009069   0.001462   0.000047   0.000742
    13  H    0.503019   0.003109   0.003132   0.000259   0.000002   0.011729
    14  O    0.003109   8.231050   0.120265   0.012634  -0.000356  -0.011507
    15  C    0.003132   0.120265   9.826352   0.102395  -0.015143  -0.009207
    16  O    0.000259   0.012634   0.102395   8.205178   0.220305   0.014601
    17  H    0.000002  -0.000356  -0.015143   0.220305   0.389227   0.001660
    18  O    0.011729  -0.011507  -0.009207   0.014601   0.001660   8.299466
    19  C    0.007325  -0.001954  -0.035397   0.001090   0.002035   0.026054
    20  H   -0.000009  -0.000084  -0.000176  -0.000354   0.000003  -0.049478
    21  H    0.000024  -0.000119  -0.002465   0.000045   0.000000  -0.081278
    22  H   -0.000032  -0.000044   0.000490   0.000076   0.000000  -0.048949
    23  O    0.002298  -0.000114   0.003956  -0.004199  -0.000106   0.025994
    24  Si   0.003505  -0.000040  -0.076581   0.023250  -0.000835  -0.006520
    25  C   -0.000033   0.000017   0.001572   0.000218  -0.000072   0.002382
    26  H    0.000000   0.000000   0.000000   0.000000   0.000000   0.000001
    27  H    0.000000   0.000000  -0.000007  -0.000001   0.000000  -0.000037
    28  H   -0.000001   0.000000   0.000001  -0.000001   0.000000  -0.000070
    29  C   -0.005788  -0.000173  -0.008981   0.004105  -0.000174  -0.006208
    30  C    0.000036   0.000016   0.007462  -0.008449  -0.000568   0.003969
    31  H    0.000000   0.000000   0.000005  -0.000017   0.000001  -0.000004
    32  H    0.000000  -0.000001   0.000143   0.000829  -0.000059   0.000070
    33  H    0.000000   0.000000  -0.000028   0.000127  -0.000018  -0.000005
    34  C    0.001575   0.000075   0.007903  -0.002874   0.000116   0.002665
    35  H    0.000000   0.000000  -0.000056  -0.000023   0.000000  -0.000001
    36  H    0.000000   0.000000   0.000008   0.000002   0.000000   0.000000
    37  H    0.000047   0.000004   0.000324  -0.000003   0.000000   0.000037
    38  C   -0.000155   0.000013  -0.000612   0.000807  -0.000049   0.000217
    39  H    0.000000   0.000000  -0.000001   0.000000   0.000000   0.000000
    40  H    0.000000   0.000000   0.000000   0.000000   0.000000   0.000000
    41  H    0.000000   0.000000   0.000000   0.000000   0.000000   0.000000
    42  C    0.000861   0.000108   0.002179  -0.001290   0.000050  -0.000234
    43  H    0.000000   0.000000  -0.000001   0.000000   0.000000   0.000000
    44  H    0.000000   0.000000   0.000005   0.000000   0.000000   0.000000
    45  H    0.000064   0.000001  -0.000084  -0.000001   0.000000   0.000019
    46  H   -0.000016  -0.038587   0.485268  -0.000029  -0.000008  -0.000222
    47  H    0.000004  -0.031423   0.403540   0.001427   0.000010   0.000411
             19         20         21         22         23         24
     1  H    0.004889   0.000029   0.000009  -0.000167  -0.064822   0.068978
     2  C   -0.316933   0.015395  -0.015319   0.035571   0.124956  -1.161195
     3  C   -0.052863  -0.004477   0.001971   0.006255   0.001280   0.093284
     4  C    0.040823   0.022535  -0.008177  -0.011469   0.113984  -0.355725
     5  C   -0.051286  -0.008814  -0.002134   0.007812  -0.018537  -0.025168
     6  C    0.059480  -0.045034   0.032776  -0.019270  -0.026828   0.751392
     7  C    0.073813  -0.007833  -0.000484   0.010641  -0.072550  -0.035331
     8  H   -0.000112   0.000000   0.000000   0.000000  -0.000698  -0.001399
     9  H   -0.005129  -0.000094  -0.000016   0.000009  -0.001124   0.004179
    10  H    0.011717   0.010995   0.000049  -0.001701  -0.000040   0.006783
    11  H   -0.002252   0.000001  -0.000001  -0.000005   0.000421  -0.008090
    12  H    0.000693   0.000000   0.000000   0.000000   0.000003   0.000190
    13  H    0.007325  -0.000009   0.000024  -0.000032   0.002298   0.003505
    14  O   -0.001954  -0.000084  -0.000119  -0.000044  -0.000114  -0.000040
    15  C   -0.035397  -0.000176  -0.002465   0.000490   0.003956  -0.076581
    16  O    0.001090  -0.000354   0.000045   0.000076  -0.004199   0.023250
    17  H    0.002035   0.000003   0.000000   0.000000  -0.000106  -0.000835
    18  O    0.026054  -0.049478  -0.081278  -0.048949   0.025994  -0.006520
    19  C    5.130488   0.414994   0.435556   0.396932  -0.002653   0.034423
    20  H    0.414994   0.579782  -0.026735  -0.042780   0.000679   0.008242
    21  H    0.435556  -0.026735   0.534895  -0.031192   0.002494  -0.002352
    22  H    0.396932  -0.042780  -0.031192   0.545365  -0.018518  -0.002514
    23  O   -0.002653   0.000679   0.002494  -0.018518   8.353089  -0.075555
    24  Si   0.034423   0.008242  -0.002352  -0.002514  -0.075555  13.706418
    25  C   -0.002727  -0.001565   0.000258   0.000946  -0.039802   0.257542
    26  H   -0.000267   0.000000   0.000000   0.000000   0.009231  -0.038695
    27  H   -0.000125   0.000009   0.000002   0.000021  -0.002147  -0.010926
    28  H   -0.000210   0.000000   0.000000   0.000023  -0.006341  -0.016125
    29  C   -0.006471  -0.000035  -0.000036   0.000500   0.000372   0.277110
    30  C   -0.007179  -0.001319   0.000393  -0.001452  -0.063137   0.209346
    31  H   -0.000023   0.000001   0.000000   0.000000   0.008645  -0.046318
    32  H    0.000613   0.000000   0.000000   0.000000  -0.005720  -0.022375
    33  H    0.000695   0.000008   0.000000   0.000002  -0.002341  -0.034768
    34  C    0.005007   0.000052  -0.000021  -0.000118  -0.006257  -0.181232
    35  H    0.000020   0.000000   0.000000   0.000000  -0.001476  -0.007764
    36  H    0.000006   0.000000   0.000000   0.000000  -0.000703   0.006497
    37  H    0.000038   0.000000   0.000000   0.000000   0.007987  -0.002354
    38  C    0.000282   0.000049  -0.000005  -0.000149   0.031503  -0.040697
    39  H   -0.000004   0.000000   0.000000   0.000000   0.000633  -0.008731
    40  H   -0.000006   0.000000   0.000000   0.000000   0.000060  -0.008008
    41  H    0.000003   0.000000   0.000000   0.000000  -0.000649   0.015517
    42  C   -0.000539   0.000018  -0.000008  -0.000163   0.004402  -0.194352
    43  H    0.000013   0.000000   0.000000   0.000000  -0.000827   0.007085
    44  H    0.000033   0.000000   0.000000   0.000000  -0.002346  -0.000597
    45  H   -0.000139   0.000000   0.000000  -0.000001   0.010933  -0.013294
    46  H   -0.000086   0.000000   0.000000   0.000000  -0.000008  -0.000072
    47  H    0.000379   0.000000   0.000000   0.000000  -0.000001   0.000041
             25         26         27         28         29         30
     1  H   -0.000844   0.000002  -0.000003  -0.000002  -0.031573  -0.000924
     2  C   -0.012272   0.007030  -0.018006  -0.004930   0.076098   0.050762
     3  C    0.001788   0.000013   0.000092   0.000050   0.003742  -0.004376
     4  C   -0.006569   0.000079   0.000188   0.000225  -0.024774   0.063711
     5  C    0.005678  -0.000002  -0.000113  -0.000025  -0.012132   0.008112
     6  C    0.010458  -0.001599   0.007956   0.000459   0.046538  -0.070899
     7  C    0.003017  -0.000827   0.001578   0.002071  -0.102343  -0.009178
     8  H   -0.000018   0.000000   0.000000   0.000000   0.000572   0.000028
     9  H   -0.000002   0.000000   0.000000   0.000000   0.000301  -0.000844
    10  H   -0.002387   0.000000  -0.000008   0.000000   0.001600  -0.001578
    11  H    0.000318   0.000000   0.000000   0.000001   0.013199   0.000037
    12  H   -0.000016   0.000000   0.000000   0.000000  -0.001309   0.000128
    13  H   -0.000033   0.000000   0.000000  -0.000001  -0.005788   0.000036
    14  O    0.000017   0.000000   0.000000   0.000000  -0.000173   0.000016
    15  C    0.001572   0.000000  -0.000007   0.000001  -0.008981   0.007462
    16  O    0.000218   0.000000  -0.000001  -0.000001   0.004105  -0.008449
    17  H   -0.000072   0.000000   0.000000   0.000000  -0.000174  -0.000568
    18  O    0.002382   0.000001  -0.000037  -0.000070  -0.006208   0.003969
    19  C   -0.002727  -0.000267  -0.000125  -0.000210  -0.006471  -0.007179
    20  H   -0.001565   0.000000   0.000009   0.000000  -0.000035  -0.001319
    21  H    0.000258   0.000000   0.000002   0.000000  -0.000036   0.000393
    22  H    0.000946   0.000000   0.000021   0.000023   0.000500  -0.001452
    23  O   -0.039802   0.009231  -0.002147  -0.006341   0.000372  -0.063137
    24  Si   0.257542  -0.038695  -0.010926  -0.016125   0.277110   0.209346
    25  C    5.471172   0.402049   0.381913   0.395115  -0.158622  -0.003072
    26  H    0.402049   0.491408  -0.021253  -0.021672  -0.022085  -0.005661
    27  H    0.381913  -0.021253   0.491469  -0.022074   0.017993  -0.009946
    28  H    0.395115  -0.021672  -0.022074   0.486269  -0.022784   0.006642
    29  C   -0.158622  -0.022085   0.017993  -0.022784   8.363066  -0.160691
    30  C   -0.003072  -0.005661  -0.009946   0.006642  -0.160691   5.478905
    31  H   -0.004141   0.000109   0.000105   0.000014  -0.018200   0.404483
    32  H    0.007547   0.000011   0.000010  -0.000016  -0.029542   0.398990
    33  H   -0.010839   0.000102   0.000426   0.000003   0.021169   0.393711
    34  C    0.006265   0.001088  -0.001706  -0.002667  -0.480668   0.026380
    35  H   -0.000441   0.000001  -0.000001   0.000000  -0.057992   0.004590
    36  H   -0.001556   0.000000   0.000000   0.000000  -0.159856   0.000807
    37  H   -0.000147   0.000000  -0.000001   0.000002  -0.104791  -0.002240
    38  C    0.059725   0.007218  -0.000654  -0.001447  -0.435203   0.013435
    39  H   -0.001153   0.000000  -0.000007   0.000017  -0.093415   0.003809
    40  H    0.004333   0.000231   0.000002   0.000041  -0.089856  -0.000381
    41  H   -0.000347   0.000028   0.000000  -0.000007  -0.142083   0.000470
    42  C   -0.044232   0.007201  -0.000330   0.018051  -0.330792  -0.005397
    43  H    0.000286   0.000000   0.000000  -0.000006  -0.156754  -0.000991
    44  H    0.002417   0.000053  -0.000001   0.000090  -0.068323  -0.000316
    45  H    0.001029   0.000007  -0.000005   0.000055  -0.075997  -0.000828
    46  H    0.000000   0.000000   0.000000   0.000000  -0.000015   0.000002
    47  H    0.000000   0.000000   0.000000   0.000000   0.000001  -0.000005
             31         32         33         34         35         36
     1  H   -0.000011   0.001037  -0.000108   0.003474  -0.000003   0.000041
     2  C    0.008051  -0.013158  -0.019654   0.053545  -0.001223   0.000709
     3  C   -0.000175  -0.000585  -0.000196  -0.008070  -0.000353  -0.000443
     4  C    0.000681  -0.006308  -0.000353   0.027539  -0.000515   0.000144
     5  C   -0.000077   0.002361   0.000352   0.009150   0.000038   0.000155
     6  C   -0.001826   0.017045   0.014561  -0.081500   0.001595   0.000577
     7  C   -0.001664   0.000598   0.001699   0.060283   0.001009   0.003085
     8  H    0.000000   0.000000   0.000000  -0.000462   0.000000   0.000000
     9  H    0.000000   0.000000   0.000000  -0.000096   0.000000   0.000000
    10  H    0.000019   0.000080   0.000128  -0.000610   0.000000   0.000000
    11  H    0.000000   0.000003   0.000000  -0.000359  -0.000006  -0.000017
    12  H    0.000000   0.000000   0.000000   0.000678  -0.000002   0.000000
    13  H    0.000000   0.000000   0.000000   0.001575   0.000000   0.000000
    14  O    0.000000  -0.000001   0.000000   0.000075   0.000000   0.000000
    15  C    0.000005   0.000143  -0.000028   0.007903  -0.000056   0.000008
    16  O   -0.000017   0.000829   0.000127  -0.002874  -0.000023   0.000002
    17  H    0.000001  -0.000059  -0.000018   0.000116   0.000000   0.000000
    18  O   -0.000004   0.000070  -0.000005   0.002665  -0.000001   0.000000
    19  C   -0.000023   0.000613   0.000695   0.005007   0.000020   0.000006
    20  H    0.000001   0.000000   0.000008   0.000052   0.000000   0.000000
    21  H    0.000000   0.000000   0.000000  -0.000021   0.000000   0.000000
    22  H    0.000000   0.000000   0.000002  -0.000118   0.000000   0.000000
    23  O    0.008645  -0.005720  -0.002341  -0.006257  -0.001476  -0.000703
    24  Si  -0.046318  -0.022375  -0.034768  -0.181232  -0.007764   0.006497
    25  C   -0.004141   0.007547  -0.010839   0.006265  -0.000441  -0.001556
    26  H    0.000109   0.000011   0.000102   0.001088   0.000001   0.000000
    27  H    0.000105   0.000010   0.000426  -0.001706  -0.000001   0.000000
    28  H    0.000014  -0.000016   0.000003  -0.002667   0.000000   0.000000
    29  C   -0.018200  -0.029542   0.021169  -0.480668  -0.057992  -0.159856
    30  C    0.404483   0.398990   0.393711   0.026380   0.004590   0.000807
    31  H    0.487024  -0.022213  -0.020657   0.008367   0.000072   0.000000
    32  H   -0.022213   0.492767  -0.023412   0.016687   0.000013  -0.000002
    33  H   -0.020657  -0.023412   0.497066  -0.001959   0.000011   0.000000
    34  C    0.008367   0.016687  -0.001959   5.993583   0.425094   0.469310
    35  H    0.000072   0.000013   0.000011   0.425094   0.532854  -0.027330
    36  H    0.000000  -0.000002   0.000000   0.469310  -0.027330   0.539613
    37  H    0.000011   0.000009  -0.000006   0.453786  -0.027792  -0.027877
    38  C    0.004657   0.001729  -0.000022  -0.205903  -0.011753  -0.009310
    39  H    0.000456   0.000033  -0.000008  -0.017688   0.002675  -0.000316
    40  H    0.000000   0.000009  -0.000007   0.008872   0.000020   0.000013
    41  H    0.000018  -0.000005   0.000000   0.010036  -0.000348   0.005710
    42  C    0.003032  -0.003639  -0.000853  -0.013481   0.002436   0.029573
    43  H    0.000000   0.000000   0.000000   0.008609   0.000039   0.005494
    44  H    0.000001   0.000000  -0.000001   0.005337  -0.000149   0.000020
    45  H    0.000000   0.000002  -0.000001  -0.008581   0.000010  -0.000298
    46  H    0.000000   0.000000   0.000000   0.000025   0.000000   0.000000
    47  H    0.000000   0.000000   0.000000  -0.000002   0.000000   0.000000
             37         38         39         40         41         42
     1  H    0.000206  -0.001137   0.000000   0.000000   0.000001   0.000285
     2  C    0.013547  -0.027847  -0.000920   0.000852  -0.000552   0.044315
     3  C    0.002535   0.011977   0.000060   0.000019  -0.000017  -0.006644
     4  C    0.000351  -0.012123   0.000038  -0.000017   0.000005   0.028178
     5  C   -0.000098  -0.002984  -0.000037   0.000005   0.000002  -0.003933
     6  C   -0.005676   0.038595  -0.000173  -0.000089   0.000255  -0.058646
     7  C   -0.016337  -0.061509  -0.000180  -0.000154   0.000035   0.065215
     8  H   -0.000002   0.000005   0.000000   0.000000   0.000000   0.000084
     9  H    0.000000   0.000017   0.000000   0.000000   0.000000  -0.000049
    10  H    0.000000  -0.000057   0.000000   0.000000   0.000000   0.000088
    11  H    0.002169   0.002101   0.000000   0.000000   0.000000  -0.007442
    12  H    0.000156  -0.000001   0.000000   0.000000   0.000000   0.000124
    13  H    0.000047  -0.000155   0.000000   0.000000   0.000000   0.000861
    14  O    0.000004   0.000013   0.000000   0.000000   0.000000   0.000108
    15  C    0.000324  -0.000612  -0.000001   0.000000   0.000000   0.002179
    16  O   -0.000003   0.000807   0.000000   0.000000   0.000000  -0.001290
    17  H    0.000000  -0.000049   0.000000   0.000000   0.000000   0.000050
    18  O    0.000037   0.000217   0.000000   0.000000   0.000000  -0.000234
    19  C    0.000038   0.000282  -0.000004  -0.000006   0.000003  -0.000539
    20  H    0.000000   0.000049   0.000000   0.000000   0.000000   0.000018
    21  H    0.000000  -0.000005   0.000000   0.000000   0.000000  -0.000008
    22  H    0.000000  -0.000149   0.000000   0.000000   0.000000  -0.000163
    23  O    0.007987   0.031503   0.000633   0.000060  -0.000649   0.004402
    24  Si  -0.002354  -0.040697  -0.008731  -0.008008   0.015517  -0.194352
    25  C   -0.000147   0.059725  -0.001153   0.004333  -0.000347  -0.044232
    26  H    0.000000   0.007218   0.000000   0.000231   0.000028   0.007201
    27  H   -0.000001  -0.000654  -0.000007   0.000002   0.000000  -0.000330
    28  H    0.000002  -0.001447   0.000017   0.000041  -0.000007   0.018051
    29  C   -0.104791  -0.435203  -0.093415  -0.089856  -0.142083  -0.330792
    30  C   -0.002240   0.013435   0.003809  -0.000381   0.000470  -0.005397
    31  H    0.000011   0.004657   0.000456   0.000000   0.000018   0.003032
    32  H    0.000009   0.001729   0.000033   0.000009  -0.000005  -0.003639
    33  H   -0.000006  -0.000022  -0.000008  -0.000007   0.000000  -0.000853
    34  C    0.453786  -0.205903  -0.017688   0.008872   0.010036  -0.013481
    35  H   -0.027792  -0.011753   0.002675   0.000020  -0.000348   0.002436
    36  H   -0.027877  -0.009310  -0.000316   0.000013   0.005710   0.029573
    37  H    0.539818   0.001971   0.000045  -0.000150   0.000016  -0.003094
    38  C    0.001971   5.992741   0.463409   0.456627   0.444794  -0.190538
    39  H    0.000045   0.463409   0.534250  -0.027233  -0.027848   0.005737
    40  H   -0.000150   0.456627  -0.027233   0.530751  -0.027459  -0.019898
    41  H    0.000016   0.444794  -0.027848  -0.027459   0.538344   0.012532
    42  C   -0.003094  -0.190538   0.005737  -0.019898   0.012532   5.912760
    43  H   -0.000471  -0.001511  -0.000007  -0.000274   0.005172   0.480633
    44  H    0.000042  -0.012813   0.000035   0.002760  -0.000316   0.428017
    45  H    0.002906   0.010322  -0.000146   0.000045   0.000010   0.439562
    46  H    0.000000   0.000000   0.000000   0.000000   0.000000   0.000000
    47  H    0.000000   0.000000   0.000000   0.000000   0.000000   0.000000
             43         44         45         46         47
     1  H    0.000002  -0.000001   0.000010   0.000000  -0.000001
     2  C    0.003737  -0.000174  -0.010401   0.001126  -0.001487
     3  C    0.000132   0.000113  -0.000089   0.077629  -0.027713
     4  C   -0.000037  -0.000065   0.000567  -0.035466   0.111045
     5  C    0.000034   0.000116  -0.001119  -0.147367  -0.128220
     6  C    0.001088  -0.000242  -0.005089  -0.007056   0.009227
     7  C   -0.001076   0.001492   0.002684   0.000792  -0.001601
     8  H    0.000000   0.000000   0.000000   0.000284   0.000045
     9  H    0.000000   0.000000   0.000000   0.000056   0.001013
    10  H    0.000000   0.000000   0.000000   0.000001   0.000000
    11  H    0.000001   0.000002   0.001290  -0.000001   0.000001
    12  H    0.000000   0.000000   0.000003  -0.000361   0.000278
    13  H    0.000000   0.000000   0.000064  -0.000016   0.000004
    14  O    0.000000   0.000000   0.000001  -0.038587  -0.031423
    15  C   -0.000001   0.000005  -0.000084   0.485268   0.403540
    16  O    0.000000   0.000000  -0.000001  -0.000029   0.001427
    17  H    0.000000   0.000000   0.000000  -0.000008   0.000010
    18  O    0.000000   0.000000   0.000019  -0.000222   0.000411
    19  C    0.000013   0.000033  -0.000139  -0.000086   0.000379
    20  H    0.000000   0.000000   0.000000   0.000000   0.000000
    21  H    0.000000   0.000000   0.000000   0.000000   0.000000
    22  H    0.000000   0.000000  -0.000001   0.000000   0.000000
    23  O   -0.000827  -0.002346   0.010933  -0.000008  -0.000001
    24  Si   0.007085  -0.000597  -0.013294  -0.000072   0.000041
    25  C    0.000286   0.002417   0.001029   0.000000   0.000000
    26  H    0.000000   0.000053   0.000007   0.000000   0.000000
    27  H    0.000000  -0.000001  -0.000005   0.000000   0.000000
    28  H   -0.000006   0.000090   0.000055   0.000000   0.000000
    29  C   -0.156754  -0.068323  -0.075997  -0.000015   0.000001
    30  C   -0.000991  -0.000316  -0.000828   0.000002  -0.000005
    31  H    0.000000   0.000001   0.000000   0.000000   0.000000
    32  H    0.000000   0.000000   0.000002   0.000000   0.000000
    33  H    0.000000  -0.000001  -0.000001   0.000000   0.000000
    34  C    0.008609   0.005337  -0.008581   0.000025  -0.000002
    35  H    0.000039  -0.000149   0.000010   0.000000   0.000000
    36  H    0.005494   0.000020  -0.000298   0.000000   0.000000
    37  H   -0.000471   0.000042   0.002906   0.000000   0.000000
    38  C   -0.001511  -0.012813   0.010322   0.000000   0.000000
    39  H   -0.000007   0.000035  -0.000146   0.000000   0.000000
    40  H   -0.000274   0.002760   0.000045   0.000000   0.000000
    41  H    0.005172  -0.000316   0.000010   0.000000   0.000000
    42  C    0.480633   0.428017   0.439562   0.000000   0.000000
    43  H    0.541820  -0.027840  -0.027654   0.000000   0.000000
    44  H   -0.027840   0.531512  -0.025891   0.000000   0.000000
    45  H   -0.027654  -0.025891   0.525848   0.000000   0.000000
    46  H    0.000000   0.000000   0.000000   0.530397  -0.035839
    47  H    0.000000   0.000000   0.000000  -0.035839   0.529889
 Mulliken atomic charges:
              1
     1  H    0.152605
     2  C   -0.366232
     3  C   -0.451341
     4  C   -0.119038
     5  C    0.177011
     6  C   -0.226656
     7  C   -0.175163
     8  H    0.173132
     9  H    0.161411
    10  H    0.131151
    11  H    0.160551
    12  H    0.188099
    13  H    0.192986
    14  O   -0.322638
    15  C   -0.077777
    16  O   -0.470135
    17  H    0.375996
    18  O   -0.220879
    19  C   -0.161045
    20  H    0.135996
    21  H    0.161869
    22  H    0.173883
    23  O   -0.285421
    24  Si   0.903832
    25  C   -0.725185
    26  H    0.186201
    27  H    0.185585
    28  H    0.189248
    29  C   -0.018699
    30  C   -0.716792
    31  H    0.189576
    32  H    0.186451
    33  H    0.185179
    34  C   -0.591245
    35  H    0.166751
    36  H    0.165943
    37  H    0.165029
    38  C   -0.525715
    39  H    0.166669
    40  H    0.168892
    41  H    0.166681
    42  C   -0.599890
    43  H    0.163304
    44  H    0.167028
    45  H    0.174254
    46  H    0.169554
    47  H    0.168983
 Sum of Mulliken atomic charges =   0.00000
 Mulliken charges with hydrogens summed into heavy atoms:
              1
     2  C   -0.213626
     3  C   -0.090111
     4  C    0.042373
     5  C    0.177011
     6  C   -0.095505
     7  C    0.178374
    14  O   -0.322638
    15  C    0.260760
    16  O   -0.094139
    18  O   -0.220879
    19  C    0.310703
    23  O   -0.285421
    24  Si   0.903832
    25  C   -0.164151
    29  C   -0.018699
    30  C   -0.155586
    34  C   -0.093522
    38  C   -0.023473
    42  C   -0.095303
 Sum of Mulliken charges with hydrogens summed into heavy atoms =   0.00000
 Electronic spatial extent (au):  <R**2>=           6540.3579
 Charge=              0.0000 electrons
 Dipole moment (field-independent basis, Debye):
    X=              2.4599    Y=              0.1111    Z=              3.1505  Tot=              3.9987
 Quadrupole moment (field-independent basis, Debye-Ang):
   XX=           -130.4054   YY=           -120.3557   ZZ=           -125.7964
   XY=              4.0193   XZ=             -7.1091   YZ=              5.9762
 Traceless Quadrupole moment (field-independent basis, Debye-Ang):
   XX=             -4.8862   YY=              5.1635   ZZ=             -0.2772
   XY=              4.0193   XZ=             -7.1091   YZ=              5.9762
 Octapole moment (field-independent basis, Debye-Ang**2):
  XXX=            -12.6437  YYY=             18.6528  ZZZ=             15.3258  XYY=            -23.5675
  XXY=            -20.3724  XXZ=             36.5873  XZZ=             -4.9187  YZZ=             15.0613
  YYZ=             -7.1784  XYZ=            -14.5898
 Hexadecapole moment (field-independent basis, Debye-Ang**3):
 XXXX=          -6118.7295 YYYY=          -1622.5326 ZZZZ=           -968.5253 XXXY=            150.9769
 XXXZ=           -152.1933 YYYX=             -3.1019 YYYZ=             -7.4449 ZZZX=            -29.2263
 ZZZY=              5.7057 XXYY=          -1267.8634 XXZZ=          -1241.6803 YYZZ=           -443.1943
 XXYZ=             45.4174 YYXZ=             18.7410 ZZXY=            -26.3579
 N-N= 1.814155049862D+03 E-N=-6.299112253617D+03  KE= 1.131535937191D+03
 1\1\GINC-COMPUTE-8-30\SP\RmPW1PW91\6-31+G(d,p)\C14H28O4Si1\ELUCIANO.IQ
 UIR\06-Dec-2022\0\\# mPW1PW91/6-31+g** scrf=(PCM,solvent=chloroform) n
 mr\\comment\\0,1\H,0,-0.229826,-0.695802,0.859694\C,0,-0.45003,-0.0653
 89,-0.013898\C,0,-2.242509,-1.725922,-0.644325\C,0,-2.772034,0.207696,
 0.958984\C,0,-3.292287,-0.797459,-0.060909\C,0,-1.519936,0.951393,0.43
 7248\C,0,-1.007467,-0.948957,-1.133673\H,0,-2.689978,-2.29668,-1.46486
 2\H,0,-3.558358,0.952102,1.14362\H,0,-1.104631,1.564912,1.258258\H,0,-
 0.231222,-1.644231,-1.472292\H,0,-1.944557,-2.442685,0.132724\H,0,-1.2
 73866,-0.309342,-1.981741\O,0,-4.250154,-0.261661,-0.990038\C,0,-4.704
 088,-1.196577,-0.001722\O,0,-2.467786,-0.537955,2.142125\H,0,-2.157614
 ,0.090282,2.813408\O,0,-1.974633,1.793273,-0.60488\C,0,-1.192524,2.946
 097,-0.873622\H,0,-0.981147,3.506422,0.051526\H,0,-1.793313,3.57625,-1
 .535786\H,0,-0.243965,2.698916,-1.359863\O,0,0.72804,0.610395,-0.44982
 \Si,0,2.25916,0.590121,0.244317\C,0,3.107262,2.110868,-0.477579\H,0,4.
 131608,2.224378,-0.103995\H,0,2.553027,3.017765,-0.209397\H,0,3.152315
 ,2.063795,-1.571309\C,0,3.219014,-1.012109,-0.210107\C,0,2.119168,0.76
 213,2.12665\H,0,3.110441,0.787137,2.59506\H,0,1.562479,-0.062075,2.587
 712\H,0,1.609339,1.696785,2.389951\C,0,2.54651,-2.254387,0.413547\H,0,
 2.50937,-2.197459,1.508301\H,0,3.10925,-3.163358,0.154907\H,0,1.521797
 ,-2.395906,0.04988\C,0,4.665181,-0.914742,0.324594\H,0,4.695776,-0.805
 886,1.415842\H,0,5.210853,-0.069597,-0.112124\H,0,5.226216,-1.82694,0.
 074611\C,0,3.261215,-1.181035,-1.743884\H,0,3.798336,-2.101905,-2.0146
 11\H,0,3.778767,-0.346898,-2.232933\H,0,2.255272,-1.244433,-2.174024\H
 ,0,-5.000688,-2.17477,-0.382141\H,0,-5.352514,-0.784553,0.772228\\Vers
 ion=EM64L-G09RevC.01\State=1-A\HF=-1140.6188949\RMSD=1.170e-09\Dipole=
 0.9677944,0.0436985,1.2395189\Quadrupole=-3.6328031,3.8389031,-0.2061,
 2.9882431,-5.2854342,4.4431298\PG=C01 [X(C14H28O4Si1)]\\@


 A CHEMICAL PHYSICIST MAKES PRECISE MEASUREMENTS ON IMPURE COMPOUNDS.
 A THEORETICAL PHYSICAL CHEMIST MAKES IMPRECISE
     MEASUREMENTS ON PURE COMPOUNDS.
 AN EXPERIMENTAL PHYSICAL CHEMIST MAKES IMPRECISE
     MEASUREMENTS ON IMPURE COMPOUNDS.
 Job cpu time:  0 days  1 hours  6 minutes  1.6 seconds.
 File lengths (MBytes):  RWF=    298 Int=      0 D2E=      0 Chk=     16 Scr=      1
 Normal termination of Gaussian 09 at Tue Dec  6 21:38:26 2022.
