 Entering Gaussian System, Link 0=g09
 Input=/home/eluciano.iquir/todos_optB3L_MPW_B_PCM/02_epoxido28_008_optB3L_nmr_MPW_B_PCM.gjc
 Output=/home/eluciano.iquir/todos_optB3L_MPW_B_PCM/02_epoxido28_008_optB3L_nmr_MPW_B_PCM.log
 Initial command:
 /share/apps/Gaussian09/EM64T.SSE4.2-enabled/g09/l1.exe /tmp/Gau-38997.inp -scrdir=/tmp/
 Entering Link 1 = /share/apps/Gaussian09/EM64T.SSE4.2-enabled/g09/l1.exe PID=     38998.
  
 Copyright (c) 1988,1990,1992,1993,1995,1998,2003,2009,2011,
            Gaussian, Inc.  All Rights Reserved.
  
 This is part of the Gaussian(R) 09 program.  It is based on
 the Gaussian(R) 03 system (copyright 2003, Gaussian, Inc.),
 the Gaussian(R) 98 system (copyright 1998, Gaussian, Inc.),
 the Gaussian(R) 94 system (copyright 1995, Gaussian, Inc.),
 the Gaussian 92(TM) system (copyright 1992, Gaussian, Inc.),
 the Gaussian 90(TM) system (copyright 1990, Gaussian, Inc.),
 the Gaussian 88(TM) system (copyright 1988, Gaussian, Inc.),
 the Gaussian 86(TM) system (copyright 1986, Carnegie Mellon
 University), and the Gaussian 82(TM) system (copyright 1983,
 Carnegie Mellon University). Gaussian is a federally registered
 trademark of Gaussian, Inc.
  
 This software contains proprietary and confidential information,
 including trade secrets, belonging to Gaussian, Inc.
  
 This software is provided under written license and may be
 used, copied, transmitted, or stored only in accord with that
 written license.
  
 The following legend is applicable only to US Government
 contracts under FAR:
  
                    RESTRICTED RIGHTS LEGEND
  
 Use, reproduction and disclosure by the US Government is
 subject to restrictions as set forth in subparagraphs (a)
 and (c) of the Commercial Computer Software - Restricted
 Rights clause in FAR 52.227-19.
  
 Gaussian, Inc.
 340 Quinnipiac St., Bldg. 40, Wallingford CT 06492
  
  
 ---------------------------------------------------------------
 Warning -- This program may not be used in any manner that
 competes with the business of Gaussian, Inc. or will provide
 assistance to any competitor of Gaussian, Inc.  The licensee
 of this program is prohibited from giving any competitor of
 Gaussian, Inc. access to this program.  By using this program,
 the user acknowledges that Gaussian, Inc. is engaged in the
 business of creating and licensing software in the field of
 computational chemistry and represents and warrants to the
 licensee that it is not a competitor of Gaussian, Inc. and that
 it will not use this program in any manner prohibited above.
 ---------------------------------------------------------------
  

 Cite this work as:
 Gaussian 09, Revision C.01,
 M. J. Frisch, G. W. Trucks, H. B. Schlegel, G. E. Scuseria, 
 M. A. Robb, J. R. Cheeseman, G. Scalmani, V. Barone, B. Mennucci, 
 G. A. Petersson, H. Nakatsuji, M. Caricato, X. Li, H. P. Hratchian, 
 A. F. Izmaylov, J. Bloino, G. Zheng, J. L. Sonnenberg, M. Hada, 
 M. Ehara, K. Toyota, R. Fukuda, J. Hasegawa, M. Ishida, T. Nakajima, 
 Y. Honda, O. Kitao, H. Nakai, T. Vreven, J. A. Montgomery, Jr., 
 J. E. Peralta, F. Ogliaro, M. Bearpark, J. J. Heyd, E. Brothers, 
 K. N. Kudin, V. N. Staroverov, T. Keith, R. Kobayashi, J. Normand, 
 K. Raghavachari, A. Rendell, J. C. Burant, S. S. Iyengar, J. Tomasi, 
 M. Cossi, N. Rega, J. M. Millam, M. Klene, J. E. Knox, J. B. Cross, 
 V. Bakken, C. Adamo, J. Jaramillo, R. Gomperts, R. E. Stratmann, 
 O. Yazyev, A. J. Austin, R. Cammi, C. Pomelli, J. W. Ochterski, 
 R. L. Martin, K. Morokuma, V. G. Zakrzewski, G. A. Voth, 
 P. Salvador, J. J. Dannenberg, S. Dapprich, A. D. Daniels, 
 O. Farkas, J. B. Foresman, J. V. Ortiz, J. Cioslowski, 
 and D. J. Fox, Gaussian, Inc., Wallingford CT, 2010.
 
 ******************************************
 Gaussian 09:  EM64L-G09RevC.01 23-Sep-2011
                 6-Dec-2022 
 ******************************************
 %nprocshared=4
 Will use up to    4 processors via shared memory.
 %mem=80MW
 -----------------------------------------------------
 # mPW1PW91/6-31+g** scrf=(PCM,solvent=chloroform) nmr
 -----------------------------------------------------
 1/38=1/1;
 2/12=2,17=6,18=5,40=1/2;
 3/5=1,6=6,7=111,11=2,16=1,25=1,30=1,70=2201,72=7,74=-7/1,2,8,3;
 4//1;
 5/5=2,38=5,53=7/2;
 8/6=1,10=90,11=11/1;
 10/13=100,45=16/2;
 6/7=2,8=2,9=2,10=2,28=1/1;
 99/9=1/99;
 -------
 comment
 -------
 Charge =  0 Multiplicity = 1
 Symbolic Z-Matrix:
 1                    -0.58645  -1.25248   0.6551 
 6                    -0.59202  -0.35254   0.02199 
 6                    -2.63164  -1.2847   -1.13703 
 6                    -2.87434   0.13824   0.98728 
 6                    -3.5054   -0.35519  -0.31304 
 6                    -1.45471   0.69226   0.75825 
 6                    -1.22059  -0.70184  -1.33121 
 1                    -3.1145   -1.46611  -2.10318 
 1                    -3.49405   0.9488    1.39486 
 1                    -1.00287   0.90474   1.73924 
 1                    -0.58252  -1.42032  -1.85741 
 1                    -2.56176  -2.24954  -0.61642 
 1                    -1.26934   0.20888  -1.93737 
 8                    -4.23924   0.63809  -1.04802 
 6                    -4.97539  -0.41273  -0.41472 
 8                    -2.74028  -0.93901   1.91969 
 1                    -3.62401  -1.31315   2.06124 
 8                    -1.62602   1.89014   0.02088 
 6                    -0.62447   2.87885   0.19228 
 1                    -0.43158   3.06999   1.25966 
 1                    -1.01397   3.79349  -0.26431 
 1                     0.31716   2.59944  -0.29088 
 8                     0.73673   0.14295  -0.14793 
 14                    2.13038  -0.71719   0.24439 
 6                     2.17645  -1.05003   2.10668 
 1                     3.06804  -1.62389   2.38775 
 1                     1.303    -1.63322   2.4233 
 1                     2.17848  -0.12131   2.68818 
 6                     3.57877   0.3992   -0.31649 
 6                     2.14414  -2.38261  -0.65733 
 1                     3.02921  -2.97216  -0.38898 
 1                     2.14019  -2.26134  -1.74648 
 1                     1.26526  -2.98182  -0.38893 
 6                     3.44156   0.72041  -1.8204 
 1                     3.48208  -0.18606  -2.43678 
 1                     4.26312   1.37403  -2.14828 
 1                     2.49803   1.23163  -2.03992 
 6                     4.9206   -0.32704  -0.07557 
 1                     4.99049  -1.26163  -0.64542 
 1                     5.07697  -0.56694   0.98372 
 1                     5.75978   0.3097   -0.39092 
 6                     3.57285   1.72024   0.48169 
 1                     4.39634   2.37009   0.15106 
 1                     3.70453   1.55022   1.5572 
 1                     2.63792   2.27442   0.34261 
 1                    -5.43957  -1.13552  -1.08724 
 1                    -5.59965  -0.10165   0.42595 
 
                          Input orientation:                          
 ---------------------------------------------------------------------
 Center     Atomic      Atomic             Coordinates (Angstroms)
 Number     Number       Type             X           Y           Z
 ---------------------------------------------------------------------
      1          1           0       -0.586451   -1.252481    0.655100
      2          6           0       -0.592019   -0.352543    0.021986
      3          6           0       -2.631643   -1.284700   -1.137027
      4          6           0       -2.874343    0.138241    0.987276
      5          6           0       -3.505402   -0.355186   -0.313038
      6          6           0       -1.454712    0.692261    0.758254
      7          6           0       -1.220592   -0.701843   -1.331214
      8          1           0       -3.114496   -1.466113   -2.103178
      9          1           0       -3.494053    0.948801    1.394863
     10          1           0       -1.002867    0.904744    1.739241
     11          1           0       -0.582523   -1.420322   -1.857412
     12          1           0       -2.561762   -2.249537   -0.616424
     13          1           0       -1.269340    0.208879   -1.937368
     14          8           0       -4.239242    0.638089   -1.048016
     15          6           0       -4.975387   -0.412726   -0.414718
     16          8           0       -2.740277   -0.939012    1.919694
     17          1           0       -3.624013   -1.313151    2.061239
     18          8           0       -1.626021    1.890139    0.020879
     19          6           0       -0.624474    2.878845    0.192278
     20          1           0       -0.431580    3.069988    1.259659
     21          1           0       -1.013972    3.793493   -0.264310
     22          1           0        0.317163    2.599436   -0.290877
     23          8           0        0.736732    0.142946   -0.147928
     24         14           0        2.130385   -0.717193    0.244385
     25          6           0        2.176445   -1.050032    2.106677
     26          1           0        3.068036   -1.623886    2.387753
     27          1           0        1.303004   -1.633219    2.423304
     28          1           0        2.178482   -0.121311    2.688180
     29          6           0        3.578774    0.399197   -0.316492
     30          6           0        2.144141   -2.382612   -0.657325
     31          1           0        3.029214   -2.972161   -0.388976
     32          1           0        2.140187   -2.261345   -1.746475
     33          1           0        1.265255   -2.981821   -0.388926
     34          6           0        3.441556    0.720413   -1.820401
     35          1           0        3.482075   -0.186058   -2.436782
     36          1           0        4.263120    1.374031   -2.148277
     37          1           0        2.498031    1.231631   -2.039919
     38          6           0        4.920597   -0.327039   -0.075574
     39          1           0        4.990489   -1.261632   -0.645420
     40          1           0        5.076970   -0.566940    0.983722
     41          1           0        5.759784    0.309704   -0.390919
     42          6           0        3.572853    1.720242    0.481685
     43          1           0        4.396339    2.370088    0.151059
     44          1           0        3.704526    1.550217    1.557196
     45          1           0        2.637918    2.274419    0.342609
     46          1           0       -5.439574   -1.135522   -1.087237
     47          1           0       -5.599653   -0.101647    0.425952
 ---------------------------------------------------------------------
                    Distance matrix (angstroms):
                    1          2          3          4          5
     1  H    0.000000
     2  C    1.100342   0.000000
     3  C    2.719479   2.524340   0.000000
     4  C    2.697943   2.526194   2.568332   0.000000
     5  C    3.203546   2.932584   1.518687   1.527260   0.000000
     6  C    2.132262   1.542059   2.980878   1.541020   2.539713
     7  C    2.156567   1.532405   1.538992   2.969180   2.525314
     8  H    3.747632   3.481271   1.095219   3.490348   2.142794
     9  H    3.721161   3.464114   3.484644   1.098715   2.148822
    10  H    2.449976   2.167610   3.964782   2.157638   3.473032
    11  H    2.518115   2.161569   2.176291   3.971625   3.473158
    12  H    2.552009   2.808210   1.098554   2.893276   2.138005
    13  H    3.053326   2.147796   2.174211   3.336850   2.820743
    14  O    4.451712   3.927912   2.507871   2.501042   1.437118
    15  C    4.594830   4.405479   2.602922   2.585254   1.474620
    16  O    2.517226   2.925791   3.078124   1.431031   2.431329
    17  H    3.347789   3.778136   3.348808   1.954978   2.562998
    18  O    3.370312   2.469572   3.525851   2.358257   2.947042
    19  C    4.157343   3.236035   4.809458   3.633847   4.360510
    20  H    4.367289   3.642979   5.435779   3.825758   4.863494
    21  H    5.146838   4.177275   5.400605   4.288160   4.839539
    22  H    4.068004   3.104622   4.949539   4.228104   4.831385
    23  O    2.083959   1.428271   3.789781   3.785310   4.274470
    24  Si   2.799360   2.755706   4.990719   5.131370   5.674845
    25  C    3.127564   3.535084   5.804687   5.308061   6.214597
    26  H    4.061441   4.539732   6.710101   6.354392   7.219000
    27  H    2.615635   3.316259   5.317788   4.759252   5.678178
    28  H    3.613560   3.851978   6.254837   5.337741   6.431838
    29  C    4.584881   4.251493   6.486761   6.588674   7.124230
    30  C    3.233541   3.474078   4.923783   5.851888   6.012181
    31  H    4.137684   4.488275   5.954192   6.813271   7.039569
    32  H    3.770931   3.773053   4.908729   6.194911   6.128691
    33  H    2.740333   3.245215   4.315749   5.363300   5.446479
    34  C    5.123012   4.562384   6.432047   6.936321   7.189526
    35  H    5.220143   4.761460   6.346174   7.227267   7.305048
    36  H    6.186746   5.591375   7.458501   7.893177   8.167510
    37  H    4.790404   4.038498   5.784522   6.262732   6.445255
    38  C    5.631865   5.513538   7.686360   7.880814   8.429391
    39  H    5.726578   5.695285   7.638004   8.153583   8.550572
    40  H    5.714219   5.753985   8.027171   7.982523   8.682369
    41  H    6.618858   6.399567   8.574080   8.745111   9.289339
    42  C    5.115366   4.674818   7.081361   6.657679   7.418941
    43  H    6.181040   5.684461   8.025532   7.651354   8.371381
    44  H    5.203977   4.943447   7.445981   6.752777   7.688394
    45  H    4.788865   4.175670   6.528777   5.946753   6.714542
    46  H    5.157734   5.034106   2.812332   3.536451   2.224709
    47  H    5.148701   5.030163   3.556909   2.792838   2.235235
                    6          7          8          9         10
     6  C    0.000000
     7  C    2.522740   0.000000
     8  H    3.949842   2.183325   0.000000
     9  H    2.151742   3.914683   4.267571   0.000000
    10  H    1.100749   3.472207   4.984388   2.515262   0.000000
    11  H    3.473533   1.095549   2.544285   4.966593   4.303317
    12  H    3.430667   2.169105   1.769097   3.891505   4.234241
    13  H    2.744886   1.095086   2.497537   4.074383   3.751358
    14  O    3.319511   3.314795   2.608848   2.572840   4.279489
    15  C    3.871952   3.875828   2.724598   2.706047   4.707035
    16  O    2.379637   3.596400   4.074478   2.099396   2.539802
    17  H    3.228825   4.202246   4.198258   2.361646   3.448644
    18  O    1.417032   2.951423   4.241651   2.502697   2.076558
    19  C    2.406403   3.936713   5.508901   3.661388   2.536405
    20  H    2.636625   4.643476   6.251634   3.727795   2.290120
    21  H    3.295076   4.624827   5.954586   4.122612   3.515567
    22  H    2.806694   3.787537   5.620445   4.482375   2.955645
    23  O    2.434202   2.438227   4.609125   4.574839   2.677302
    24  Si   3.886328   3.702944   5.794887   5.977745   3.831781
    25  C    4.247250   4.845636   6.774220   6.054466   3.750224
    26  H    5.336202   5.750931   7.643105   7.117975   4.835989
    27  H    3.973065   4.618701   6.327027   5.544030   3.496604
    28  H    4.193640   5.295871   7.265068   5.915696   3.474803
    29  C    5.155283   5.027511   7.174363   7.297649   5.047083
    30  C    4.940693   3.821065   5.530255   6.862873   5.143335
    31  H    5.903365   4.909481   6.553765   7.817227   5.984762
    32  H    5.284009   3.728180   5.326474   7.205394   5.661548
    33  H    4.713080   3.502234   4.941483   6.425162   4.977837
    34  C    5.533868   4.898749   6.916840   7.648056   5.697186
    35  H    5.945718   4.858332   6.727896   8.039637   6.224446
    36  H    6.450297   5.920130   7.905547   8.538641   6.562290
    37  H    4.872871   4.250734   6.227542   6.912510   5.161898
    38  C    6.509901   6.279436   8.364890   8.636914   6.316508
    39  H    6.879580   6.273851   8.237576   9.002012   6.804418
    40  H    6.655771   6.710918   8.799862   8.713722   6.300879
    41  H    7.315456   7.115689   9.210766   9.446214   7.115132
    42  C    5.139032   5.668352   7.845700   7.167299   4.814945
    43  H    6.117073   6.571439   8.729872   8.113285   5.815581
    44  H    5.290759   6.137709   8.306362   7.225482   4.754926
    45  H    4.407449   5.152467   7.284485   6.361255   4.133026
    46  H    4.756654   4.248224   2.558792   3.780248   5.642343
    47  H    4.233350   4.756474   3.799246   2.544756   4.885488
                   11         12         13         14         15
    11  H    0.000000
    12  H    2.478918   0.000000
    13  H    1.769861   3.075558   0.000000
    14  O    4.273613   3.367283   3.129774   0.000000
    15  C    4.732216   3.039761   4.054583   1.430800   0.000000
    16  O    4.376539   2.860286   4.284651   3.679870   3.274473
    17  H    4.961650   3.029039   4.883638   3.722004   2.960969
    18  O    3.946646   4.291699   2.605492   3.088542   4.087932
    19  C    4.762964   5.541425   3.475624   4.430109   5.489383
    20  H    5.468254   6.029487   4.371358   5.073242   5.964815
    21  H    5.468820   6.248028   3.964063   4.579644   5.779940
    22  H    4.407031   5.648604   3.307973   5.018064   6.090939
    23  O    2.665816   4.101649   2.689009   5.080910   5.745281
    24  Si   3.503114   5.010520   4.144368   6.639220   7.142766
    25  C    4.843864   5.595060   5.460091   7.345943   7.610013
    26  H    5.602628   6.411797   6.393632   8.385544   8.603337
    27  H    4.682421   4.955422   5.387554   6.922817   6.997297
    28  H    5.474759   6.157895   5.778598   7.464786   7.803252
    29  C    4.795985   6.694172   5.115434   7.855799   8.593168
    30  C    3.130640   4.707962   4.472828   7.072825   7.391007
    31  H    4.196326   5.642068   5.567234   8.142401   8.403869
    32  H    2.851802   4.835854   4.214656   7.042136   7.471436
    33  H    2.830020   3.903083   4.359175   6.621000   6.748817
    34  C    4.558215   6.805144   4.740031   7.719975   8.608419
    35  H    4.287194   6.640754   4.793885   7.888385   8.698781
    36  H    5.601184   7.877552   5.657754   8.604786   9.568058
    37  H    4.068904   6.304473   3.905077   6.835716   7.822862
    38  C    5.886811   7.744302   6.486047   9.261737   9.902164
    39  H    5.705486   7.616646   6.558734   9.431806  10.004626
    40  H    6.389849   7.983848   7.029247   9.611028  10.150335
    41  H    6.735611   8.709116   7.197934  10.025973  10.759478
    42  C    5.709787   7.389079   5.619864   8.033671   8.855817
    43  H    6.571927   8.387201   6.413444   8.888805   9.792518
    44  H    6.233975   7.643894   6.224991   8.409670   9.114959
    45  H    5.372378   6.958635   4.973069   7.204633   8.109051
    46  H    4.925975   3.121618   4.463293   2.141969   1.090956
    47  H    5.667826   3.863775   4.943007   2.137875   1.092339
                   16         17         18         19         20
    16  O    0.000000
    17  H    0.970054   0.000000
    18  O    3.584851   4.291399   0.000000
    19  C    4.694318   5.482981   1.417749   0.000000
    20  H    4.673094   5.481429   2.086458   1.101384   0.000000
    21  H    5.490592   6.188562   2.019577   1.093966   1.784691
    22  H    5.172541   6.031058   2.091951   1.094618   1.784992
    23  O    4.187515   5.100660   2.943430   3.074698   3.451641
    24  Si   5.155503   6.063763   4.578070   4.530282   4.683715
    25  C    4.921529   5.806600   5.239648   5.190968   4.949121
    26  H    5.867251   6.707212   6.323341   6.223289   5.962580
    27  H    4.133239   4.950660   5.173479   5.389932   5.146164
    28  H    5.045136   5.956718   5.063069   4.804896   4.363197
    29  C    6.835330   7.775981   5.424631   4.906607   5.069548
    30  C    5.708112   6.465751   5.738509   6.005829   6.327718
    31  H    6.538400   7.281572   6.743972   6.922540   7.155603
    32  H    6.245662   6.973074   5.877302   6.150095   6.638821
    33  H    5.054412   5.717754   5.680089   6.185166   6.497805
    34  C    7.413303   8.314131   5.517147   5.024172   5.477997
    35  H    7.633052   8.485224   6.036832   5.759282   6.291439
    36  H    8.422952   9.335301   6.297109   5.624166   6.044047
    37  H    6.915931   7.795822   4.657073   4.176847   4.780104
    38  C    7.940063   8.862773   6.912553   6.410714   6.478305
    39  H    8.151603   9.029856   7.359064   7.026599   7.196603
    40  H    7.881867   8.799146   7.203776   6.708672   6.606626
    41  H    8.896587   9.833737   7.564223   6.906472   6.976859
    42  C    6.999651   7.968146   5.222020   4.363906   4.296806
    43  H    8.062847   9.030010   6.042857   5.046692   5.002765
    44  H    6.918320   7.884188   5.557927   4.729534   4.416515
    45  H    6.460520   7.418634   4.293292   3.321315   3.300868
    46  H    4.045547   3.638779   4.992568   6.398241   6.947967
    47  H    3.332938   2.836381   4.463300   5.804338   6.120728
                   21         22         23         24         25
    21  H    0.000000
    22  H    1.788407   0.000000
    23  O    4.050309   2.496160   0.000000
    24  Si   5.521960   3.817631   1.684048   0.000000
    25  C    6.265786   4.745926   2.929029   1.892362   0.000000
    26  H    7.283146   5.707785   3.871221   2.509045   1.096926
    27  H    6.483892   5.123869   3.175950   2.504267   1.096932
    28  H    5.851038   4.443169   3.192489   2.515854   1.095752
    29  C    5.711154   3.934439   2.858545   1.912783   3.152545
    30  C    6.947835   5.319110   2.935767   1.893909   3.068635
    31  H    7.882701   6.197381   3.875238   2.508769   3.263446
    32  H    6.986172   5.391602   3.210242   2.519529   4.039229
    33  H    7.149495   5.662060   3.178299   2.505608   3.284830
    34  C    5.631782   3.953733   3.232137   2.837115   4.489646
    35  H    6.385209   4.730809   3.589430   3.049234   4.805636
    36  H    6.103346   4.530136   4.237025   3.827089   5.323056
    37  H    4.695752   3.112270   2.804824   3.025082   4.743802
    38  C    7.227276   5.459141   4.210801   2.835468   3.579848
    39  H    7.858313   6.072357   4.507193   3.044398   3.941783
    40  H    7.594112   5.857158   4.541171   3.041637   3.147610
    41  H    7.618175   5.905506   5.031690   3.825005   4.574624
    42  C    5.088599   3.459675   3.305731   2.842202   3.502138
    43  H    5.609820   4.109451   4.294447   3.830739   4.522123
    44  H    5.533028   3.998808   3.700765   3.056557   3.065657
    45  H    4.001529   2.427518   2.897984   3.035948   3.791684
    46  H    6.675204   6.908265   6.376797   7.697564   8.259064
    47  H    6.056158   6.543577   6.367020   7.756633   8.011989
                   26         27         28         29         30
    26  H    0.000000
    27  H    1.765415   0.000000
    28  H    1.771805   1.767056   0.000000
    29  C    3.415649   4.100771   3.355563   0.000000
    30  C    3.271352   3.280149   4.038201   3.148460   0.000000
    31  H    3.087001   3.561107   4.280185   3.416625   1.096783
    32  H    4.284752   4.299125   4.924163   3.345574   1.095887
    33  H    3.578261   3.119101   4.299428   4.097426   1.097055
    34  C    4.831544   5.303020   4.757222   1.543940   3.558763
    35  H    5.051229   5.519335   5.288552   2.201705   3.127520
    36  H    5.566983   6.221350   5.474768   2.184964   4.563483
    37  H    5.299355   5.436526   4.928233   2.197988   3.885815
    38  C    3.343916   4.586663   3.898699   1.544652   3.503216
    39  H    3.609320   4.811724   4.507838   2.204424   3.059156
    40  H    2.669130   4.177579   3.391901   2.206483   3.819841
    41  H    4.324962   5.617623   4.742610   2.184114   4.515796
    42  C    3.882155   4.490857   3.194403   1.543464   4.491322
    43  H    4.766447   5.546015   4.190816   2.184360   5.321094
    44  H    3.342136   4.080651   2.530206   2.202582   4.775568
    45  H    4.423166   4.623951   3.384126   2.199109   4.788697
    46  H    9.202906   7.618002   8.562545   9.180415   7.697583
    47  H    9.016358   7.347231   8.100460   9.222017   8.145099
                   31         32         33         34         35
    31  H    0.000000
    32  H    1.771562   0.000000
    33  H    1.763985   1.768483   0.000000
    34  C    3.981722   3.254214   4.526803   0.000000
    35  H    3.487257   2.565931   4.113915   1.096931   0.000000
    36  H    4.848407   4.228977   5.572787   1.099858   1.768373
    37  H    4.547487   3.523499   4.690276   1.095341   1.770787
    38  C    3.266837   3.776788   4.528530   2.515778   2.768488
    39  H    2.615009   3.214960   4.111229   2.776378   2.577043
    40  H    3.444226   4.353123   4.716459   3.492129   3.793232
    41  H    4.269269   4.642123   5.570900   2.754321   3.101499
    42  C    4.803357   4.782286   5.309649   2.513264   3.487072
    43  H    5.540785   5.490085   6.224002   2.742206   3.750558
    44  H    4.969460   5.281042   5.502436   3.487964   4.360733
    45  H    5.311773   5.018482   5.481551   2.781974   3.806778
    46  H    8.693744   7.691219   6.989363   9.102554   9.072958
    47  H    9.130241   8.323993   7.489085   9.352291   9.522613
                   36         37         38         39         40
    36  H    0.000000
    37  H    1.774136   0.000000
    38  C    2.760799   3.486679   0.000000
    39  H    3.119994   3.791218   1.096847   0.000000
    40  H    3.773478   4.362131   1.097321   1.773183   0.000000
    41  H    2.541870   3.769374   1.099599   1.767960   1.767591
    42  C    2.740991   2.784326   2.513625   3.488786   2.783094
    43  H    2.509347   3.114489   2.756937   3.765207   3.127734
    44  H    3.751480   3.807409   2.769270   3.796276   2.587437
    45  H    3.107490   2.604499   3.486127   4.360556   3.799121
    46  H   10.077993   8.337661  10.440797  10.440178  10.733585
    47  H   10.299445   8.569168  10.534609  10.707218  10.701303
                   41         42         43         44         45
    41  H    0.000000
    42  C    2.744763   0.000000
    43  H    2.529408   1.099883   0.000000
    44  H    3.091619   1.096800   1.768620   0.000000
    45  H    3.760880   1.095700   1.771409   1.771255   0.000000
    46  H   11.313671   9.583358  10.515125   9.890439   8.883582
    47  H   11.396197   9.351858  10.300723   9.517148   8.573810
                   46         47
    46  H    0.000000
    47  H    1.839637   0.000000
 Stoichiometry    C14H28O4Si
 Framework group  C1[X(C14H28O4Si)]
 Deg. of freedom   135
 Full point group                 C1      NOp   1
 Largest Abelian subgroup         C1      NOp   1
 Largest concise Abelian subgroup C1      NOp   1
                         Standard orientation:                         
 ---------------------------------------------------------------------
 Center     Atomic      Atomic             Coordinates (Angstroms)
 Number     Number       Type             X           Y           Z
 ---------------------------------------------------------------------
      1          1           0       -0.586451   -1.252481    0.655100
      2          6           0       -0.592019   -0.352543    0.021986
      3          6           0       -2.631643   -1.284700   -1.137027
      4          6           0       -2.874343    0.138241    0.987276
      5          6           0       -3.505402   -0.355186   -0.313038
      6          6           0       -1.454712    0.692261    0.758254
      7          6           0       -1.220592   -0.701843   -1.331214
      8          1           0       -3.114496   -1.466113   -2.103178
      9          1           0       -3.494053    0.948801    1.394863
     10          1           0       -1.002867    0.904744    1.739241
     11          1           0       -0.582523   -1.420322   -1.857412
     12          1           0       -2.561762   -2.249537   -0.616424
     13          1           0       -1.269340    0.208879   -1.937368
     14          8           0       -4.239242    0.638089   -1.048016
     15          6           0       -4.975387   -0.412726   -0.414718
     16          8           0       -2.740277   -0.939012    1.919694
     17          1           0       -3.624013   -1.313151    2.061239
     18          8           0       -1.626021    1.890139    0.020879
     19          6           0       -0.624474    2.878845    0.192278
     20          1           0       -0.431580    3.069988    1.259659
     21          1           0       -1.013972    3.793493   -0.264310
     22          1           0        0.317163    2.599436   -0.290877
     23          8           0        0.736732    0.142946   -0.147928
     24         14           0        2.130385   -0.717193    0.244385
     25          6           0        2.176445   -1.050032    2.106677
     26          1           0        3.068036   -1.623886    2.387753
     27          1           0        1.303004   -1.633219    2.423304
     28          1           0        2.178482   -0.121311    2.688180
     29          6           0        3.578774    0.399197   -0.316492
     30          6           0        2.144141   -2.382612   -0.657325
     31          1           0        3.029214   -2.972161   -0.388976
     32          1           0        2.140187   -2.261345   -1.746475
     33          1           0        1.265255   -2.981821   -0.388926
     34          6           0        3.441556    0.720413   -1.820401
     35          1           0        3.482075   -0.186058   -2.436782
     36          1           0        4.263120    1.374031   -2.148277
     37          1           0        2.498031    1.231631   -2.039919
     38          6           0        4.920597   -0.327039   -0.075574
     39          1           0        4.990489   -1.261632   -0.645420
     40          1           0        5.076970   -0.566940    0.983722
     41          1           0        5.759784    0.309704   -0.390919
     42          6           0        3.572853    1.720242    0.481685
     43          1           0        4.396339    2.370088    0.151059
     44          1           0        3.704526    1.550217    1.557196
     45          1           0        2.637918    2.274419    0.342609
     46          1           0       -5.439574   -1.135522   -1.087237
     47          1           0       -5.599653   -0.101647    0.425952
 ---------------------------------------------------------------------
 Rotational constants (GHZ):      0.6696805      0.1857008      0.1764322
 Standard basis: 6-31+G(d,p) (6D, 7F)
 There are   505 symmetry adapted basis functions of A   symmetry.
 Integral buffers will be    131072 words long.
 Raffenetti 2 integral format.
 Two-electron integral symmetry is turned on.
   505 basis functions,   828 primitive gaussians,   505 cartesian basis functions
    79 alpha electrons       79 beta electrons
       nuclear repulsion energy      1806.7481108676 Hartrees.
 NAtoms=   47 NActive=   47 NUniq=   47 SFac= 1.00D+00 NAtFMM=   60 NAOKFM=F Big=F
 ------------------------------------------------------------------------------
 Polarizable Continuum Model (PCM)
 =================================
 Model                : PCM.
 Atomic radii         : UFF (Universal Force Field).
 Polarization charges : Total charges.
 Charge compensation  : None.
 Solution method      : Matrix inversion.
 Cavity type          : Scaled VdW (van der Waals Surface) (Alpha=1.100).
 Cavity algorithm     : GePol (No added spheres)
                        Default sphere list used, NSphG=   47.
                        Lebedev-Laikov grids with approx.  5.0 points / Ang**2.
                        Smoothing algorithm: Karplus/York (Gamma=1.0000).
                        Polarization charges: spherical gaussians, with
                                              point-specific exponents (IZeta= 3).
                        Self-potential: point-specific (ISelfS= 7).
                        Self-field    : sphere-specific E.n sum rule (ISelfD= 2).
 Solvent              : Chloroform, Eps=   4.711300 Eps(inf)=   2.090627
 ------------------------------------------------------------------------------
 One-electron integrals computed using PRISM.
 NBasis=   505 RedAO= T  NBF=   505
 NBsUse=   505 1.00D-06 NBFU=   505
 Harris functional with IExCor=  908 diagonalized for initial guess.
 ExpMin= 3.31D-02 ExpMax= 1.61D+04 ExpMxC= 2.43D+03 IAcc=3 IRadAn=         5 AccDes= 0.00D+00
 HarFok:  IExCor=  908 AccDes= 0.00D+00 IRadAn=         5 IDoV= 1
 ScaDFX=  1.000000  1.000000  1.000000  1.000000
 FoFCou: FMM=F IPFlag=           0 FMFlag=      100000 FMFlg1=           0
         NFxFlg=           0 DoJE=T BraDBF=F KetDBF=T FulRan=T
         Omega=  0.000000  0.000000  1.000000  0.000000  0.000000 ICntrl=     500 IOpCl=  0
         NMat0=    1 NMatS0=    1 NMatT0=    0 NMatD0=    1 NMtDS0=    0 NMtDT0=    0
         I1Cent=           4 NGrid=           0.
 Petite list used in FoFCou.
 Initial guess orbital symmetries:
       Occupied  (A) (A) (A) (A) (A) (A) (A) (A) (A) (A) (A) (A)
                 (A) (A) (A) (A) (A) (A) (A) (A) (A) (A) (A) (A)
                 (A) (A) (A) (A) (A) (A) (A) (A) (A) (A) (A) (A)
                 (A) (A) (A) (A) (A) (A) (A) (A) (A) (A) (A) (A)
                 (A) (A) (A) (A) (A) (A) (A) (A) (A) (A) (A) (A)
                 (A) (A) (A) (A) (A) (A) (A) (A) (A) (A) (A) (A)
                 (A) (A) (A) (A) (A) (A) (A)
       Virtual   (A) (A) (A) (A) (A) (A) (A) (A) (A) (A) (A) (A)
                 (A) (A) (A) (A) (A) (A) (A) (A) (A) (A) (A) (A)
                 (A) (A) (A) (A) (A) (A) (A) (A) (A) (A) (A) (A)
                 (A) (A) (A) (A) (A) (A) (A) (A) (A) (A) (A) (A)
                 (A) (A) (A) (A) (A) (A) (A) (A) (A) (A) (A) (A)
                 (A) (A) (A) (A) (A) (A) (A) (A) (A) (A) (A) (A)
                 (A) (A) (A) (A) (A) (A) (A) (A) (A) (A) (A) (A)
                 (A) (A) (A) (A) (A) (A) (A) (A) (A) (A) (A) (A)
                 (A) (A) (A) (A) (A) (A) (A) (A) (A) (A) (A) (A)
                 (A) (A) (A) (A) (A) (A) (A) (A) (A) (A) (A) (A)
                 (A) (A) (A) (A) (A) (A) (A) (A) (A) (A) (A) (A)
                 (A) (A) (A) (A) (A) (A) (A) (A) (A) (A) (A) (A)
                 (A) (A) (A) (A) (A) (A) (A) (A) (A) (A) (A) (A)
                 (A) (A) (A) (A) (A) (A) (A) (A) (A) (A) (A) (A)
                 (A) (A) (A) (A) (A) (A) (A) (A) (A) (A) (A) (A)
                 (A) (A) (A) (A) (A) (A) (A) (A) (A) (A) (A) (A)
                 (A) (A) (A) (A) (A) (A) (A) (A) (A) (A) (A) (A)
                 (A) (A) (A) (A) (A) (A) (A) (A) (A) (A) (A) (A)
                 (A) (A) (A) (A) (A) (A) (A) (A) (A) (A) (A) (A)
                 (A) (A) (A) (A) (A) (A) (A) (A) (A) (A) (A) (A)
                 (A) (A) (A) (A) (A) (A) (A) (A) (A) (A) (A) (A)
                 (A) (A) (A) (A) (A) (A) (A) (A) (A) (A) (A) (A)
                 (A) (A) (A) (A) (A) (A) (A) (A) (A) (A) (A) (A)
                 (A) (A) (A) (A) (A) (A) (A) (A) (A) (A) (A) (A)
                 (A) (A) (A) (A) (A) (A) (A) (A) (A) (A) (A) (A)
                 (A) (A) (A) (A) (A) (A) (A) (A) (A) (A) (A) (A)
                 (A) (A) (A) (A) (A) (A) (A) (A) (A) (A) (A) (A)
                 (A) (A) (A) (A) (A) (A) (A) (A) (A) (A) (A) (A)
                 (A) (A) (A) (A) (A) (A) (A) (A) (A) (A) (A) (A)
                 (A) (A) (A) (A) (A) (A) (A) (A) (A) (A) (A) (A)
                 (A) (A) (A) (A) (A) (A) (A) (A) (A) (A) (A) (A)
                 (A) (A) (A) (A) (A) (A) (A) (A) (A) (A) (A) (A)
                 (A) (A) (A) (A) (A) (A) (A) (A) (A) (A) (A) (A)
                 (A) (A) (A) (A) (A) (A) (A) (A) (A) (A) (A) (A)
                 (A) (A) (A) (A) (A) (A) (A) (A) (A) (A) (A) (A)
                 (A) (A) (A) (A) (A) (A)
 The electronic state of the initial guess is 1-A.
 Requested convergence on RMS density matrix=1.00D-08 within 128 cycles.
 Requested convergence on MAX density matrix=1.00D-06.
 Requested convergence on             energy=1.00D-06.
 No special actions if energy rises.
 Error on total polarization charges =  0.01530
 SCF Done:  E(RmPW1PW91) =  -1140.62083467     A.U. after   13 cycles
             Convg  =    0.4511D-08             -V/T =  2.0080
 Range of M.O.s used for correlation:     1   505
 NBasis=   505 NAE=    79 NBE=    79 NFC=     0 NFV=     0
 NROrb=    505 NOA=    79 NOB=    79 NVA=   426 NVB=   426

 **** Warning!!: The largest alpha MO coefficient is  0.97577367D+02

 NEqPCM:  Using equilibrium solvation (IEInf=0, Eps=   4.7113, EpsInf=   2.0906)
          Differentiating once with respect to magnetic field using GIAOs.
          Electric field/nuclear overlap derivatives assumed to be zero.
 FoFCou: FMM=F IPFlag=           0 FMFlag=    10101102 FMFlg1=           0
         NFxFlg=    40000000 DoJE=F BraDBF=F KetDBF=T FulRan=T
         Omega=  0.000000  0.000000  1.000000  0.000000  0.000000 ICntrl=    6100 IOpCl=  0
         NMat0=    1 NMatS0=    1 NMatT0=    0 NMatD0=    1 NMtDS0=    0 NMtDT0=    0
         I1Cent=           7 NGrid=        3044.
 Symmetry not used in FoFCou.
          There are     3 degrees of freedom in the 1st order CPHF.  IDoFFX=0.
      3 vectors produced by pass  0 Test12= 1.12D-12 3.33D-08 XBig12= 1.74D+02 2.08D+00.
 AX will form     3 AO Fock derivatives at one time.
      3 vectors produced by pass  1 Test12= 1.12D-12 3.33D-08 XBig12= 4.27D-01 8.59D-02.
      3 vectors produced by pass  2 Test12= 1.12D-12 3.33D-08 XBig12= 8.54D-04 3.13D-03.
      3 vectors produced by pass  3 Test12= 1.12D-12 3.33D-08 XBig12= 3.80D-06 3.46D-04.
      3 vectors produced by pass  4 Test12= 1.12D-12 3.33D-08 XBig12= 2.11D-08 2.16D-05.
      3 vectors produced by pass  5 Test12= 1.12D-12 3.33D-08 XBig12= 6.57D-11 1.15D-06.
      3 vectors produced by pass  6 Test12= 1.12D-12 3.33D-08 XBig12= 1.91D-13 4.62D-08.
 Inverted reduced A of dimension    21 with in-core refinement.
 Calculating GIAO nuclear magnetic shielding tensors.
 SCF GIAO Magnetic shielding tensor (ppm):
      1  H    Isotropic =    27.3050   Anisotropy =     8.9774
   XX=    33.2290   YX=     1.3270   ZX=    -1.1382
   XY=    -0.9224   YY=    25.1534   ZY=    -2.2487
   XZ=    -0.1738   YZ=    -2.3787   ZZ=    23.5327
   Eigenvalues:    21.8761    26.7491    33.2900
      2  C    Isotropic =   122.9548   Anisotropy =    52.8691
   XX=   149.4467   YX=    12.3959   ZX=    -5.7829
   XY=    27.8121   YY=   111.4751   ZY=     7.0229
   XZ=    -4.5420   YZ=     6.4367   ZZ=   107.9425
   Eigenvalues:    96.7361   113.9274   158.2009
      3  C    Isotropic =   165.7985   Anisotropy =    22.8309
   XX=   175.2471   YX=    -8.2665   ZX=     0.1299
   XY=    -5.3030   YY=   157.2917   ZY=    10.9706
   XZ=    -5.4155   YZ=    13.5104   ZZ=   164.8567
   Eigenvalues:   147.6829   168.6935   181.0191
      4  C    Isotropic =   116.5209   Anisotropy =    30.5125
   XX=   103.4601   YX=    -2.2382   ZX=     3.5458
   XY=    -2.1170   YY=   126.4803   ZY=   -19.1864
   XZ=     3.9327   YZ=    -6.5756   ZZ=   119.6222
   Eigenvalues:   102.6081   110.0920   136.8625
      5  C    Isotropic =   137.5081   Anisotropy =    59.5826
   XX=    88.0348   YX=    -2.4213   ZX=    -5.6385
   XY=    -3.4235   YY=   153.3712   ZY=    14.3136
   XZ=    -5.6914   YZ=     8.6970   ZZ=   171.1184
   Eigenvalues:    87.5792   147.7153   177.2299
      6  C    Isotropic =   112.9056   Anisotropy =    47.7767
   XX=    95.8138   YX=     8.1664   ZX=    -5.0109
   XY=    -4.6239   YY=   128.6587   ZY=   -23.2178
   XZ=    11.7407   YZ=   -21.0949   ZZ=   114.2443
   Eigenvalues:    93.0384   100.9216   144.7567
      7  C    Isotropic =   166.9751   Anisotropy =    30.1675
   XX=   182.7195   YX=     7.9396   ZX=     0.6842
   XY=     9.2480   YY=   151.9834   ZY=     7.0226
   XZ=     8.9054   YZ=     7.7998   ZZ=   166.2223
   Eigenvalues:   147.6990   166.1395   187.0867
      8  H    Isotropic =    30.5301   Anisotropy =    10.3791
   XX=    31.5283   YX=     1.6872   ZX=     3.3018
   XY=     1.2614   YY=    27.0723   ZY=     5.3122
   XZ=     1.9201   YZ=     4.8971   ZZ=    32.9898
   Eigenvalues:    24.1308    30.0101    37.4495
      9  H    Isotropic =    28.3030   Anisotropy =     5.0445
   XX=    27.4960   YX=    -1.7889   ZX=    -2.0732
   XY=    -1.0128   YY=    28.7977   ZY=     2.6855
   XZ=    -0.9701   YZ=     1.1844   ZZ=    28.6152
   Eigenvalues:    26.4315    26.8115    31.6660
     10  H    Isotropic =    28.0519   Anisotropy =     2.1271
   XX=    27.6398   YX=    -0.1943   ZX=    -0.7903
   XY=    -0.5775   YY=    27.0692   ZY=    -1.4332
   XZ=     0.9910   YZ=     1.0685   ZZ=    29.4466
   Eigenvalues:    26.8692    27.8165    29.4700
     11  H    Isotropic =    30.1287   Anisotropy =     8.6825
   XX=    33.9616   YX=    -2.6471   ZX=    -0.9672
   XY=    -2.2768   YY=    27.7826   ZY=     4.0051
   XZ=    -1.6866   YZ=     3.9841   ZZ=    28.6419
   Eigenvalues:    24.0955    30.3736    35.9170
     12  H    Isotropic =    29.2419   Anisotropy =     7.2558
   XX=    28.5690   YX=     0.9021   ZX=    -0.4065
   XY=    -0.1773   YY=    34.0489   ZY=    -0.5483
   XZ=    -0.9504   YZ=     0.1627   ZZ=    25.1079
   Eigenvalues:    24.9780    28.6687    34.0791
     13  H    Isotropic =    29.1532   Anisotropy =     3.8742
   XX=    28.9439   YX=     0.9871   ZX=     0.3765
   XY=     0.1531   YY=    28.3304   ZY=    -1.8410
   XZ=    -0.4819   YZ=    -2.6528   ZZ=    30.1854
   Eigenvalues:    26.7365    28.9872    31.7360
     14  O    Isotropic =   294.6276   Anisotropy =   132.1421
   XX=   353.0710   YX=   -58.2542   ZX=    39.9407
   XY=   -11.8779   YY=   219.3259   ZY=   109.9807
   XZ=    23.8940   YZ=    99.6252   ZZ=   311.4859
   Eigenvalues:   140.5958   360.5646   382.7223
     15  C    Isotropic =   147.5851   Anisotropy =    43.9375
   XX=   114.8159   YX=    -2.3493   ZX=    -7.3131
   XY=    -4.6497   YY=   160.4801   ZY=    10.6209
   XZ=    -2.1815   YZ=    13.0657   ZZ=   167.4591
   Eigenvalues:   114.2554   151.6230   176.8768
     16  O    Isotropic =   288.8479   Anisotropy =    71.2613
   XX=   314.0255   YX=    47.0233   ZX=   -10.9547
   XY=    22.7122   YY=   270.8417   ZY=   -25.0338
   XZ=     5.8083   YZ=   -15.9984   ZZ=   281.6765
   Eigenvalues:   243.7552   286.4331   336.3555
     17  H    Isotropic =    30.5751   Anisotropy =    18.7970
   XX=    37.5698   YX=     6.4613   ZX=    -3.9438
   XY=     7.2872   YY=    26.5607   ZY=    -5.4371
   XZ=    -3.3511   YZ=    -6.0006   ZZ=    27.5949
   Eigenvalues:    20.7810    27.8379    43.1064
     18  O    Isotropic =   314.5261   Anisotropy =    46.5352
   XX=   314.0758   YX=    -2.3487   ZX=    14.1597
   XY=    -5.7924   YY=   316.3597   ZY=   -18.0960
   XZ=    19.2297   YZ=   -29.5496   ZZ=   313.1428
   Eigenvalues:   287.0266   311.0021   345.5496
     19  C    Isotropic =   135.0779   Anisotropy =    85.1494
   XX=   139.4645   YX=    42.7141   ZX=     5.9165
   XY=    41.3611   YY=   156.9872   ZY=     6.0728
   XZ=     6.1900   YZ=     3.4148   ZZ=   108.7820
   Eigenvalues:   104.4883   108.9013   191.8442
     20  H    Isotropic =    28.2913   Anisotropy =     8.5725
   XX=    28.1827   YX=     1.9706   ZX=     2.5045
   XY=     2.4259   YY=    30.1457   ZY=     5.4328
   XZ=     0.2349   YZ=     2.8359   ZZ=    26.5454
   Eigenvalues:    23.8353    27.0322    34.0063
     21  H    Isotropic =    27.8197   Anisotropy =    10.5676
   XX=    25.7426   YX=     2.7028   ZX=    -0.1486
   XY=     0.1195   YY=    34.3754   ZY=    -2.4892
   XZ=     0.6094   YZ=    -1.1162   ZZ=    23.3411
   Eigenvalues:    22.9766    25.6177    34.8648
     22  H    Isotropic =    27.1682   Anisotropy =     8.0881
   XX=    31.6668   YX=     0.1511   ZX=    -2.6766
   XY=     2.5933   YY=    28.9137   ZY=    -0.9170
   XZ=    -1.2448   YZ=     0.2202   ZZ=    20.9241
   Eigenvalues:    20.5761    28.3682    32.5602
     23  O    Isotropic =   278.2698   Anisotropy =    35.7092
   XX=   271.0905   YX=     0.9807   ZX=     8.6476
   XY=     2.0521   YY=   272.7035   ZY=    12.4278
   XZ=    16.0150   YZ=    13.2183   ZZ=   291.0155
   Eigenvalues:   262.3380   270.3955   302.0759
     24  Si   Isotropic =   380.5778   Anisotropy =    42.5293
   XX=   408.7405   YX=    -9.8269   ZX=     2.3716
   XY=     4.7579   YY=   367.7555   ZY=    -5.7858
   XZ=    -5.5869   YZ=    -7.2409   ZZ=   365.2374
   Eigenvalues:   359.6964   373.1065   408.9307
     25  C    Isotropic =   200.7510   Anisotropy =    10.2245
   XX=   199.4454   YX=    -5.4355   ZX=     0.4415
   XY=    -7.5441   YY=   198.4048   ZY=     1.3360
   XZ=     1.2846   YZ=     7.0347   ZZ=   204.4027
   Eigenvalues:   191.3591   203.3266   207.5673
     26  H    Isotropic =    31.6705   Anisotropy =    10.8725
   XX=    34.1563   YX=    -4.1763   ZX=     2.9912
   XY=    -4.1992   YY=    29.9795   ZY=    -3.4713
   XZ=     2.6845   YZ=    -3.0955   ZZ=    30.8757
   Eigenvalues:    26.7038    29.3889    38.9188
     27  H    Isotropic =    31.1570   Anisotropy =     8.8802
   XX=    33.8407   YX=     3.5542   ZX=    -1.7041
   XY=     3.1354   YY=    28.9479   ZY=    -2.8593
   XZ=    -2.0149   YZ=    -3.2747   ZZ=    30.6823
   Eigenvalues:    26.2171    30.1766    37.0771
     28  H    Isotropic =    31.4893   Anisotropy =     8.9314
   XX=    27.9851   YX=     0.4255   ZX=    -0.0810
   XY=     0.6177   YY=    32.6888   ZY=     3.6687
   XZ=    -0.1766   YZ=     4.6497   ZZ=    33.7939
   Eigenvalues:    27.7965    29.2278    37.4435
     29  C    Isotropic =   174.0723   Anisotropy =     7.8975
   XX=   174.9146   YX=    -4.0248   ZX=     1.6531
   XY=    -3.3429   YY=   175.0608   ZY=    -1.4768
   XZ=     1.3349   YZ=    -1.6779   ZZ=   172.2414
   Eigenvalues:   171.2985   171.5810   179.3373
     30  C    Isotropic =   199.8460   Anisotropy =     8.5203
   XX=   200.2967   YX=    -3.0351   ZX=     3.3116
   XY=    -5.4202   YY=   196.9657   ZY=     6.5622
   XZ=     4.7589   YZ=     1.6406   ZZ=   202.2756
   Eigenvalues:   191.1767   202.8351   205.5262
     31  H    Isotropic =    31.6744   Anisotropy =    10.8187
   XX=    34.1648   YX=    -4.9092   ZX=     1.2805
   XY=    -4.6125   YY=    33.8186   ZY=    -0.2355
   XZ=     1.4652   YZ=    -0.5016   ZZ=    27.0398
   Eigenvalues:    26.7225    29.4139    38.8869
     32  H    Isotropic =    31.4530   Anisotropy =     8.6161
   XX=    28.3141   YX=     0.2292   ZX=    -0.2484
   XY=     0.4936   YY=    29.1861   ZY=     2.0911
   XZ=    -0.5351   YZ=     1.1447   ZZ=    36.8588
   Eigenvalues:    28.0676    29.0943    37.1971
     33  H    Isotropic =    31.3199   Anisotropy =     8.4334
   XX=    34.0692   YX=     3.2746   ZX=    -1.4719
   XY=     3.2468   YY=    33.0523   ZY=    -0.1334
   XZ=    -1.0370   YZ=     0.2923   ZZ=    26.8382
   Eigenvalues:    26.5524    30.4652    36.9422
     34  C    Isotropic =   170.5415   Anisotropy =    37.8979
   XX=   158.8071   YX=     1.4746   ZX=     2.7905
   XY=     0.7955   YY=   158.8318   ZY=    -8.3255
   XZ=     7.6800   YZ=    -4.6305   ZZ=   193.9856
   Eigenvalues:   155.8764   159.9413   195.8067
     35  H    Isotropic =    30.5527   Anisotropy =     8.4221
   XX=    27.2155   YX=     1.2292   ZX=    -1.0778
   XY=     1.0801   YY=    29.9626   ZY=     2.4474
   XZ=    -1.0672   YZ=     3.9747   ZZ=    34.4798
   Eigenvalues:    26.1316    29.3590    36.1674
     36  H    Isotropic =    30.9929   Anisotropy =     9.7620
   XX=    30.8638   YX=     3.0718   ZX=    -2.7671
   XY=     3.3025   YY=    29.9203   ZY=    -3.0590
   XZ=    -3.5861   YZ=    -3.4620   ZZ=    32.1946
   Eigenvalues:    27.0909    28.3869    37.5009
     37  H    Isotropic =    30.2059   Anisotropy =     7.9569
   XX=    32.8116   YX=    -1.9365   ZX=     1.0554
   XY=    -2.1712   YY=    27.2865   ZY=    -3.3803
   XZ=     2.4814   YZ=    -4.0331   ZZ=    30.5196
   Eigenvalues:    24.7812    30.3260    35.5105
     38  C    Isotropic =   170.2923   Anisotropy =    39.4187
   XX=   184.9152   YX=   -19.2151   ZX=     6.7478
   XY=   -14.6885   YY=   167.9640   ZY=    -3.2039
   XZ=     5.5178   YZ=    -2.6025   ZZ=   157.9975
   Eigenvalues:   156.3377   157.9677   196.5714
     39  H    Isotropic =    30.7110   Anisotropy =     8.9605
   XX=    31.8597   YX=    -3.4275   ZX=    -1.7487
   XY=    -2.4239   YY=    33.6425   ZY=     3.0594
   XZ=    -0.8157   YZ=     2.4047   ZZ=    26.6308
   Eigenvalues:    25.6783    29.7700    36.6847
     40  H    Isotropic =    30.6715   Anisotropy =     9.2029
   XX=    32.2426   YX=    -1.6286   ZX=     3.7442
   XY=    -1.8033   YY=    27.2641   ZY=    -3.6114
   XZ=     2.4826   YZ=    -2.8460   ZZ=    32.5078
   Eigenvalues:    25.7179    29.4899    36.8067
     41  H    Isotropic =    30.9114   Anisotropy =    10.1109
   XX=    37.0995   YX=     2.3788   ZX=    -1.5620
   XY=     1.2495   YY=    28.4490   ZY=    -0.6520
   XZ=    -1.0039   YZ=    -0.7832   ZZ=    27.1856
   Eigenvalues:    26.8385    28.2436    37.6520
     42  C    Isotropic =   170.1718   Anisotropy =    37.8511
   XX=   157.9057   YX=     1.0255   ZX=    -1.2210
   XY=    -2.2880   YY=   183.5528   ZY=    19.5035
   XZ=    -4.2030   YZ=    15.6026   ZZ=   169.0568
   Eigenvalues:   155.6392   159.4703   195.4058
     43  H    Isotropic =    30.9927   Anisotropy =     9.6477
   XX=    31.3254   YX=     4.1872   ZX=    -0.7386
   XY=     5.0479   YY=    33.9268   ZY=     0.2679
   XZ=    -0.2779   YZ=     0.7678   ZZ=    27.7258
   Eigenvalues:    27.0571    28.4964    37.4245
     44  H    Isotropic =    30.5200   Anisotropy =     8.4030
   XX=    27.4248   YX=     1.7786   ZX=     0.6547
   XY=     1.9233   YY=    28.9550   ZY=     3.1304
   XZ=     0.7349   YZ=     1.4739   ZZ=    35.1803
   Eigenvalues:    26.1235    29.3146    36.1220
     45  H    Isotropic =    30.3199   Anisotropy =     8.7276
   XX=    33.1849   YX=    -2.6849   ZX=    -0.0998
   XY=    -3.4023   YY=    32.6006   ZY=     1.3560
   XZ=    -0.7545   YZ=     1.9454   ZZ=    25.1741
   Eigenvalues:    24.8174    30.0040    36.1383
     46  H    Isotropic =    29.1912   Anisotropy =    11.2112
   XX=    30.4083   YX=     3.0640   ZX=     0.1108
   XY=     6.1740   YY=    29.2951   ZY=     3.8604
   XZ=     3.8348   YZ=     4.6057   ZZ=    27.8701
   Eigenvalues:    23.7608    27.1474    36.6653
     47  H    Isotropic =    29.1540   Anisotropy =    10.9242
   XX=    31.9531   YX=     1.3065   ZX=    -3.0819
   XY=    -1.3471   YY=    25.1198   ZY=     1.8898
   XZ=    -7.1051   YZ=     1.5038   ZZ=    30.3892
   Eigenvalues:    24.1481    26.8772    36.4368
 End of Minotr Frequency-dependent properties file   721 does not exist.
 End of Minotr Frequency-dependent properties file   722 does not exist.

 **********************************************************************

            Population analysis using the SCF density.

 **********************************************************************

 Orbital symmetries:
       Occupied  (A) (A) (A) (A) (A) (A) (A) (A) (A) (A) (A) (A)
                 (A) (A) (A) (A) (A) (A) (A) (A) (A) (A) (A) (A)
                 (A) (A) (A) (A) (A) (A) (A) (A) (A) (A) (A) (A)
                 (A) (A) (A) (A) (A) (A) (A) (A) (A) (A) (A) (A)
                 (A) (A) (A) (A) (A) (A) (A) (A) (A) (A) (A) (A)
                 (A) (A) (A) (A) (A) (A) (A) (A) (A) (A) (A) (A)
                 (A) (A) (A) (A) (A) (A) (A)
       Virtual   (A) (A) (A) (A) (A) (A) (A) (A) (A) (A) (A) (A)
                 (A) (A) (A) (A) (A) (A) (A) (A) (A) (A) (A) (A)
                 (A) (A) (A) (A) (A) (A) (A) (A) (A) (A) (A) (A)
                 (A) (A) (A) (A) (A) (A) (A) (A) (A) (A) (A) (A)
                 (A) (A) (A) (A) (A) (A) (A) (A) (A) (A) (A) (A)
                 (A) (A) (A) (A) (A) (A) (A) (A) (A) (A) (A) (A)
                 (A) (A) (A) (A) (A) (A) (A) (A) (A) (A) (A) (A)
                 (A) (A) (A) (A) (A) (A) (A) (A) (A) (A) (A) (A)
                 (A) (A) (A) (A) (A) (A) (A) (A) (A) (A) (A) (A)
                 (A) (A) (A) (A) (A) (A) (A) (A) (A) (A) (A) (A)
                 (A) (A) (A) (A) (A) (A) (A) (A) (A) (A) (A) (A)
                 (A) (A) (A) (A) (A) (A) (A) (A) (A) (A) (A) (A)
                 (A) (A) (A) (A) (A) (A) (A) (A) (A) (A) (A) (A)
                 (A) (A) (A) (A) (A) (A) (A) (A) (A) (A) (A) (A)
                 (A) (A) (A) (A) (A) (A) (A) (A) (A) (A) (A) (A)
                 (A) (A) (A) (A) (A) (A) (A) (A) (A) (A) (A) (A)
                 (A) (A) (A) (A) (A) (A) (A) (A) (A) (A) (A) (A)
                 (A) (A) (A) (A) (A) (A) (A) (A) (A) (A) (A) (A)
                 (A) (A) (A) (A) (A) (A) (A) (A) (A) (A) (A) (A)
                 (A) (A) (A) (A) (A) (A) (A) (A) (A) (A) (A) (A)
                 (A) (A) (A) (A) (A) (A) (A) (A) (A) (A) (A) (A)
                 (A) (A) (A) (A) (A) (A) (A) (A) (A) (A) (A) (A)
                 (A) (A) (A) (A) (A) (A) (A) (A) (A) (A) (A) (A)
                 (A) (A) (A) (A) (A) (A) (A) (A) (A) (A) (A) (A)
                 (A) (A) (A) (A) (A) (A) (A) (A) (A) (A) (A) (A)
                 (A) (A) (A) (A) (A) (A) (A) (A) (A) (A) (A) (A)
                 (A) (A) (A) (A) (A) (A) (A) (A) (A) (A) (A) (A)
                 (A) (A) (A) (A) (A) (A) (A) (A) (A) (A) (A) (A)
                 (A) (A) (A) (A) (A) (A) (A) (A) (A) (A) (A) (A)
                 (A) (A) (A) (A) (A) (A) (A) (A) (A) (A) (A) (A)
                 (A) (A) (A) (A) (A) (A) (A) (A) (A) (A) (A) (A)
                 (A) (A) (A) (A) (A) (A) (A) (A) (A) (A) (A) (A)
                 (A) (A) (A) (A) (A) (A) (A) (A) (A) (A) (A) (A)
                 (A) (A) (A) (A) (A) (A) (A) (A) (A) (A) (A) (A)
                 (A) (A) (A) (A) (A) (A) (A) (A) (A) (A) (A) (A)
                 (A) (A) (A) (A) (A) (A)
 The electronic state is 1-A.
 Alpha  occ. eigenvalues --  -66.30275 -19.26525 -19.26358 -19.25002 -19.23277
 Alpha  occ. eigenvalues --  -10.31599 -10.31059 -10.30321 -10.30210 -10.30186
 Alpha  occ. eigenvalues --  -10.28070 -10.25366 -10.24798 -10.24323 -10.23633
 Alpha  occ. eigenvalues --  -10.23355 -10.23248 -10.22392 -10.22314  -5.33689
 Alpha  occ. eigenvalues --   -3.67593  -3.67315  -3.67298  -1.11388  -1.07405
 Alpha  occ. eigenvalues --   -1.06266  -1.02838  -0.84277  -0.82215  -0.77818
 Alpha  occ. eigenvalues --   -0.74637  -0.72179  -0.70436  -0.70187  -0.69573
 Alpha  occ. eigenvalues --   -0.69475  -0.68686  -0.64685  -0.62240  -0.57516
 Alpha  occ. eigenvalues --   -0.57131  -0.53979  -0.53391  -0.52672  -0.50297
 Alpha  occ. eigenvalues --   -0.48430  -0.48054  -0.47573  -0.46111  -0.45400
 Alpha  occ. eigenvalues --   -0.44592  -0.44311  -0.43626  -0.43321  -0.42703
 Alpha  occ. eigenvalues --   -0.41860  -0.41086  -0.40922  -0.40297  -0.40166
 Alpha  occ. eigenvalues --   -0.39896  -0.39227  -0.38977  -0.38782  -0.37893
 Alpha  occ. eigenvalues --   -0.37193  -0.35938  -0.35661  -0.34364  -0.34039
 Alpha  occ. eigenvalues --   -0.33352  -0.32796  -0.31791  -0.31410  -0.30568
 Alpha  occ. eigenvalues --   -0.28701  -0.28122  -0.27486  -0.26063
 Alpha virt. eigenvalues --   -0.00312   0.00625   0.01192   0.01531   0.02223
 Alpha virt. eigenvalues --    0.02952   0.03192   0.03934   0.04165   0.04559
 Alpha virt. eigenvalues --    0.04661   0.05184   0.05315   0.06416   0.06588
 Alpha virt. eigenvalues --    0.06916   0.07330   0.07386   0.07757   0.08031
 Alpha virt. eigenvalues --    0.08506   0.08760   0.09110   0.09363   0.09812
 Alpha virt. eigenvalues --    0.10135   0.10343   0.10754   0.11097   0.11249
 Alpha virt. eigenvalues --    0.11761   0.12053   0.12333   0.12674   0.12870
 Alpha virt. eigenvalues --    0.13419   0.13747   0.13853   0.14334   0.14771
 Alpha virt. eigenvalues --    0.15115   0.15243   0.15481   0.16027   0.16186
 Alpha virt. eigenvalues --    0.16649   0.16974   0.17411   0.17810   0.17913
 Alpha virt. eigenvalues --    0.18405   0.18660   0.19208   0.19232   0.19792
 Alpha virt. eigenvalues --    0.20003   0.20523   0.20812   0.21088   0.21385
 Alpha virt. eigenvalues --    0.21644   0.21844   0.21954   0.22594   0.22907
 Alpha virt. eigenvalues --    0.23217   0.23987   0.24114   0.24333   0.24529
 Alpha virt. eigenvalues --    0.24916   0.25287   0.25732   0.25918   0.26030
 Alpha virt. eigenvalues --    0.26631   0.26966   0.27141   0.27359   0.27862
 Alpha virt. eigenvalues --    0.28389   0.28525   0.28931   0.29381   0.30277
 Alpha virt. eigenvalues --    0.30337   0.30747   0.30878   0.31201   0.31453
 Alpha virt. eigenvalues --    0.31660   0.32045   0.32564   0.33209   0.33591
 Alpha virt. eigenvalues --    0.33793   0.34572   0.34862   0.35323   0.35762
 Alpha virt. eigenvalues --    0.36373   0.37195   0.37571   0.37999   0.38651
 Alpha virt. eigenvalues --    0.39091   0.39600   0.40098   0.40695   0.41606
 Alpha virt. eigenvalues --    0.42055   0.42561   0.43549   0.43602   0.44012
 Alpha virt. eigenvalues --    0.45313   0.46100   0.46862   0.47563   0.47988
 Alpha virt. eigenvalues --    0.48750   0.51235   0.52820   0.53908   0.54462
 Alpha virt. eigenvalues --    0.54931   0.60762   0.61265   0.66385   0.67218
 Alpha virt. eigenvalues --    0.67747   0.67972   0.69411   0.69630   0.70619
 Alpha virt. eigenvalues --    0.72304   0.72785   0.73319   0.73891   0.74289
 Alpha virt. eigenvalues --    0.74661   0.76317   0.77767   0.77910   0.78464
 Alpha virt. eigenvalues --    0.78881   0.79671   0.80439   0.81202   0.81842
 Alpha virt. eigenvalues --    0.83256   0.83649   0.84043   0.85092   0.85505
 Alpha virt. eigenvalues --    0.86769   0.87093   0.87493   0.88043   0.89935
 Alpha virt. eigenvalues --    0.90382   0.91205   0.91502   0.93314   0.93389
 Alpha virt. eigenvalues --    0.94997   0.96193   0.96680   0.97271   0.97726
 Alpha virt. eigenvalues --    0.99046   0.99605   1.00251   1.00785   1.02021
 Alpha virt. eigenvalues --    1.02554   1.03263   1.04013   1.05095   1.05816
 Alpha virt. eigenvalues --    1.06280   1.06441   1.06723   1.07297   1.07507
 Alpha virt. eigenvalues --    1.08629   1.09445   1.10237   1.11050   1.11229
 Alpha virt. eigenvalues --    1.12205   1.13168   1.14303   1.15416   1.16761
 Alpha virt. eigenvalues --    1.18326   1.19131   1.20070   1.20831   1.21559
 Alpha virt. eigenvalues --    1.21810   1.23314   1.24379   1.26530   1.27125
 Alpha virt. eigenvalues --    1.27906   1.29422   1.29944   1.30357   1.31823
 Alpha virt. eigenvalues --    1.33889   1.34324   1.35364   1.36084   1.36888
 Alpha virt. eigenvalues --    1.38980   1.39889   1.40859   1.42785   1.44232
 Alpha virt. eigenvalues --    1.45630   1.46641   1.47828   1.48357   1.48881
 Alpha virt. eigenvalues --    1.50114   1.50775   1.51207   1.53457   1.54530
 Alpha virt. eigenvalues --    1.56123   1.58507   1.60728   1.61208   1.62785
 Alpha virt. eigenvalues --    1.63752   1.65384   1.65736   1.67497   1.68543
 Alpha virt. eigenvalues --    1.70110   1.70535   1.72126   1.74156   1.76178
 Alpha virt. eigenvalues --    1.77436   1.78115   1.80581   1.81403   1.81776
 Alpha virt. eigenvalues --    1.82640   1.83769   1.85297   1.86398   1.87092
 Alpha virt. eigenvalues --    1.89659   1.90213   1.90771   1.91877   1.92475
 Alpha virt. eigenvalues --    1.94345   1.94909   1.95393   1.96476   1.97040
 Alpha virt. eigenvalues --    1.98210   1.98548   1.99280   2.00850   2.02124
 Alpha virt. eigenvalues --    2.03254   2.04663   2.06175   2.06653   2.06872
 Alpha virt. eigenvalues --    2.06954   2.07482   2.08146   2.09216   2.09747
 Alpha virt. eigenvalues --    2.10377   2.11076   2.11378   2.11916   2.12398
 Alpha virt. eigenvalues --    2.12782   2.14275   2.14609   2.15180   2.15875
 Alpha virt. eigenvalues --    2.16088   2.16259   2.17630   2.17928   2.18624
 Alpha virt. eigenvalues --    2.18844   2.19603   2.19887   2.20650   2.21437
 Alpha virt. eigenvalues --    2.21756   2.22752   2.25145   2.25918   2.26552
 Alpha virt. eigenvalues --    2.28326   2.28800   2.30829   2.31388   2.35067
 Alpha virt. eigenvalues --    2.36139   2.37505   2.37936   2.38881   2.39385
 Alpha virt. eigenvalues --    2.40424   2.40899   2.42530   2.42938   2.44478
 Alpha virt. eigenvalues --    2.45800   2.47125   2.48128   2.49728   2.51738
 Alpha virt. eigenvalues --    2.53765   2.56546   2.57355   2.57847   2.58596
 Alpha virt. eigenvalues --    2.59753   2.60520   2.63379   2.64741   2.66875
 Alpha virt. eigenvalues --    2.67767   2.68226   2.68460   2.69391   2.71354
 Alpha virt. eigenvalues --    2.72315   2.73114   2.73825   2.74097   2.74282
 Alpha virt. eigenvalues --    2.76344   2.76635   2.78065   2.78236   2.79464
 Alpha virt. eigenvalues --    2.81269   2.81627   2.83066   2.83817   2.85015
 Alpha virt. eigenvalues --    2.85789   2.86653   2.86828   2.87649   2.88288
 Alpha virt. eigenvalues --    2.88603   2.89045   2.89224   2.90956   2.91654
 Alpha virt. eigenvalues --    2.91914   2.92933   2.94287   2.97116   2.97601
 Alpha virt. eigenvalues --    2.99030   2.99524   3.00656   3.03049   3.04973
 Alpha virt. eigenvalues --    3.11741   3.13777   3.18692   3.24524   3.27507
 Alpha virt. eigenvalues --    3.27803   3.28495   3.29651   3.30660   3.31698
 Alpha virt. eigenvalues --    3.32171   3.35841   3.39078   3.39734   3.47076
 Alpha virt. eigenvalues --    3.47514   3.48009   3.48227   3.48493   3.49513
 Alpha virt. eigenvalues --    3.50100   3.50544   3.50663   3.51558   3.51686
 Alpha virt. eigenvalues --    3.51934   3.52822   3.55456   3.56256   3.56557
 Alpha virt. eigenvalues --    3.57462   3.60163   3.63453   4.35814   4.43612
 Alpha virt. eigenvalues --    4.45563   4.49761   4.54571   4.55726   4.57759
 Alpha virt. eigenvalues --    4.60075   4.63994   4.64399   4.65866   4.67519
 Alpha virt. eigenvalues --    4.72295   4.74011   4.77373   4.85775   4.97959
 Alpha virt. eigenvalues --    5.05635
          Condensed to atoms (all electrons):
              1          2          3          4          5          6
     1  H    0.589372   0.245729  -0.019859   0.015732   0.000632   0.032743
     2  C    0.245729  12.463277   0.396437  -0.168891   0.132406  -3.951792
     3  C   -0.019859   0.396437   8.692732  -2.339530  -0.366402   0.158817
     4  C    0.015732  -0.168891  -2.339530  12.267581  -3.037869  -2.120361
     5  C    0.000632   0.132406  -0.366402  -3.037869  11.917780   0.372101
     6  C    0.032743  -3.951792   0.158817  -2.120361   0.372101  12.105931
     7  C   -0.013252  -1.236771  -0.262197   0.892005  -0.411190  -1.268457
     8  H   -0.000024   0.051092   0.393208   0.037513  -0.049115  -0.004049
     9  H   -0.000122   0.021738   0.035894   0.146170   0.041261   0.094264
    10  H   -0.002253   0.112239  -0.031613   0.086368   0.031353   0.098899
    11  H   -0.004768  -0.026488   0.008347  -0.011554   0.015002   0.066382
    12  H    0.002813  -0.039837   0.338057   0.045339  -0.067120   0.019286
    13  H    0.004705  -0.137668  -0.073960   0.006298   0.011241  -0.005188
    14  O   -0.000105  -0.014270  -0.123808  -0.123019   0.223939   0.032869
    15  C   -0.004401  -0.425110  -0.222261   0.171600  -2.637945   0.040005
    16  O   -0.004153   0.057958   0.045589  -0.120747   0.084670   0.026517
    17  H    0.000034  -0.029062  -0.017907   0.069608   0.009794   0.019936
    18  O    0.010755  -0.138340  -0.088871  -0.084348   0.130396   0.248496
    19  C    0.004533  -0.172806  -0.061051   0.167173  -0.086955  -0.101571
    20  H    0.000029   0.017751  -0.005914   0.031413  -0.008967  -0.057392
    21  H    0.000008  -0.010253   0.002608  -0.009181  -0.001159   0.025344
    22  H   -0.000170   0.022215   0.006111  -0.015982   0.007216   0.003672
    23  O   -0.073178   0.127959   0.023806   0.098287  -0.024950  -0.054993
    24  Si   0.079031  -0.725591  -0.101578  -0.064093   0.036557   0.279022
    25  C   -0.009209   0.027729  -0.004085   0.016124  -0.000413  -0.031406
    26  H   -0.000030   0.009255  -0.000072   0.000078   0.000064  -0.000866
    27  H    0.001221  -0.013441  -0.000175   0.002361   0.000482  -0.003856
    28  H   -0.000048  -0.013810  -0.000260  -0.000704   0.000234   0.011344
    29  C    0.005896  -0.176535  -0.003446  -0.001207   0.002927   0.030679
    30  C   -0.016688   0.104389   0.028888   0.004773  -0.022915  -0.034433
    31  H   -0.000006   0.006393   0.000765  -0.000021  -0.000060  -0.000863
    32  H    0.000008  -0.027520  -0.000772   0.000344  -0.000343  -0.002147
    33  H    0.000417  -0.018240   0.003738   0.000353  -0.000421   0.003299
    34  C    0.000451  -0.070219   0.025740   0.002774  -0.013373   0.029759
    35  H   -0.000001   0.000978  -0.000029  -0.000023   0.000156  -0.000887
    36  H    0.000000  -0.000775   0.000026  -0.000004   0.000000   0.000752
    37  H    0.000000   0.001057   0.000188   0.000486  -0.000291   0.001024
    38  C    0.000130  -0.027310   0.002854  -0.002320  -0.001031   0.018270
    39  H    0.000000   0.000297   0.000028  -0.000010   0.000000  -0.000094
    40  H    0.000000   0.000210  -0.000005   0.000009  -0.000003   0.000088
    41  H    0.000000  -0.001343   0.000001   0.000002  -0.000003   0.000120
    42  C   -0.001840   0.120076  -0.008901   0.006633   0.008104  -0.052775
    43  H    0.000000  -0.000379   0.000005   0.000044  -0.000005  -0.000368
    44  H    0.000000  -0.002684   0.000000   0.000173  -0.000005   0.002047
    45  H    0.000001   0.007904   0.000106  -0.000357   0.000072  -0.002951
    46  H    0.000000   0.004501   0.066293  -0.029453  -0.139267  -0.008461
    47  H   -0.000001  -0.004427  -0.021031   0.098177  -0.104856   0.012458
              7          8          9         10         11         12
     1  H   -0.013252  -0.000024  -0.000122  -0.002253  -0.004768   0.002813
     2  C   -1.236771   0.051092   0.021738   0.112239  -0.026488  -0.039837
     3  C   -0.262197   0.393208   0.035894  -0.031613   0.008347   0.338057
     4  C    0.892005   0.037513   0.146170   0.086368  -0.011554   0.045339
     5  C   -0.411190  -0.049115   0.041261   0.031353   0.015002  -0.067120
     6  C   -1.268457  -0.004049   0.094264   0.098899   0.066382   0.019286
     7  C    7.664983  -0.045282  -0.029915   0.003700   0.289441  -0.004665
     8  H   -0.045282   0.523615  -0.000106   0.000012  -0.002218  -0.022328
     9  H   -0.029915  -0.000106   0.570812  -0.006016   0.000013  -0.000120
    10  H    0.003700   0.000012  -0.006016   0.588568  -0.000140  -0.000013
    11  H    0.289441  -0.002218   0.000013  -0.000140   0.539899  -0.004333
    12  H   -0.004665  -0.022328  -0.000120  -0.000013  -0.004333   0.528449
    13  H    0.494229  -0.003210  -0.000072   0.000043  -0.026131   0.004287
    14  O    0.042621   0.000147   0.006191  -0.000890   0.000075   0.010470
    15  C   -0.057278  -0.051779  -0.002195   0.009248   0.002666   0.001083
    16  O   -0.031312   0.000345  -0.025928  -0.002374   0.000468   0.001945
    17  H    0.015570  -0.000020  -0.007604   0.000126  -0.000006   0.000160
    18  O    0.016668   0.000873  -0.006693  -0.038422  -0.001412   0.000846
    19  C    0.029286  -0.000181  -0.001216   0.002629  -0.001235   0.000846
    20  H   -0.006696   0.000000  -0.000071   0.010393   0.000000   0.000000
    21  H   -0.000074   0.000000  -0.000036   0.000073  -0.000001   0.000000
    22  H    0.008971   0.000000   0.000000  -0.001676  -0.000004   0.000000
    23  O   -0.043332  -0.000757  -0.000878  -0.002005  -0.000064  -0.000206
    24  Si   0.085267  -0.002553   0.002503  -0.003780  -0.015384   0.002375
    25  C   -0.009420   0.000074  -0.000295   0.003402   0.000079  -0.000116
    26  H   -0.001805   0.000000   0.000000   0.000005   0.000000   0.000000
    27  H    0.005423   0.000000   0.000000   0.000070   0.000002  -0.000001
    28  H   -0.001426   0.000000   0.000000  -0.000070   0.000000   0.000000
    29  C    0.086842  -0.000022  -0.000060  -0.003550  -0.003643  -0.000170
    30  C   -0.045261   0.000411  -0.000019   0.000165   0.004197  -0.001025
    31  H   -0.000525   0.000000   0.000000   0.000000   0.000044   0.000000
    32  H    0.019630   0.000000   0.000000   0.000000  -0.000096   0.000000
    33  H    0.005545  -0.000002   0.000000   0.000000  -0.000082  -0.000008
    34  C    0.007598   0.000003   0.000016  -0.000141   0.002247   0.000054
    35  H   -0.000270   0.000000   0.000000   0.000000   0.000001   0.000000
    36  H   -0.000044   0.000000   0.000000   0.000000   0.000000   0.000000
    37  H   -0.000415   0.000000   0.000000   0.000000  -0.000008   0.000000
    38  C   -0.007197  -0.000001   0.000003  -0.000327   0.000254  -0.000003
    39  H   -0.000112   0.000000   0.000000   0.000000   0.000000   0.000000
    40  H   -0.000118   0.000000   0.000000   0.000000   0.000000   0.000000
    41  H    0.000189   0.000000   0.000000   0.000000   0.000000   0.000000
    42  C   -0.033067   0.000010   0.000030   0.001832   0.000406   0.000007
    43  H    0.000358   0.000000   0.000000   0.000000   0.000000   0.000000
    44  H    0.000143   0.000000   0.000000  -0.000002   0.000000   0.000000
    45  H   -0.001642   0.000000   0.000000   0.000003   0.000000   0.000000
    46  H    0.000321   0.000362   0.000109   0.000001   0.000000  -0.000380
    47  H   -0.000375   0.000059   0.001028   0.000000   0.000001   0.000275
             13         14         15         16         17         18
     1  H    0.004705  -0.000105  -0.004401  -0.004153   0.000034   0.010755
     2  C   -0.137668  -0.014270  -0.425110   0.057958  -0.029062  -0.138340
     3  C   -0.073960  -0.123808  -0.222261   0.045589  -0.017907  -0.088871
     4  C    0.006298  -0.123019   0.171600  -0.120747   0.069608  -0.084348
     5  C    0.011241   0.223939  -2.637945   0.084670   0.009794   0.130396
     6  C   -0.005188   0.032869   0.040005   0.026517   0.019936   0.248496
     7  C    0.494229   0.042621  -0.057278  -0.031312   0.015570   0.016668
     8  H   -0.003210   0.000147  -0.051779   0.000345  -0.000020   0.000873
     9  H   -0.000072   0.006191  -0.002195  -0.025928  -0.007604  -0.006693
    10  H    0.000043  -0.000890   0.009248  -0.002374   0.000126  -0.038422
    11  H   -0.026131   0.000075   0.002666   0.000468  -0.000006  -0.001412
    12  H    0.004287   0.010470   0.001083   0.001945   0.000160   0.000846
    13  H    0.502877   0.003268  -0.002230   0.000323   0.000001   0.010450
    14  O    0.003268   8.239072   0.097163   0.012146  -0.000656  -0.015971
    15  C   -0.002230   0.097163   8.319831  -0.060998  -0.039398   0.013978
    16  O    0.000323   0.012146  -0.060998   8.302435   0.208743   0.018259
    17  H    0.000001  -0.000656  -0.039398   0.208743   0.389404  -0.000643
    18  O    0.010450  -0.015971   0.013978   0.018259  -0.000643   8.296436
    19  C    0.008027  -0.003694   0.005316  -0.000572  -0.000590   0.026932
    20  H   -0.000006  -0.000084   0.000524  -0.000452   0.000001  -0.046704
    21  H    0.000023  -0.000138  -0.001956   0.000056   0.000000  -0.079879
    22  H   -0.000042  -0.000061  -0.000371   0.000145   0.000000  -0.053905
    23  O    0.002620  -0.000032   0.004729  -0.003281   0.000182   0.025665
    24  Si   0.010427   0.000107  -0.018261  -0.000375  -0.000447  -0.009921
    25  C   -0.000552  -0.000048  -0.001561  -0.001302   0.000175   0.000336
    26  H    0.000000   0.000000   0.000006   0.000003   0.000000   0.000001
    27  H    0.000000   0.000000   0.000000   0.000312   0.000002   0.000005
    28  H    0.000000   0.000000  -0.000001   0.000007   0.000000   0.000009
    29  C    0.000436  -0.000076   0.000473  -0.000263   0.000011   0.002766
    30  C   -0.002760   0.000063  -0.001675  -0.000951  -0.000089  -0.002848
    31  H    0.000000   0.000000   0.000006   0.000002   0.000000   0.000004
    32  H   -0.000002   0.000000  -0.000006  -0.000003   0.000000  -0.000012
    33  H    0.000010  -0.000001  -0.000064  -0.000092   0.000000  -0.000013
    34  C    0.000042   0.000111  -0.001393   0.000066  -0.000003   0.000113
    35  H   -0.000003   0.000000   0.000004   0.000000   0.000000  -0.000004
    36  H    0.000000   0.000000   0.000000   0.000000   0.000000  -0.000002
    37  H    0.000015   0.000000  -0.000015   0.000000   0.000000  -0.000018
    38  C   -0.000025  -0.000003  -0.000298   0.000045   0.000000  -0.000821
    39  H    0.000000   0.000000   0.000000   0.000000   0.000000   0.000000
    40  H    0.000000   0.000000   0.000000   0.000000   0.000000   0.000000
    41  H    0.000000   0.000000   0.000000   0.000000   0.000000   0.000000
    42  C    0.000012  -0.000028   0.000610   0.000329  -0.000003  -0.000699
    43  H    0.000000   0.000000   0.000000   0.000000   0.000000  -0.000011
    44  H    0.000000   0.000000   0.000000   0.000000   0.000000  -0.000026
    45  H    0.000000   0.000000   0.000002   0.000001   0.000000   0.000082
    46  H   -0.000017  -0.037197   0.479389   0.000387  -0.000082  -0.000242
    47  H    0.000004  -0.033845   0.385147   0.000970  -0.000338   0.000538
             19         20         21         22         23         24
     1  H    0.004533   0.000029   0.000008  -0.000170  -0.073178   0.079031
     2  C   -0.172806   0.017751  -0.010253   0.022215   0.127959  -0.725591
     3  C   -0.061051  -0.005914   0.002608   0.006111   0.023806  -0.101578
     4  C    0.167173   0.031413  -0.009181  -0.015982   0.098287  -0.064093
     5  C   -0.086955  -0.008967  -0.001159   0.007216  -0.024950   0.036557
     6  C   -0.101571  -0.057392   0.025344   0.003672  -0.054993   0.279022
     7  C    0.029286  -0.006696  -0.000074   0.008971  -0.043332   0.085267
     8  H   -0.000181   0.000000   0.000000   0.000000  -0.000757  -0.002553
     9  H   -0.001216  -0.000071  -0.000036   0.000000  -0.000878   0.002503
    10  H    0.002629   0.010393   0.000073  -0.001676  -0.002005  -0.003780
    11  H   -0.001235   0.000000  -0.000001  -0.000004  -0.000064  -0.015384
    12  H    0.000846   0.000000   0.000000   0.000000  -0.000206   0.002375
    13  H    0.008027  -0.000006   0.000023  -0.000042   0.002620   0.010427
    14  O   -0.003694  -0.000084  -0.000138  -0.000061  -0.000032   0.000107
    15  C    0.005316   0.000524  -0.001956  -0.000371   0.004729  -0.018261
    16  O   -0.000572  -0.000452   0.000056   0.000145  -0.003281  -0.000375
    17  H   -0.000590   0.000001   0.000000   0.000000   0.000182  -0.000447
    18  O    0.026932  -0.046704  -0.079879  -0.053905   0.025665  -0.009921
    19  C    5.104056   0.414215   0.435350   0.395450  -0.014744   0.023025
    20  H    0.414215   0.576505  -0.026693  -0.043666   0.000998   0.010087
    21  H    0.435350  -0.026693   0.536516  -0.031835   0.002329  -0.002829
    22  H    0.395450  -0.043666  -0.031835   0.559345  -0.017267  -0.006632
    23  O   -0.014744   0.000998   0.002329  -0.017267   8.400709  -0.092961
    24  Si   0.023025   0.010087  -0.002829  -0.006632  -0.092961  13.232784
    25  C   -0.002991  -0.000552   0.000226  -0.000603  -0.041440   0.256617
    26  H    0.000006   0.000000   0.000000   0.000000   0.008441  -0.037609
    27  H    0.000255   0.000000   0.000000   0.000000  -0.007624  -0.011677
    28  H    0.000310  -0.000008   0.000000   0.000004  -0.003776  -0.025678
    29  C    0.005659  -0.003315   0.001260  -0.000704  -0.111895   0.514336
    30  C   -0.002073  -0.000154  -0.000027   0.000968  -0.035003   0.196382
    31  H    0.000007   0.000000   0.000000   0.000000   0.008945  -0.041498
    32  H   -0.000086   0.000000   0.000000   0.000000  -0.003246  -0.016673
    33  H    0.000059   0.000000   0.000000   0.000000  -0.005361  -0.023078
    34  C   -0.004374  -0.000057  -0.000127   0.002745   0.048273  -0.099612
    35  H   -0.000006   0.000000   0.000000   0.000001  -0.003247   0.006909
    36  H    0.000094   0.000000   0.000000   0.000002  -0.000352   0.015108
    37  H   -0.001056  -0.000003  -0.000003   0.000673   0.007025  -0.024814
    38  C   -0.001983  -0.000218   0.000052   0.000614   0.022359  -0.104598
    39  H   -0.000002   0.000000   0.000000   0.000000   0.000358  -0.013520
    40  H    0.000010   0.000000   0.000000   0.000000   0.000663  -0.009920
    41  H    0.000001   0.000000   0.000000   0.000000  -0.000553   0.018282
    42  C   -0.004447   0.000631  -0.000365  -0.001299   0.033407  -0.160725
    43  H    0.000253   0.000001   0.000000  -0.000002  -0.000788   0.013690
    44  H    0.000309  -0.000008   0.000000   0.000003  -0.002117  -0.001858
    45  H   -0.003033   0.000134  -0.000014   0.001845   0.007888  -0.015454
    46  H   -0.000112   0.000000   0.000000   0.000000  -0.000013   0.000001
    47  H    0.000514   0.000000   0.000000   0.000000  -0.000001   0.000038
             25         26         27         28         29         30
     1  H   -0.009209  -0.000030   0.001221  -0.000048   0.005896  -0.016688
     2  C    0.027729   0.009255  -0.013441  -0.013810  -0.176535   0.104389
     3  C   -0.004085  -0.000072  -0.000175  -0.000260  -0.003446   0.028888
     4  C    0.016124   0.000078   0.002361  -0.000704  -0.001207   0.004773
     5  C   -0.000413   0.000064   0.000482   0.000234   0.002927  -0.022915
     6  C   -0.031406  -0.000866  -0.003856   0.011344   0.030679  -0.034433
     7  C   -0.009420  -0.001805   0.005423  -0.001426   0.086842  -0.045261
     8  H    0.000074   0.000000   0.000000   0.000000  -0.000022   0.000411
     9  H   -0.000295   0.000000   0.000000   0.000000  -0.000060  -0.000019
    10  H    0.003402   0.000005   0.000070  -0.000070  -0.003550   0.000165
    11  H    0.000079   0.000000   0.000002   0.000000  -0.003643   0.004197
    12  H   -0.000116   0.000000  -0.000001   0.000000  -0.000170  -0.001025
    13  H   -0.000552   0.000000   0.000000   0.000000   0.000436  -0.002760
    14  O   -0.000048   0.000000   0.000000   0.000000  -0.000076   0.000063
    15  C   -0.001561   0.000006   0.000000  -0.000001   0.000473  -0.001675
    16  O   -0.001302   0.000003   0.000312   0.000007  -0.000263  -0.000951
    17  H    0.000175   0.000000   0.000002   0.000000   0.000011  -0.000089
    18  O    0.000336   0.000001   0.000005   0.000009   0.002766  -0.002848
    19  C   -0.002991   0.000006   0.000255   0.000310   0.005659  -0.002073
    20  H   -0.000552   0.000000   0.000000  -0.000008  -0.003315  -0.000154
    21  H    0.000226   0.000000   0.000000   0.000000   0.001260  -0.000027
    22  H   -0.000603   0.000000   0.000000   0.000004  -0.000704   0.000968
    23  O   -0.041440   0.008441  -0.007624  -0.003776  -0.111895  -0.035003
    24  Si   0.256617  -0.037609  -0.011677  -0.025678   0.514336   0.196382
    25  C    5.415119   0.408554   0.384196   0.403163  -0.138005  -0.008914
    26  H    0.408554   0.489250  -0.022122  -0.022243  -0.032097  -0.007219
    27  H    0.384196  -0.022122   0.495156  -0.022623   0.019607  -0.012061
    28  H    0.403163  -0.022243  -0.022623   0.491964  -0.021746   0.007927
    29  C   -0.138005  -0.032097   0.019607  -0.021746   8.242514  -0.161449
    30  C   -0.008914  -0.007219  -0.012061   0.007927  -0.161449   5.467214
    31  H   -0.005411   0.000107   0.000132   0.000025  -0.030755   0.408204
    32  H    0.006973   0.000026  -0.000001  -0.000017  -0.019026   0.400359
    33  H   -0.010633   0.000116   0.000401  -0.000002   0.019664   0.388167
    34  C   -0.003924  -0.001401  -0.000662  -0.002612  -0.442265   0.006840
    35  H    0.000044   0.000001  -0.000001   0.000000  -0.067960  -0.000522
    36  H   -0.001523   0.000000   0.000000   0.000000  -0.164248   0.000274
    37  H   -0.000038   0.000000  -0.000001   0.000002  -0.092482   0.002657
    38  C    0.025134   0.009093  -0.000880   0.003365  -0.433180   0.028318
    39  H   -0.000493   0.000014  -0.000005   0.000010  -0.082167   0.004619
    40  H    0.003942   0.000233  -0.000005   0.000021  -0.081407  -0.001048
    41  H    0.000264   0.000011   0.000000  -0.000005  -0.153566   0.000164
    42  C    0.003119   0.012822  -0.000143   0.010998  -0.379676  -0.002576
    43  H    0.000580  -0.000001   0.000000  -0.000006  -0.160018  -0.001524
    44  H    0.001362   0.000053   0.000009   0.000213  -0.057229   0.000023
    45  H    0.000460   0.000012  -0.000006   0.000032  -0.108988  -0.000261
    46  H    0.000001   0.000000   0.000000   0.000000   0.000000   0.000002
    47  H   -0.000004   0.000000   0.000000   0.000000  -0.000002  -0.000001
             31         32         33         34         35         36
     1  H   -0.000006   0.000008   0.000417   0.000451  -0.000001   0.000000
     2  C    0.006393  -0.027520  -0.018240  -0.070219   0.000978  -0.000775
     3  C    0.000765  -0.000772   0.003738   0.025740  -0.000029   0.000026
     4  C   -0.000021   0.000344   0.000353   0.002774  -0.000023  -0.000004
     5  C   -0.000060  -0.000343  -0.000421  -0.013373   0.000156   0.000000
     6  C   -0.000863  -0.002147   0.003299   0.029759  -0.000887   0.000752
     7  C   -0.000525   0.019630   0.005545   0.007598  -0.000270  -0.000044
     8  H    0.000000   0.000000  -0.000002   0.000003   0.000000   0.000000
     9  H    0.000000   0.000000   0.000000   0.000016   0.000000   0.000000
    10  H    0.000000   0.000000   0.000000  -0.000141   0.000000   0.000000
    11  H    0.000044  -0.000096  -0.000082   0.002247   0.000001   0.000000
    12  H    0.000000   0.000000  -0.000008   0.000054   0.000000   0.000000
    13  H    0.000000  -0.000002   0.000010   0.000042  -0.000003   0.000000
    14  O    0.000000   0.000000  -0.000001   0.000111   0.000000   0.000000
    15  C    0.000006  -0.000006  -0.000064  -0.001393   0.000004   0.000000
    16  O    0.000002  -0.000003  -0.000092   0.000066   0.000000   0.000000
    17  H    0.000000   0.000000   0.000000  -0.000003   0.000000   0.000000
    18  O    0.000004  -0.000012  -0.000013   0.000113  -0.000004  -0.000002
    19  C    0.000007  -0.000086   0.000059  -0.004374  -0.000006   0.000094
    20  H    0.000000   0.000000   0.000000  -0.000057   0.000000   0.000000
    21  H    0.000000   0.000000   0.000000  -0.000127   0.000000   0.000000
    22  H    0.000000   0.000000   0.000000   0.002745   0.000001   0.000002
    23  O    0.008945  -0.003246  -0.005361   0.048273  -0.003247  -0.000352
    24  Si  -0.041498  -0.016673  -0.023078  -0.099612   0.006909   0.015108
    25  C   -0.005411   0.006973  -0.010633  -0.003924   0.000044  -0.001523
    26  H    0.000107   0.000026   0.000116  -0.001401   0.000001   0.000000
    27  H    0.000132  -0.000001   0.000401  -0.000662  -0.000001   0.000000
    28  H    0.000025  -0.000017  -0.000002  -0.002612   0.000000   0.000000
    29  C   -0.030755  -0.019026   0.019664  -0.442265  -0.067960  -0.164248
    30  C    0.408204   0.400359   0.388167   0.006840  -0.000522   0.000274
    31  H    0.488347  -0.021723  -0.021777   0.009161   0.000060  -0.000001
    32  H   -0.021723   0.490034  -0.022783   0.011268   0.000248  -0.000010
    33  H   -0.021777  -0.022783   0.498420   0.000957  -0.000006   0.000000
    34  C    0.009161   0.011268   0.000957   6.024455   0.417078   0.471998
    35  H    0.000060   0.000248  -0.000006   0.417078   0.535484  -0.028203
    36  H   -0.000001  -0.000010   0.000000   0.471998  -0.028203   0.543541
    37  H    0.000004   0.000038  -0.000006   0.463025  -0.025539  -0.026982
    38  C    0.011740   0.001615  -0.002339   0.009376  -0.004101   0.009415
    39  H    0.000074   0.000012   0.000006  -0.016287   0.002792  -0.000312
    40  H    0.000026   0.000020  -0.000006   0.006407   0.000030  -0.000005
    41  H    0.000017  -0.000007   0.000000   0.012046  -0.000336   0.005320
    42  C    0.000448  -0.003692  -0.001288  -0.320168   0.003137   0.008427
    43  H    0.000000   0.000000   0.000000   0.011668   0.000032   0.005494
    44  H    0.000001   0.000000  -0.000001   0.002089  -0.000153   0.000041
    45  H    0.000000   0.000001  -0.000001  -0.003826   0.000032  -0.000322
    46  H    0.000000   0.000000   0.000000   0.000000   0.000000   0.000000
    47  H    0.000000   0.000000   0.000000   0.000000   0.000000   0.000000
             37         38         39         40         41         42
     1  H    0.000000   0.000130   0.000000   0.000000   0.000000  -0.001840
     2  C    0.001057  -0.027310   0.000297   0.000210  -0.001343   0.120076
     3  C    0.000188   0.002854   0.000028  -0.000005   0.000001  -0.008901
     4  C    0.000486  -0.002320  -0.000010   0.000009   0.000002   0.006633
     5  C   -0.000291  -0.001031   0.000000  -0.000003  -0.000003   0.008104
     6  C    0.001024   0.018270  -0.000094   0.000088   0.000120  -0.052775
     7  C   -0.000415  -0.007197  -0.000112  -0.000118   0.000189  -0.033067
     8  H    0.000000  -0.000001   0.000000   0.000000   0.000000   0.000010
     9  H    0.000000   0.000003   0.000000   0.000000   0.000000   0.000030
    10  H    0.000000  -0.000327   0.000000   0.000000   0.000000   0.001832
    11  H   -0.000008   0.000254   0.000000   0.000000   0.000000   0.000406
    12  H    0.000000  -0.000003   0.000000   0.000000   0.000000   0.000007
    13  H    0.000015  -0.000025   0.000000   0.000000   0.000000   0.000012
    14  O    0.000000  -0.000003   0.000000   0.000000   0.000000  -0.000028
    15  C   -0.000015  -0.000298   0.000000   0.000000   0.000000   0.000610
    16  O    0.000000   0.000045   0.000000   0.000000   0.000000   0.000329
    17  H    0.000000   0.000000   0.000000   0.000000   0.000000  -0.000003
    18  O   -0.000018  -0.000821   0.000000   0.000000   0.000000  -0.000699
    19  C   -0.001056  -0.001983  -0.000002   0.000010   0.000001  -0.004447
    20  H   -0.000003  -0.000218   0.000000   0.000000   0.000000   0.000631
    21  H   -0.000003   0.000052   0.000000   0.000000   0.000000  -0.000365
    22  H    0.000673   0.000614   0.000000   0.000000   0.000000  -0.001299
    23  O    0.007025   0.022359   0.000358   0.000663  -0.000553   0.033407
    24  Si  -0.024814  -0.104598  -0.013520  -0.009920   0.018282  -0.160725
    25  C   -0.000038   0.025134  -0.000493   0.003942   0.000264   0.003119
    26  H    0.000000   0.009093   0.000014   0.000233   0.000011   0.012822
    27  H   -0.000001  -0.000880  -0.000005  -0.000005   0.000000  -0.000143
    28  H    0.000002   0.003365   0.000010   0.000021  -0.000005   0.010998
    29  C   -0.092482  -0.433180  -0.082167  -0.081407  -0.153566  -0.379676
    30  C    0.002657   0.028318   0.004619  -0.001048   0.000164  -0.002576
    31  H    0.000004   0.011740   0.000074   0.000026   0.000017   0.000448
    32  H    0.000038   0.001615   0.000012   0.000020  -0.000007  -0.003692
    33  H   -0.000006  -0.002339   0.000006  -0.000006   0.000000  -0.001288
    34  C    0.463025   0.009376  -0.016287   0.006407   0.012046  -0.320168
    35  H   -0.025539  -0.004101   0.002792   0.000030  -0.000336   0.003137
    36  H   -0.026982   0.009415  -0.000312  -0.000005   0.005320   0.008427
    37  H    0.517478   0.001421   0.000048  -0.000146   0.000016  -0.005624
    38  C    0.001421   5.630665   0.453752   0.447343   0.456557   0.005224
    39  H    0.000048   0.453752   0.530465  -0.027249  -0.027473   0.005848
    40  H   -0.000146   0.447343  -0.027249   0.532777  -0.027602  -0.014665
    41  H    0.000016   0.456557  -0.027473  -0.027602   0.538288   0.008058
    42  C   -0.005624   0.005224   0.005848  -0.014665   0.008058   5.981152
    43  H   -0.000299   0.009588   0.000003  -0.000328   0.005458   0.466522
    44  H    0.000015  -0.007309   0.000024   0.002752  -0.000329   0.417190
    45  H    0.002934   0.001138  -0.000146   0.000041   0.000025   0.469581
    46  H    0.000000   0.000000   0.000000   0.000000   0.000000   0.000000
    47  H    0.000000   0.000000   0.000000   0.000000   0.000000   0.000000
             43         44         45         46         47
     1  H    0.000000   0.000000   0.000001   0.000000  -0.000001
     2  C   -0.000379  -0.002684   0.007904   0.004501  -0.004427
     3  C    0.000005   0.000000   0.000106   0.066293  -0.021031
     4  C    0.000044   0.000173  -0.000357  -0.029453   0.098177
     5  C   -0.000005  -0.000005   0.000072  -0.139267  -0.104856
     6  C   -0.000368   0.002047  -0.002951  -0.008461   0.012458
     7  C    0.000358   0.000143  -0.001642   0.000321  -0.000375
     8  H    0.000000   0.000000   0.000000   0.000362   0.000059
     9  H    0.000000   0.000000   0.000000   0.000109   0.001028
    10  H    0.000000  -0.000002   0.000003   0.000001   0.000000
    11  H    0.000000   0.000000   0.000000   0.000000   0.000001
    12  H    0.000000   0.000000   0.000000  -0.000380   0.000275
    13  H    0.000000   0.000000   0.000000  -0.000017   0.000004
    14  O    0.000000   0.000000   0.000000  -0.037197  -0.033845
    15  C    0.000000   0.000000   0.000002   0.479389   0.385147
    16  O    0.000000   0.000000   0.000001   0.000387   0.000970
    17  H    0.000000   0.000000   0.000000  -0.000082  -0.000338
    18  O   -0.000011  -0.000026   0.000082  -0.000242   0.000538
    19  C    0.000253   0.000309  -0.003033  -0.000112   0.000514
    20  H    0.000001  -0.000008   0.000134   0.000000   0.000000
    21  H    0.000000   0.000000  -0.000014   0.000000   0.000000
    22  H   -0.000002   0.000003   0.001845   0.000000   0.000000
    23  O   -0.000788  -0.002117   0.007888  -0.000013  -0.000001
    24  Si   0.013690  -0.001858  -0.015454   0.000001   0.000038
    25  C    0.000580   0.001362   0.000460   0.000001  -0.000004
    26  H   -0.000001   0.000053   0.000012   0.000000   0.000000
    27  H    0.000000   0.000009  -0.000006   0.000000   0.000000
    28  H   -0.000006   0.000213   0.000032   0.000000   0.000000
    29  C   -0.160018  -0.057229  -0.108988   0.000000  -0.000002
    30  C   -0.001524   0.000023  -0.000261   0.000002  -0.000001
    31  H    0.000000   0.000001   0.000000   0.000000   0.000000
    32  H    0.000000   0.000000   0.000001   0.000000   0.000000
    33  H    0.000000  -0.000001  -0.000001   0.000000   0.000000
    34  C    0.011668   0.002089  -0.003826   0.000000   0.000000
    35  H    0.000032  -0.000153   0.000032   0.000000   0.000000
    36  H    0.005494   0.000041  -0.000322   0.000000   0.000000
    37  H   -0.000299   0.000015   0.002934   0.000000   0.000000
    38  C    0.009588  -0.007309   0.001138   0.000000   0.000000
    39  H    0.000003   0.000024  -0.000146   0.000000   0.000000
    40  H   -0.000328   0.002752   0.000041   0.000000   0.000000
    41  H    0.005458  -0.000329   0.000025   0.000000   0.000000
    42  C    0.466522   0.417190   0.469581   0.000000   0.000000
    43  H    0.541861  -0.028048  -0.027252   0.000000   0.000000
    44  H   -0.028048   0.534653  -0.026394   0.000000   0.000000
    45  H   -0.027252  -0.026394   0.527831   0.000000   0.000000
    46  H    0.000000   0.000000   0.000000   0.526998  -0.035598
    47  H    0.000000   0.000000   0.000000  -0.035598   0.531978
 Mulliken atomic charges:
              1
     1  H    0.155866
     2  C   -0.498028
     3  C   -0.476511
     4  C   -0.037743
     5  C   -0.051731
     6  C   -0.031214
     7  C   -0.156696
     8  H    0.173921
     9  H    0.161312
    10  H    0.144144
    11  H    0.168039
    12  H    0.184036
    13  H    0.192530
    14  O   -0.314317
    15  C   -0.002585
    16  O   -0.508918
    17  H    0.383102
    18  O   -0.233802
    19  C   -0.159538
    20  H    0.138276
    21  H    0.160726
    22  H    0.164235
    23  O   -0.280581
    24  Si   0.848568
    25  C   -0.684736
    26  H    0.187315
    27  H    0.185646
    28  H    0.185408
    29  C   -0.001919
    30  C   -0.693509
    31  H    0.188128
    32  H    0.187587
    33  H    0.185049
    34  C   -0.585918
    35  H    0.164300
    36  H    0.162290
    37  H    0.179630
    38  C   -0.554384
    39  H    0.169520
    40  H    0.167936
    41  H    0.166394
    42  C   -0.572634
    43  H    0.163475
    44  H    0.165061
    45  H    0.170522
    46  H    0.172458
    47  H    0.169291
 Sum of Mulliken atomic charges =   0.00000
 Mulliken charges with hydrogens summed into heavy atoms:
              1
     2  C   -0.342162
     3  C   -0.118555
     4  C    0.123569
     5  C   -0.051731
     6  C    0.112930
     7  C    0.203874
    14  O   -0.314317
    15  C    0.339165
    16  O   -0.125815
    18  O   -0.233802
    19  C    0.303699
    23  O   -0.280581
    24  Si   0.848568
    25  C   -0.126368
    29  C   -0.001919
    30  C   -0.132746
    34  C   -0.079698
    38  C   -0.050534
    42  C   -0.073576
 Sum of Mulliken charges with hydrogens summed into heavy atoms =   0.00000
 Electronic spatial extent (au):  <R**2>=           6746.3498
 Charge=              0.0000 electrons
 Dipole moment (field-independent basis, Debye):
    X=             -0.3061    Y=             -2.9032    Z=              1.6336  Tot=              3.3453
 Quadrupole moment (field-independent basis, Debye-Ang):
   XX=           -113.8937   YY=           -123.4365   ZZ=           -128.3885
   XY=             11.3595   XZ=             -6.9008   YZ=              4.4781
 Traceless Quadrupole moment (field-independent basis, Debye-Ang):
   XX=              8.0125   YY=             -1.5303   ZZ=             -6.4823
   XY=             11.3595   XZ=             -6.9008   YZ=              4.4781
 Octapole moment (field-independent basis, Debye-Ang**2):
  XXX=           -109.0983  YYY=             14.6982  ZZZ=             -1.4761  XYY=            -10.1524
  XXY=            -58.5671  XXZ=             42.7008  XZZ=            -12.4474  YZZ=              0.1646
  YYZ=              4.6999  XYZ=            -10.6313
 Hexadecapole moment (field-independent basis, Debye-Ang**3):
 XXXX=          -6206.9023 YYYY=          -1399.4647 ZZZZ=          -1057.2287 XXXY=            233.5775
 XXXZ=           -187.5949 YYYX=              5.8943 YYYZ=            -19.9742 ZZZX=            -10.9262
 ZZZY=             12.4980 XXYY=          -1350.5408 XXZZ=          -1267.6211 YYZZ=           -405.4977
 XXYZ=             19.4278 YYXZ=            -13.9688 ZZXY=             18.2832
 N-N= 1.806748110868D+03 E-N=-6.284599659651D+03  KE= 1.131541340161D+03
 1\1\GINC-COMPUTE-8-17\SP\RmPW1PW91\6-31+G(d,p)\C14H28O4Si1\ELUCIANO.IQ
 UIR\07-Dec-2022\0\\# mPW1PW91/6-31+g** scrf=(PCM,solvent=chloroform) n
 mr\\comment\\0,1\H,0,-0.586451,-1.252481,0.6551\C,0,-0.592019,-0.35254
 3,0.021986\C,0,-2.631643,-1.2847,-1.137027\C,0,-2.874343,0.138241,0.98
 7276\C,0,-3.505402,-0.355186,-0.313038\C,0,-1.454712,0.692261,0.758254
 \C,0,-1.220592,-0.701843,-1.331214\H,0,-3.114496,-1.466113,-2.103178\H
 ,0,-3.494053,0.948801,1.394863\H,0,-1.002867,0.904744,1.739241\H,0,-0.
 582523,-1.420322,-1.857412\H,0,-2.561762,-2.249537,-0.616424\H,0,-1.26
 934,0.208879,-1.937368\O,0,-4.239242,0.638089,-1.048016\C,0,-4.975387,
 -0.412726,-0.414718\O,0,-2.740277,-0.939012,1.919694\H,0,-3.624013,-1.
 313151,2.061239\O,0,-1.626021,1.890139,0.020879\C,0,-0.624474,2.878845
 ,0.192278\H,0,-0.43158,3.069988,1.259659\H,0,-1.013972,3.793493,-0.264
 31\H,0,0.317163,2.599436,-0.290877\O,0,0.736732,0.142946,-0.147928\Si,
 0,2.130385,-0.717193,0.244385\C,0,2.176445,-1.050032,2.106677\H,0,3.06
 8036,-1.623886,2.387753\H,0,1.303004,-1.633219,2.423304\H,0,2.178482,-
 0.121311,2.68818\C,0,3.578774,0.399197,-0.316492\C,0,2.144141,-2.38261
 2,-0.657325\H,0,3.029214,-2.972161,-0.388976\H,0,2.140187,-2.261345,-1
 .746475\H,0,1.265255,-2.981821,-0.388926\C,0,3.441556,0.720413,-1.8204
 01\H,0,3.482075,-0.186058,-2.436782\H,0,4.26312,1.374031,-2.148277\H,0
 ,2.498031,1.231631,-2.039919\C,0,4.920597,-0.327039,-0.075574\H,0,4.99
 0489,-1.261632,-0.64542\H,0,5.07697,-0.56694,0.983722\H,0,5.759784,0.3
 09704,-0.390919\C,0,3.572853,1.720242,0.481685\H,0,4.396339,2.370088,0
 .151059\H,0,3.704526,1.550217,1.557196\H,0,2.637918,2.274419,0.342609\
 H,0,-5.439574,-1.135522,-1.087237\H,0,-5.599653,-0.101647,0.425952\\Ve
 rsion=EM64L-G09RevC.01\State=1-A\HF=-1140.6208347\RMSD=4.511e-09\Dipol
 e=-0.1204104,-1.1422174,0.6427175\Quadrupole=5.9571264,-1.1377138,-4.8
 194126,8.4454819,-5.1305769,3.329369\PG=C01 [X(C14H28O4Si1)]\\@


 MEMORIES ARE LIKE AN ENGLISH GRAMMER LESSON -
 PRESENT TENSE, AND PAST PERFECT.
 Job cpu time:  0 days  3 hours 35 minutes 41.0 seconds.
 File lengths (MBytes):  RWF=    300 Int=      0 D2E=      0 Chk=     16 Scr=      1
 Normal termination of Gaussian 09 at Wed Dec  7 00:47:46 2022.
