 Entering Gaussian System, Link 0=g09
 Input=/home/eluciano.iquir/todos_optB3L_MPW_B_PCM/02_epoxido28_022_optB3L_nmr_MPW_B_PCM.gjc
 Output=/home/eluciano.iquir/todos_optB3L_MPW_B_PCM/02_epoxido28_022_optB3L_nmr_MPW_B_PCM.log
 Initial command:
 /share/apps/Gaussian09/EM64T.SSE4.2-enabled/g09/l1.exe /tmp/Gau-16192.inp -scrdir=/tmp/
 Entering Link 1 = /share/apps/Gaussian09/EM64T.SSE4.2-enabled/g09/l1.exe PID=     16193.
  
 Copyright (c) 1988,1990,1992,1993,1995,1998,2003,2009,2011,
            Gaussian, Inc.  All Rights Reserved.
  
 This is part of the Gaussian(R) 09 program.  It is based on
 the Gaussian(R) 03 system (copyright 2003, Gaussian, Inc.),
 the Gaussian(R) 98 system (copyright 1998, Gaussian, Inc.),
 the Gaussian(R) 94 system (copyright 1995, Gaussian, Inc.),
 the Gaussian 92(TM) system (copyright 1992, Gaussian, Inc.),
 the Gaussian 90(TM) system (copyright 1990, Gaussian, Inc.),
 the Gaussian 88(TM) system (copyright 1988, Gaussian, Inc.),
 the Gaussian 86(TM) system (copyright 1986, Carnegie Mellon
 University), and the Gaussian 82(TM) system (copyright 1983,
 Carnegie Mellon University). Gaussian is a federally registered
 trademark of Gaussian, Inc.
  
 This software contains proprietary and confidential information,
 including trade secrets, belonging to Gaussian, Inc.
  
 This software is provided under written license and may be
 used, copied, transmitted, or stored only in accord with that
 written license.
  
 The following legend is applicable only to US Government
 contracts under FAR:
  
                    RESTRICTED RIGHTS LEGEND
  
 Use, reproduction and disclosure by the US Government is
 subject to restrictions as set forth in subparagraphs (a)
 and (c) of the Commercial Computer Software - Restricted
 Rights clause in FAR 52.227-19.
  
 Gaussian, Inc.
 340 Quinnipiac St., Bldg. 40, Wallingford CT 06492
  
  
 ---------------------------------------------------------------
 Warning -- This program may not be used in any manner that
 competes with the business of Gaussian, Inc. or will provide
 assistance to any competitor of Gaussian, Inc.  The licensee
 of this program is prohibited from giving any competitor of
 Gaussian, Inc. access to this program.  By using this program,
 the user acknowledges that Gaussian, Inc. is engaged in the
 business of creating and licensing software in the field of
 computational chemistry and represents and warrants to the
 licensee that it is not a competitor of Gaussian, Inc. and that
 it will not use this program in any manner prohibited above.
 ---------------------------------------------------------------
  

 Cite this work as:
 Gaussian 09, Revision C.01,
 M. J. Frisch, G. W. Trucks, H. B. Schlegel, G. E. Scuseria, 
 M. A. Robb, J. R. Cheeseman, G. Scalmani, V. Barone, B. Mennucci, 
 G. A. Petersson, H. Nakatsuji, M. Caricato, X. Li, H. P. Hratchian, 
 A. F. Izmaylov, J. Bloino, G. Zheng, J. L. Sonnenberg, M. Hada, 
 M. Ehara, K. Toyota, R. Fukuda, J. Hasegawa, M. Ishida, T. Nakajima, 
 Y. Honda, O. Kitao, H. Nakai, T. Vreven, J. A. Montgomery, Jr., 
 J. E. Peralta, F. Ogliaro, M. Bearpark, J. J. Heyd, E. Brothers, 
 K. N. Kudin, V. N. Staroverov, T. Keith, R. Kobayashi, J. Normand, 
 K. Raghavachari, A. Rendell, J. C. Burant, S. S. Iyengar, J. Tomasi, 
 M. Cossi, N. Rega, J. M. Millam, M. Klene, J. E. Knox, J. B. Cross, 
 V. Bakken, C. Adamo, J. Jaramillo, R. Gomperts, R. E. Stratmann, 
 O. Yazyev, A. J. Austin, R. Cammi, C. Pomelli, J. W. Ochterski, 
 R. L. Martin, K. Morokuma, V. G. Zakrzewski, G. A. Voth, 
 P. Salvador, J. J. Dannenberg, S. Dapprich, A. D. Daniels, 
 O. Farkas, J. B. Foresman, J. V. Ortiz, J. Cioslowski, 
 and D. J. Fox, Gaussian, Inc., Wallingford CT, 2010.
 
 ******************************************
 Gaussian 09:  EM64L-G09RevC.01 23-Sep-2011
                 6-Dec-2022 
 ******************************************
 %nprocshared=4
 Will use up to    4 processors via shared memory.
 %mem=80MW
 -----------------------------------------------------
 # mPW1PW91/6-31+g** scrf=(PCM,solvent=chloroform) nmr
 -----------------------------------------------------
 1/38=1/1;
 2/12=2,17=6,18=5,40=1/2;
 3/5=1,6=6,7=111,11=2,16=1,25=1,30=1,70=2201,72=7,74=-7/1,2,8,3;
 4//1;
 5/5=2,38=5,53=7/2;
 8/6=1,10=90,11=11/1;
 10/13=100,45=16/2;
 6/7=2,8=2,9=2,10=2,28=1/1;
 99/9=1/99;
 -------
 comment
 -------
 Charge =  0 Multiplicity = 1
 Symbolic Z-Matrix:
 1                    -0.82804  -0.97718   0.33205 
 6                    -0.66178  -0.05381  -0.24466 
 6                    -2.75492  -0.20744  -1.72441 
 6                    -2.92499   0.59024   0.67056 
 6                    -3.31     -0.48797  -0.34218 
 6                    -1.45389   1.0417    0.49018 
 6                    -1.20254  -0.2538   -1.67492 
 1                    -3.08525   0.78938  -2.03887 
 1                    -3.54336   1.4732    0.45226 
 1                    -1.0215    1.20731   1.48757 
 1                    -0.82866  -1.21025  -2.05739 
 1                    -3.15889  -0.92621  -2.44417 
 1                    -0.78052   0.5329   -2.30619 
 8                    -4.67027  -0.93895  -0.21556 
 6                    -3.60544  -1.86366   0.08566 
 8                    -3.11991   0.17259   2.01546 
 1                    -4.06375  -0.04748   2.09218 
 8                    -1.50262   2.26617  -0.23368 
 6                    -0.36752   3.10889  -0.10589 
 1                    -0.09536   3.24855   0.95151 
 1                     0.50298   2.71778  -0.64252 
 1                    -0.65376   4.07693  -0.52779 
 8                     0.73096   0.24601  -0.2877 
 14                    1.94952  -0.7595    0.30034 
 6                     1.75911  -0.97265   2.17054 
 1                     2.54641  -1.61636   2.58171 
 1                     0.79787  -1.43737   2.42243 
 1                     1.80539  -0.01134   2.69455 
 6                     3.58025   0.13088  -0.1525 
 6                     1.82752  -2.46025  -0.52102 
 1                     2.58766  -3.14662  -0.12909 
 1                     1.95879  -2.39901  -1.60719 
 1                     0.84996  -2.92037  -0.33099 
 6                     3.64628   0.36018  -1.67767 
 1                     4.57606   0.88253  -1.94626 
 1                     2.80625   0.96796  -2.03108 
 1                     3.63259  -0.58512  -2.23405 
 6                     4.78456  -0.73314   0.2824 
 1                     4.79503  -1.70887  -0.21887 
 1                     4.79493  -0.91189   1.3649 
 1                     5.72746  -0.22782   0.02828 
 6                     3.65504   1.49535   0.56511 
 1                     2.81753   2.14559   0.28858 
 1                     4.58455   2.01824   0.29631 
 1                     3.64757   1.38483   1.65625 
 1                    -3.49082  -2.68025  -0.62807 
 1                    -3.50973  -2.13978   1.13374 
 
                          Input orientation:                          
 ---------------------------------------------------------------------
 Center     Atomic      Atomic             Coordinates (Angstroms)
 Number     Number       Type             X           Y           Z
 ---------------------------------------------------------------------
      1          1           0       -0.828037   -0.977176    0.332052
      2          6           0       -0.661778   -0.053810   -0.244657
      3          6           0       -2.754921   -0.207436   -1.724409
      4          6           0       -2.924994    0.590241    0.670555
      5          6           0       -3.310002   -0.487971   -0.342176
      6          6           0       -1.453885    1.041704    0.490182
      7          6           0       -1.202542   -0.253798   -1.674915
      8          1           0       -3.085253    0.789383   -2.038871
      9          1           0       -3.543358    1.473198    0.452255
     10          1           0       -1.021504    1.207310    1.487567
     11          1           0       -0.828658   -1.210253   -2.057385
     12          1           0       -3.158885   -0.926207   -2.444169
     13          1           0       -0.780517    0.532902   -2.306187
     14          8           0       -4.670273   -0.938946   -0.215562
     15          6           0       -3.605436   -1.863661    0.085656
     16          8           0       -3.119911    0.172590    2.015464
     17          1           0       -4.063749   -0.047482    2.092183
     18          8           0       -1.502623    2.266169   -0.233679
     19          6           0       -0.367524    3.108894   -0.105890
     20          1           0       -0.095360    3.248553    0.951505
     21          1           0        0.502977    2.717783   -0.642516
     22          1           0       -0.653758    4.076930   -0.527793
     23          8           0        0.730962    0.246007   -0.287696
     24         14           0        1.949524   -0.759501    0.300340
     25          6           0        1.759106   -0.972645    2.170539
     26          1           0        2.546405   -1.616358    2.581710
     27          1           0        0.797871   -1.437369    2.422429
     28          1           0        1.805389   -0.011335    2.694550
     29          6           0        3.580248    0.130875   -0.152503
     30          6           0        1.827519   -2.460249   -0.521017
     31          1           0        2.587664   -3.146621   -0.129085
     32          1           0        1.958788   -2.399008   -1.607194
     33          1           0        0.849962   -2.920368   -0.330994
     34          6           0        3.646283    0.360181   -1.677667
     35          1           0        4.576062    0.882531   -1.946255
     36          1           0        2.806253    0.967959   -2.031083
     37          1           0        3.632586   -0.585122   -2.234054
     38          6           0        4.784560   -0.733142    0.282400
     39          1           0        4.795025   -1.708874   -0.218874
     40          1           0        4.794932   -0.911888    1.364904
     41          1           0        5.727463   -0.227817    0.028278
     42          6           0        3.655036    1.495346    0.565105
     43          1           0        2.817527    2.145587    0.288580
     44          1           0        4.584551    2.018239    0.296306
     45          1           0        3.647572    1.384827    1.656246
     46          1           0       -3.490822   -2.680248   -0.628065
     47          1           0       -3.509730   -2.139780    1.133742
 ---------------------------------------------------------------------
                    Distance matrix (angstroms):
                    1          2          3          4          5
     1  H    0.000000
     2  C    1.101290   0.000000
     3  C    2.921372   2.567979   0.000000
     4  C    2.639812   2.524789   2.530033   0.000000
     5  C    2.618025   2.685348   1.515712   1.528528   0.000000
     6  C    2.119568   1.538692   2.856127   1.549360   2.545171
     7  C    2.165975   1.542096   1.553860   3.029929   2.504480
     8  H    3.719816   3.131040   1.096200   2.721457   2.135631
     9  H    3.659474   3.334808   2.860774   1.099837   2.128793
    10  H    2.478835   2.172654   3.914464   2.161378   3.385138
    11  H    2.400778   2.156662   2.197044   3.883048   3.101726
    12  H    3.625307   3.440127   1.094474   3.472150   2.152501
    13  H    3.040214   2.146680   2.187427   3.669205   3.361222
    14  O    3.881252   4.105161   2.545643   2.483871   1.438661
    15  C    2.925835   3.471281   2.596689   2.612804   1.470661
    16  O    3.067332   3.346912   3.776809   1.421691   2.455798
    17  H    3.798977   4.127259   4.037944   1.929891   2.586169
    18  O    3.360715   2.467680   3.147896   2.376870   3.296009
    19  C    4.135194   3.179393   4.395147   3.672483   4.653111
    20  H    4.333281   3.557701   5.116409   3.892606   5.095993
    21  H    4.046493   3.032602   4.510133   4.242826   4.990578
    22  H    5.129688   4.140440   4.919611   4.330306   5.284733
    23  O    2.076233   1.425296   3.797517   3.795096   4.107442
    24  Si   2.786258   2.759333   5.151329   5.071468   5.305579
    25  C    3.173856   3.540919   6.011040   5.160752   5.678424
    26  H    4.105651   4.552180   6.973649   6.201435   6.642279
    27  H    2.687942   3.340383   5.597440   4.586937   5.041728
    28  H    3.667312   3.837663   6.353116   5.180248   5.967924
    29  C    4.571165   4.247044   6.536032   6.573174   6.920585
    30  C    3.158989   3.473316   5.246149   5.771630   5.505996
    31  H    4.072610   4.487506   6.302942   6.707679   6.472734
    32  H    3.680852   3.771449   5.199594   6.162392   5.745649
    33  H    2.651661   3.241908   4.721947   5.251454   4.818919
    34  C    5.083998   4.558980   6.426491   6.982031   7.133919
    35  H    6.152518   5.586335   7.414887   7.949778   8.163415
    36  H    4.751423   4.032688   5.692298   6.347339   6.510047
    37  H    5.160985   4.762516   6.418928   7.267743   7.196400
    38  C    5.618119   5.513790   7.819682   7.831937   8.122323
    39  H    5.697168   5.702333   7.843637   8.104055   8.197394
    40  H    5.717414   5.753492   8.187819   7.895300   8.293599
    41  H    6.605180   6.397435   8.661591   8.714743   9.048795
    42  C    5.125000   4.657304   7.016330   6.642825   7.298524
    43  H    4.800383   4.150573   6.375031   5.961674   6.699261
    44  H    6.186267   5.666568   7.931253   7.653268   8.307389
    45  H    5.231025   4.924795   7.413235   6.693398   7.477225
    46  H    3.303438   3.879261   2.803269   3.564081   2.218222
    47  H    3.030814   3.789734   3.531673   2.830101   2.224117
                    6          7          8          9         10
     6  C    0.000000
     7  C    2.535576   0.000000
     8  H    3.020122   2.182955   0.000000
     9  H    2.133899   3.603718   2.623580   0.000000
    10  H    1.099616   3.488396   4.107248   2.739035   0.000000
    11  H    3.457212   1.095846   3.015146   4.568238   4.295170
    12  H    3.923024   2.207071   1.764352   3.780772   4.957705
    13  H    2.920956   1.093392   2.334320   4.015775   3.860760
    14  O    3.842681   3.824173   2.970499   2.744878   4.562957
    15  C    3.637851   3.386026   3.438437   3.357510   4.251226
    16  O    2.420225   4.180551   4.101130   2.077140   2.398465
    17  H    3.250250   4.734987   4.327055   2.296223   3.345941
    18  O    1.423258   2.918466   2.818569   2.294321   2.077341
    19  C    2.410136   3.803524   4.062339   3.615653   2.565700
    20  H    2.632222   4.515573   4.891761   3.910221   2.304730
    21  H    2.814526   3.578399   4.306266   4.372681   3.023710
    22  H    3.299860   4.513564   4.359299   4.011197   3.525852
    23  O    2.451894   2.431588   4.233836   4.508141   2.673350
    24  Si   3.855330   3.754050   5.763673   5.931254   3.755644
    25  C    4.147832   4.906691   6.655200   6.086935   3.598673
    26  H    5.238521   5.833526   7.671566   7.152982   4.679768
    27  H    3.866495   4.710703   6.319832   5.585629   3.343414
    28  H    4.073205   5.310241   6.853087   5.986720   3.306543
    29  C    5.156079   5.033964   6.958514   7.274155   5.002466
    30  C    4.904468   3.921884   6.082706   6.727970   5.059875
    31  H    5.853177   5.012352   7.163895   7.698709   5.881868
    32  H    5.280513   3.821063   5.982853   7.036258   5.609386
    33  H    4.656185   3.623464   5.671421   6.262441   4.883367
    34  C    5.583525   4.887544   6.754869   7.580654   5.703032
    35  H    6.505522   5.895518   7.662441   8.486856   6.574904
    36  H    4.950858   4.205946   5.894217   6.836651   5.204797
    37  H    5.995016   4.878614   6.859790   7.933921   6.222847
    38  C    6.489333   6.317139   8.345079   8.616902   6.239244
    39  H    6.864205   6.340987   8.464778   8.950119   6.726669
    40  H    6.605254   6.755981   8.750847   8.720587   6.191686
    41  H    7.307311   7.136281   9.108884   9.435112   7.052494
    42  C    5.129569   5.627900   7.260205   7.199313   4.775346
    43  H    4.416352   5.076743   6.488384   6.398418   4.129902
    44  H    6.119961   6.522140   8.111044   8.147656   5.788312
    45  H    5.244264   6.107809   7.703206   7.291562   4.675493
    46  H    4.387769   3.495680   3.767386   4.291965   5.068189
    47  H    3.842201   4.094948   4.338854   3.676842   4.185627
                   11         12         13         14         15
    11  H    0.000000
    12  H    2.379126   0.000000
    13  H    1.761479   2.793684   0.000000
    14  O    4.268949   2.692795   4.654809   0.000000
    15  C    3.567921   2.734638   4.409603   1.442119   0.000000
    16  O    4.873417   4.593169   4.927399   2.935407   2.847141
    17  H    5.388577   4.708442   5.519250   2.547208   2.744942
    18  O    3.983170   4.221461   2.796595   4.506340   4.645352
    19  C    4.761933   5.435190   3.412859   5.908527   5.936924
    20  H    5.428821   6.192286   4.296133   6.310865   6.261394
    21  H    4.382302   5.471184   3.031314   6.349525   6.196686
    22  H    5.506773   5.914350   3.967227   6.433420   6.661782
    23  O    2.772166   4.599497   2.537949   5.530159   4.836780
    24  Si   3.671558   5.801376   3.989663   6.642294   5.667701
    25  C    4.962693   6.744207   5.362596   6.857954   5.823998
    26  H    5.751276   7.634534   6.291205   7.769431   6.643538
    27  H    4.771364   6.292931   5.360325   6.091635   5.003134
    28  H    5.563856   7.203294   5.656012   7.159847   6.286053
    29  C    4.986547   7.196184   4.880190   8.319831   7.461163
    30  C    3.313336   5.560218   4.352888   6.680491   5.499179
    31  H    4.374828   6.581237   5.442730   7.586762   6.328237
    32  H    3.063603   5.390756   4.072896   6.929132   5.840627
    33  H    2.953419   4.951065   4.299410   5.866204   4.597912
    34  C    4.757683   6.967972   4.474531   8.543453   7.787311
    35  H    5.796817   7.959199   5.380031   9.581638   8.866067
    36  H    4.237674   6.272270   3.623517   7.926591   7.321777
    37  H    4.508292   6.803276   4.553093   8.552015   7.707443
    38  C    6.100036   8.400582   6.266876   9.470174   8.468106
    39  H    5.937555   8.296336   6.361533   9.496561   8.407404
    40  H    6.589829   8.818869   6.830078   9.596286   8.550353
    41  H    6.949669   9.250293   6.955733  10.424878   9.475351
    42  C    5.856725   7.832571   5.370731   8.708960   8.014191
    43  H    5.482689   7.254057   4.720115   8.113917   7.574279
    44  H    6.727990   8.725868   6.145173   9.729271   9.065837
    45  H    6.368841   8.275394   6.002885   8.836862   8.100960
    46  H    3.360202   2.546581   4.526166   2.143221   1.090572
    47  H    4.270300   3.794377   5.140520   2.146971   1.088065
                   16         17         18         19         20
    16  O    0.000000
    17  H    0.972187   0.000000
    18  O    3.472368   4.161968   0.000000
    19  C    4.549468   5.334446   1.419495   0.000000
    20  H    4.443137   5.283285   2.085696   1.100755   0.000000
    21  H    5.164125   5.998354   2.096076   1.094855   1.783431
    22  H    5.271996   5.958447   2.021368   1.094087   1.785032
    23  O    4.487667   5.360897   3.012121   3.071782   3.351673
    24  Si   5.432275   6.314834   4.621382   4.527495   4.546434
    25  C    5.014022   5.896415   5.187394   5.134554   4.769025
    26  H    5.968928   6.811398   6.276548   6.167835   5.770949
    27  H    4.255186   5.067169   5.105230   5.330952   4.991928
    28  H    4.975296   5.900079   4.970361   4.722271   4.156672
    29  C    7.042297   7.968759   5.513769   4.945268   4.944577
    30  C    6.151637   6.881664   5.788906   6.000491   6.201307
    31  H    6.942094   7.666811   6.785255   6.918464   7.018870
    32  H    6.747589   7.448894   5.969237   6.164627   6.531570
    33  H    5.552670   6.186260   5.695989   6.155075   6.371344
    34  C    7.710758   8.592005   5.677070   5.112392   5.408801
    35  H    8.684885   9.582288   6.465120   5.725616   5.984752
    36  H    7.219874   8.076470   4.845867   4.285187   4.745134
    37  H    8.014284   8.845279   6.204976   5.846000   6.224342
    38  C    8.142759   9.057484   6.985046   6.438632   6.333657
    39  H    8.436728   9.304788   7.447252   7.062264   7.061284
    40  H    8.015239   8.930418   7.232891   6.706778   6.433904
    41  H    9.076633  10.008000   7.652629   6.949857   6.844177
    42  C    7.053590   8.018225   5.275763   4.385745   4.157945
    43  H    6.490610   7.444091   4.353274   3.350838   3.184480
    44  H    8.106828   9.071134   6.115230   5.086682   4.883086
    45  H    6.884576   7.855318   5.556356   4.711531   4.240245
    46  H    3.906982   3.828766   5.345607   6.598623   7.012481
    47  H    2.505284   2.367120   5.030975   6.241692   6.381635
                   21         22         23         24         25
    21  H    0.000000
    22  H    1.788429   0.000000
    23  O    2.507499   4.080572   0.000000
    24  Si   3.882394   5.554633   1.685742   0.000000
    25  C    4.807327   6.212980   2.930036   1.891913   0.000000
    26  H    5.775466   7.233504   3.872690   2.509008   1.096936
    27  H    5.171667   6.420166   3.191083   2.507802   1.096991
    28  H    4.503373   5.757153   3.180316   2.512522   1.095831
    29  C    4.049914   5.799914   2.854814   1.912354   3.151323
    30  C    5.346138   6.992245   2.929283   1.892632   3.076056
    31  H    6.245059   7.927514   3.870714   2.507981   3.271231
    32  H    5.406620   7.065994   3.200740   2.515304   4.042976
    33  H    5.657401   7.159754   3.168906   2.505387   3.298156
    34  C    4.063274   5.798861   3.231741   2.836405   4.488491
    35  H    4.653806   6.290249   4.235655   3.826508   5.322115
    36  H    3.208595   4.888482   2.804897   3.025498   4.745112
    37  H    4.820438   6.558872   3.591449   3.047336   4.802139
    38  C    5.576406   7.305375   4.208966   2.835215   3.574325
    39  H    6.180327   7.953628   4.510311   3.044301   3.932955
    40  H    5.968679   7.626194   4.537363   3.041852   3.141493
    41  H    6.035046   7.717515   5.028854   3.824857   4.570767
    42  C    3.590011   5.140497   3.292161   2.839579   3.501849
    43  H    2.559588   4.055412   2.879974   3.032013   3.792808
    44  H    4.246174   5.688341   4.281590   3.828736   4.521203
    45  H    4.116984   5.524390   3.685436   3.052866   3.064062
    46  H    6.714862   7.329287   5.148036   5.843678   6.189494
    47  H    6.546207   7.040224   5.069116   5.692379   5.495251
                   26         27         28         29         30
    26  H    0.000000
    27  H    1.764874   0.000000
    28  H    1.771422   1.767121   0.000000
    29  C    3.405521   4.102595   3.357984   0.000000
    30  C    3.294824   3.281819   4.041972   3.149887   0.000000
    31  H    3.113168   3.554592   4.291257   3.424580   1.096603
    32  H    4.301715   4.302364   4.922349   3.338498   1.095793
    33  H    3.614167   3.127833   4.304559   4.098342   1.097012
    34  C    4.822731   5.306168   4.758487   1.543719   3.549728
    35  H    5.555756   6.224312   5.478384   2.184989   4.556311
    36  H    5.293777   5.445454   4.928727   2.197462   3.871799
    37  H    5.043295   5.517678   5.287629   2.201873   3.115905
    38  C    3.328098   4.579230   3.900632   1.544679   3.517452
    39  H    3.592787   4.798691   4.506396   2.205621   3.076028
    40  H    2.651937   4.167851   3.393571   2.205751   3.841830
    41  H    4.308966   5.612117   4.747477   2.184462   4.527145
    42  C    3.870202   4.495983   3.197783   1.543482   4.490680
    43  H    4.414089   4.633562   3.386064   2.198946   4.780093
    44  H    4.752621   5.549826   4.194578   2.184536   5.322227
    45  H    3.328087   4.083212   2.533966   2.201931   4.778878
    46  H    6.919727   5.407694   6.797994   7.624212   5.323966
    47  H    6.248788   4.550772   5.934382   7.555004   5.597067
                   31         32         33         34         35
    31  H    0.000000
    32  H    1.771783   0.000000
    33  H    1.763963   1.769180   0.000000
    34  C    3.976989   3.235078   4.516076   0.000000
    35  H    4.846638   4.211126   5.563715   1.099763   0.000000
    36  H    4.538188   3.497763   4.672950   1.095421   1.773899
    37  H    3.476210   2.546514   4.100976   1.096974   1.768327
    38  C    3.289461   3.785586   4.543267   2.516524   2.760575
    39  H    2.635834   3.232330   4.128415   2.780049   3.122046
    40  H    3.478228   4.369051   4.740554   3.492104   3.772482
    41  H    4.289816   4.646692   5.582914   2.754505   2.541137
    42  C    4.813423   4.770968   5.307538   2.513703   2.744223
    43  H    5.313638   4.998473   5.469834   2.782200   3.111630
    44  H    5.553764   5.479965   6.223383   2.743369   2.513759
    45  H    4.984459   5.274414   5.505493   3.487818   3.753986
    46  H    6.116737   5.544009   4.357558   7.828419   8.916593
    47  H    6.307668   6.122468   4.664942   8.084698   9.165194
                   36         37         38         39         40
    36  H    0.000000
    37  H    1.770899   0.000000
    38  C    3.487069   2.771551   0.000000
    39  H    3.795359   2.583609   1.097013   0.000000
    40  H    4.361353   3.796093   1.097211   1.773003   0.000000
    41  H    3.768861   3.103921   1.099544   1.767500   1.767523
    42  C    2.781863   3.487713   2.514340   3.490161   2.780974
    43  H    2.601494   3.805887   3.486594   4.361752   3.796941
    44  H    3.111619   3.753192   2.758676   3.768432   3.125989
    45  H    3.804996   4.360660   2.768752   3.795222   2.583837
    46  H    7.411547   7.596821   8.549978   8.352620   8.703605
    47  H    7.717888   8.048086   8.455688   8.425212   8.398129
                   41         42         43         44         45
    41  H    0.000000
    42  C    2.748168   0.000000
    43  H    3.764111   1.095765   0.000000
    44  H    2.534335   1.099849   1.771624   0.000000
    45  H    3.094648   1.096749   1.771508   1.768778   0.000000
    46  H    9.561484   8.361969   7.995260   9.388391   8.526405
    47  H    9.497546   8.054276   7.688488   9.138261   7.995176
                   46         47
    46  H    0.000000
    47  H    1.842940   0.000000
 Stoichiometry    C14H28O4Si
 Framework group  C1[X(C14H28O4Si)]
 Deg. of freedom   135
 Full point group                 C1      NOp   1
 Largest Abelian subgroup         C1      NOp   1
 Largest concise Abelian subgroup C1      NOp   1
                         Standard orientation:                         
 ---------------------------------------------------------------------
 Center     Atomic      Atomic             Coordinates (Angstroms)
 Number     Number       Type             X           Y           Z
 ---------------------------------------------------------------------
      1          1           0       -0.828037   -0.977176    0.332052
      2          6           0       -0.661778   -0.053810   -0.244657
      3          6           0       -2.754921   -0.207436   -1.724409
      4          6           0       -2.924994    0.590241    0.670555
      5          6           0       -3.310002   -0.487971   -0.342176
      6          6           0       -1.453885    1.041704    0.490182
      7          6           0       -1.202542   -0.253798   -1.674915
      8          1           0       -3.085253    0.789383   -2.038871
      9          1           0       -3.543358    1.473198    0.452255
     10          1           0       -1.021504    1.207310    1.487567
     11          1           0       -0.828658   -1.210253   -2.057385
     12          1           0       -3.158885   -0.926207   -2.444169
     13          1           0       -0.780517    0.532902   -2.306187
     14          8           0       -4.670273   -0.938946   -0.215562
     15          6           0       -3.605436   -1.863661    0.085656
     16          8           0       -3.119911    0.172590    2.015464
     17          1           0       -4.063749   -0.047482    2.092183
     18          8           0       -1.502623    2.266169   -0.233679
     19          6           0       -0.367524    3.108894   -0.105890
     20          1           0       -0.095360    3.248553    0.951505
     21          1           0        0.502977    2.717783   -0.642516
     22          1           0       -0.653758    4.076930   -0.527793
     23          8           0        0.730962    0.246007   -0.287696
     24         14           0        1.949524   -0.759501    0.300340
     25          6           0        1.759106   -0.972645    2.170539
     26          1           0        2.546405   -1.616358    2.581710
     27          1           0        0.797871   -1.437369    2.422429
     28          1           0        1.805389   -0.011335    2.694550
     29          6           0        3.580248    0.130875   -0.152503
     30          6           0        1.827519   -2.460249   -0.521017
     31          1           0        2.587664   -3.146621   -0.129085
     32          1           0        1.958788   -2.399008   -1.607194
     33          1           0        0.849962   -2.920368   -0.330994
     34          6           0        3.646283    0.360181   -1.677667
     35          1           0        4.576062    0.882531   -1.946255
     36          1           0        2.806253    0.967959   -2.031083
     37          1           0        3.632586   -0.585122   -2.234054
     38          6           0        4.784560   -0.733142    0.282400
     39          1           0        4.795025   -1.708874   -0.218874
     40          1           0        4.794932   -0.911888    1.364904
     41          1           0        5.727463   -0.227817    0.028278
     42          6           0        3.655036    1.495346    0.565105
     43          1           0        2.817527    2.145587    0.288580
     44          1           0        4.584551    2.018239    0.296306
     45          1           0        3.647572    1.384827    1.656246
     46          1           0       -3.490822   -2.680248   -0.628065
     47          1           0       -3.509730   -2.139780    1.133742
 ---------------------------------------------------------------------
 Rotational constants (GHZ):      0.6075691      0.1948794      0.1814159
 Standard basis: 6-31+G(d,p) (6D, 7F)
 There are   505 symmetry adapted basis functions of A   symmetry.
 Integral buffers will be    131072 words long.
 Raffenetti 2 integral format.
 Two-electron integral symmetry is turned on.
   505 basis functions,   828 primitive gaussians,   505 cartesian basis functions
    79 alpha electrons       79 beta electrons
       nuclear repulsion energy      1808.3068958960 Hartrees.
 NAtoms=   47 NActive=   47 NUniq=   47 SFac= 1.00D+00 NAtFMM=   60 NAOKFM=F Big=F
 ------------------------------------------------------------------------------
 Polarizable Continuum Model (PCM)
 =================================
 Model                : PCM.
 Atomic radii         : UFF (Universal Force Field).
 Polarization charges : Total charges.
 Charge compensation  : None.
 Solution method      : Matrix inversion.
 Cavity type          : Scaled VdW (van der Waals Surface) (Alpha=1.100).
 Cavity algorithm     : GePol (No added spheres)
                        Default sphere list used, NSphG=   47.
                        Lebedev-Laikov grids with approx.  5.0 points / Ang**2.
                        Smoothing algorithm: Karplus/York (Gamma=1.0000).
                        Polarization charges: spherical gaussians, with
                                              point-specific exponents (IZeta= 3).
                        Self-potential: point-specific (ISelfS= 7).
                        Self-field    : sphere-specific E.n sum rule (ISelfD= 2).
 Solvent              : Chloroform, Eps=   4.711300 Eps(inf)=   2.090627
 ------------------------------------------------------------------------------
 One-electron integrals computed using PRISM.
 NBasis=   505 RedAO= T  NBF=   505
 NBsUse=   505 1.00D-06 NBFU=   505
 Harris functional with IExCor=  908 diagonalized for initial guess.
 ExpMin= 3.31D-02 ExpMax= 1.61D+04 ExpMxC= 2.43D+03 IAcc=3 IRadAn=         5 AccDes= 0.00D+00
 HarFok:  IExCor=  908 AccDes= 0.00D+00 IRadAn=         5 IDoV= 1
 ScaDFX=  1.000000  1.000000  1.000000  1.000000
 FoFCou: FMM=F IPFlag=           0 FMFlag=      100000 FMFlg1=           0
         NFxFlg=           0 DoJE=T BraDBF=F KetDBF=T FulRan=T
         Omega=  0.000000  0.000000  1.000000  0.000000  0.000000 ICntrl=     500 IOpCl=  0
         NMat0=    1 NMatS0=    1 NMatT0=    0 NMatD0=    1 NMtDS0=    0 NMtDT0=    0
         I1Cent=           4 NGrid=           0.
 Petite list used in FoFCou.
 Initial guess orbital symmetries:
       Occupied  (A) (A) (A) (A) (A) (A) (A) (A) (A) (A) (A) (A)
                 (A) (A) (A) (A) (A) (A) (A) (A) (A) (A) (A) (A)
                 (A) (A) (A) (A) (A) (A) (A) (A) (A) (A) (A) (A)
                 (A) (A) (A) (A) (A) (A) (A) (A) (A) (A) (A) (A)
                 (A) (A) (A) (A) (A) (A) (A) (A) (A) (A) (A) (A)
                 (A) (A) (A) (A) (A) (A) (A) (A) (A) (A) (A) (A)
                 (A) (A) (A) (A) (A) (A) (A)
       Virtual   (A) (A) (A) (A) (A) (A) (A) (A) (A) (A) (A) (A)
                 (A) (A) (A) (A) (A) (A) (A) (A) (A) (A) (A) (A)
                 (A) (A) (A) (A) (A) (A) (A) (A) (A) (A) (A) (A)
                 (A) (A) (A) (A) (A) (A) (A) (A) (A) (A) (A) (A)
                 (A) (A) (A) (A) (A) (A) (A) (A) (A) (A) (A) (A)
                 (A) (A) (A) (A) (A) (A) (A) (A) (A) (A) (A) (A)
                 (A) (A) (A) (A) (A) (A) (A) (A) (A) (A) (A) (A)
                 (A) (A) (A) (A) (A) (A) (A) (A) (A) (A) (A) (A)
                 (A) (A) (A) (A) (A) (A) (A) (A) (A) (A) (A) (A)
                 (A) (A) (A) (A) (A) (A) (A) (A) (A) (A) (A) (A)
                 (A) (A) (A) (A) (A) (A) (A) (A) (A) (A) (A) (A)
                 (A) (A) (A) (A) (A) (A) (A) (A) (A) (A) (A) (A)
                 (A) (A) (A) (A) (A) (A) (A) (A) (A) (A) (A) (A)
                 (A) (A) (A) (A) (A) (A) (A) (A) (A) (A) (A) (A)
                 (A) (A) (A) (A) (A) (A) (A) (A) (A) (A) (A) (A)
                 (A) (A) (A) (A) (A) (A) (A) (A) (A) (A) (A) (A)
                 (A) (A) (A) (A) (A) (A) (A) (A) (A) (A) (A) (A)
                 (A) (A) (A) (A) (A) (A) (A) (A) (A) (A) (A) (A)
                 (A) (A) (A) (A) (A) (A) (A) (A) (A) (A) (A) (A)
                 (A) (A) (A) (A) (A) (A) (A) (A) (A) (A) (A) (A)
                 (A) (A) (A) (A) (A) (A) (A) (A) (A) (A) (A) (A)
                 (A) (A) (A) (A) (A) (A) (A) (A) (A) (A) (A) (A)
                 (A) (A) (A) (A) (A) (A) (A) (A) (A) (A) (A) (A)
                 (A) (A) (A) (A) (A) (A) (A) (A) (A) (A) (A) (A)
                 (A) (A) (A) (A) (A) (A) (A) (A) (A) (A) (A) (A)
                 (A) (A) (A) (A) (A) (A) (A) (A) (A) (A) (A) (A)
                 (A) (A) (A) (A) (A) (A) (A) (A) (A) (A) (A) (A)
                 (A) (A) (A) (A) (A) (A) (A) (A) (A) (A) (A) (A)
                 (A) (A) (A) (A) (A) (A) (A) (A) (A) (A) (A) (A)
                 (A) (A) (A) (A) (A) (A) (A) (A) (A) (A) (A) (A)
                 (A) (A) (A) (A) (A) (A) (A) (A) (A) (A) (A) (A)
                 (A) (A) (A) (A) (A) (A) (A) (A) (A) (A) (A) (A)
                 (A) (A) (A) (A) (A) (A) (A) (A) (A) (A) (A) (A)
                 (A) (A) (A) (A) (A) (A) (A) (A) (A) (A) (A) (A)
                 (A) (A) (A) (A) (A) (A) (A) (A) (A) (A) (A) (A)
                 (A) (A) (A) (A) (A) (A)
 The electronic state of the initial guess is 1-A.
 Requested convergence on RMS density matrix=1.00D-08 within 128 cycles.
 Requested convergence on MAX density matrix=1.00D-06.
 Requested convergence on             energy=1.00D-06.
 No special actions if energy rises.
 Error on total polarization charges =  0.01528
 SCF Done:  E(RmPW1PW91) =  -1140.61604339     A.U. after   14 cycles
             Convg  =    0.2828D-08             -V/T =  2.0080
 Range of M.O.s used for correlation:     1   505
 NBasis=   505 NAE=    79 NBE=    79 NFC=     0 NFV=     0
 NROrb=    505 NOA=    79 NOB=    79 NVA=   426 NVB=   426

 **** Warning!!: The largest alpha MO coefficient is  0.10712673D+03

 NEqPCM:  Using equilibrium solvation (IEInf=0, Eps=   4.7113, EpsInf=   2.0906)
          Differentiating once with respect to magnetic field using GIAOs.
          Electric field/nuclear overlap derivatives assumed to be zero.
 FoFCou: FMM=F IPFlag=           0 FMFlag=    10101102 FMFlg1=           0
         NFxFlg=    40000000 DoJE=F BraDBF=F KetDBF=T FulRan=T
         Omega=  0.000000  0.000000  1.000000  0.000000  0.000000 ICntrl=    6100 IOpCl=  0
         NMat0=    1 NMatS0=    1 NMatT0=    0 NMatD0=    1 NMtDS0=    0 NMtDT0=    0
         I1Cent=           7 NGrid=        3050.
 Symmetry not used in FoFCou.
          There are     3 degrees of freedom in the 1st order CPHF.  IDoFFX=0.
      3 vectors produced by pass  0 Test12= 1.12D-12 3.33D-08 XBig12= 1.59D+02 1.64D+00.
 AX will form     3 AO Fock derivatives at one time.
      3 vectors produced by pass  1 Test12= 1.12D-12 3.33D-08 XBig12= 4.20D-01 1.10D-01.
      3 vectors produced by pass  2 Test12= 1.12D-12 3.33D-08 XBig12= 1.00D-03 7.82D-03.
      3 vectors produced by pass  3 Test12= 1.12D-12 3.33D-08 XBig12= 5.15D-06 4.66D-04.
      3 vectors produced by pass  4 Test12= 1.12D-12 3.33D-08 XBig12= 1.92D-08 1.80D-05.
      3 vectors produced by pass  5 Test12= 1.12D-12 3.33D-08 XBig12= 5.68D-11 1.19D-06.
      3 vectors produced by pass  6 Test12= 1.12D-12 3.33D-08 XBig12= 2.05D-13 5.00D-08.
 Inverted reduced A of dimension    21 with in-core refinement.
 Calculating GIAO nuclear magnetic shielding tensors.
 SCF GIAO Magnetic shielding tensor (ppm):
      1  H    Isotropic =    27.4833   Anisotropy =    10.2910
   XX=    34.2954   YX=     1.3407   ZX=     0.0851
   XY=    -1.0227   YY=    25.6527   ZY=    -1.9985
   XZ=     1.4308   YZ=    -2.2228   ZZ=    22.5018
   Eigenvalues:    21.4000    26.7060    34.3440
      2  C    Isotropic =   123.5696   Anisotropy =    56.1562
   XX=   159.4788   YX=     5.2380   ZX=    -1.8376
   XY=    13.1611   YY=   105.0971   ZY=    10.1074
   XZ=    -3.3277   YZ=    10.6004   ZZ=   106.1330
   Eigenvalues:    94.1410   115.5607   161.0071
      3  C    Isotropic =   168.7524   Anisotropy =    22.2805
   XX=   174.7402   YX=     7.7209   ZX=    -4.3792
   XY=    10.1153   YY=   151.5883   ZY=     2.8191
   XZ=    -6.2129   YZ=     0.9525   ZZ=   179.9287
   Eigenvalues:   148.1594   174.4917   183.6061
      4  C    Isotropic =   119.2145   Anisotropy =    30.5386
   XX=   114.0945   YX=     4.2327   ZX=    -8.5307
   XY=     4.8491   YY=   113.5370   ZY=   -17.2192
   XZ=    -3.0619   YZ=    -9.5556   ZZ=   130.0120
   Eigenvalues:   105.8590   112.2110   139.5736
      5  C    Isotropic =   134.7121   Anisotropy =    59.3574
   XX=   145.5305   YX=    -5.1790   ZX=     9.8311
   XY=   -13.2133   YY=    91.7129   ZY=    22.6492
   XZ=     5.4358   YZ=    23.5692   ZZ=   166.8928
   Eigenvalues:    83.2526   146.6000   174.2836
      6  C    Isotropic =   109.6984   Anisotropy =    34.9873
   XX=    98.5337   YX=     9.7937   ZX=    -3.3426
   XY=     4.0112   YY=   116.7267   ZY=   -15.3309
   XZ=     9.1493   YZ=   -19.4499   ZZ=   113.8346
   Eigenvalues:    91.2506   104.8213   133.0232
      7  C    Isotropic =   167.3640   Anisotropy =    34.0386
   XX=   185.8083   YX=     2.9445   ZX=     4.1151
   XY=     7.1550   YY=   144.9174   ZY=     1.8412
   XZ=    11.7544   YZ=     3.9062   ZZ=   171.3664
   Eigenvalues:   144.1629   167.8728   190.0564
      8  H    Isotropic =    29.3656   Anisotropy =     7.6385
   XX=    29.2143   YX=    -2.0370   ZX=     2.5941
   XY=    -1.0519   YY=    29.7053   ZY=    -2.9741
   XZ=     1.9747   YZ=    -4.2634   ZZ=    29.1773
   Eigenvalues:    25.6630    27.9759    34.4580
      9  H    Isotropic =    27.7021   Anisotropy =     3.5937
   XX=    27.4906   YX=    -1.8730   ZX=    -1.5397
   XY=    -1.1806   YY=    29.1725   ZY=    -1.0824
   XZ=    -0.8964   YZ=    -0.9663   ZZ=    26.4432
   Eigenvalues:    24.9374    28.0710    30.0979
     10  H    Isotropic =    28.0999   Anisotropy =     1.8706
   XX=    28.1251   YX=     0.2451   ZX=    -1.1448
   XY=    -1.0107   YY=    26.9521   ZY=    -1.5685
   XZ=     0.5942   YZ=     0.6423   ZZ=    29.2225
   Eigenvalues:    26.7283    28.2244    29.3470
     11  H    Isotropic =    29.6942   Anisotropy =     7.1219
   XX=    31.4875   YX=    -3.2131   ZX=     0.6091
   XY=    -2.4425   YY=    29.3801   ZY=     3.9428
   XZ=    -0.1204   YZ=     4.1723   ZZ=    28.2149
   Eigenvalues:    24.1008    30.5395    34.4421
     12  H    Isotropic =    30.4599   Anisotropy =    10.6200
   XX=    29.8808   YX=     2.9393   ZX=     3.1341
   XY=     2.2899   YY=    27.5532   ZY=     4.1673
   XZ=     2.0783   YZ=     3.9773   ZZ=    33.9458
   Eigenvalues:    25.1636    28.6763    37.5399
     13  H    Isotropic =    29.6001   Anisotropy =     5.8794
   XX=    30.5245   YX=     2.0865   ZX=    -1.2017
   XY=     1.1063   YY=    27.7365   ZY=    -2.3779
   XZ=    -1.5413   YZ=    -2.9726   ZZ=    30.5393
   Eigenvalues:    26.0066    29.2741    33.5197
     14  O    Isotropic =   313.6853   Anisotropy =   113.2540
   XX=   201.9531   YX=    37.5074   ZX=   -15.4235
   XY=    61.1034   YY=   361.6559   ZY=     8.5057
   XZ=   -27.1006   YZ=    25.9892   ZZ=   377.4469
   Eigenvalues:   184.6625   367.2055   389.1880
     15  C    Isotropic =   146.2387   Anisotropy =    34.0893
   XX=   163.0157   YX=   -12.9588   ZX=    -2.8666
   XY=    -8.9550   YY=   114.4440   ZY=    17.4280
   XZ=     3.2866   YZ=    15.8703   ZZ=   161.2565
   Eigenvalues:   107.1469   162.6044   168.9650
     16  O    Isotropic =   303.2340   Anisotropy =    71.7947
   XX=   330.2859   YX=    18.0101   ZX=   -11.8585
   XY=    38.8814   YY=   291.6975   ZY=   -34.3003
   XZ=    -8.5412   YZ=    -7.0368   ZZ=   287.7186
   Eigenvalues:   266.0722   292.5327   351.0972
     17  H    Isotropic =    30.1850   Anisotropy =    18.9997
   XX=    39.4794   YX=     4.5293   ZX=    -5.6826
   XY=     5.8401   YY=    21.0447   ZY=     1.9214
   XZ=    -5.2640   YZ=     0.1497   ZZ=    30.0307
   Eigenvalues:    19.1022    28.6013    42.8514
     18  O    Isotropic =   296.8609   Anisotropy =    55.7092
   XX=   306.6877   YX=    -6.8111   ZX=    14.3953
   XY=   -10.9225   YY=   301.7760   ZY=   -26.2995
   XZ=     7.3370   YZ=   -41.3619   ZZ=   282.1190
   Eigenvalues:   256.4800   300.1024   334.0004
     19  C    Isotropic =   134.8539   Anisotropy =    83.7136
   XX=   150.8785   YX=    42.9343   ZX=     5.5773
   XY=    41.5224   YY=   145.0136   ZY=     3.6896
   XZ=     5.0145   YZ=     1.4678   ZZ=   108.6697
   Eigenvalues:   104.7705   109.1283   190.6630
     20  H    Isotropic =    28.2321   Anisotropy =     7.8497
   XX=    28.9440   YX=     2.0558   ZX=     3.2519
   XY=     2.2630   YY=    29.5848   ZY=     4.5577
   XZ=     0.4089   YZ=     2.3381   ZZ=    26.1675
   Eigenvalues:    23.9841    27.2469    33.4652
     21  H    Isotropic =    27.2388   Anisotropy =     7.3818
   XX=    31.3728   YX=     0.0428   ZX=    -2.7481
   XY=     2.0997   YY=    28.6899   ZY=    -1.1675
   XZ=    -1.1987   YZ=    -0.1505   ZZ=    21.6538
   Eigenvalues:    21.2417    28.3147    32.1600
     22  H    Isotropic =    27.7845   Anisotropy =    10.4759
   XX=    26.0224   YX=     3.5707   ZX=    -0.4512
   XY=     0.7454   YY=    33.8974   ZY=    -2.4791
   XZ=     0.3449   YZ=    -1.4127   ZZ=    23.4339
   Eigenvalues:    23.0415    25.5437    34.7685
     23  O    Isotropic =   278.1289   Anisotropy =    24.7628
   XX=   267.9383   YX=     0.6879   ZX=     7.9360
   XY=    -0.4703   YY=   276.2387   ZY=     2.7233
   XZ=    13.6910   YZ=    -0.9270   ZZ=   290.2095
   Eigenvalues:   263.5475   276.2017   294.6374
     24  Si   Isotropic =   379.0203   Anisotropy =    42.8925
   XX=   406.2878   YX=   -11.9133   ZX=     6.2033
   XY=     0.4266   YY=   369.4324   ZY=    -5.1782
   XZ=     1.2305   YZ=    -6.4030   ZZ=   361.3408
   Eigenvalues:   358.3134   371.1322   407.6153
     25  C    Isotropic =   200.4164   Anisotropy =     9.5639
   XX=   197.9242   YX=    -5.9087   ZX=     0.4829
   XY=    -7.2411   YY=   199.5609   ZY=     0.8725
   XZ=     1.9453   YZ=     6.1220   ZZ=   203.7643
   Eigenvalues:   191.2686   203.1883   206.7924
     26  H    Isotropic =    31.6808   Anisotropy =    10.9309
   XX=    32.7925   YX=    -3.9056   ZX=     3.0780
   XY=    -4.0061   YY=    30.4117   ZY=    -4.1495
   XZ=     2.7950   YZ=    -3.8410   ZZ=    31.8381
   Eigenvalues:    26.6804    29.3939    38.9681
     27  H    Isotropic =    31.2972   Anisotropy =     8.9039
   XX=    35.2201   YX=     3.0600   ZX=    -1.7676
   XY=     2.5679   YY=    28.1477   ZY=    -2.2171
   XZ=    -2.0381   YZ=    -2.5227   ZZ=    30.5236
   Eigenvalues:    26.4103    30.2481    37.2331
     28  H    Isotropic =    31.4859   Anisotropy =     8.7129
   XX=    28.3173   YX=     0.4443   ZX=    -0.2410
   XY=     0.7930   YY=    33.0560   ZY=     3.6929
   XZ=    -0.2095   YZ=     4.7384   ZZ=    33.0846
   Eigenvalues:    27.9253    29.2380    37.2946
     29  C    Isotropic =   174.2132   Anisotropy =     9.1125
   XX=   174.2926   YX=    -3.8466   ZX=     2.0289
   XY=    -4.2557   YY=   175.8216   ZY=    -2.3068
   XZ=     1.7057   YZ=    -2.2178   ZZ=   172.5254
   Eigenvalues:   170.9344   171.4170   180.2882
     30  C    Isotropic =   200.6358   Anisotropy =     9.3891
   XX=   198.3470   YX=    -3.2574   ZX=     4.0052
   XY=    -5.9178   YY=   198.8791   ZY=     5.7871
   XZ=     4.3274   YZ=     0.7027   ZZ=   204.6812
   Eigenvalues:   191.8586   203.1535   206.8952
     31  H    Isotropic =    31.6970   Anisotropy =    10.9322
   XX=    32.6436   YX=    -4.5994   ZX=     2.0553
   XY=    -4.3152   YY=    35.0373   ZY=    -1.2288
   XZ=     2.2963   YZ=    -1.6542   ZZ=    27.4103
   Eigenvalues:    26.6190    29.4870    38.9852
     32  H    Isotropic =    31.5308   Anisotropy =     8.7737
   XX=    28.5929   YX=     0.2129   ZX=    -1.0845
   XY=     0.5281   YY=    29.3044   ZY=     2.5743
   XZ=    -1.4233   YZ=     1.5702   ZZ=    36.6950
   Eigenvalues:    27.9183    29.2941    37.3799
     33  H    Isotropic =    31.3678   Anisotropy =     8.9457
   XX=    35.5425   YX=     2.9308   ZX=    -0.9612
   XY=     3.0852   YY=    32.1961   ZY=     0.2467
   XZ=    -0.5214   YZ=     0.4229   ZZ=    26.3648
   Eigenvalues:    26.2395    30.5323    37.3316
     34  C    Isotropic =   170.6385   Anisotropy =    38.0339
   XX=   158.3520   YX=     1.7455   ZX=    -2.2108
   XY=     1.6481   YY=   158.1113   ZY=    -6.0629
   XZ=     2.9740   YZ=    -2.9945   ZZ=   195.4522
   Eigenvalues:   156.1869   159.7342   195.9944
     35  H    Isotropic =    31.0047   Anisotropy =     9.8384
   XX=    32.4609   YX=     2.9969   ZX=    -3.3669
   XY=     3.0178   YY=    28.7449   ZY=    -2.1755
   XZ=    -4.1857   YZ=    -2.5085   ZZ=    31.8085
   Eigenvalues:    27.0464    28.4041    37.5637
     36  H    Isotropic =    30.2669   Anisotropy =     7.8494
   XX=    31.9165   YX=    -1.8946   ZX=     0.8576
   XY=    -2.3390   YY=    27.3890   ZY=    -3.4130
   XZ=     2.2075   YZ=    -4.3632   ZZ=    31.4954
   Eigenvalues:    24.8819    30.4191    35.4999
     37  H    Isotropic =    30.5629   Anisotropy =     8.4554
   XX=    27.8076   YX=     1.0571   ZX=    -1.6227
   XY=     1.0273   YY=    30.1280   ZY=     3.0505
   XZ=    -1.3145   YZ=     4.5285   ZZ=    33.7532
   Eigenvalues:    26.0855    29.4034    36.1998
     38  C    Isotropic =   170.4539   Anisotropy =    39.3219
   XX=   178.9883   YX=   -19.5843   ZX=     9.9775
   XY=   -15.2051   YY=   171.8629   ZY=    -7.0217
   XZ=     7.7540   YZ=    -6.7691   ZZ=   160.5105
   Eigenvalues:   156.9378   157.7554   196.6685
     39  H    Isotropic =    30.7245   Anisotropy =     8.9914
   XX=    31.3099   YX=    -3.3993   ZX=    -0.6200
   XY=    -2.4423   YY=    34.7138   ZY=     2.4971
   XZ=     0.1807   YZ=     1.5160   ZZ=    26.1497
   Eigenvalues:    25.6657    29.7890    36.7188
     40  H    Isotropic =    30.7072   Anisotropy =     9.0449
   XX=    31.2290   YX=    -1.6161   ZX=     3.2182
   XY=    -1.6891   YY=    27.3307   ZY=    -3.8835
   XZ=     1.9447   YZ=    -2.9373   ZZ=    33.5618
   Eigenvalues:    25.7773    29.6070    36.7371
     41  H    Isotropic =    30.9660   Anisotropy =    10.0754
   XX=    37.6217   YX=     1.2275   ZX=    -0.6604
   XY=     0.1177   YY=    28.0658   ZY=    -0.6001
   XZ=    -0.0309   YZ=    -0.5255   ZZ=    27.2105
   Eigenvalues:    26.9313    28.2838    37.6829
     42  C    Isotropic =   170.5301   Anisotropy =    37.7304
   XX=   158.1039   YX=     2.6185   ZX=     0.0405
   XY=    -1.4152   YY=   186.7163   ZY=    17.3399
   XZ=    -2.8552   YZ=    14.8628   ZZ=   166.7702
   Eigenvalues:   156.4237   159.4829   195.6837
     43  H    Isotropic =    30.4033   Anisotropy =     8.6721
   XX=    32.3987   YX=    -2.6411   ZX=     0.8817
   XY=    -3.5195   YY=    33.6694   ZY=     0.4220
   XZ=     0.4151   YZ=     1.2630   ZZ=    25.1417
   Eigenvalues:    24.9209    30.1043    36.1847
     44  H    Isotropic =    30.9833   Anisotropy =     9.6993
   XX=    32.5918   YX=     4.3070   ZX=    -0.5205
   XY=     5.1209   YY=    32.8540   ZY=     0.5985
   XZ=    -0.1010   YZ=     0.9169   ZZ=    27.5040
   Eigenvalues:    26.9568    28.5436    37.4495
     45  H    Isotropic =    30.5428   Anisotropy =     8.2708
   XX=    27.9018   YX=     1.7934   ZX=     0.1290
   XY=     1.6509   YY=    28.8283   ZY=     3.5204
   XZ=    -0.1131   YZ=     2.1157   ZZ=    34.8984
   Eigenvalues:    26.1895    29.3823    36.0567
     46  H    Isotropic =    28.9579   Anisotropy =     9.6252
   XX=    26.0476   YX=    -1.4715   ZX=    -1.4247
   XY=    -0.7359   YY=    33.0261   ZY=     1.8437
   XZ=    -0.5303   YZ=     6.0671   ZZ=    27.8000
   Eigenvalues:    25.4065    26.0924    35.3747
     47  H    Isotropic =    28.5419   Anisotropy =     7.1232
   XX=    24.6796   YX=     0.4696   ZX=     1.2495
   XY=    -0.2135   YY=    28.8251   ZY=     0.0468
   XZ=     0.8767   YZ=    -4.3845   ZZ=    32.1210
   Eigenvalues:    24.4821    27.8529    33.2907
 End of Minotr Frequency-dependent properties file   721 does not exist.
 End of Minotr Frequency-dependent properties file   722 does not exist.

 **********************************************************************

            Population analysis using the SCF density.

 **********************************************************************

 Orbital symmetries:
       Occupied  (A) (A) (A) (A) (A) (A) (A) (A) (A) (A) (A) (A)
                 (A) (A) (A) (A) (A) (A) (A) (A) (A) (A) (A) (A)
                 (A) (A) (A) (A) (A) (A) (A) (A) (A) (A) (A) (A)
                 (A) (A) (A) (A) (A) (A) (A) (A) (A) (A) (A) (A)
                 (A) (A) (A) (A) (A) (A) (A) (A) (A) (A) (A) (A)
                 (A) (A) (A) (A) (A) (A) (A) (A) (A) (A) (A) (A)
                 (A) (A) (A) (A) (A) (A) (A)
       Virtual   (A) (A) (A) (A) (A) (A) (A) (A) (A) (A) (A) (A)
                 (A) (A) (A) (A) (A) (A) (A) (A) (A) (A) (A) (A)
                 (A) (A) (A) (A) (A) (A) (A) (A) (A) (A) (A) (A)
                 (A) (A) (A) (A) (A) (A) (A) (A) (A) (A) (A) (A)
                 (A) (A) (A) (A) (A) (A) (A) (A) (A) (A) (A) (A)
                 (A) (A) (A) (A) (A) (A) (A) (A) (A) (A) (A) (A)
                 (A) (A) (A) (A) (A) (A) (A) (A) (A) (A) (A) (A)
                 (A) (A) (A) (A) (A) (A) (A) (A) (A) (A) (A) (A)
                 (A) (A) (A) (A) (A) (A) (A) (A) (A) (A) (A) (A)
                 (A) (A) (A) (A) (A) (A) (A) (A) (A) (A) (A) (A)
                 (A) (A) (A) (A) (A) (A) (A) (A) (A) (A) (A) (A)
                 (A) (A) (A) (A) (A) (A) (A) (A) (A) (A) (A) (A)
                 (A) (A) (A) (A) (A) (A) (A) (A) (A) (A) (A) (A)
                 (A) (A) (A) (A) (A) (A) (A) (A) (A) (A) (A) (A)
                 (A) (A) (A) (A) (A) (A) (A) (A) (A) (A) (A) (A)
                 (A) (A) (A) (A) (A) (A) (A) (A) (A) (A) (A) (A)
                 (A) (A) (A) (A) (A) (A) (A) (A) (A) (A) (A) (A)
                 (A) (A) (A) (A) (A) (A) (A) (A) (A) (A) (A) (A)
                 (A) (A) (A) (A) (A) (A) (A) (A) (A) (A) (A) (A)
                 (A) (A) (A) (A) (A) (A) (A) (A) (A) (A) (A) (A)
                 (A) (A) (A) (A) (A) (A) (A) (A) (A) (A) (A) (A)
                 (A) (A) (A) (A) (A) (A) (A) (A) (A) (A) (A) (A)
                 (A) (A) (A) (A) (A) (A) (A) (A) (A) (A) (A) (A)
                 (A) (A) (A) (A) (A) (A) (A) (A) (A) (A) (A) (A)
                 (A) (A) (A) (A) (A) (A) (A) (A) (A) (A) (A) (A)
                 (A) (A) (A) (A) (A) (A) (A) (A) (A) (A) (A) (A)
                 (A) (A) (A) (A) (A) (A) (A) (A) (A) (A) (A) (A)
                 (A) (A) (A) (A) (A) (A) (A) (A) (A) (A) (A) (A)
                 (A) (A) (A) (A) (A) (A) (A) (A) (A) (A) (A) (A)
                 (A) (A) (A) (A) (A) (A) (A) (A) (A) (A) (A) (A)
                 (A) (A) (A) (A) (A) (A) (A) (A) (A) (A) (A) (A)
                 (A) (A) (A) (A) (A) (A) (A) (A) (A) (A) (A) (A)
                 (A) (A) (A) (A) (A) (A) (A) (A) (A) (A) (A) (A)
                 (A) (A) (A) (A) (A) (A) (A) (A) (A) (A) (A) (A)
                 (A) (A) (A) (A) (A) (A) (A) (A) (A) (A) (A) (A)
                 (A) (A) (A) (A) (A) (A)
 The electronic state is 1-A.
 Alpha  occ. eigenvalues --  -66.30474 -19.26917 -19.26091 -19.25400 -19.23588
 Alpha  occ. eigenvalues --  -10.31636 -10.31007 -10.30828 -10.30509 -10.30227
 Alpha  occ. eigenvalues --  -10.28301 -10.25495 -10.24996 -10.24933 -10.23734
 Alpha  occ. eigenvalues --  -10.23450 -10.23390 -10.22571 -10.22458  -5.33891
 Alpha  occ. eigenvalues --   -3.67800  -3.67514  -3.67496  -1.11528  -1.07426
 Alpha  occ. eigenvalues --   -1.06165  -1.03256  -0.85010  -0.82348  -0.77571
 Alpha  occ. eigenvalues --   -0.74486  -0.72292  -0.70580  -0.70320  -0.70011
 Alpha  occ. eigenvalues --   -0.69635  -0.69246  -0.64353  -0.62652  -0.57636
 Alpha  occ. eigenvalues --   -0.56311  -0.55538  -0.53774  -0.52483  -0.50935
 Alpha  occ. eigenvalues --   -0.48323  -0.48123  -0.47426  -0.46545  -0.45075
 Alpha  occ. eigenvalues --   -0.44703  -0.44531  -0.44415  -0.42960  -0.42735
 Alpha  occ. eigenvalues --   -0.42064  -0.41709  -0.40972  -0.40403  -0.40252
 Alpha  occ. eigenvalues --   -0.39931  -0.39530  -0.39121  -0.38909  -0.37447
 Alpha  occ. eigenvalues --   -0.37325  -0.36514  -0.35498  -0.34313  -0.34174
 Alpha  occ. eigenvalues --   -0.33596  -0.32935  -0.32722  -0.31895  -0.30530
 Alpha  occ. eigenvalues --   -0.28935  -0.28228  -0.27636  -0.26365
 Alpha virt. eigenvalues --   -0.00385   0.00952   0.01151   0.01308   0.02183
 Alpha virt. eigenvalues --    0.02877   0.03222   0.03860   0.04102   0.04340
 Alpha virt. eigenvalues --    0.05151   0.05202   0.05548   0.05856   0.06418
 Alpha virt. eigenvalues --    0.06935   0.07095   0.07162   0.07866   0.08019
 Alpha virt. eigenvalues --    0.08437   0.08904   0.08992   0.09267   0.09679
 Alpha virt. eigenvalues --    0.10414   0.10581   0.10698   0.11001   0.11293
 Alpha virt. eigenvalues --    0.11531   0.11688   0.11990   0.12427   0.13018
 Alpha virt. eigenvalues --    0.13265   0.13593   0.13967   0.14050   0.14433
 Alpha virt. eigenvalues --    0.14678   0.15343   0.15454   0.15973   0.16113
 Alpha virt. eigenvalues --    0.16775   0.16942   0.17552   0.17716   0.17807
 Alpha virt. eigenvalues --    0.18214   0.18450   0.18822   0.19156   0.19286
 Alpha virt. eigenvalues --    0.19702   0.20118   0.20559   0.20790   0.21001
 Alpha virt. eigenvalues --    0.21244   0.21583   0.21926   0.22096   0.22361
 Alpha virt. eigenvalues --    0.23118   0.23513   0.23885   0.24037   0.24361
 Alpha virt. eigenvalues --    0.24945   0.25347   0.25498   0.25701   0.25892
 Alpha virt. eigenvalues --    0.26534   0.26667   0.27292   0.27427   0.27794
 Alpha virt. eigenvalues --    0.28441   0.28633   0.28906   0.29351   0.29851
 Alpha virt. eigenvalues --    0.30247   0.30698   0.31064   0.31335   0.31516
 Alpha virt. eigenvalues --    0.31837   0.32090   0.32406   0.33096   0.33439
 Alpha virt. eigenvalues --    0.33532   0.34219   0.35786   0.36170   0.36484
 Alpha virt. eigenvalues --    0.36659   0.37137   0.37469   0.37715   0.38101
 Alpha virt. eigenvalues --    0.38451   0.38861   0.40357   0.41095   0.41800
 Alpha virt. eigenvalues --    0.41909   0.42694   0.43586   0.44669   0.45274
 Alpha virt. eigenvalues --    0.45489   0.45850   0.46235   0.47129   0.47560
 Alpha virt. eigenvalues --    0.47757   0.49507   0.51271   0.53801   0.54046
 Alpha virt. eigenvalues --    0.54183   0.60191   0.61399   0.65113   0.66984
 Alpha virt. eigenvalues --    0.67489   0.68764   0.69857   0.70541   0.71707
 Alpha virt. eigenvalues --    0.72338   0.72533   0.73155   0.73272   0.74214
 Alpha virt. eigenvalues --    0.74802   0.76238   0.77196   0.77558   0.78840
 Alpha virt. eigenvalues --    0.79209   0.79452   0.79506   0.80805   0.82296
 Alpha virt. eigenvalues --    0.83011   0.83586   0.84159   0.85425   0.86280
 Alpha virt. eigenvalues --    0.86346   0.87075   0.87342   0.88898   0.89586
 Alpha virt. eigenvalues --    0.89768   0.90990   0.91949   0.92341   0.94175
 Alpha virt. eigenvalues --    0.95088   0.95837   0.96324   0.96949   0.97097
 Alpha virt. eigenvalues --    0.99013   0.99417   0.99942   1.00642   1.01830
 Alpha virt. eigenvalues --    1.02888   1.03190   1.03687   1.04792   1.04973
 Alpha virt. eigenvalues --    1.05562   1.05930   1.06680   1.07281   1.07658
 Alpha virt. eigenvalues --    1.08448   1.09253   1.09735   1.10190   1.10743
 Alpha virt. eigenvalues --    1.12326   1.12644   1.14456   1.14824   1.16001
 Alpha virt. eigenvalues --    1.17529   1.18476   1.19234   1.20631   1.21344
 Alpha virt. eigenvalues --    1.22307   1.23439   1.24407   1.25044   1.26156
 Alpha virt. eigenvalues --    1.28437   1.29880   1.30451   1.31548   1.32264
 Alpha virt. eigenvalues --    1.34751   1.35154   1.35607   1.36387   1.38061
 Alpha virt. eigenvalues --    1.39388   1.39843   1.40444   1.41431   1.43889
 Alpha virt. eigenvalues --    1.45624   1.46116   1.47059   1.48139   1.48385
 Alpha virt. eigenvalues --    1.49970   1.51007   1.51672   1.52269   1.54007
 Alpha virt. eigenvalues --    1.55971   1.57458   1.60019   1.61975   1.62277
 Alpha virt. eigenvalues --    1.63671   1.65529   1.67245   1.67750   1.68357
 Alpha virt. eigenvalues --    1.69263   1.70766   1.71353   1.74045   1.74772
 Alpha virt. eigenvalues --    1.76075   1.77791   1.80274   1.81125   1.81700
 Alpha virt. eigenvalues --    1.82344   1.83968   1.84144   1.86452   1.87531
 Alpha virt. eigenvalues --    1.88619   1.89228   1.90514   1.91052   1.92057
 Alpha virt. eigenvalues --    1.93589   1.94555   1.94842   1.95362   1.96519
 Alpha virt. eigenvalues --    1.97015   1.97543   1.98802   1.99164   2.00825
 Alpha virt. eigenvalues --    2.02806   2.03433   2.04308   2.05839   2.06078
 Alpha virt. eigenvalues --    2.06566   2.07701   2.08006   2.08596   2.09534
 Alpha virt. eigenvalues --    2.10161   2.10453   2.11344   2.11792   2.12354
 Alpha virt. eigenvalues --    2.13387   2.13999   2.14273   2.15180   2.15408
 Alpha virt. eigenvalues --    2.16171   2.16755   2.17642   2.18670   2.18986
 Alpha virt. eigenvalues --    2.19732   2.20658   2.21047   2.21569   2.22233
 Alpha virt. eigenvalues --    2.22719   2.24304   2.25175   2.26020   2.28748
 Alpha virt. eigenvalues --    2.29361   2.30941   2.31797   2.33229   2.34603
 Alpha virt. eigenvalues --    2.36283   2.37328   2.38289   2.38730   2.39098
 Alpha virt. eigenvalues --    2.39657   2.41410   2.41894   2.42824   2.43809
 Alpha virt. eigenvalues --    2.44734   2.47492   2.49159   2.49518   2.53200
 Alpha virt. eigenvalues --    2.55057   2.56453   2.57233   2.57530   2.59343
 Alpha virt. eigenvalues --    2.60393   2.60621   2.62965   2.64064   2.65222
 Alpha virt. eigenvalues --    2.67120   2.67285   2.68253   2.68752   2.69223
 Alpha virt. eigenvalues --    2.71743   2.72695   2.73121   2.74120   2.74912
 Alpha virt. eigenvalues --    2.76523   2.76949   2.77361   2.77937   2.78231
 Alpha virt. eigenvalues --    2.78891   2.82075   2.82653   2.83297   2.85115
 Alpha virt. eigenvalues --    2.86156   2.86449   2.87201   2.88234   2.88373
 Alpha virt. eigenvalues --    2.88638   2.89170   2.89891   2.90290   2.90996
 Alpha virt. eigenvalues --    2.91666   2.92167   2.94226   2.94854   2.97430
 Alpha virt. eigenvalues --    2.98705   2.99454   3.02594   3.04272   3.06246
 Alpha virt. eigenvalues --    3.09660   3.15801   3.21205   3.22219   3.25086
 Alpha virt. eigenvalues --    3.27626   3.28105   3.28357   3.30463   3.31582
 Alpha virt. eigenvalues --    3.31968   3.35633   3.39407   3.41581   3.46752
 Alpha virt. eigenvalues --    3.47671   3.47789   3.48024   3.48397   3.49142
 Alpha virt. eigenvalues --    3.49839   3.50287   3.50453   3.50759   3.51863
 Alpha virt. eigenvalues --    3.52040   3.53044   3.53471   3.55169   3.55734
 Alpha virt. eigenvalues --    3.56199   3.58223   3.63988   4.37750   4.42356
 Alpha virt. eigenvalues --    4.43449   4.46186   4.52284   4.54390   4.58957
 Alpha virt. eigenvalues --    4.60743   4.63723   4.64170   4.67662   4.68671
 Alpha virt. eigenvalues --    4.70116   4.75462   4.79757   4.83249   4.90451
 Alpha virt. eigenvalues --    5.02978
          Condensed to atoms (all electrons):
              1          2          3          4          5          6
     1  H    0.612118   0.076149  -0.048425  -0.018951   0.088073   0.155111
     2  C    0.076149  16.288082   1.268477   4.081056  -4.034728  -7.130310
     3  C   -0.048425   1.268477   8.858096   0.323632  -2.620803  -0.782050
     4  C   -0.018951   4.081056   0.323632  11.610141  -3.756585  -5.522686
     5  C    0.088073  -4.034728  -2.620803  -3.756585  16.088793   2.370458
     6  C    0.155111  -7.130310  -0.782050  -5.522686   2.370458  15.553141
     7  C   -0.012774  -3.592003  -1.402296  -1.351219   1.775079   0.390905
     8  H   -0.000187  -0.007101   0.373392  -0.046129   0.063071   0.036501
     9  H    0.000006  -0.036326  -0.034459   0.243246   0.132437   0.060013
    10  H   -0.002657   0.104604   0.002667   0.129007  -0.018137   0.148036
    11  H   -0.006602  -0.107272  -0.125434  -0.025345   0.081947   0.072604
    12  H   -0.000115   0.078103   0.423410   0.047303  -0.151669  -0.021164
    13  H    0.004912  -0.220989  -0.048485  -0.026581   0.068270   0.063384
    14  O    0.000106   0.032526  -0.062607  -0.100370   0.028572   0.010837
    15  C   -0.019882   0.632803   0.004089   0.460983  -3.307236  -0.185028
    16  O    0.000934  -0.073645   0.074551   0.143833  -0.110792   0.088921
    17  H   -0.000014   0.002296   0.005094   0.034056  -0.100864   0.013223
    18  O    0.009299  -0.316821  -0.050424  -0.034343   0.049052   0.397267
    19  C    0.002420  -0.255734   0.057154  -0.098312   0.002538   0.096456
    20  H    0.000021   0.026955  -0.005338  -0.009855  -0.004315  -0.025962
    21  H   -0.000179   0.012405   0.014326   0.012640  -0.000880  -0.023496
    22  H    0.000010   0.000666  -0.000075   0.002255  -0.000494   0.005331
    23  O   -0.067457   0.314596  -0.003801  -0.023384   0.020079  -0.156513
    24  Si   0.108539  -0.910975  -0.052933  -0.151525  -0.031428   0.675818
    25  C   -0.013620   0.163327   0.020079   0.062319  -0.041899  -0.140039
    26  H   -0.000012   0.009984  -0.000207  -0.000409   0.000291  -0.002008
    27  H    0.001086  -0.012879   0.002214   0.006312  -0.002505  -0.006687
    28  H   -0.000051  -0.025713   0.000884   0.003703  -0.001182   0.016268
    29  C    0.007669  -0.167959   0.012034   0.003520  -0.001135  -0.010810
    30  C   -0.022311   0.144604   0.006255   0.031030  -0.010612  -0.114118
    31  H   -0.000007   0.006490  -0.000419  -0.000319   0.000653  -0.000399
    32  H   -0.000016  -0.029811  -0.001925  -0.000456   0.001185  -0.001901
    33  H    0.000998  -0.016961   0.004525   0.000737  -0.000973   0.000147
    34  C   -0.000394  -0.081944  -0.001264  -0.010270   0.016040   0.033804
    35  H    0.000000  -0.000335   0.000060   0.000024  -0.000017   0.000721
    36  H    0.000002  -0.001172  -0.000053   0.000157   0.000151   0.001157
    37  H   -0.000001  -0.000683  -0.000043  -0.000029  -0.000020  -0.000414
    38  C    0.000614  -0.023801   0.004514   0.005646  -0.001963   0.003125
    39  H    0.000000   0.000147   0.000023  -0.000003  -0.000010  -0.000071
    40  H    0.000000   0.000706  -0.000010   0.000005   0.000006   0.000058
    41  H    0.000000  -0.001462   0.000012   0.000009  -0.000006   0.000108
    42  C   -0.001524   0.102276   0.009677   0.026923  -0.011835  -0.041408
    43  H    0.000001   0.007653  -0.000030  -0.000469   0.000071  -0.004264
    44  H    0.000000  -0.000413   0.000020   0.000020  -0.000003  -0.000520
    45  H    0.000000  -0.001773  -0.000008   0.000244   0.000029   0.002269
    46  H    0.000014  -0.007138   0.045756   0.010745  -0.131477   0.006498
    47  H   -0.000048   0.024326  -0.020143   0.072419  -0.191197  -0.013887
              7          8          9         10         11         12
     1  H   -0.012774  -0.000187   0.000006  -0.002657  -0.006602  -0.000115
     2  C   -3.592003  -0.007101  -0.036326   0.104604  -0.107272   0.078103
     3  C   -1.402296   0.373392  -0.034459   0.002667  -0.125434   0.423410
     4  C   -1.351219  -0.046129   0.243246   0.129007  -0.025345   0.047303
     5  C    1.775079   0.063071   0.132437  -0.018137   0.081947  -0.151669
     6  C    0.390905   0.036501   0.060013   0.148036   0.072604  -0.021164
     7  C    9.845546  -0.045453   0.015692  -0.010373   0.450947  -0.085797
     8  H   -0.045453   0.502547   0.001846  -0.000043   0.003521  -0.025940
     9  H    0.015692   0.001846   0.533234  -0.000892   0.000002  -0.000167
    10  H   -0.010373  -0.000043  -0.000892   0.556370  -0.000129   0.000010
    11  H    0.450947   0.003521   0.000002  -0.000129   0.530421  -0.007344
    12  H   -0.085797  -0.025940  -0.000167   0.000010  -0.007344   0.522443
    13  H    0.482854  -0.007578  -0.000023  -0.000166  -0.025348   0.001205
    14  O   -0.001564  -0.011839  -0.015727  -0.000465  -0.001610   0.006874
    15  C   -0.121295  -0.027606  -0.025728  -0.005930  -0.003725   0.037526
    16  O    0.040314  -0.000553  -0.043917  -0.010380  -0.000082  -0.000543
    17  H   -0.002594  -0.000003  -0.006108   0.000504  -0.000001  -0.000003
    18  O    0.113298  -0.001817  -0.016240  -0.048401   0.000332  -0.000188
    19  C   -0.044541   0.000121   0.001968  -0.015228   0.000548  -0.000275
    20  H   -0.008044  -0.000001   0.000009   0.009877   0.000000   0.000000
    21  H    0.003586  -0.000005  -0.000004  -0.001460  -0.000008  -0.000001
    22  H    0.000889  -0.000008  -0.000073   0.000090  -0.000001   0.000000
    23  O    0.012091  -0.001676  -0.000920  -0.002199   0.000401  -0.000397
    24  Si  -0.186017  -0.001233   0.002604   0.005083  -0.011203   0.000873
    25  C   -0.030259   0.000058  -0.000358   0.002474   0.000284   0.000036
    26  H   -0.000736   0.000000   0.000000   0.000009   0.000000   0.000000
    27  H    0.001576   0.000000   0.000000   0.000107   0.000002   0.000000
    28  H   -0.004888   0.000000   0.000000  -0.000061   0.000000   0.000000
    29  C    0.082057  -0.000150  -0.000073  -0.001791  -0.003631  -0.000015
    30  C   -0.019465   0.000103  -0.000026   0.000177   0.001095  -0.000047
    31  H    0.000710   0.000000   0.000000   0.000000   0.000021   0.000000
    32  H    0.025186   0.000000   0.000000   0.000000  -0.000103   0.000000
    33  H    0.004498   0.000000   0.000000   0.000001   0.000063   0.000001
    34  C    0.056047   0.000072   0.000042  -0.000235   0.002196  -0.000025
    35  H   -0.000561   0.000000   0.000000   0.000000   0.000000   0.000000
    36  H    0.000972   0.000000   0.000000   0.000000  -0.000008   0.000000
    37  H    0.000186   0.000000   0.000000   0.000000  -0.000002   0.000000
    38  C   -0.009151   0.000000   0.000000  -0.000116   0.000021  -0.000001
    39  H   -0.000122   0.000000   0.000000   0.000000   0.000000   0.000000
    40  H   -0.000132   0.000000   0.000000   0.000000   0.000000   0.000000
    41  H    0.000177   0.000000   0.000000   0.000000   0.000000   0.000000
    42  C   -0.067930   0.000057   0.000018   0.000728   0.000407   0.000011
    43  H   -0.000718   0.000000   0.000000   0.000005   0.000000   0.000000
    44  H    0.000481   0.000000   0.000000   0.000000   0.000000   0.000000
    45  H    0.000017   0.000000   0.000000  -0.000002   0.000000   0.000000
    46  H    0.015125   0.000015  -0.000095   0.000000  -0.000279   0.000672
    47  H   -0.009452  -0.000115  -0.000015  -0.000005  -0.000020   0.000134
             13         14         15         16         17         18
     1  H    0.004912   0.000106  -0.019882   0.000934  -0.000014   0.009299
     2  C   -0.220989   0.032526   0.632803  -0.073645   0.002296  -0.316821
     3  C   -0.048485  -0.062607   0.004089   0.074551   0.005094  -0.050424
     4  C   -0.026581  -0.100370   0.460983   0.143833   0.034056  -0.034343
     5  C    0.068270   0.028572  -3.307236  -0.110792  -0.100864   0.049052
     6  C    0.063384   0.010837  -0.185028   0.088921   0.013223   0.397267
     7  C    0.482854  -0.001564  -0.121295   0.040314  -0.002594   0.113298
     8  H   -0.007578  -0.011839  -0.027606  -0.000553  -0.000003  -0.001817
     9  H   -0.000023  -0.015727  -0.025728  -0.043917  -0.006108  -0.016240
    10  H   -0.000166  -0.000465  -0.005930  -0.010380   0.000504  -0.048401
    11  H   -0.025348  -0.001610  -0.003725  -0.000082  -0.000001   0.000332
    12  H    0.001205   0.006874   0.037526  -0.000543  -0.000003  -0.000188
    13  H    0.513335  -0.000564  -0.008870   0.000036   0.000000   0.001276
    14  O   -0.000564   8.337105   0.160836   0.008458   0.025049  -0.000362
    15  C   -0.008870   0.160836   7.462564  -0.052492   0.027302  -0.003510
    16  O    0.000036   0.008458  -0.052492   8.193329   0.235326   0.011547
    17  H    0.000000   0.025049   0.027302   0.235326   0.381471   0.000108
    18  O    0.001276  -0.000362  -0.003510   0.011547   0.000108   8.292413
    19  C    0.004787  -0.000661   0.006325   0.003291  -0.000589   0.023690
    20  H   -0.000025  -0.000002  -0.000035  -0.000372   0.000002  -0.049104
    21  H    0.000315   0.000005  -0.000003   0.000049   0.000000  -0.050675
    22  H    0.000020   0.000000  -0.000036   0.000066   0.000000  -0.070491
    23  O    0.005470   0.000293   0.005643   0.000741   0.000111   0.029893
    24  Si   0.007262  -0.001543   0.000648  -0.000047  -0.000967  -0.013637
    25  C   -0.000856   0.000518   0.005378  -0.002579   0.000379   0.000537
    26  H    0.000000   0.000000  -0.000047   0.000009   0.000000   0.000000
    27  H    0.000000   0.000000   0.000732   0.000102   0.000000  -0.000004
    28  H    0.000000   0.000000  -0.000114  -0.000132   0.000000   0.000027
    29  C    0.002138   0.000054   0.003018   0.000194  -0.000002   0.004423
    30  C   -0.002221   0.000064   0.003272  -0.000317  -0.000025  -0.002594
    31  H    0.000000   0.000000  -0.000141   0.000000   0.000000   0.000004
    32  H   -0.000005   0.000000   0.000192   0.000000   0.000000  -0.000011
    33  H    0.000016   0.000003   0.001188   0.000005   0.000000   0.000001
    34  C   -0.000018  -0.000056  -0.001384   0.000074   0.000000   0.000412
    35  H    0.000000   0.000000  -0.000001   0.000000   0.000000   0.000000
    36  H    0.000100   0.000000  -0.000016   0.000000   0.000000  -0.000045
    37  H   -0.000006   0.000000   0.000007   0.000000   0.000000  -0.000003
    38  C    0.000069   0.000000  -0.000326  -0.000018   0.000000  -0.000689
    39  H    0.000000   0.000000   0.000001   0.000000   0.000000   0.000000
    40  H    0.000000   0.000000  -0.000001   0.000000   0.000000   0.000000
    41  H    0.000000   0.000000   0.000001   0.000000   0.000000   0.000000
    42  C   -0.000076  -0.000012  -0.000127  -0.000004  -0.000002  -0.001577
    43  H    0.000001   0.000000   0.000002   0.000001   0.000000   0.000003
    44  H    0.000000   0.000000   0.000001   0.000000   0.000000  -0.000009
    45  H    0.000000   0.000000  -0.000006   0.000000   0.000000  -0.000019
    46  H   -0.000008  -0.028469   0.422120  -0.000159   0.000211   0.000000
    47  H   -0.000002  -0.025322   0.491473   0.008728  -0.001842  -0.000179
             19         20         21         22         23         24
     1  H    0.002420   0.000021  -0.000179   0.000010  -0.067457   0.108539
     2  C   -0.255734   0.026955   0.012405   0.000666   0.314596  -0.910975
     3  C    0.057154  -0.005338   0.014326  -0.000075  -0.003801  -0.052933
     4  C   -0.098312  -0.009855   0.012640   0.002255  -0.023384  -0.151525
     5  C    0.002538  -0.004315  -0.000880  -0.000494   0.020079  -0.031428
     6  C    0.096456  -0.025962  -0.023496   0.005331  -0.156513   0.675818
     7  C   -0.044541  -0.008044   0.003586   0.000889   0.012091  -0.186017
     8  H    0.000121  -0.000001  -0.000005  -0.000008  -0.001676  -0.001233
     9  H    0.001968   0.000009  -0.000004  -0.000073  -0.000920   0.002604
    10  H   -0.015228   0.009877  -0.001460   0.000090  -0.002199   0.005083
    11  H    0.000548   0.000000  -0.000008  -0.000001   0.000401  -0.011203
    12  H   -0.000275   0.000000  -0.000001   0.000000  -0.000397   0.000873
    13  H    0.004787  -0.000025   0.000315   0.000020   0.005470   0.007262
    14  O   -0.000661  -0.000002   0.000005   0.000000   0.000293  -0.001543
    15  C    0.006325  -0.000035  -0.000003  -0.000036   0.005643   0.000648
    16  O    0.003291  -0.000372   0.000049   0.000066   0.000741  -0.000047
    17  H   -0.000589   0.000002   0.000000   0.000000   0.000111  -0.000967
    18  O    0.023690  -0.049104  -0.050675  -0.070491   0.029893  -0.013637
    19  C    5.114160   0.412317   0.400039   0.425583  -0.026059   0.034852
    20  H    0.412317   0.573145  -0.042819  -0.026607  -0.000956   0.014869
    21  H    0.400039  -0.042819   0.556299  -0.032640  -0.013480  -0.003209
    22  H    0.425583  -0.026607  -0.032640   0.535929   0.002047  -0.004930
    23  O   -0.026059  -0.000956  -0.013480   0.002047   8.388811  -0.093676
    24  Si   0.034852   0.014869  -0.003209  -0.004930  -0.093676  13.552484
    25  C   -0.006829  -0.001138  -0.000747   0.000313  -0.049161   0.186646
    26  H   -0.000078   0.000000   0.000000   0.000000   0.008600  -0.036104
    27  H    0.000380   0.000000   0.000000   0.000000  -0.007603  -0.011680
    28  H    0.000846  -0.000011   0.000001   0.000000  -0.003345  -0.020470
    29  C    0.005626  -0.004679   0.002346   0.000965  -0.114974   0.528477
    30  C   -0.003948  -0.000275   0.000929   0.000010  -0.031661   0.160365
    31  H    0.000026   0.000000   0.000000   0.000000   0.008724  -0.039802
    32  H   -0.000112   0.000000   0.000000   0.000000  -0.003497  -0.023982
    33  H    0.000067   0.000000   0.000000   0.000000  -0.005137  -0.022225
    34  C    0.000450  -0.000396   0.001850   0.000100   0.048519  -0.165768
    35  H    0.000137   0.000000   0.000000   0.000000  -0.000353   0.013438
    36  H   -0.000811  -0.000003   0.000508   0.000000   0.007295  -0.023258
    37  H   -0.000019   0.000000   0.000000   0.000000  -0.003302   0.011088
    38  C   -0.001861  -0.000316   0.000576   0.000038   0.018411  -0.128837
    39  H    0.000000   0.000000   0.000000   0.000000   0.000323  -0.013202
    40  H    0.000005   0.000000   0.000000   0.000000   0.000607  -0.011966
    41  H    0.000007   0.000000   0.000000   0.000000  -0.000519   0.016661
    42  C   -0.004633   0.001704  -0.004358  -0.000023   0.025268  -0.158511
    43  H   -0.003386   0.000142   0.001221  -0.000003   0.008214  -0.010658
    44  H    0.000230   0.000001  -0.000003   0.000000  -0.000687   0.013466
    45  H    0.000259  -0.000014   0.000001   0.000000  -0.002286  -0.004869
    46  H   -0.000012   0.000000   0.000000   0.000000   0.000028  -0.000557
    47  H   -0.000193   0.000000   0.000000   0.000000   0.000063   0.000719
             25         26         27         28         29         30
     1  H   -0.013620  -0.000012   0.001086  -0.000051   0.007669  -0.022311
     2  C    0.163327   0.009984  -0.012879  -0.025713  -0.167959   0.144604
     3  C    0.020079  -0.000207   0.002214   0.000884   0.012034   0.006255
     4  C    0.062319  -0.000409   0.006312   0.003703   0.003520   0.031030
     5  C   -0.041899   0.000291  -0.002505  -0.001182  -0.001135  -0.010612
     6  C   -0.140039  -0.002008  -0.006687   0.016268  -0.010810  -0.114118
     7  C   -0.030259  -0.000736   0.001576  -0.004888   0.082057  -0.019465
     8  H    0.000058   0.000000   0.000000   0.000000  -0.000150   0.000103
     9  H   -0.000358   0.000000   0.000000   0.000000  -0.000073  -0.000026
    10  H    0.002474   0.000009   0.000107  -0.000061  -0.001791   0.000177
    11  H    0.000284   0.000000   0.000002   0.000000  -0.003631   0.001095
    12  H    0.000036   0.000000   0.000000   0.000000  -0.000015  -0.000047
    13  H   -0.000856   0.000000   0.000000   0.000000   0.002138  -0.002221
    14  O    0.000518   0.000000   0.000000   0.000000   0.000054   0.000064
    15  C    0.005378  -0.000047   0.000732  -0.000114   0.003018   0.003272
    16  O   -0.002579   0.000009   0.000102  -0.000132   0.000194  -0.000317
    17  H    0.000379   0.000000   0.000000   0.000000  -0.000002  -0.000025
    18  O    0.000537   0.000000  -0.000004   0.000027   0.004423  -0.002594
    19  C   -0.006829  -0.000078   0.000380   0.000846   0.005626  -0.003948
    20  H   -0.001138   0.000000   0.000000  -0.000011  -0.004679  -0.000275
    21  H   -0.000747   0.000000   0.000000   0.000001   0.002346   0.000929
    22  H    0.000313   0.000000   0.000000   0.000000   0.000965   0.000010
    23  O   -0.049161   0.008600  -0.007603  -0.003345  -0.114974  -0.031661
    24  Si   0.186646  -0.036104  -0.011680  -0.020470   0.528477   0.160365
    25  C    5.448771   0.405636   0.382725   0.404414  -0.157192   0.006410
    26  H    0.405636   0.488945  -0.021934  -0.022284  -0.031109  -0.007212
    27  H    0.382725  -0.021934   0.495396  -0.022220   0.020742  -0.010888
    28  H    0.404414  -0.022284  -0.022220   0.490795  -0.023955   0.007105
    29  C   -0.157192  -0.031109   0.020742  -0.023955   8.248216  -0.151347
    30  C    0.006410  -0.007212  -0.010888   0.007105  -0.151347   5.456421
    31  H   -0.006184   0.000103   0.000127   0.000025  -0.031227   0.408651
    32  H    0.006933   0.000023  -0.000002  -0.000017  -0.020126   0.405019
    33  H   -0.010899   0.000119   0.000395  -0.000003   0.020533   0.385289
    34  C   -0.004720  -0.000990  -0.000735  -0.003326  -0.438555   0.001705
    35  H   -0.001498   0.000000   0.000000   0.000000  -0.162804   0.000454
    36  H   -0.000228   0.000000  -0.000001   0.000002  -0.096421   0.002170
    37  H   -0.000009   0.000001  -0.000001   0.000000  -0.063620  -0.001627
    38  C    0.027779   0.009505  -0.000952   0.003081  -0.424304   0.031789
    39  H   -0.000193   0.000012  -0.000005   0.000010  -0.078935   0.004437
    40  H    0.003893   0.000272  -0.000006   0.000015  -0.081474  -0.000936
    41  H    0.000559   0.000011   0.000000  -0.000005  -0.154116   0.000478
    42  C    0.012315   0.011866   0.000030   0.013419  -0.396575  -0.002100
    43  H   -0.000122   0.000012  -0.000006   0.000024  -0.108898  -0.000432
    44  H    0.000564  -0.000001   0.000000  -0.000006  -0.159118  -0.001383
    45  H    0.001977   0.000050   0.000008   0.000165  -0.055630   0.000118
    46  H    0.000200   0.000000   0.000000   0.000000  -0.000020  -0.000359
    47  H   -0.000283   0.000000  -0.000005   0.000000   0.000001   0.000127
             31         32         33         34         35         36
     1  H   -0.000007  -0.000016   0.000998  -0.000394   0.000000   0.000002
     2  C    0.006490  -0.029811  -0.016961  -0.081944  -0.000335  -0.001172
     3  C   -0.000419  -0.001925   0.004525  -0.001264   0.000060  -0.000053
     4  C   -0.000319  -0.000456   0.000737  -0.010270   0.000024   0.000157
     5  C    0.000653   0.001185  -0.000973   0.016040  -0.000017   0.000151
     6  C   -0.000399  -0.001901   0.000147   0.033804   0.000721   0.001157
     7  C    0.000710   0.025186   0.004498   0.056047  -0.000561   0.000972
     8  H    0.000000   0.000000   0.000000   0.000072   0.000000   0.000000
     9  H    0.000000   0.000000   0.000000   0.000042   0.000000   0.000000
    10  H    0.000000   0.000000   0.000001  -0.000235   0.000000   0.000000
    11  H    0.000021  -0.000103   0.000063   0.002196   0.000000  -0.000008
    12  H    0.000000   0.000000   0.000001  -0.000025   0.000000   0.000000
    13  H    0.000000  -0.000005   0.000016  -0.000018   0.000000   0.000100
    14  O    0.000000   0.000000   0.000003  -0.000056   0.000000   0.000000
    15  C   -0.000141   0.000192   0.001188  -0.001384  -0.000001  -0.000016
    16  O    0.000000   0.000000   0.000005   0.000074   0.000000   0.000000
    17  H    0.000000   0.000000   0.000000   0.000000   0.000000   0.000000
    18  O    0.000004  -0.000011   0.000001   0.000412   0.000000  -0.000045
    19  C    0.000026  -0.000112   0.000067   0.000450   0.000137  -0.000811
    20  H    0.000000   0.000000   0.000000  -0.000396   0.000000  -0.000003
    21  H    0.000000   0.000000   0.000000   0.001850   0.000000   0.000508
    22  H    0.000000   0.000000   0.000000   0.000100   0.000000   0.000000
    23  O    0.008724  -0.003497  -0.005137   0.048519  -0.000353   0.007295
    24  Si  -0.039802  -0.023982  -0.022225  -0.165768   0.013438  -0.023258
    25  C   -0.006184   0.006933  -0.010899  -0.004720  -0.001498  -0.000228
    26  H    0.000103   0.000023   0.000119  -0.000990   0.000000   0.000000
    27  H    0.000127  -0.000002   0.000395  -0.000735   0.000000  -0.000001
    28  H    0.000025  -0.000017  -0.000003  -0.003326   0.000000   0.000002
    29  C   -0.031227  -0.020126   0.020533  -0.438555  -0.162804  -0.096421
    30  C    0.408651   0.405019   0.385289   0.001705   0.000454   0.002170
    31  H    0.486444  -0.021737  -0.021830   0.010014  -0.000001   0.000004
    32  H   -0.021737   0.489237  -0.022590   0.011985  -0.000011   0.000047
    33  H   -0.021830  -0.022590   0.501357   0.001173   0.000000  -0.000006
    34  C    0.010014   0.011985   0.001173   6.060429   0.470856   0.466337
    35  H   -0.000001  -0.000011   0.000000   0.470856   0.542203  -0.027056
    36  H    0.000004   0.000047  -0.000006   0.466337  -0.027056   0.519445
    37  H    0.000062   0.000265  -0.000004   0.412226  -0.028094  -0.025777
    38  C    0.010487   0.002036  -0.001764   0.011114   0.010317   0.001165
    39  H    0.000079   0.000019   0.000004  -0.017225  -0.000314   0.000045
    40  H    0.000025   0.000019  -0.000006   0.007160  -0.000003  -0.000146
    41  H    0.000014  -0.000006   0.000000   0.010992   0.005331   0.000019
    42  C    0.000267  -0.003906  -0.001265  -0.326540   0.009246  -0.005598
    43  H    0.000000   0.000001  -0.000001  -0.004464  -0.000322   0.002992
    44  H    0.000000   0.000000   0.000000   0.011626   0.005424  -0.000290
    45  H    0.000001   0.000000  -0.000001   0.002706   0.000036   0.000020
    46  H    0.000000   0.000000  -0.000006  -0.000010   0.000000   0.000000
    47  H    0.000000   0.000000  -0.000001  -0.000005   0.000000   0.000000
             37         38         39         40         41         42
     1  H   -0.000001   0.000614   0.000000   0.000000   0.000000  -0.001524
     2  C   -0.000683  -0.023801   0.000147   0.000706  -0.001462   0.102276
     3  C   -0.000043   0.004514   0.000023  -0.000010   0.000012   0.009677
     4  C   -0.000029   0.005646  -0.000003   0.000005   0.000009   0.026923
     5  C   -0.000020  -0.001963  -0.000010   0.000006  -0.000006  -0.011835
     6  C   -0.000414   0.003125  -0.000071   0.000058   0.000108  -0.041408
     7  C    0.000186  -0.009151  -0.000122  -0.000132   0.000177  -0.067930
     8  H    0.000000   0.000000   0.000000   0.000000   0.000000   0.000057
     9  H    0.000000   0.000000   0.000000   0.000000   0.000000   0.000018
    10  H    0.000000  -0.000116   0.000000   0.000000   0.000000   0.000728
    11  H   -0.000002   0.000021   0.000000   0.000000   0.000000   0.000407
    12  H    0.000000  -0.000001   0.000000   0.000000   0.000000   0.000011
    13  H   -0.000006   0.000069   0.000000   0.000000   0.000000  -0.000076
    14  O    0.000000   0.000000   0.000000   0.000000   0.000000  -0.000012
    15  C    0.000007  -0.000326   0.000001  -0.000001   0.000001  -0.000127
    16  O    0.000000  -0.000018   0.000000   0.000000   0.000000  -0.000004
    17  H    0.000000   0.000000   0.000000   0.000000   0.000000  -0.000002
    18  O   -0.000003  -0.000689   0.000000   0.000000   0.000000  -0.001577
    19  C   -0.000019  -0.001861   0.000000   0.000005   0.000007  -0.004633
    20  H    0.000000  -0.000316   0.000000   0.000000   0.000000   0.001704
    21  H    0.000000   0.000576   0.000000   0.000000   0.000000  -0.004358
    22  H    0.000000   0.000038   0.000000   0.000000   0.000000  -0.000023
    23  O   -0.003302   0.018411   0.000323   0.000607  -0.000519   0.025268
    24  Si   0.011088  -0.128837  -0.013202  -0.011966   0.016661  -0.158511
    25  C   -0.000009   0.027779  -0.000193   0.003893   0.000559   0.012315
    26  H    0.000001   0.009505   0.000012   0.000272   0.000011   0.011866
    27  H   -0.000001  -0.000952  -0.000005  -0.000006   0.000000   0.000030
    28  H    0.000000   0.003081   0.000010   0.000015  -0.000005   0.013419
    29  C   -0.063620  -0.424304  -0.078935  -0.081474  -0.154116  -0.396575
    30  C   -0.001627   0.031789   0.004437  -0.000936   0.000478  -0.002100
    31  H    0.000062   0.010487   0.000079   0.000025   0.000014   0.000267
    32  H    0.000265   0.002036   0.000019   0.000019  -0.000006  -0.003906
    33  H   -0.000004  -0.001764   0.000004  -0.000006   0.000000  -0.001265
    34  C    0.412226   0.011114  -0.017225   0.007160   0.010992  -0.326540
    35  H   -0.028094   0.010317  -0.000314  -0.000003   0.005331   0.009246
    36  H   -0.025777   0.001165   0.000045  -0.000146   0.000019  -0.005598
    37  H    0.535255  -0.005219   0.002749   0.000028  -0.000327   0.002975
    38  C   -0.005219   5.629251   0.450268   0.449101   0.457139   0.017346
    39  H    0.002749   0.450268   0.530209  -0.027220  -0.027437   0.006846
    40  H    0.000028   0.449101  -0.027220   0.532162  -0.027504  -0.015514
    41  H   -0.000327   0.457139  -0.027437  -0.027504   0.537735   0.010117
    42  C    0.002975   0.017346   0.006846  -0.015514   0.010117   6.012203
    43  H    0.000031   0.000977  -0.000145   0.000041   0.000021   0.468058
    44  H    0.000029   0.009991   0.000002  -0.000324   0.005405   0.465330
    45  H   -0.000153  -0.005747   0.000026   0.002765  -0.000335   0.414632
    46  H    0.000000  -0.000001   0.000000   0.000000   0.000000  -0.000001
    47  H    0.000000   0.000003   0.000000   0.000000   0.000000   0.000001
             43         44         45         46         47
     1  H    0.000001   0.000000   0.000000   0.000014  -0.000048
     2  C    0.007653  -0.000413  -0.001773  -0.007138   0.024326
     3  C   -0.000030   0.000020  -0.000008   0.045756  -0.020143
     4  C   -0.000469   0.000020   0.000244   0.010745   0.072419
     5  C    0.000071  -0.000003   0.000029  -0.131477  -0.191197
     6  C   -0.004264  -0.000520   0.002269   0.006498  -0.013887
     7  C   -0.000718   0.000481   0.000017   0.015125  -0.009452
     8  H    0.000000   0.000000   0.000000   0.000015  -0.000115
     9  H    0.000000   0.000000   0.000000  -0.000095  -0.000015
    10  H    0.000005   0.000000  -0.000002   0.000000  -0.000005
    11  H    0.000000   0.000000   0.000000  -0.000279  -0.000020
    12  H    0.000000   0.000000   0.000000   0.000672   0.000134
    13  H    0.000001   0.000000   0.000000  -0.000008  -0.000002
    14  O    0.000000   0.000000   0.000000  -0.028469  -0.025322
    15  C    0.000002   0.000001  -0.000006   0.422120   0.491473
    16  O    0.000001   0.000000   0.000000  -0.000159   0.008728
    17  H    0.000000   0.000000   0.000000   0.000211  -0.001842
    18  O    0.000003  -0.000009  -0.000019   0.000000  -0.000179
    19  C   -0.003386   0.000230   0.000259  -0.000012  -0.000193
    20  H    0.000142   0.000001  -0.000014   0.000000   0.000000
    21  H    0.001221  -0.000003   0.000001   0.000000   0.000000
    22  H   -0.000003   0.000000   0.000000   0.000000   0.000000
    23  O    0.008214  -0.000687  -0.002286   0.000028   0.000063
    24  Si  -0.010658   0.013466  -0.004869  -0.000557   0.000719
    25  C   -0.000122   0.000564   0.001977   0.000200  -0.000283
    26  H    0.000012  -0.000001   0.000050   0.000000   0.000000
    27  H   -0.000006   0.000000   0.000008   0.000000  -0.000005
    28  H    0.000024  -0.000006   0.000165   0.000000   0.000000
    29  C   -0.108898  -0.159118  -0.055630  -0.000020   0.000001
    30  C   -0.000432  -0.001383   0.000118  -0.000359   0.000127
    31  H    0.000000   0.000000   0.000001   0.000000   0.000000
    32  H    0.000001   0.000000   0.000000   0.000000   0.000000
    33  H   -0.000001   0.000000  -0.000001  -0.000006  -0.000001
    34  C   -0.004464   0.011626   0.002706  -0.000010  -0.000005
    35  H   -0.000322   0.005424   0.000036   0.000000   0.000000
    36  H    0.002992  -0.000290   0.000020   0.000000   0.000000
    37  H    0.000031   0.000029  -0.000153   0.000000   0.000000
    38  C    0.000977   0.009991  -0.005747  -0.000001   0.000003
    39  H   -0.000145   0.000002   0.000026   0.000000   0.000000
    40  H    0.000041  -0.000324   0.002765   0.000000   0.000000
    41  H    0.000021   0.005405  -0.000335   0.000000   0.000000
    42  C    0.468058   0.465330   0.414632  -0.000001   0.000001
    43  H    0.524599  -0.027123  -0.026297   0.000000   0.000000
    44  H   -0.027123   0.541267  -0.027865   0.000000   0.000000
    45  H   -0.026297  -0.027865   0.534239   0.000000   0.000000
    46  H    0.000000   0.000000   0.000000   0.527128  -0.032681
    47  H    0.000000   0.000000   0.000000  -0.032681   0.519467
 Mulliken atomic charges:
              1
     1  H    0.147145
     2  C   -0.320284
     3  C   -0.249709
     4  C   -0.134721
     5  C   -0.254030
     6  C   -0.018423
     7  C   -0.310846
     8  H    0.196130
     9  H    0.190032
    10  H    0.158922
    11  H    0.173336
    12  H    0.175088
    13  H    0.186370
    14  O   -0.360125
    15  C    0.037436
    16  O   -0.514479
    17  H    0.387881
    18  O   -0.272439
    19  C   -0.130999
    20  H    0.141226
    21  H    0.166871
    22  H    0.161070
    23  O   -0.293187
    24  Si   0.801322
    25  C   -0.675709
    26  H    0.187684
    27  H    0.186179
    28  H    0.187002
    29  C   -0.001366
    30  C   -0.674172
    31  H    0.189136
    32  H    0.188067
    33  H    0.182549
    34  C   -0.579604
    35  H    0.163125
    36  H    0.178303
    37  H    0.164450
    38  C   -0.549298
    39  H    0.169682
    40  H    0.168376
    41  H    0.166921
    42  C   -0.568202
    43  H    0.173268
    44  H    0.163888
    45  H    0.165442
    46  H    0.172758
    47  H    0.177934
 Sum of Mulliken atomic charges =   0.00000
 Mulliken charges with hydrogens summed into heavy atoms:
              1
     2  C   -0.173139
     3  C    0.121509
     4  C    0.055311
     5  C   -0.254030
     6  C    0.140499
     7  C    0.048859
    14  O   -0.360125
    15  C    0.388129
    16  O   -0.126598
    18  O   -0.272439
    19  C    0.338167
    23  O   -0.293187
    24  Si   0.801322
    25  C   -0.114844
    29  C   -0.001366
    30  C   -0.114420
    34  C   -0.073727
    38  C   -0.044320
    42  C   -0.065604
 Sum of Mulliken charges with hydrogens summed into heavy atoms =   0.00000
 Electronic spatial extent (au):  <R**2>=           6598.1988
 Charge=              0.0000 electrons
 Dipole moment (field-independent basis, Debye):
    X=              2.3488    Y=             -1.7593    Z=             -0.0964  Tot=              2.9362
 Quadrupole moment (field-independent basis, Debye-Ang):
   XX=           -136.5148   YY=           -120.5448   ZZ=           -127.3705
   XY=              2.2373   XZ=             -0.2952   YZ=              0.1636
 Traceless Quadrupole moment (field-independent basis, Debye-Ang):
   XX=             -8.3714   YY=              7.5986   ZZ=              0.7729
   XY=              2.2373   XZ=             -0.2952   YZ=              0.1636
 Octapole moment (field-independent basis, Debye-Ang**2):
  XXX=             41.4334  YYY=              8.5517  ZZZ=             -7.9716  XYY=            -15.2702
  XXY=              0.2402  XXZ=             25.2531  XZZ=            -15.2382  YZZ=             -1.7248
  YYZ=              2.3498  XYZ=              1.9441
 Hexadecapole moment (field-independent basis, Debye-Ang**3):
 XXXX=          -6673.8123 YYYY=          -1530.6310 ZZZZ=          -1101.5976 XXXY=            -68.9870
 XXXZ=           -170.4803 YYYX=             44.9638 YYYZ=            -10.1920 ZZZX=              2.7470
 ZZZY=              2.3405 XXYY=          -1285.6012 XXZZ=          -1181.6791 YYZZ=           -437.6661
 XXYZ=            -24.5044 YYXZ=             -5.3923 ZZXY=             14.4648
 N-N= 1.808306895896D+03 E-N=-6.286973979476D+03  KE= 1.131539116894D+03
 1\1\GINC-COMPUTE-8-10\SP\RmPW1PW91\6-31+G(d,p)\C14H28O4Si1\ELUCIANO.IQ
 UIR\07-Dec-2022\0\\# mPW1PW91/6-31+g** scrf=(PCM,solvent=chloroform) n
 mr\\comment\\0,1\H,0,-0.828037,-0.977176,0.332052\C,0,-0.661778,-0.053
 81,-0.244657\C,0,-2.754921,-0.207436,-1.724409\C,0,-2.924994,0.590241,
 0.670555\C,0,-3.310002,-0.487971,-0.342176\C,0,-1.453885,1.041704,0.49
 0182\C,0,-1.202542,-0.253798,-1.674915\H,0,-3.085253,0.789383,-2.03887
 1\H,0,-3.543358,1.473198,0.452255\H,0,-1.021504,1.20731,1.487567\H,0,-
 0.828658,-1.210253,-2.057385\H,0,-3.158885,-0.926207,-2.444169\H,0,-0.
 780517,0.532902,-2.306187\O,0,-4.670273,-0.938946,-0.215562\C,0,-3.605
 436,-1.863661,0.085656\O,0,-3.119911,0.17259,2.015464\H,0,-4.063749,-0
 .047482,2.092183\O,0,-1.502623,2.266169,-0.233679\C,0,-0.367524,3.1088
 94,-0.10589\H,0,-0.09536,3.248553,0.951505\H,0,0.502977,2.717783,-0.64
 2516\H,0,-0.653758,4.07693,-0.527793\O,0,0.730962,0.246007,-0.287696\S
 i,0,1.949524,-0.759501,0.30034\C,0,1.759106,-0.972645,2.170539\H,0,2.5
 46405,-1.616358,2.58171\H,0,0.797871,-1.437369,2.422429\H,0,1.805389,-
 0.011335,2.69455\C,0,3.580248,0.130875,-0.152503\C,0,1.827519,-2.46024
 9,-0.521017\H,0,2.587664,-3.146621,-0.129085\H,0,1.958788,-2.399008,-1
 .607194\H,0,0.849962,-2.920368,-0.330994\C,0,3.646283,0.360181,-1.6776
 67\H,0,4.576062,0.882531,-1.946255\H,0,2.806253,0.967959,-2.031083\H,0
 ,3.632586,-0.585122,-2.234054\C,0,4.78456,-0.733142,0.2824\H,0,4.79502
 5,-1.708874,-0.218874\H,0,4.794932,-0.911888,1.364904\H,0,5.727463,-0.
 227817,0.028278\C,0,3.655036,1.495346,0.565105\H,0,2.817527,2.145587,0
 .28858\H,0,4.584551,2.018239,0.296306\H,0,3.647572,1.384827,1.656246\H
 ,0,-3.490822,-2.680248,-0.628065\H,0,-3.50973,-2.13978,1.133742\\Versi
 on=EM64L-G09RevC.01\State=1-A\HF=-1140.6160434\RMSD=2.828e-09\Dipole=0
 .9240843,-0.692173,-0.0379189\Quadrupole=-6.2239562,5.649339,0.5746172
 ,1.66338,-0.2194878,0.1216127\PG=C01 [X(C14H28O4Si1)]\\@


 A SOLDIER'S LIFE IS A LIFE OF HONOR, BUT A DOG WOULD NOT LEAD IT.
 -- PRINCE RUPERT, FOUNDER OF THE HUDSON'S BAY COMPANY
 Job cpu time:  0 days  3 hours 53 minutes 52.3 seconds.
 File lengths (MBytes):  RWF=    300 Int=      0 D2E=      0 Chk=     16 Scr=      1
 Normal termination of Gaussian 09 at Wed Dec  7 00:36:18 2022.
