 Entering Gaussian System, Link 0=g09
 Input=/home/eluciano.iquir/todos_optB3L_MPW_B_PCM/02_epoxido28_010_optB3L_nmr_MPW_B_PCM.gjc
 Output=/home/eluciano.iquir/todos_optB3L_MPW_B_PCM/02_epoxido28_010_optB3L_nmr_MPW_B_PCM.log
 Initial command:
 /share/apps/Gaussian09/EM64T.SSE4.2-enabled/g09/l1.exe /tmp/Gau-89428.inp -scrdir=/tmp/
 Entering Link 1 = /share/apps/Gaussian09/EM64T.SSE4.2-enabled/g09/l1.exe PID=     89429.
  
 Copyright (c) 1988,1990,1992,1993,1995,1998,2003,2009,2011,
            Gaussian, Inc.  All Rights Reserved.
  
 This is part of the Gaussian(R) 09 program.  It is based on
 the Gaussian(R) 03 system (copyright 2003, Gaussian, Inc.),
 the Gaussian(R) 98 system (copyright 1998, Gaussian, Inc.),
 the Gaussian(R) 94 system (copyright 1995, Gaussian, Inc.),
 the Gaussian 92(TM) system (copyright 1992, Gaussian, Inc.),
 the Gaussian 90(TM) system (copyright 1990, Gaussian, Inc.),
 the Gaussian 88(TM) system (copyright 1988, Gaussian, Inc.),
 the Gaussian 86(TM) system (copyright 1986, Carnegie Mellon
 University), and the Gaussian 82(TM) system (copyright 1983,
 Carnegie Mellon University). Gaussian is a federally registered
 trademark of Gaussian, Inc.
  
 This software contains proprietary and confidential information,
 including trade secrets, belonging to Gaussian, Inc.
  
 This software is provided under written license and may be
 used, copied, transmitted, or stored only in accord with that
 written license.
  
 The following legend is applicable only to US Government
 contracts under FAR:
  
                    RESTRICTED RIGHTS LEGEND
  
 Use, reproduction and disclosure by the US Government is
 subject to restrictions as set forth in subparagraphs (a)
 and (c) of the Commercial Computer Software - Restricted
 Rights clause in FAR 52.227-19.
  
 Gaussian, Inc.
 340 Quinnipiac St., Bldg. 40, Wallingford CT 06492
  
  
 ---------------------------------------------------------------
 Warning -- This program may not be used in any manner that
 competes with the business of Gaussian, Inc. or will provide
 assistance to any competitor of Gaussian, Inc.  The licensee
 of this program is prohibited from giving any competitor of
 Gaussian, Inc. access to this program.  By using this program,
 the user acknowledges that Gaussian, Inc. is engaged in the
 business of creating and licensing software in the field of
 computational chemistry and represents and warrants to the
 licensee that it is not a competitor of Gaussian, Inc. and that
 it will not use this program in any manner prohibited above.
 ---------------------------------------------------------------
  

 Cite this work as:
 Gaussian 09, Revision C.01,
 M. J. Frisch, G. W. Trucks, H. B. Schlegel, G. E. Scuseria, 
 M. A. Robb, J. R. Cheeseman, G. Scalmani, V. Barone, B. Mennucci, 
 G. A. Petersson, H. Nakatsuji, M. Caricato, X. Li, H. P. Hratchian, 
 A. F. Izmaylov, J. Bloino, G. Zheng, J. L. Sonnenberg, M. Hada, 
 M. Ehara, K. Toyota, R. Fukuda, J. Hasegawa, M. Ishida, T. Nakajima, 
 Y. Honda, O. Kitao, H. Nakai, T. Vreven, J. A. Montgomery, Jr., 
 J. E. Peralta, F. Ogliaro, M. Bearpark, J. J. Heyd, E. Brothers, 
 K. N. Kudin, V. N. Staroverov, T. Keith, R. Kobayashi, J. Normand, 
 K. Raghavachari, A. Rendell, J. C. Burant, S. S. Iyengar, J. Tomasi, 
 M. Cossi, N. Rega, J. M. Millam, M. Klene, J. E. Knox, J. B. Cross, 
 V. Bakken, C. Adamo, J. Jaramillo, R. Gomperts, R. E. Stratmann, 
 O. Yazyev, A. J. Austin, R. Cammi, C. Pomelli, J. W. Ochterski, 
 R. L. Martin, K. Morokuma, V. G. Zakrzewski, G. A. Voth, 
 P. Salvador, J. J. Dannenberg, S. Dapprich, A. D. Daniels, 
 O. Farkas, J. B. Foresman, J. V. Ortiz, J. Cioslowski, 
 and D. J. Fox, Gaussian, Inc., Wallingford CT, 2010.
 
 ******************************************
 Gaussian 09:  EM64L-G09RevC.01 23-Sep-2011
                 6-Dec-2022 
 ******************************************
 %nprocshared=4
 Will use up to    4 processors via shared memory.
 %mem=80MW
 -----------------------------------------------------
 # mPW1PW91/6-31+g** scrf=(PCM,solvent=chloroform) nmr
 -----------------------------------------------------
 1/38=1/1;
 2/12=2,17=6,18=5,40=1/2;
 3/5=1,6=6,7=111,11=2,16=1,25=1,30=1,70=2201,72=7,74=-7/1,2,8,3;
 4//1;
 5/5=2,38=5,53=7/2;
 8/6=1,10=90,11=11/1;
 10/13=100,45=16/2;
 6/7=2,8=2,9=2,10=2,28=1/1;
 99/9=1/99;
 -------
 comment
 -------
 Charge =  0 Multiplicity = 1
 Symbolic Z-Matrix:
 1                    -0.21742  -0.71529   0.84753 
 6                    -0.44507  -0.07702  -0.01756 
 6                    -2.25481  -1.71781  -0.66164 
 6                    -2.75815   0.20557   0.96284 
 6                    -3.29459  -0.7815   -0.07098 
 6                    -1.50525   0.94234   0.45124 
 6                    -1.01348  -0.9463   -1.14408 
 1                    -2.70728  -2.28035  -1.48518 
 1                    -3.53334   0.95625   1.1699 
 1                    -1.09312   1.53746   1.28085 
 1                    -0.24499  -1.64583  -1.49152 
 1                    -1.95941  -2.4418    0.10995 
 1                    -1.27637  -0.29615  -1.98508 
 8                    -4.25209  -0.2367   -0.99353 
 6                    -4.71575  -1.17096  -0.01397 
 8                    -2.36169  -0.48139   2.15391 
 1                    -3.13461  -0.96875   2.47955 
 8                    -1.95829   1.79108  -0.58881 
 6                    -1.19249   2.96222  -0.82007 
 1                    -1.01229   3.51073   0.11831 
 1                    -1.78938   3.59275  -1.48564 
 1                    -0.22921   2.7404   -1.28997 
 8                     0.73028   0.59793  -0.46212 
 14                    2.25738   0.59068   0.24235 
 6                     3.10346   2.1103   -0.48522 
 1                     4.1264    2.22832  -0.10902 
 1                     2.54596   3.01667  -0.22206 
 1                     3.15169   2.05877  -1.57863 
 6                     3.22444  -1.00988  -0.20682 
 6                     2.10809   0.76775   2.12173 
 1                     3.09543   0.76711   2.59924 
 1                     1.52217  -0.03836   2.57807 
 1                     1.61908   1.71466   2.37992 
 6                     2.55087  -2.25289   0.41407 
 1                     2.50392  -2.19317   1.50828 
 1                     3.11828  -3.161     0.16208 
 1                     1.52959  -2.3977    0.04182 
 6                     4.66766  -0.91      0.33478 
 1                     4.69244  -0.80092   1.4261 
 1                     5.21354  -0.06352  -0.09915 
 1                     5.23208  -1.82096   0.08748 
 6                     3.27424  -1.17988  -1.74014 
 1                     3.81198  -2.1013   -2.00821 
 1                     3.79463  -0.34624  -2.22702 
 1                     2.27019  -1.24234  -2.17493 
 1                    -5.02166  -2.14495  -0.39851 
 1                    -5.37237  -0.75293   0.75237 
 
                          Input orientation:                          
 ---------------------------------------------------------------------
 Center     Atomic      Atomic             Coordinates (Angstroms)
 Number     Number       Type             X           Y           Z
 ---------------------------------------------------------------------
      1          1           0       -0.217424   -0.715289    0.847532
      2          6           0       -0.445069   -0.077022   -0.017563
      3          6           0       -2.254814   -1.717808   -0.661638
      4          6           0       -2.758151    0.205572    0.962841
      5          6           0       -3.294585   -0.781497   -0.070975
      6          6           0       -1.505246    0.942342    0.451236
      7          6           0       -1.013477   -0.946296   -1.144080
      8          1           0       -2.707281   -2.280345   -1.485181
      9          1           0       -3.533342    0.956250    1.169900
     10          1           0       -1.093122    1.537460    1.280854
     11          1           0       -0.244994   -1.645833   -1.491521
     12          1           0       -1.959414   -2.441798    0.109953
     13          1           0       -1.276366   -0.296151   -1.985081
     14          8           0       -4.252092   -0.236702   -0.993533
     15          6           0       -4.715745   -1.170956   -0.013970
     16          8           0       -2.361692   -0.481392    2.153907
     17          1           0       -3.134611   -0.968753    2.479548
     18          8           0       -1.958286    1.791079   -0.588807
     19          6           0       -1.192489    2.962219   -0.820069
     20          1           0       -1.012290    3.510727    0.118313
     21          1           0       -1.789384    3.592751   -1.485635
     22          1           0       -0.229210    2.740402   -1.289973
     23          8           0        0.730277    0.597925   -0.462115
     24         14           0        2.257379    0.590675    0.242345
     25          6           0        3.103464    2.110299   -0.485221
     26          1           0        4.126398    2.228315   -0.109017
     27          1           0        2.545957    3.016673   -0.222055
     28          1           0        3.151688    2.058774   -1.578634
     29          6           0        3.224438   -1.009877   -0.206824
     30          6           0        2.108093    0.767750    2.121726
     31          1           0        3.095429    0.767114    2.599240
     32          1           0        1.522167   -0.038362    2.578067
     33          1           0        1.619082    1.714662    2.379921
     34          6           0        2.550871   -2.252892    0.414070
     35          1           0        2.503917   -2.193173    1.508283
     36          1           0        3.118275   -3.161000    0.162082
     37          1           0        1.529594   -2.397704    0.041824
     38          6           0        4.667656   -0.909998    0.334776
     39          1           0        4.692438   -0.800918    1.426095
     40          1           0        5.213545   -0.063524   -0.099145
     41          1           0        5.232078   -1.820964    0.087484
     42          6           0        3.274241   -1.179884   -1.740140
     43          1           0        3.811984   -2.101299   -2.008213
     44          1           0        3.794632   -0.346238   -2.227020
     45          1           0        2.270188   -1.242340   -2.174929
     46          1           0       -5.021656   -2.144946   -0.398514
     47          1           0       -5.372365   -0.752926    0.752365
 ---------------------------------------------------------------------
                    Distance matrix (angstroms):
                    1          2          3          4          5
     1  H    0.000000
     2  C    1.098907   0.000000
     3  C    2.726462   2.526299   0.000000
     4  C    2.704917   2.528122   2.567425   0.000000
     5  C    3.212002   2.935793   1.518777   1.526710   0.000000
     6  C    2.136183   1.543649   2.979386   1.540890   2.538909
     7  C    2.157216   1.532242   1.539123   2.968131   2.526295
     8  H    3.753710   3.482260   1.095170   3.489295   2.142767
     9  H    3.727369   3.466288   3.484215   1.098777   2.148614
    10  H    2.455503   2.170809   3.964792   2.155778   3.471519
    11  H    2.517507   2.161886   2.175606   3.970838   3.473476
    12  H    2.561130   2.810990   1.098533   2.893781   2.138227
    13  H    3.052987   2.147137   2.174850   3.337313   2.823574
    14  O    4.460618   3.933375   2.508575   2.500973   1.436918
    15  C    4.602685   4.408557   2.602826   2.584795   1.474661
    16  O    2.521747   2.924421   3.076921   1.430992   2.431142
    17  H    3.352268   3.776822   3.346965   1.954779   2.562386
    18  O    3.372766   2.471021   3.522147   2.358226   2.944825
    19  C    4.153999   3.231043   4.801696   3.637192   4.358367
    20  H    4.361512   3.634851   5.430448   3.832141   4.864965
    21  H    5.145283   4.174883   5.394222   4.290283   4.837452
    22  H    4.063357   3.098951   4.936954   4.230375   4.825583
    23  O    2.082749   1.426400   3.783279   3.788611   4.272623
    24  Si   2.862943   2.795818   5.148414   5.081630   5.727594
    25  C    4.559438   4.194659   6.587615   6.331145   7.033428
    26  H    5.333721   5.120669   7.523107   7.255163   8.008209
    27  H    4.765273   4.308016   6.756918   6.118809   6.968562
    28  H    4.993258   4.464888   6.658357   6.694748   7.203791
    29  C    3.611767   3.790952   5.543485   6.215851   6.524437
    30  C    3.038257   3.436398   5.741086   5.033825   6.032995
    31  H    4.030012   4.482784   6.740420   6.103895   7.096515
    32  H    2.545419   3.257116   5.251839   4.581439   5.547141
    33  H    3.409638   3.635764   6.003333   4.842070   6.031735
    34  C    3.196180   3.727784   4.953592   5.876301   6.047283
    35  H    3.166454   3.937362   5.251671   5.808687   6.173290
    36  H    4.192640   4.715995   5.624180   6.819634   6.844058
    37  H    2.555730   3.047685   3.908818   5.100007   5.088964
    38  C    4.915774   5.192104   7.040312   7.535355   7.973608
    39  H    4.944574   5.385365   7.311883   7.532523   8.126139
    40  H    5.551254   5.659218   7.670035   8.046624   8.538416
    41  H    5.612242   5.939896   7.524984   8.289563   8.591250
    42  C    4.370769   4.244625   5.658885   6.753914   6.789278
    43  H    5.129565   5.116921   6.226264   7.570699   7.483187
    44  H    5.068102   4.788449   6.397454   7.308808   7.422599
    45  H    3.949844   3.658526   4.794973   6.101331   5.967051
    46  H    5.164997   5.036525   2.811956   3.535771   2.224646
    47  H    5.155957   5.032681   3.556617   2.792335   2.235145
                    6          7          8          9         10
     6  C    0.000000
     7  C    2.520679   0.000000
     8  H    3.947190   2.182890   0.000000
     9  H    2.151707   3.914576   4.267011   0.000000
    10  H    1.101035   3.472131   4.983181   2.510934   0.000000
    11  H    3.472922   1.095734   2.542735   4.966612   4.305664
    12  H    3.431493   2.168853   1.769131   3.891975   4.237448
    13  H    2.742607   1.095026   2.496887   4.076316   3.749939
    14  O    3.320040   3.318858   2.608570   2.572971   4.277801
    15  C    3.871660   3.877423   2.725644   2.706405   4.704836
    16  O    2.378993   3.593124   4.074141   2.099488   2.539144
    17  H    3.228183   4.198856   4.197852   2.362160   3.447557
    18  O    1.416788   2.948595   4.235679   2.504155   2.075684
    19  C    2.407060   3.926005   5.497404   3.669262   2.540411
    20  H    2.636370   4.632353   6.243453   3.739905   2.291685
    21  H    3.294977   4.617536   5.944392   4.128486   3.516029
    22  H    2.809466   3.772016   5.602396   4.489038   2.966912
    23  O    2.439343   2.427009   4.598685   4.579336   2.691738
    24  Si   3.784792   3.870782   5.989570   5.875921   3.633285
    25  C    4.845749   5.169726   7.351356   6.936746   4.588954
    26  H    5.803708   6.129260   8.301868   7.869269   5.445403
    27  H    4.600915   5.405999   7.566399   6.568162   4.205913
    28  H    5.201329   5.154404   7.291379   7.311609   5.144594
    29  C    5.158887   4.340785   6.199482   7.171375   5.229095
    30  C    3.984625   4.831940   6.744515   5.724272   3.398131
    31  H    5.080437   5.816470   7.722755   6.783759   4.458199
    32  H    3.827587   4.594368   6.278909   5.341382   3.317486
    33  H    3.752030   5.140977   7.043899   5.346664   2.931791
    34  C    5.163621   4.103608   5.590713   6.920081   5.328862
    35  H    5.198287   4.578405   6.010408   6.817761   5.187296
    36  H    6.188536   4.866451   6.117690   7.887424   6.408045
    37  H    4.531421   3.159140   4.505178   6.176964   4.888696
    38  C    6.445886   5.870571   7.718795   8.452022   6.330219
    39  H    6.511574   6.259744   8.088268   8.415268   6.241940
    40  H    6.815925   6.375498   8.341156   8.897103   6.651436
    41  H    7.291071   6.425632   8.106647   9.258355   7.260255
    42  C    5.670050   4.335248   6.087251   7.705491   5.965251
    43  H    6.601937   5.036450   6.542663   8.567545   6.936757
    44  H    6.076364   4.964951   6.823926   8.181366   6.304255
    45  H    5.091511   3.454381   5.131121   7.050010   5.566110
    46  H    4.755898   4.249486   2.560373   3.780531   5.640370
    47  H    4.233110   4.757499   3.800302   2.545118   4.882324
                   11         12         13         14         15
    11  H    0.000000
    12  H    2.477401   0.000000
    13  H    1.768890   3.075634   0.000000
    14  O    4.276737   3.366972   3.137140   0.000000
    15  C    4.732471   3.037722   4.059543   1.430856   0.000000
    16  O    4.373269   2.860554   4.282928   3.679655   3.273645
    17  H    4.957591   3.027529   4.882456   3.721150   2.959477
    18  O    3.944949   4.290165   2.602139   3.088243   4.087502
    19  C    4.752130   5.536833   3.461396   4.429939   5.490561
    20  H    5.456228   6.027410   4.357330   5.076982   5.970865
    21  H    5.461496   6.244245   3.954263   4.579498   5.781202
    22  H    4.390892   5.639911   3.286391   5.013442   6.087356
    23  O    2.654295   4.098977   2.673091   5.079666   5.743599
    24  Si   3.777583   5.195649   4.270274   6.677212   7.196770
    25  C    5.131602   6.834366   5.217614   7.737635   8.492864
    26  H    6.002450   7.674309   6.251592   8.778256   9.473519
    27  H    5.580315   7.085443   5.356605   7.575823   8.385216
    28  H    5.026843   7.016398   5.031752   7.773513   8.647302
    29  C    3.753911   5.387306   4.891711   7.557461   7.944158
    30  C    4.941453   5.558151   5.426998   7.153021   7.408410
    31  H    5.806467   6.484220   6.423326   8.240251   8.461644
    32  H    4.718937   4.897907   5.359157   6.792476   6.849304
    33  H    5.454885   5.935870   5.610725   7.046893   7.361219
    34  C    3.437537   4.524472   4.922652   7.233718   7.359179
    35  H    4.105474   4.683851   5.485693   7.465288   7.448872
    36  H    4.042488   5.128635   5.668381   8.013069   8.084747
    37  H    2.462848   3.489952   4.049479   6.258577   6.364926
    38  C    5.292537   6.805513   6.410144   9.043209   9.393505
    39  H    5.796947   6.976521   6.893296   9.283187   9.524947
    40  H    5.851330   7.559845   6.762382   9.509375   9.991219
    41  H    5.702828   7.218275   6.998602   9.676154   9.969553
    42  C    3.558642   5.692663   4.642090   7.621857   8.174327
    43  H    4.115032   6.157240   5.399111   8.338802   8.807083
    44  H    4.306795   6.554530   5.077013   8.141453   8.832002
    45  H    2.637422   4.954687   3.675508   6.704263   7.312872
    46  H    4.925472   3.118331   4.467934   2.141885   1.090923
    47  H    5.667649   3.861763   4.947672   2.137676   1.092322
                   16         17         18         19         20
    16  O    0.000000
    17  H    0.970034   0.000000
    18  O    3.584598   4.291295   0.000000
    19  C    4.697875   5.487427   1.418272   0.000000
    20  H    4.679908   5.490484   2.086173   1.101768   0.000000
    21  H    5.492945   6.191900   2.019616   1.093998   1.784167
    22  H    5.175688   6.033944   2.093454   1.094495   1.786025
    23  O    4.191511   5.103452   2.944153   3.068395   3.443523
    24  Si   5.112652   6.042388   4.461347   4.319089   4.385524
    25  C    6.599226   7.562010   5.072864   4.392391   4.389178
    26  H    7.386383   8.345308   6.119212   5.416158   5.301167
    27  H    6.478169   7.446552   4.682392   3.786366   3.608471
    28  H    7.126126   8.071698   5.211838   4.501501   4.725094
    29  C    6.087462   6.903317   5.903549   5.971839   6.204147
    30  C    4.641160   5.534386   4.992958   4.935959   4.612415
    31  H    5.615804   6.468459   6.062358   5.907318   5.527727
    32  H    3.931990   4.749833   5.048713   5.283954   5.006985
    33  H    4.551955   5.459692   4.649381   4.438611   3.907024
    34  C    5.504409   6.183843   6.139378   6.537066   6.782543
    35  H    5.198190   5.851116   6.339030   6.757419   6.843260
    36  H    6.416986   7.019628   7.131507   7.552557   7.847001
    37  H    4.824443   5.453367   5.487158   6.073003   6.432463
    38  C    7.273560   8.091901   7.214702   7.118218   7.200795
    39  H    7.098772   7.899407   7.416900   7.337494   7.269422
    40  H    7.914232   8.784122   7.423913   7.121245   7.182171
    41  H    7.983101   8.743553   8.074996   8.060866   8.210969
    42  C    6.885872   7.676179   6.126298   6.160781   6.620425
    43  H    7.619817   8.347325   7.103614   7.217732   7.700037
    44  H    7.557190   8.399626   6.352002   6.147908   6.594184
    45  H    6.385309   7.137987   5.440350   5.612851   6.214923
    46  H    4.044462   3.636978   4.991266   6.397137   6.951889
    47  H    3.331997   2.835011   4.463926   5.809149   6.131151
                   21         22         23         24         25
    21  H    0.000000
    22  H    1.788554   0.000000
    23  O    4.045401   2.489211   0.000000
    24  Si   5.326788   3.626631   1.681772   0.000000
    25  C    5.209458   3.485882   2.814218   1.885330   0.000000
    26  H    6.225210   4.541829   3.783713   2.509692   1.096290
    27  H    4.552327   2.986357   3.033919   2.486848   1.096168
    28  H    5.174546   3.460984   3.040382   2.504210   1.095688
    29  C    6.925168   5.212052   2.978429   1.923206   3.134906
    30  C    6.015315   4.581924   2.933164   1.893598   3.096671
    31  H    6.966479   5.483892   3.872269   2.507671   3.364240
    32  H    6.376913   5.074503   3.205411   2.528205   4.062140
    33  H    5.485197   4.235144   3.180290   2.497999   3.250993
    34  C    7.524509   5.963690   3.494198   2.863826   4.489044
    35  H    7.802108   6.296061   3.849480   3.068092   4.780522
    36  H    8.509597   6.938347   4.496852   3.850019   5.310915
    37  H    7.016716   5.591709   3.141123   3.082254   4.803846
    38  C    8.079728   6.320168   4.290900   2.840774   3.498755
    39  H    8.354431   6.643839   4.606606   3.044225   3.827944
    40  H    8.020705   6.237279   4.546312   3.046885   3.054014
    41  H    9.004662   7.247697   5.139970   3.832599   4.507085
    42  C    6.962982   5.276880   3.356442   2.845898   3.525520
    43  H    8.004412   6.347376   4.378715   3.837777   4.534210
    44  H    6.873610   5.157200   3.660137   3.055931   3.089685
    45  H    6.350855   4.784597   2.948158   3.033698   3.845731
    46  H    6.674622   6.901367   6.372764   7.802479   9.172361
    47  H    6.060636   6.544198   6.367260   7.763915   9.031575
                   26         27         28         29         30
    26  H    0.000000
    27  H    1.769768   0.000000
    28  H    1.771603   1.767707   0.000000
    29  C    3.362884   4.083341   3.362109   0.000000
    30  C    3.344102   3.277604   4.055675   3.135017   0.000000
    31  H    3.245406   3.649951   4.373349   3.323904   1.096746
    32  H    4.374959   4.268731   4.932695   3.405464   1.096072
    33  H    3.570054   3.053622   4.258809   4.085527   1.096558
    34  C    4.778820   5.307824   4.787725   1.544114   3.498059
    35  H    4.979725   5.489839   5.294121   2.204752   3.049599
    36  H    5.489492   6.216008   5.502477   2.185107   4.505080
    37  H    5.307183   5.515261   5.011713   2.204628   3.831547
    38  C    3.215419   4.497823   3.843554   1.544728   3.543923
    39  H    3.442851   4.679506   4.424946   2.205700   3.102170
    40  H    2.536634   4.076610   3.308216   2.205386   3.907316
    41  H    4.202119   5.542003   4.707052   2.185200   4.538597
    42  C    3.873313   4.521733   3.244998   1.543516   4.479642
    43  H    4.738287   5.566581   4.233998   2.186645   5.309528
    44  H    3.350273   4.109531   2.572521   2.201529   4.795516
    45  H    4.445105   4.693502   3.468424   2.199561   4.746365
    46  H   10.143772   9.161998   9.266472   8.326055   8.103624
    47  H    9.992811   8.823786   9.273548   8.653964   7.755312
                   31         32         33         34         35
    31  H    0.000000
    32  H    1.767595   0.000000
    33  H    1.767922   1.766847   0.000000
    34  C    3.767220   3.262707   4.524852   0.000000
    35  H    3.209887   2.598361   4.100471   1.096847   0.000000
    36  H    4.622807   4.258569   5.562236   1.100048   1.768158
    37  H    4.359850   3.463969   4.731412   1.096606   1.772467
    38  C    3.226825   3.960581   4.512789   2.508073   2.775864
    39  H    2.526941   3.458200   4.084537   2.778261   2.595140
    40  H    3.529541   4.560084   4.714645   3.485191   3.802803
    41  H    4.191937   4.810833   5.550645   2.735341   3.098398
    42  C    4.759516   4.797890   5.300269   2.513012   3.488897
    43  H    5.474474   5.525662   6.214990   2.735113   3.753029
    44  H    5.002122   5.324260   5.495838   3.486779   4.362293
    45  H    5.245152   4.959846   5.469411   2.793370   3.811137
    46  H    9.129824   7.491285   8.167966   7.616765   7.763533
    47  H    8.799148   7.167870   7.590669   8.071060   8.042484
                   36         37         38         39         40
    36  H    0.000000
    37  H    1.766632   0.000000
    38  C    2.738141   3.485186   0.000000
    39  H    3.105754   3.803881   1.097037   0.000000
    40  H    3.748700   4.363458   1.096723   1.772473   0.000000
    41  H    2.503882   3.747413   1.099811   1.767367   1.767419
    42  C    2.750926   2.775297   2.513905   3.489977   2.774892
    43  H    2.512843   3.082176   2.764230   3.776329   3.124330
    44  H    3.753419   3.806122   2.764561   3.789200   2.573149
    45  H    3.140403   2.607171   3.486678   4.362284   3.789701
    46  H    8.222233   6.570895   9.795181   9.974930  10.448985
    47  H    8.845237   7.130722  10.049929  10.087441  10.642454
                   41         42         43         44         45
    41  H    0.000000
    42  C    2.753964   0.000000
    43  H    2.546998   1.100016   0.000000
    44  H    3.098063   1.096734   1.768733   0.000000
    45  H    3.771752   1.095931   1.772777   1.769079   0.000000
    46  H   10.270356   8.458913   8.979211   9.181815   7.559189
    47  H   10.678810   9.008811   9.684584   9.647589   8.198609
                   46         47
    46  H    0.000000
    47  H    1.839902   0.000000
 Stoichiometry    C14H28O4Si
 Framework group  C1[X(C14H28O4Si)]
 Deg. of freedom   135
 Full point group                 C1      NOp   1
 Largest Abelian subgroup         C1      NOp   1
 Largest concise Abelian subgroup C1      NOp   1
                         Standard orientation:                         
 ---------------------------------------------------------------------
 Center     Atomic      Atomic             Coordinates (Angstroms)
 Number     Number       Type             X           Y           Z
 ---------------------------------------------------------------------
      1          1           0       -0.217424   -0.715289    0.847532
      2          6           0       -0.445069   -0.077022   -0.017563
      3          6           0       -2.254814   -1.717808   -0.661638
      4          6           0       -2.758151    0.205572    0.962841
      5          6           0       -3.294585   -0.781497   -0.070975
      6          6           0       -1.505246    0.942342    0.451236
      7          6           0       -1.013477   -0.946296   -1.144080
      8          1           0       -2.707281   -2.280345   -1.485181
      9          1           0       -3.533342    0.956250    1.169900
     10          1           0       -1.093122    1.537460    1.280854
     11          1           0       -0.244994   -1.645833   -1.491521
     12          1           0       -1.959414   -2.441798    0.109953
     13          1           0       -1.276366   -0.296151   -1.985081
     14          8           0       -4.252092   -0.236702   -0.993533
     15          6           0       -4.715745   -1.170956   -0.013970
     16          8           0       -2.361692   -0.481392    2.153907
     17          1           0       -3.134611   -0.968753    2.479548
     18          8           0       -1.958286    1.791079   -0.588807
     19          6           0       -1.192489    2.962219   -0.820069
     20          1           0       -1.012290    3.510727    0.118313
     21          1           0       -1.789384    3.592751   -1.485635
     22          1           0       -0.229210    2.740402   -1.289973
     23          8           0        0.730277    0.597925   -0.462115
     24         14           0        2.257379    0.590675    0.242345
     25          6           0        3.103464    2.110299   -0.485221
     26          1           0        4.126398    2.228315   -0.109017
     27          1           0        2.545957    3.016673   -0.222055
     28          1           0        3.151688    2.058774   -1.578634
     29          6           0        3.224438   -1.009877   -0.206824
     30          6           0        2.108093    0.767750    2.121726
     31          1           0        3.095429    0.767114    2.599240
     32          1           0        1.522167   -0.038362    2.578067
     33          1           0        1.619082    1.714662    2.379921
     34          6           0        2.550871   -2.252892    0.414070
     35          1           0        2.503917   -2.193173    1.508283
     36          1           0        3.118275   -3.161000    0.162082
     37          1           0        1.529594   -2.397704    0.041824
     38          6           0        4.667656   -0.909998    0.334776
     39          1           0        4.692438   -0.800918    1.426095
     40          1           0        5.213545   -0.063524   -0.099145
     41          1           0        5.232078   -1.820964    0.087484
     42          6           0        3.274241   -1.179884   -1.740140
     43          1           0        3.811984   -2.101299   -2.008213
     44          1           0        3.794632   -0.346238   -2.227020
     45          1           0        2.270188   -1.242340   -2.174929
     46          1           0       -5.021656   -2.144946   -0.398514
     47          1           0       -5.372365   -0.752926    0.752365
 ---------------------------------------------------------------------
 Rotational constants (GHZ):      0.6078689      0.1992163      0.1830096
 Standard basis: 6-31+G(d,p) (6D, 7F)
 There are   505 symmetry adapted basis functions of A   symmetry.
 Integral buffers will be    131072 words long.
 Raffenetti 2 integral format.
 Two-electron integral symmetry is turned on.
   505 basis functions,   828 primitive gaussians,   505 cartesian basis functions
    79 alpha electrons       79 beta electrons
       nuclear repulsion energy      1814.7807232894 Hartrees.
 NAtoms=   47 NActive=   47 NUniq=   47 SFac= 1.00D+00 NAtFMM=   60 NAOKFM=F Big=F
 ------------------------------------------------------------------------------
 Polarizable Continuum Model (PCM)
 =================================
 Model                : PCM.
 Atomic radii         : UFF (Universal Force Field).
 Polarization charges : Total charges.
 Charge compensation  : None.
 Solution method      : Matrix inversion.
 Cavity type          : Scaled VdW (van der Waals Surface) (Alpha=1.100).
 Cavity algorithm     : GePol (No added spheres)
                        Default sphere list used, NSphG=   47.
                        Lebedev-Laikov grids with approx.  5.0 points / Ang**2.
                        Smoothing algorithm: Karplus/York (Gamma=1.0000).
                        Polarization charges: spherical gaussians, with
                                              point-specific exponents (IZeta= 3).
                        Self-potential: point-specific (ISelfS= 7).
                        Self-field    : sphere-specific E.n sum rule (ISelfD= 2).
 Solvent              : Chloroform, Eps=   4.711300 Eps(inf)=   2.090627
 ------------------------------------------------------------------------------
 One-electron integrals computed using PRISM.
 NBasis=   505 RedAO= T  NBF=   505
 NBsUse=   505 1.00D-06 NBFU=   505
 Harris functional with IExCor=  908 diagonalized for initial guess.
 ExpMin= 3.31D-02 ExpMax= 1.61D+04 ExpMxC= 2.43D+03 IAcc=3 IRadAn=         5 AccDes= 0.00D+00
 HarFok:  IExCor=  908 AccDes= 0.00D+00 IRadAn=         5 IDoV= 1
 ScaDFX=  1.000000  1.000000  1.000000  1.000000
 FoFCou: FMM=F IPFlag=           0 FMFlag=      100000 FMFlg1=           0
         NFxFlg=           0 DoJE=T BraDBF=F KetDBF=T FulRan=T
         Omega=  0.000000  0.000000  1.000000  0.000000  0.000000 ICntrl=     500 IOpCl=  0
         NMat0=    1 NMatS0=    1 NMatT0=    0 NMatD0=    1 NMtDS0=    0 NMtDT0=    0
         I1Cent=           4 NGrid=           0.
 Petite list used in FoFCou.
 Initial guess orbital symmetries:
       Occupied  (A) (A) (A) (A) (A) (A) (A) (A) (A) (A) (A) (A)
                 (A) (A) (A) (A) (A) (A) (A) (A) (A) (A) (A) (A)
                 (A) (A) (A) (A) (A) (A) (A) (A) (A) (A) (A) (A)
                 (A) (A) (A) (A) (A) (A) (A) (A) (A) (A) (A) (A)
                 (A) (A) (A) (A) (A) (A) (A) (A) (A) (A) (A) (A)
                 (A) (A) (A) (A) (A) (A) (A) (A) (A) (A) (A) (A)
                 (A) (A) (A) (A) (A) (A) (A)
       Virtual   (A) (A) (A) (A) (A) (A) (A) (A) (A) (A) (A) (A)
                 (A) (A) (A) (A) (A) (A) (A) (A) (A) (A) (A) (A)
                 (A) (A) (A) (A) (A) (A) (A) (A) (A) (A) (A) (A)
                 (A) (A) (A) (A) (A) (A) (A) (A) (A) (A) (A) (A)
                 (A) (A) (A) (A) (A) (A) (A) (A) (A) (A) (A) (A)
                 (A) (A) (A) (A) (A) (A) (A) (A) (A) (A) (A) (A)
                 (A) (A) (A) (A) (A) (A) (A) (A) (A) (A) (A) (A)
                 (A) (A) (A) (A) (A) (A) (A) (A) (A) (A) (A) (A)
                 (A) (A) (A) (A) (A) (A) (A) (A) (A) (A) (A) (A)
                 (A) (A) (A) (A) (A) (A) (A) (A) (A) (A) (A) (A)
                 (A) (A) (A) (A) (A) (A) (A) (A) (A) (A) (A) (A)
                 (A) (A) (A) (A) (A) (A) (A) (A) (A) (A) (A) (A)
                 (A) (A) (A) (A) (A) (A) (A) (A) (A) (A) (A) (A)
                 (A) (A) (A) (A) (A) (A) (A) (A) (A) (A) (A) (A)
                 (A) (A) (A) (A) (A) (A) (A) (A) (A) (A) (A) (A)
                 (A) (A) (A) (A) (A) (A) (A) (A) (A) (A) (A) (A)
                 (A) (A) (A) (A) (A) (A) (A) (A) (A) (A) (A) (A)
                 (A) (A) (A) (A) (A) (A) (A) (A) (A) (A) (A) (A)
                 (A) (A) (A) (A) (A) (A) (A) (A) (A) (A) (A) (A)
                 (A) (A) (A) (A) (A) (A) (A) (A) (A) (A) (A) (A)
                 (A) (A) (A) (A) (A) (A) (A) (A) (A) (A) (A) (A)
                 (A) (A) (A) (A) (A) (A) (A) (A) (A) (A) (A) (A)
                 (A) (A) (A) (A) (A) (A) (A) (A) (A) (A) (A) (A)
                 (A) (A) (A) (A) (A) (A) (A) (A) (A) (A) (A) (A)
                 (A) (A) (A) (A) (A) (A) (A) (A) (A) (A) (A) (A)
                 (A) (A) (A) (A) (A) (A) (A) (A) (A) (A) (A) (A)
                 (A) (A) (A) (A) (A) (A) (A) (A) (A) (A) (A) (A)
                 (A) (A) (A) (A) (A) (A) (A) (A) (A) (A) (A) (A)
                 (A) (A) (A) (A) (A) (A) (A) (A) (A) (A) (A) (A)
                 (A) (A) (A) (A) (A) (A) (A) (A) (A) (A) (A) (A)
                 (A) (A) (A) (A) (A) (A) (A) (A) (A) (A) (A) (A)
                 (A) (A) (A) (A) (A) (A) (A) (A) (A) (A) (A) (A)
                 (A) (A) (A) (A) (A) (A) (A) (A) (A) (A) (A) (A)
                 (A) (A) (A) (A) (A) (A) (A) (A) (A) (A) (A) (A)
                 (A) (A) (A) (A) (A) (A) (A) (A) (A) (A) (A) (A)
                 (A) (A) (A) (A) (A) (A)
 The electronic state of the initial guess is 1-A.
 Requested convergence on RMS density matrix=1.00D-08 within 128 cycles.
 Requested convergence on MAX density matrix=1.00D-06.
 Requested convergence on             energy=1.00D-06.
 No special actions if energy rises.
 Error on total polarization charges =  0.01525
 SCF Done:  E(RmPW1PW91) =  -1140.61970912     A.U. after   13 cycles
             Convg  =    0.5455D-08             -V/T =  2.0080
 Range of M.O.s used for correlation:     1   505
 NBasis=   505 NAE=    79 NBE=    79 NFC=     0 NFV=     0
 NROrb=    505 NOA=    79 NOB=    79 NVA=   426 NVB=   426

 **** Warning!!: The largest alpha MO coefficient is  0.86746150D+02

 NEqPCM:  Using equilibrium solvation (IEInf=0, Eps=   4.7113, EpsInf=   2.0906)
          Differentiating once with respect to magnetic field using GIAOs.
          Electric field/nuclear overlap derivatives assumed to be zero.
 FoFCou: FMM=F IPFlag=           0 FMFlag=    10101102 FMFlg1=           0
         NFxFlg=    40000000 DoJE=F BraDBF=F KetDBF=T FulRan=T
         Omega=  0.000000  0.000000  1.000000  0.000000  0.000000 ICntrl=    6100 IOpCl=  0
         NMat0=    1 NMatS0=    1 NMatT0=    0 NMatD0=    1 NMtDS0=    0 NMtDT0=    0
         I1Cent=           7 NGrid=        3014.
 Symmetry not used in FoFCou.
          There are     3 degrees of freedom in the 1st order CPHF.  IDoFFX=0.
      3 vectors produced by pass  0 Test12= 1.12D-12 3.33D-08 XBig12= 1.68D+02 1.81D+00.
 AX will form     3 AO Fock derivatives at one time.
      3 vectors produced by pass  1 Test12= 1.12D-12 3.33D-08 XBig12= 4.23D-01 8.54D-02.
      3 vectors produced by pass  2 Test12= 1.12D-12 3.33D-08 XBig12= 8.23D-04 4.68D-03.
      3 vectors produced by pass  3 Test12= 1.12D-12 3.33D-08 XBig12= 3.61D-06 3.74D-04.
      3 vectors produced by pass  4 Test12= 1.12D-12 3.33D-08 XBig12= 1.92D-08 2.22D-05.
      3 vectors produced by pass  5 Test12= 1.12D-12 3.33D-08 XBig12= 6.16D-11 8.75D-07.
      3 vectors produced by pass  6 Test12= 1.12D-12 3.33D-08 XBig12= 1.99D-13 4.51D-08.
 Inverted reduced A of dimension    21 with in-core refinement.
 Calculating GIAO nuclear magnetic shielding tensors.
 SCF GIAO Magnetic shielding tensor (ppm):
      1  H    Isotropic =    27.1658   Anisotropy =     8.8448
   XX=    32.8070   YX=     2.1432   ZX=    -1.3283
   XY=     0.3044   YY=    24.1106   ZY=    -2.3825
   XZ=     0.2570   YZ=    -2.0098   ZZ=    24.5797
   Eigenvalues:    22.1071    26.3279    33.0623
      2  C    Isotropic =   121.9550   Anisotropy =    53.9885
   XX=   138.6423   YX=    14.8257   ZX=   -13.9613
   XY=    30.0196   YY=   122.8323   ZY=    -0.7789
   XZ=   -17.6968   YZ=    -0.8218   ZZ=   104.3903
   Eigenvalues:    95.2257   112.6918   157.9473
      3  C    Isotropic =   165.5519   Anisotropy =    23.5719
   XX=   177.3491   YX=    -3.7724   ZX=    -1.7846
   XY=    -2.0536   YY=   162.8430   ZY=    12.2154
   XZ=    -8.9962   YZ=    13.3923   ZZ=   156.4637
   Eigenvalues:   146.2569   169.1323   181.2666
      4  C    Isotropic =   115.7015   Anisotropy =    27.9134
   XX=   106.0016   YX=    -4.2580   ZX=    10.0357
   XY=    -4.9461   YY=   116.2586   ZY=   -15.9463
   XZ=     5.9851   YZ=    -3.7724   ZZ=   124.8441
   Eigenvalues:   102.9584   109.8356   134.3104
      5  C    Isotropic =   137.2457   Anisotropy =    61.0898
   XX=    92.3327   YX=   -17.6713   ZX=    -1.3918
   XY=   -17.6723   YY=   156.3539   ZY=    18.9801
   XZ=    -0.5681   YZ=    13.3550   ZZ=   163.0504
   Eigenvalues:    87.6463   146.1184   177.9722
      6  C    Isotropic =   113.4290   Anisotropy =    47.7303
   XX=    97.9221   YX=     0.6099   ZX=     0.5068
   XY=    -6.7348   YY=   114.3755   ZY=   -24.1463
   XZ=    20.6065   YZ=   -17.2529   ZZ=   127.9895
   Eigenvalues:    93.4465   101.5914   145.2493
      7  C    Isotropic =   167.2109   Anisotropy =    28.2456
   XX=   177.1732   YX=    11.5288   ZX=    -5.1340
   XY=    16.1978   YY=   163.1886   ZY=     6.8631
   XZ=     1.7464   YZ=     9.1762   ZZ=   161.2708
   Eigenvalues:   149.5015   166.0898   186.0412
      8  H    Isotropic =    30.5742   Anisotropy =    10.1765
   XX=    30.8411   YX=     2.9721   ZX=     1.3304
   XY=     2.2267   YY=    31.6014   ZY=     6.1983
   XZ=     0.2161   YZ=     5.4650   ZZ=    29.2799
   Eigenvalues:    24.3109    30.0531    37.3585
      9  H    Isotropic =    28.3416   Anisotropy =     5.1203
   XX=    28.1413   YX=    -2.7603   ZX=    -1.8593
   XY=    -1.5095   YY=    29.1062   ZY=     2.0794
   XZ=    -0.6246   YZ=     0.8932   ZZ=    27.7775
   Eigenvalues:    26.4314    26.8384    31.7552
     10  H    Isotropic =    28.0018   Anisotropy =     2.0365
   XX=    28.2914   YX=    -0.5318   ZX=    -0.0600
   XY=    -0.3421   YY=    26.8972   ZY=    -0.7724
   XZ=     1.5001   YZ=     2.0841   ZZ=    28.8169
   Eigenvalues:    26.4620    28.1841    29.3595
     11  H    Isotropic =    29.8103   Anisotropy =     9.5490
   XX=    34.6680   YX=    -2.0107   ZX=    -1.5625
   XY=    -1.9471   YY=    28.6038   ZY=     3.5117
   XZ=    -2.4538   YZ=     3.3093   ZZ=    26.1591
   Eigenvalues:    23.7329    29.5217    36.1763
     12  H    Isotropic =    29.2020   Anisotropy =     6.9252
   XX=    28.9457   YX=    -0.5144   ZX=    -0.0493
   XY=    -1.8048   YY=    32.6057   ZY=    -3.0503
   XZ=    -0.5282   YZ=    -2.4760   ZZ=    26.0547
   Eigenvalues:    24.9301    28.8572    33.8188
     13  H    Isotropic =    29.0815   Anisotropy =     4.0078
   XX=    28.4885   YX=     0.8559   ZX=     0.6211
   XY=    -0.2918   YY=    27.4151   ZY=    -0.9138
   XZ=     0.0690   YZ=    -1.6933   ZZ=    31.3408
   Eigenvalues:    26.9331    28.5580    31.7533
     14  O    Isotropic =   294.8028   Anisotropy =   132.1485
   XX=   361.0255   YX=   -17.3955   ZX=    18.1292
   XY=    20.4178   YY=   283.8104   ZY=   123.7260
   XZ=    -5.4674   YZ=   112.0964   ZZ=   239.5727
   Eigenvalues:   141.6540   359.8527   382.9018
     15  C    Isotropic =   147.8271   Anisotropy =    44.2686
   XX=   118.3271   YX=   -13.9363   ZX=    -4.2622
   XY=   -14.2400   YY=   164.1759   ZY=    10.4878
   XZ=     0.8018   YZ=    13.9722   ZZ=   160.9783
   Eigenvalues:   114.2813   151.8606   177.3395
     16  O    Isotropic =   288.8639   Anisotropy =    71.4660
   XX=   296.6025   YX=    47.6564   ZX=   -21.7081
   XY=    29.7223   YY=   275.3162   ZY=   -25.4023
   XZ=    -0.2902   YZ=   -13.8970   ZZ=   294.6730
   Eigenvalues:   244.0639   286.0199   336.5079
     17  H    Isotropic =    30.6190   Anisotropy =    18.8788
   XX=    34.0223   YX=     6.7472   ZX=    -5.0578
   XY=     7.8977   YY=    26.0213   ZY=    -5.8374
   XZ=    -4.7730   YZ=    -6.2611   ZZ=    31.8134
   Eigenvalues:    20.7702    27.8820    43.2048
     18  O    Isotropic =   313.6011   Anisotropy =    46.1750
   XX=   316.2209   YX=     0.8136   ZX=    18.2957
   XY=     1.8625   YY=   301.7815   ZY=   -10.5362
   XZ=    24.2250   YZ=   -22.1714   ZZ=   322.8010
   Eigenvalues:   286.9787   309.4401   344.3845
     19  C    Isotropic =   135.3298   Anisotropy =    85.0265
   XX=   122.4853   YX=    34.1069   ZX=    -6.6958
   XY=    33.6244   YY=   171.2534   ZY=   -14.2104
   XZ=    -5.5363   YZ=   -16.5986   ZZ=   112.2508
   Eigenvalues:   104.5760   109.3993   192.0142
     20  H    Isotropic =    28.2792   Anisotropy =     8.7791
   XX=    27.0601   YX=     1.5699   ZX=     1.0595
   XY=     1.7211   YY=    33.3405   ZY=     3.4525
   XZ=    -0.5984   YZ=     0.4189   ZZ=    24.4369
   Eigenvalues:    24.0299    26.6757    34.1319
     21  H    Isotropic =    27.8369   Anisotropy =    10.8994
   XX=    25.3134   YX=     0.7462   ZX=     0.2169
   XY=    -1.6055   YY=    32.6387   ZY=    -5.4938
   XZ=     1.5048   YZ=    -4.0550   ZZ=    25.5584
   Eigenvalues:    23.0080    25.3995    35.1031
     22  H    Isotropic =    27.1994   Anisotropy =     7.2215
   XX=    29.9712   YX=    -0.3407   ZX=    -2.3261
   XY=     2.2000   YY=    28.8292   ZY=    -4.2690
   XZ=    -1.8232   YZ=    -2.7036   ZZ=    22.7978
   Eigenvalues:    20.9457    28.6388    32.0137
     23  O    Isotropic =   278.2381   Anisotropy =    41.3330
   XX=   275.6936   YX=     8.0343   ZX=     6.0516
   XY=    19.9308   YY=   280.7779   ZY=    20.0788
   XZ=    11.2973   YZ=    14.9407   ZZ=   278.2427
   Eigenvalues:   260.6739   268.2469   305.7934
     24  Si   Isotropic =   377.9361   Anisotropy =    37.6287
   XX=   396.6463   YX=     2.0650   ZX=    18.3628
   XY=     7.3181   YY=   367.1055   ZY=     9.4464
   XZ=     7.9573   YZ=    -1.3680   ZZ=   370.0563
   Eigenvalues:   363.3262   367.4602   403.0218
     25  C    Isotropic =   198.8506   Anisotropy =     7.2754
   XX=   202.6859   YX=     0.1958   ZX=    -0.2700
   XY=     3.1993   YY=   198.3313   ZY=    -5.0515
   XZ=    -0.1361   YZ=    -3.3381   ZZ=   195.5346
   Eigenvalues:   192.4426   200.4083   203.7008
     26  H    Isotropic =    31.6361   Anisotropy =    10.7053
   XX=    37.3213   YX=     2.9426   ZX=     2.3163
   XY=     2.7941   YY=    30.4425   ZY=    -0.0728
   XZ=     2.3681   YZ=    -0.0385   ZZ=    27.1447
   Eigenvalues:    26.4945    29.6408    38.7730
     27  H    Isotropic =    31.5483   Anisotropy =     9.5753
   XX=    30.6544   YX=    -2.6861   ZX=    -1.2584
   XY=    -2.5323   YY=    36.8461   ZY=     0.9436
   XZ=    -1.1770   YZ=     0.7054   ZZ=    27.1444
   Eigenvalues:    26.7633    29.9497    37.9319
     28  H    Isotropic =    31.2743   Anisotropy =     8.8676
   XX=    27.6649   YX=     0.7930   ZX=    -1.9324
   XY=     0.9451   YY=    29.7556   ZY=    -2.0207
   XZ=    -1.7806   YZ=    -1.1614   ZZ=    36.4025
   Eigenvalues:    27.1618    29.4751    37.1861
     29  C    Isotropic =   171.5434   Anisotropy =     7.7695
   XX=   175.5318   YX=     1.2036   ZX=     2.2188
   XY=     1.0791   YY=   170.1163   ZY=     2.1755
   XZ=     2.2755   YZ=     2.3069   ZZ=   168.9822
   Eigenvalues:   167.0813   170.8258   176.7231
     30  C    Isotropic =   201.3315   Anisotropy =     7.9089
   XX=   204.1066   YX=    -3.5802   ZX=     0.5231
   XY=    -5.4090   YY=   198.3794   ZY=     1.0753
   XZ=    -1.1111   YZ=    -0.4723   ZZ=   201.5086
   Eigenvalues:   195.9110   201.4795   206.6042
     31  H    Isotropic =    31.5292   Anisotropy =    10.7887
   XX=    35.2289   YX=    -0.4291   ZX=     4.9405
   XY=    -0.7577   YY=    27.0351   ZY=     1.3785
   XZ=     4.4894   YZ=     1.4635   ZZ=    32.3236
   Eigenvalues:    26.1832    29.6828    38.7216
     32  H    Isotropic =    31.0080   Anisotropy =     7.7761
   XX=    30.5164   YX=     3.2763   ZX=    -2.0929
   XY=     2.8844   YY=    30.7790   ZY=    -2.1553
   XZ=    -2.2996   YZ=    -2.8147   ZZ=    31.7285
   Eigenvalues:    27.5571    29.2748    36.1921
     33  H    Isotropic =    31.5412   Anisotropy =     9.8217
   XX=    30.1157   YX=    -3.5552   ZX=    -0.9150
   XY=    -3.4669   YY=    34.2380   ZY=     3.6479
   XZ=    -1.2083   YZ=     3.8305   ZZ=    30.2699
   Eigenvalues:    27.4062    29.1284    38.0890
     34  C    Isotropic =   170.1837   Anisotropy =    38.1882
   XX=   166.7972   YX=    11.0523   ZX=    -9.0153
   XY=    15.5027   YY=   180.6603   ZY=   -13.7559
   XZ=    -9.9407   YZ=    -9.8358   ZZ=   163.0935
   Eigenvalues:   155.2398   159.6688   195.6425
     35  H    Isotropic =    30.4377   Anisotropy =     7.4166
   XX=    27.3736   YX=    -0.3919   ZX=    -2.1654
   XY=    -0.1325   YY=    29.9823   ZY=    -3.0753
   XZ=    -1.7056   YZ=    -1.5945   ZZ=    33.9573
   Eigenvalues:    26.5788    29.3523    35.3821
     36  H    Isotropic =    30.9225   Anisotropy =     9.4328
   XX=    29.0467   YX=    -1.8181   ZX=    -0.5244
   XY=    -2.6515   YY=    36.5992   ZY=     0.1381
   XZ=    -0.4173   YZ=    -0.4503   ZZ=    27.1215
   Eigenvalues:    26.9555    28.6008    37.2110
     37  H    Isotropic =    30.3969   Anisotropy =     9.4465
   XX=    36.1636   YX=     1.1039   ZX=     1.5394
   XY=     2.2741   YY=    30.1177   ZY=     0.0434
   XZ=     0.7728   YZ=    -0.7149   ZZ=    24.9095
   Eigenvalues:    24.7424    29.7538    36.6946
     38  C    Isotropic =   169.3404   Anisotropy =    40.2790
   XX=   190.5891   YX=     6.3920   ZX=    14.4012
   XY=     2.1671   YY=   157.4130   ZY=     0.4621
   XZ=    12.5309   YZ=     2.2526   ZZ=   160.0191
   Eigenvalues:   154.9043   156.9238   196.1931
     39  H    Isotropic =    30.6815   Anisotropy =     8.7343
   XX=    31.3345   YX=    -1.1126   ZX=     4.4577
   XY=    -1.0973   YY=    26.7187   ZY=     1.3476
   XZ=     2.7040   YZ=     1.3003   ZZ=    33.9914
   Eigenvalues:    25.7927    29.7476    36.5044
     40  H    Isotropic =    30.7017   Anisotropy =     9.1783
   XX=    34.9445   YX=     3.6519   ZX=    -1.1385
   XY=     2.5846   YY=    31.1956   ZY=    -1.3995
   XZ=    -0.0530   YZ=    -0.9616   ZZ=    25.9650
   Eigenvalues:    25.7102    29.5744    36.8206
     41  H    Isotropic =    30.9888   Anisotropy =    10.0054
   XX=    34.6422   YX=    -5.0700   ZX=     0.0107
   XY=    -3.8985   YY=    30.9933   ZY=     0.6876
   XZ=     0.5074   YZ=     0.2193   ZZ=    27.3309
   Eigenvalues:    27.0409    28.2665    37.6591
     42  C    Isotropic =   170.3316   Anisotropy =    36.9625
   XX=   157.4078   YX=    -0.3471   ZX=    -2.1740
   XY=     0.2680   YY=   158.7722   ZY=     4.8969
   XZ=     0.9937   YZ=    -0.2510   ZZ=   194.8149
   Eigenvalues:   157.3985   158.6231   194.9733
     43  H    Isotropic =    30.9949   Anisotropy =     9.5828
   XX=    29.4239   YX=    -2.9671   ZX=    -2.2104
   XY=    -2.9047   YY=    31.8495   ZY=     3.3496
   XZ=    -2.6860   YZ=     4.2028   ZZ=    31.7112
   Eigenvalues:    27.4563    28.1449    37.3834
     44  H    Isotropic =    30.5429   Anisotropy =     8.7395
   XX=    28.0206   YX=     1.3672   ZX=    -3.4453
   XY=     1.2438   YY=    30.5490   ZY=    -1.8690
   XZ=    -3.8943   YZ=    -3.1577   ZZ=    33.0591
   Eigenvalues:    26.0885    29.1710    36.3692
     45  H    Isotropic =    30.2503   Anisotropy =     7.8454
   XX=    32.9423   YX=    -0.9482   ZX=     2.1289
   XY=    -0.3967   YY=    25.7641   ZY=     1.9390
   XZ=     3.6481   YZ=     1.9765   ZZ=    32.0444
   Eigenvalues:    24.9135    30.3568    35.4806
     46  H    Isotropic =    29.1628   Anisotropy =    11.1743
   XX=    28.4305   YX=     2.5386   ZX=    -1.6193
   XY=     6.5661   YY=    33.5616   ZY=     1.8537
   XZ=     0.7594   YZ=     3.4183   ZZ=    25.4964
   Eigenvalues:    23.7351    27.1410    36.6124
     47  H    Isotropic =    29.1347   Anisotropy =    10.9928
   XX=    31.3929   YX=     1.5763   ZX=    -4.1116
   XY=    -2.0770   YY=    26.1423   ZY=     2.6609
   XZ=    -7.0198   YZ=     1.2600   ZZ=    29.8690
   Eigenvalues:    24.0921    26.8488    36.4633
 End of Minotr Frequency-dependent properties file   721 does not exist.
 End of Minotr Frequency-dependent properties file   722 does not exist.

 **********************************************************************

            Population analysis using the SCF density.

 **********************************************************************

 Orbital symmetries:
       Occupied  (A) (A) (A) (A) (A) (A) (A) (A) (A) (A) (A) (A)
                 (A) (A) (A) (A) (A) (A) (A) (A) (A) (A) (A) (A)
                 (A) (A) (A) (A) (A) (A) (A) (A) (A) (A) (A) (A)
                 (A) (A) (A) (A) (A) (A) (A) (A) (A) (A) (A) (A)
                 (A) (A) (A) (A) (A) (A) (A) (A) (A) (A) (A) (A)
                 (A) (A) (A) (A) (A) (A) (A) (A) (A) (A) (A) (A)
                 (A) (A) (A) (A) (A) (A) (A)
       Virtual   (A) (A) (A) (A) (A) (A) (A) (A) (A) (A) (A) (A)
                 (A) (A) (A) (A) (A) (A) (A) (A) (A) (A) (A) (A)
                 (A) (A) (A) (A) (A) (A) (A) (A) (A) (A) (A) (A)
                 (A) (A) (A) (A) (A) (A) (A) (A) (A) (A) (A) (A)
                 (A) (A) (A) (A) (A) (A) (A) (A) (A) (A) (A) (A)
                 (A) (A) (A) (A) (A) (A) (A) (A) (A) (A) (A) (A)
                 (A) (A) (A) (A) (A) (A) (A) (A) (A) (A) (A) (A)
                 (A) (A) (A) (A) (A) (A) (A) (A) (A) (A) (A) (A)
                 (A) (A) (A) (A) (A) (A) (A) (A) (A) (A) (A) (A)
                 (A) (A) (A) (A) (A) (A) (A) (A) (A) (A) (A) (A)
                 (A) (A) (A) (A) (A) (A) (A) (A) (A) (A) (A) (A)
                 (A) (A) (A) (A) (A) (A) (A) (A) (A) (A) (A) (A)
                 (A) (A) (A) (A) (A) (A) (A) (A) (A) (A) (A) (A)
                 (A) (A) (A) (A) (A) (A) (A) (A) (A) (A) (A) (A)
                 (A) (A) (A) (A) (A) (A) (A) (A) (A) (A) (A) (A)
                 (A) (A) (A) (A) (A) (A) (A) (A) (A) (A) (A) (A)
                 (A) (A) (A) (A) (A) (A) (A) (A) (A) (A) (A) (A)
                 (A) (A) (A) (A) (A) (A) (A) (A) (A) (A) (A) (A)
                 (A) (A) (A) (A) (A) (A) (A) (A) (A) (A) (A) (A)
                 (A) (A) (A) (A) (A) (A) (A) (A) (A) (A) (A) (A)
                 (A) (A) (A) (A) (A) (A) (A) (A) (A) (A) (A) (A)
                 (A) (A) (A) (A) (A) (A) (A) (A) (A) (A) (A) (A)
                 (A) (A) (A) (A) (A) (A) (A) (A) (A) (A) (A) (A)
                 (A) (A) (A) (A) (A) (A) (A) (A) (A) (A) (A) (A)
                 (A) (A) (A) (A) (A) (A) (A) (A) (A) (A) (A) (A)
                 (A) (A) (A) (A) (A) (A) (A) (A) (A) (A) (A) (A)
                 (A) (A) (A) (A) (A) (A) (A) (A) (A) (A) (A) (A)
                 (A) (A) (A) (A) (A) (A) (A) (A) (A) (A) (A) (A)
                 (A) (A) (A) (A) (A) (A) (A) (A) (A) (A) (A) (A)
                 (A) (A) (A) (A) (A) (A) (A) (A) (A) (A) (A) (A)
                 (A) (A) (A) (A) (A) (A) (A) (A) (A) (A) (A) (A)
                 (A) (A) (A) (A) (A) (A) (A) (A) (A) (A) (A) (A)
                 (A) (A) (A) (A) (A) (A) (A) (A) (A) (A) (A) (A)
                 (A) (A) (A) (A) (A) (A) (A) (A) (A) (A) (A) (A)
                 (A) (A) (A) (A) (A) (A) (A) (A) (A) (A) (A) (A)
                 (A) (A) (A) (A) (A) (A)
 The electronic state is 1-A.
 Alpha  occ. eigenvalues --  -66.30360 -19.26541 -19.26362 -19.25024 -19.23315
 Alpha  occ. eigenvalues --  -10.31610 -10.31070 -10.30329 -10.30251 -10.30204
 Alpha  occ. eigenvalues --  -10.28087 -10.25382 -10.24768 -10.24374 -10.23635
 Alpha  occ. eigenvalues --  -10.23626 -10.23336 -10.22428 -10.22268  -5.33755
 Alpha  occ. eigenvalues --   -3.67664  -3.67397  -3.67346  -1.11405  -1.07420
 Alpha  occ. eigenvalues --   -1.06279  -1.02871  -0.84287  -0.82273  -0.77829
 Alpha  occ. eigenvalues --   -0.74809  -0.72108  -0.70588  -0.70235  -0.69628
 Alpha  occ. eigenvalues --   -0.69501  -0.68683  -0.64693  -0.62259  -0.57431
 Alpha  occ. eigenvalues --   -0.57174  -0.53998  -0.53682  -0.52778  -0.50323
 Alpha  occ. eigenvalues --   -0.48494  -0.47900  -0.47782  -0.46539  -0.45232
 Alpha  occ. eigenvalues --   -0.44719  -0.44567  -0.43627  -0.43438  -0.42681
 Alpha  occ. eigenvalues --   -0.41446  -0.41206  -0.40856  -0.40178  -0.40051
 Alpha  occ. eigenvalues --   -0.39849  -0.39306  -0.38998  -0.38890  -0.37623
 Alpha  occ. eigenvalues --   -0.37279  -0.35979  -0.35750  -0.34885  -0.33854
 Alpha  occ. eigenvalues --   -0.33595  -0.32561  -0.31855  -0.31063  -0.30836
 Alpha  occ. eigenvalues --   -0.29548  -0.28308  -0.27526  -0.25371
 Alpha virt. eigenvalues --   -0.00248   0.00543   0.01291   0.01575   0.02099
 Alpha virt. eigenvalues --    0.02894   0.03205   0.03898   0.04220   0.04521
 Alpha virt. eigenvalues --    0.04768   0.05097   0.05462   0.06416   0.06503
 Alpha virt. eigenvalues --    0.06950   0.07181   0.07505   0.07828   0.07938
 Alpha virt. eigenvalues --    0.08093   0.08910   0.09375   0.09620   0.09785
 Alpha virt. eigenvalues --    0.10156   0.10403   0.10462   0.10835   0.11083
 Alpha virt. eigenvalues --    0.11914   0.12337   0.12525   0.12666   0.12923
 Alpha virt. eigenvalues --    0.13053   0.13638   0.13921   0.14004   0.14654
 Alpha virt. eigenvalues --    0.14797   0.15612   0.15657   0.15938   0.16400
 Alpha virt. eigenvalues --    0.16557   0.17045   0.17221   0.17920   0.18315
 Alpha virt. eigenvalues --    0.18730   0.18989   0.19290   0.19440   0.19583
 Alpha virt. eigenvalues --    0.20230   0.20433   0.20682   0.21098   0.21288
 Alpha virt. eigenvalues --    0.21672   0.21829   0.22392   0.22464   0.22815
 Alpha virt. eigenvalues --    0.23205   0.23946   0.24089   0.24318   0.24333
 Alpha virt. eigenvalues --    0.24671   0.25152   0.25413   0.25806   0.26308
 Alpha virt. eigenvalues --    0.26629   0.26761   0.27065   0.27551   0.27828
 Alpha virt. eigenvalues --    0.28455   0.28953   0.29167   0.29414   0.29864
 Alpha virt. eigenvalues --    0.30147   0.30315   0.30579   0.30959   0.31763
 Alpha virt. eigenvalues --    0.32138   0.32356   0.32953   0.32978   0.33663
 Alpha virt. eigenvalues --    0.34246   0.34419   0.35162   0.35753   0.36353
 Alpha virt. eigenvalues --    0.36759   0.37199   0.37807   0.38106   0.39030
 Alpha virt. eigenvalues --    0.39296   0.39569   0.39737   0.41035   0.41376
 Alpha virt. eigenvalues --    0.42125   0.42548   0.43368   0.43408   0.44478
 Alpha virt. eigenvalues --    0.44846   0.46002   0.46208   0.47943   0.48804
 Alpha virt. eigenvalues --    0.50016   0.51644   0.52758   0.53087   0.54595
 Alpha virt. eigenvalues --    0.54883   0.58551   0.62746   0.65923   0.66312
 Alpha virt. eigenvalues --    0.67650   0.68575   0.69015   0.70261   0.71377
 Alpha virt. eigenvalues --    0.72063   0.73466   0.73651   0.74572   0.75073
 Alpha virt. eigenvalues --    0.76213   0.76830   0.77650   0.77928   0.78800
 Alpha virt. eigenvalues --    0.79225   0.80139   0.80773   0.81303   0.81949
 Alpha virt. eigenvalues --    0.82950   0.83783   0.84554   0.84723   0.85800
 Alpha virt. eigenvalues --    0.86339   0.87351   0.87600   0.88132   0.90300
 Alpha virt. eigenvalues --    0.90854   0.91825   0.92710   0.93328   0.93632
 Alpha virt. eigenvalues --    0.94530   0.95576   0.95901   0.98279   0.98486
 Alpha virt. eigenvalues --    0.98836   0.98977   1.00175   1.00428   1.01364
 Alpha virt. eigenvalues --    1.02456   1.03637   1.04016   1.04685   1.05255
 Alpha virt. eigenvalues --    1.06016   1.06514   1.07111   1.07522   1.07693
 Alpha virt. eigenvalues --    1.08601   1.10186   1.10516   1.11465   1.12159
 Alpha virt. eigenvalues --    1.12673   1.13116   1.15396   1.16529   1.17146
 Alpha virt. eigenvalues --    1.17924   1.19319   1.20503   1.20769   1.20955
 Alpha virt. eigenvalues --    1.23165   1.23315   1.24758   1.25144   1.26766
 Alpha virt. eigenvalues --    1.28494   1.29002   1.29995   1.30674   1.32040
 Alpha virt. eigenvalues --    1.33611   1.34390   1.34835   1.35772   1.36804
 Alpha virt. eigenvalues --    1.38585   1.40459   1.40775   1.42572   1.43924
 Alpha virt. eigenvalues --    1.47302   1.47758   1.47998   1.48604   1.49198
 Alpha virt. eigenvalues --    1.50182   1.50858   1.52636   1.54106   1.54439
 Alpha virt. eigenvalues --    1.56236   1.58653   1.60712   1.61100   1.63028
 Alpha virt. eigenvalues --    1.63788   1.65083   1.66890   1.67470   1.68666
 Alpha virt. eigenvalues --    1.69838   1.71055   1.71574   1.73880   1.75257
 Alpha virt. eigenvalues --    1.77837   1.78683   1.79796   1.79939   1.82336
 Alpha virt. eigenvalues --    1.82786   1.84533   1.85782   1.86577   1.87589
 Alpha virt. eigenvalues --    1.90031   1.90536   1.91448   1.91922   1.93128
 Alpha virt. eigenvalues --    1.93194   1.94103   1.95174   1.96105   1.97491
 Alpha virt. eigenvalues --    1.97658   1.98308   1.99133   2.01035   2.01667
 Alpha virt. eigenvalues --    2.03362   2.03817   2.05986   2.06351   2.06601
 Alpha virt. eigenvalues --    2.06762   2.07614   2.08468   2.09315   2.10103
 Alpha virt. eigenvalues --    2.10642   2.11123   2.11750   2.12275   2.12494
 Alpha virt. eigenvalues --    2.12752   2.13869   2.14506   2.15324   2.15932
 Alpha virt. eigenvalues --    2.16237   2.16923   2.17560   2.17911   2.18737
 Alpha virt. eigenvalues --    2.19101   2.19512   2.19763   2.20724   2.21356
 Alpha virt. eigenvalues --    2.22057   2.22650   2.23792   2.25409   2.26893
 Alpha virt. eigenvalues --    2.28235   2.29257   2.29969   2.31039   2.35460
 Alpha virt. eigenvalues --    2.37080   2.37425   2.37611   2.38895   2.39201
 Alpha virt. eigenvalues --    2.39984   2.41605   2.42040   2.43054   2.44225
 Alpha virt. eigenvalues --    2.44987   2.47420   2.48050   2.49939   2.51570
 Alpha virt. eigenvalues --    2.54431   2.56297   2.57163   2.57727   2.58872
 Alpha virt. eigenvalues --    2.59543   2.60760   2.62342   2.64189   2.66897
 Alpha virt. eigenvalues --    2.67508   2.68112   2.68339   2.69746   2.70846
 Alpha virt. eigenvalues --    2.71911   2.72759   2.73921   2.74561   2.75278
 Alpha virt. eigenvalues --    2.75576   2.77087   2.78093   2.78787   2.79436
 Alpha virt. eigenvalues --    2.81011   2.81985   2.83492   2.84115   2.85414
 Alpha virt. eigenvalues --    2.85548   2.86553   2.87268   2.87622   2.88219
 Alpha virt. eigenvalues --    2.88465   2.88944   2.89247   2.90626   2.91608
 Alpha virt. eigenvalues --    2.92113   2.92669   2.94345   2.97437   2.97808
 Alpha virt. eigenvalues --    2.98546   2.98898   3.00748   3.03099   3.05119
 Alpha virt. eigenvalues --    3.11458   3.13822   3.19097   3.25510   3.27481
 Alpha virt. eigenvalues --    3.27805   3.28213   3.30178   3.30607   3.31721
 Alpha virt. eigenvalues --    3.32111   3.35942   3.39211   3.40054   3.47339
 Alpha virt. eigenvalues --    3.47429   3.48244   3.48426   3.48908   3.49104
 Alpha virt. eigenvalues --    3.49891   3.50437   3.50882   3.51136   3.51309
 Alpha virt. eigenvalues --    3.52470   3.52941   3.55535   3.56402   3.57005
 Alpha virt. eigenvalues --    3.57619   3.60324   3.64141   4.35740   4.44564
 Alpha virt. eigenvalues --    4.46623   4.49344   4.54145   4.55014   4.57832
 Alpha virt. eigenvalues --    4.60104   4.63433   4.64818   4.66528   4.69352
 Alpha virt. eigenvalues --    4.71999   4.73651   4.77186   4.85922   4.96773
 Alpha virt. eigenvalues --    5.06273
          Condensed to atoms (all electrons):
              1          2          3          4          5          6
     1  H    0.590765   0.248954  -0.020767  -0.015550   0.017112   0.074495
     2  C    0.248954  12.188040   0.886508  -0.698545   0.037588  -3.532963
     3  C   -0.020767   0.886508   8.798661  -2.670719  -0.306815   0.079271
     4  C   -0.015550  -0.698545  -2.670719  12.391107  -2.971651  -1.733161
     5  C    0.017112   0.037588  -0.306815  -2.971651  11.941731   0.266624
     6  C    0.074495  -3.532963   0.079271  -1.733161   0.266624  11.749541
     7  C   -0.045199  -1.262533  -0.588297   1.089746  -0.302319  -1.360993
     8  H   -0.000039   0.047974   0.371021   0.037430  -0.028659   0.004131
     9  H   -0.000132   0.040723   0.042765   0.151189   0.041838   0.071282
    10  H   -0.002329   0.088225  -0.032156   0.108844   0.026556   0.121676
    11  H   -0.004822  -0.028478   0.018733  -0.007768   0.008151   0.038217
    12  H    0.002876  -0.044409   0.348406   0.043726  -0.068922   0.019359
    13  H    0.004761  -0.130072  -0.077390   0.001591   0.018043   0.001072
    14  O   -0.000171  -0.017588  -0.124980  -0.118673   0.219660   0.031291
    15  C   -0.002180  -0.566033  -0.298095   0.306802  -2.676695  -0.099613
    16  O   -0.003601   0.081608   0.041916  -0.081284   0.060192  -0.016983
    17  H    0.000041  -0.041799  -0.015989   0.057700   0.009332   0.036624
    18  O    0.011606  -0.143229  -0.091341  -0.076244   0.120780   0.267514
    19  C    0.005653  -0.180136  -0.063219   0.155692  -0.079557  -0.129148
    20  H    0.000031   0.011949  -0.004676   0.030753  -0.008685  -0.047882
    21  H    0.000009  -0.014098   0.002009  -0.008612  -0.001687   0.032525
    22  H   -0.000167   0.036468   0.005892  -0.014015   0.008051  -0.019893
    23  O   -0.063622   0.108509  -0.000895   0.123441  -0.012620  -0.013333
    24  Si   0.075735  -0.825430   0.081664  -0.154779   0.000886   0.402201
    25  C   -0.000792  -0.019518   0.002055  -0.009579   0.003061   0.014708
    26  H    0.000002   0.006787   0.000016   0.000072  -0.000003  -0.001556
    27  H   -0.000002  -0.017732   0.000082   0.000258  -0.000121   0.008093
    28  H   -0.000002  -0.006661   0.000115  -0.000010  -0.000082   0.001204
    29  C   -0.029157   0.120696   0.026261  -0.003457  -0.010517  -0.017217
    30  C   -0.002190  -0.048278  -0.004405   0.020720   0.000820   0.015100
    31  H   -0.000020   0.008111  -0.000142   0.000360  -0.000070  -0.001191
    32  H    0.001282  -0.010647  -0.001024  -0.000879   0.002622   0.008274
    33  H   -0.000080  -0.016320  -0.000350   0.002700   0.000383   0.009086
    34  C    0.002216   0.018272  -0.012848   0.019714   0.003800  -0.062306
    35  H   -0.000003  -0.000286  -0.000269  -0.000822   0.000131   0.002093
    36  H    0.000044   0.000553  -0.000488   0.000219   0.000101   0.000500
    37  H    0.000187   0.012619   0.003704   0.000183  -0.000002  -0.005988
    38  C   -0.000681  -0.023230   0.015579  -0.006130  -0.004460   0.021785
    39  H    0.000000  -0.001084   0.000066   0.000010  -0.000040  -0.000069
    40  H    0.000000   0.000742   0.000016  -0.000011   0.000004  -0.000113
    41  H    0.000001  -0.000520  -0.000019   0.000009   0.000002   0.000240
    42  C   -0.000797   0.022952  -0.009929   0.009877  -0.007505  -0.014026
    43  H    0.000002   0.003622   0.000076  -0.000009   0.000028   0.001022
    44  H   -0.000001  -0.000480   0.000092  -0.000043   0.000110  -0.000276
    45  H    0.000009  -0.009855   0.000105   0.000489  -0.000953  -0.005191
    46  H    0.000000   0.003226   0.071169  -0.030437  -0.156196  -0.008089
    47  H   -0.000001  -0.003433  -0.019602   0.099870  -0.100172   0.009750
              7          8          9         10         11         12
     1  H   -0.045199  -0.000039  -0.000132  -0.002329  -0.004822   0.002876
     2  C   -1.262533   0.047974   0.040723   0.088225  -0.028478  -0.044409
     3  C   -0.588297   0.371021   0.042765  -0.032156   0.018733   0.348406
     4  C    1.089746   0.037430   0.151189   0.108844  -0.007768   0.043726
     5  C   -0.302319  -0.028659   0.041838   0.026556   0.008151  -0.068922
     6  C   -1.360993   0.004131   0.071282   0.121676   0.038217   0.019359
     7  C    7.924566  -0.031244  -0.034025   0.002103   0.290908  -0.010423
     8  H   -0.031244   0.523680  -0.000107   0.000012  -0.002337  -0.022291
     9  H   -0.034025  -0.000107   0.570951  -0.006181   0.000014  -0.000128
    10  H    0.002103   0.000012  -0.006181   0.588985  -0.000141  -0.000011
    11  H    0.290908  -0.002337   0.000014  -0.000141   0.548538  -0.004283
    12  H   -0.010423  -0.022291  -0.000128  -0.000011  -0.004283   0.528117
    13  H    0.483545  -0.003323  -0.000073   0.000027  -0.025844   0.004299
    14  O    0.032228   0.000595   0.005760  -0.000764   0.000131   0.010381
    15  C    0.148708  -0.069774  -0.004446   0.005024   0.000680   0.006936
    16  O   -0.025625   0.000515  -0.026876  -0.002125   0.000308   0.001596
    17  H    0.016222  -0.000022  -0.007572   0.000125  -0.000006   0.000204
    18  O   -0.005124   0.000794  -0.006873  -0.043558  -0.001629   0.000829
    19  C    0.042294  -0.000194  -0.001377  -0.000732  -0.001576   0.000739
    20  H   -0.007915   0.000000  -0.000081   0.010342   0.000000   0.000000
    21  H   -0.000639   0.000000  -0.000035   0.000061  -0.000001   0.000000
    22  H    0.012191   0.000000   0.000002  -0.001675  -0.000003   0.000000
    23  O   -0.077026  -0.000750  -0.000849  -0.000800   0.001522   0.000031
    24  Si  -0.106617  -0.001785   0.002305  -0.008403  -0.002190  -0.000467
    25  C    0.006694  -0.000015   0.000005  -0.001497   0.000206  -0.000008
    26  H   -0.000800   0.000000   0.000000   0.000000   0.000000   0.000000
    27  H    0.001535   0.000000   0.000000  -0.000009   0.000000   0.000000
    28  H    0.002050   0.000000   0.000000   0.000000   0.000001   0.000000
    29  C   -0.111017   0.000277   0.000144   0.001077   0.015712  -0.001829
    30  C    0.006558   0.000055  -0.000424   0.002768  -0.000537   0.000159
    31  H   -0.001614   0.000000   0.000000   0.000018   0.000000   0.000000
    32  H   -0.000122   0.000000   0.000000   0.000166   0.000003  -0.000001
    33  H    0.001935   0.000000   0.000000   0.000138   0.000000   0.000000
    34  C    0.061927  -0.000365  -0.000017  -0.000458  -0.001243   0.000878
    35  H    0.000689   0.000000   0.000000   0.000000  -0.000005  -0.000002
    36  H    0.003086   0.000000   0.000000   0.000000  -0.000017   0.000000
    37  H   -0.016514  -0.000004   0.000000   0.000000   0.002131   0.000133
    38  C   -0.056100  -0.000006   0.000011  -0.000170   0.002406  -0.000043
    39  H   -0.000190   0.000000   0.000000   0.000000   0.000000   0.000000
    40  H   -0.000151   0.000000   0.000000   0.000000   0.000000   0.000000
    41  H    0.000037   0.000000   0.000000   0.000000   0.000000   0.000000
    42  C    0.067787   0.000174  -0.000038   0.000127  -0.008629   0.000288
    43  H   -0.000939   0.000000   0.000000   0.000000   0.000001   0.000000
    44  H    0.001380   0.000000   0.000000   0.000000   0.000002   0.000000
    45  H    0.003006   0.000000   0.000000   0.000000   0.001271   0.000002
    46  H    0.000162   0.000295   0.000105   0.000001   0.000000  -0.000368
    47  H   -0.000630   0.000058   0.000989   0.000000   0.000001   0.000275
             13         14         15         16         17         18
     1  H    0.004761  -0.000171  -0.002180  -0.003601   0.000041   0.011606
     2  C   -0.130072  -0.017588  -0.566033   0.081608  -0.041799  -0.143229
     3  C   -0.077390  -0.124980  -0.298095   0.041916  -0.015989  -0.091341
     4  C    0.001591  -0.118673   0.306802  -0.081284   0.057700  -0.076244
     5  C    0.018043   0.219660  -2.676695   0.060192   0.009332   0.120780
     6  C    0.001072   0.031291  -0.099613  -0.016983   0.036624   0.267514
     7  C    0.483545   0.032228   0.148708  -0.025625   0.016222  -0.005124
     8  H   -0.003323   0.000595  -0.069774   0.000515  -0.000022   0.000794
     9  H   -0.000073   0.005760  -0.004446  -0.026876  -0.007572  -0.006873
    10  H    0.000027  -0.000764   0.005024  -0.002125   0.000125  -0.043558
    11  H   -0.025844   0.000131   0.000680   0.000308  -0.000006  -0.001629
    12  H    0.004299   0.010381   0.006936   0.001596   0.000204   0.000829
    13  H    0.502676   0.002976   0.002144   0.000281   0.000001   0.011480
    14  O    0.002976   8.236050   0.117165   0.011606  -0.000621  -0.014929
    15  C    0.002144   0.117165   8.331555  -0.044131  -0.034511   0.013116
    16  O    0.000281   0.011606  -0.044131   8.284175   0.208858   0.018320
    17  H    0.000001  -0.000621  -0.034511   0.208858   0.389579  -0.000622
    18  O    0.011480  -0.014929   0.013116   0.018320  -0.000622   8.299530
    19  C    0.007566  -0.003372   0.002751  -0.000642  -0.000597   0.022996
    20  H   -0.000008  -0.000081   0.000324  -0.000416   0.000001  -0.049026
    21  H    0.000023  -0.000131  -0.002420   0.000062   0.000000  -0.081797
    22  H   -0.000044  -0.000067   0.000132   0.000108   0.000000  -0.050626
    23  O    0.002465  -0.000194   0.008919  -0.003765   0.000177   0.025033
    24  Si   0.004160  -0.000258  -0.022420  -0.001369  -0.000598  -0.008674
    25  C   -0.000002   0.000031   0.000813   0.000371   0.000000   0.002623
    26  H    0.000000   0.000000   0.000000   0.000000   0.000000   0.000001
    27  H    0.000000   0.000000  -0.000007  -0.000001   0.000000  -0.000034
    28  H   -0.000001   0.000000  -0.000003  -0.000001   0.000000  -0.000077
    29  C   -0.005397  -0.000198  -0.002022  -0.000524  -0.000274  -0.005241
    30  C   -0.000045   0.000002  -0.000751  -0.001054   0.000321   0.004611
    31  H    0.000000   0.000000   0.000004  -0.000016   0.000000  -0.000006
    32  H    0.000000  -0.000001   0.000286   0.000980   0.000004   0.000095
    33  H    0.000000   0.000000   0.000008   0.000126   0.000000   0.000018
    34  C    0.001296   0.000117   0.004216   0.000853   0.000096   0.002489
    35  H    0.000000   0.000000  -0.000056  -0.000028   0.000000  -0.000001
    36  H    0.000000   0.000000   0.000008   0.000002   0.000000   0.000000
    37  H    0.000043   0.000004   0.000390  -0.000056   0.000000   0.000035
    38  C   -0.000144   0.000017  -0.000013   0.000009  -0.000016   0.000383
    39  H    0.000000   0.000000  -0.000001   0.000000   0.000000   0.000000
    40  H    0.000000   0.000000   0.000000   0.000000   0.000000   0.000000
    41  H    0.000000   0.000000   0.000000   0.000000   0.000000   0.000000
    42  C    0.000749   0.000128  -0.001209  -0.000422   0.000033  -0.000870
    43  H    0.000000   0.000000   0.000000   0.000000   0.000000   0.000000
    44  H    0.000000   0.000000   0.000005   0.000000   0.000000   0.000000
    45  H    0.000059   0.000001  -0.000069  -0.000003   0.000000   0.000019
    46  H   -0.000016  -0.037022   0.493273   0.000305  -0.000073  -0.000255
    47  H    0.000004  -0.033853   0.379590   0.001024  -0.000340   0.000505
             19         20         21         22         23         24
     1  H    0.005653   0.000031   0.000009  -0.000167  -0.063622   0.075735
     2  C   -0.180136   0.011949  -0.014098   0.036468   0.108509  -0.825430
     3  C   -0.063219  -0.004676   0.002009   0.005892  -0.000895   0.081664
     4  C    0.155692   0.030753  -0.008612  -0.014015   0.123441  -0.154779
     5  C   -0.079557  -0.008685  -0.001687   0.008051  -0.012620   0.000886
     6  C   -0.129148  -0.047882   0.032525  -0.019893  -0.013333   0.402201
     7  C    0.042294  -0.007915  -0.000639   0.012191  -0.077026  -0.106617
     8  H   -0.000194   0.000000   0.000000   0.000000  -0.000750  -0.001785
     9  H   -0.001377  -0.000081  -0.000035   0.000002  -0.000849   0.002305
    10  H   -0.000732   0.010342   0.000061  -0.001675  -0.000800  -0.008403
    11  H   -0.001576   0.000000  -0.000001  -0.000003   0.001522  -0.002190
    12  H    0.000739   0.000000   0.000000   0.000000   0.000031  -0.000467
    13  H    0.007566  -0.000008   0.000023  -0.000044   0.002465   0.004160
    14  O   -0.003372  -0.000081  -0.000131  -0.000067  -0.000194  -0.000258
    15  C    0.002751   0.000324  -0.002420   0.000132   0.008919  -0.022420
    16  O   -0.000642  -0.000416   0.000062   0.000108  -0.003765  -0.001369
    17  H   -0.000597   0.000001   0.000000   0.000000   0.000177  -0.000598
    18  O    0.022996  -0.049026  -0.081797  -0.050626   0.025033  -0.008674
    19  C    5.119150   0.414500   0.435185   0.397753  -0.004155   0.015594
    20  H    0.414500   0.577668  -0.026634  -0.042973   0.000929   0.006582
    21  H    0.435185  -0.026634   0.536592  -0.031310   0.002366  -0.002742
    22  H    0.397753  -0.042973  -0.031310   0.547911  -0.017772  -0.001447
    23  O   -0.004155   0.000929   0.002366  -0.017772   8.350753  -0.083099
    24  Si   0.015594   0.006582  -0.002742  -0.001447  -0.083099  13.476037
    25  C   -0.001309  -0.001397   0.000361   0.000603  -0.038879   0.261701
    26  H   -0.000246   0.000000   0.000000   0.000000   0.009259  -0.039028
    27  H   -0.000185   0.000003   0.000002   0.000052  -0.002171  -0.011513
    28  H    0.000029   0.000000   0.000000   0.000023  -0.006230  -0.015179
    29  C   -0.005252  -0.000134  -0.000045   0.000839  -0.000871   0.233263
    30  C   -0.003099  -0.000914   0.000428  -0.001696  -0.060847   0.294111
    31  H    0.000008   0.000001   0.000000   0.000000   0.008680  -0.046268
    32  H    0.000435   0.000000   0.000000  -0.000001  -0.004913  -0.022935
    33  H    0.000143   0.000006   0.000000   0.000001  -0.003088  -0.036610
    34  C    0.005224   0.000055  -0.000023  -0.000145  -0.004993  -0.131096
    35  H    0.000026   0.000000   0.000000   0.000000  -0.001542  -0.010666
    36  H    0.000005   0.000000   0.000000   0.000000  -0.000705   0.007989
    37  H    0.000057   0.000000   0.000000   0.000000   0.008066  -0.002690
    38  C    0.000737   0.000036  -0.000006  -0.000144   0.032959  -0.062270
    39  H   -0.000001   0.000000   0.000000   0.000000   0.000621  -0.008373
    40  H   -0.000007   0.000000   0.000000   0.000000   0.000085  -0.007808
    41  H    0.000003   0.000000   0.000000   0.000000  -0.000647   0.015616
    42  C   -0.000637   0.000040  -0.000002  -0.000214   0.002800  -0.179284
    43  H    0.000009   0.000000   0.000000   0.000000  -0.000811   0.007625
    44  H    0.000027   0.000000   0.000000   0.000000  -0.002203   0.000317
    45  H   -0.000113   0.000000   0.000000  -0.000001   0.010820  -0.015306
    46  H   -0.000112   0.000000   0.000000   0.000000  -0.000008  -0.000040
    47  H    0.000426   0.000000   0.000000   0.000000   0.000000   0.000015
             25         26         27         28         29         30
     1  H   -0.000792   0.000002  -0.000002  -0.000002  -0.029157  -0.002190
     2  C   -0.019518   0.006787  -0.017732  -0.006661   0.120696  -0.048278
     3  C    0.002055   0.000016   0.000082   0.000115   0.026261  -0.004405
     4  C   -0.009579   0.000072   0.000258  -0.000010  -0.003457   0.020720
     5  C    0.003061  -0.000003  -0.000121  -0.000082  -0.010517   0.000820
     6  C    0.014708  -0.001556   0.008093   0.001204  -0.017217   0.015100
     7  C    0.006694  -0.000800   0.001535   0.002050  -0.111017   0.006558
     8  H   -0.000015   0.000000   0.000000   0.000000   0.000277   0.000055
     9  H    0.000005   0.000000   0.000000   0.000000   0.000144  -0.000424
    10  H   -0.001497   0.000000  -0.000009   0.000000   0.001077   0.002768
    11  H    0.000206   0.000000   0.000000   0.000001   0.015712  -0.000537
    12  H   -0.000008   0.000000   0.000000   0.000000  -0.001829   0.000159
    13  H   -0.000002   0.000000   0.000000  -0.000001  -0.005397  -0.000045
    14  O    0.000031   0.000000   0.000000   0.000000  -0.000198   0.000002
    15  C    0.000813   0.000000  -0.000007  -0.000003  -0.002022  -0.000751
    16  O    0.000371   0.000000  -0.000001  -0.000001  -0.000524  -0.001054
    17  H    0.000000   0.000000   0.000000   0.000000  -0.000274   0.000321
    18  O    0.002623   0.000001  -0.000034  -0.000077  -0.005241   0.004611
    19  C   -0.001309  -0.000246  -0.000185   0.000029  -0.005252  -0.003099
    20  H   -0.001397   0.000000   0.000003   0.000000  -0.000134  -0.000914
    21  H    0.000361   0.000000   0.000002   0.000000  -0.000045   0.000428
    22  H    0.000603   0.000000   0.000052   0.000023   0.000839  -0.001696
    23  O   -0.038879   0.009259  -0.002171  -0.006230  -0.000871  -0.060847
    24  Si   0.261701  -0.039028  -0.011513  -0.015179   0.233263   0.294111
    25  C    5.472526   0.402441   0.382255   0.395480  -0.160547  -0.003816
    26  H    0.402441   0.491863  -0.021241  -0.021808  -0.021552  -0.005815
    27  H    0.382255  -0.021241   0.491395  -0.022110   0.017864  -0.009874
    28  H    0.395480  -0.021808  -0.022110   0.486735  -0.022803   0.006175
    29  C   -0.160547  -0.021552   0.017864  -0.022803   8.373874  -0.148697
    30  C   -0.003816  -0.005815  -0.009874   0.006175  -0.148697   5.437142
    31  H   -0.003990   0.000099   0.000103   0.000012  -0.016615   0.402522
    32  H    0.007445   0.000010   0.000011  -0.000016  -0.032230   0.401644
    33  H   -0.010869   0.000105   0.000422   0.000004   0.021128   0.395843
    34  C    0.006641   0.001032  -0.001679  -0.002944  -0.471950   0.014268
    35  H   -0.000377   0.000001  -0.000001   0.000000  -0.057069   0.005162
    36  H   -0.001591   0.000000   0.000000   0.000000  -0.160705   0.000700
    37  H   -0.000151   0.000000  -0.000001   0.000002  -0.106230  -0.002211
    38  C    0.057945   0.007176  -0.000740  -0.000751  -0.443577   0.023202
    39  H   -0.000999  -0.000002  -0.000007   0.000016  -0.093536   0.003185
    40  H    0.004304   0.000244   0.000002   0.000041  -0.090956  -0.000317
    41  H   -0.000451   0.000028   0.000000  -0.000007  -0.141899   0.000600
    42  C   -0.042913   0.007083  -0.000279   0.018023  -0.334430  -0.013662
    43  H    0.000198   0.000000   0.000000  -0.000006  -0.157035  -0.000974
    44  H    0.002232   0.000055   0.000000   0.000090  -0.067740  -0.000332
    45  H    0.001251   0.000007  -0.000005   0.000055  -0.077591  -0.000762
    46  H    0.000000   0.000000   0.000000   0.000000  -0.000011   0.000001
    47  H    0.000000   0.000000   0.000000   0.000000   0.000000  -0.000004
             31         32         33         34         35         36
     1  H   -0.000020   0.001282  -0.000080   0.002216  -0.000003   0.000044
     2  C    0.008111  -0.010647  -0.016320   0.018272  -0.000286   0.000553
     3  C   -0.000142  -0.001024  -0.000350  -0.012848  -0.000269  -0.000488
     4  C    0.000360  -0.000879   0.002700   0.019714  -0.000822   0.000219
     5  C   -0.000070   0.002622   0.000383   0.003800   0.000131   0.000101
     6  C   -0.001191   0.008274   0.009086  -0.062306   0.002093   0.000500
     7  C   -0.001614  -0.000122   0.001935   0.061927   0.000689   0.003086
     8  H    0.000000   0.000000   0.000000  -0.000365   0.000000   0.000000
     9  H    0.000000   0.000000   0.000000  -0.000017   0.000000   0.000000
    10  H    0.000018   0.000166   0.000138  -0.000458   0.000000   0.000000
    11  H    0.000000   0.000003   0.000000  -0.001243  -0.000005  -0.000017
    12  H    0.000000  -0.000001   0.000000   0.000878  -0.000002   0.000000
    13  H    0.000000   0.000000   0.000000   0.001296   0.000000   0.000000
    14  O    0.000000  -0.000001   0.000000   0.000117   0.000000   0.000000
    15  C    0.000004   0.000286   0.000008   0.004216  -0.000056   0.000008
    16  O   -0.000016   0.000980   0.000126   0.000853  -0.000028   0.000002
    17  H    0.000000   0.000004   0.000000   0.000096   0.000000   0.000000
    18  O   -0.000006   0.000095   0.000018   0.002489  -0.000001   0.000000
    19  C    0.000008   0.000435   0.000143   0.005224   0.000026   0.000005
    20  H    0.000001   0.000000   0.000006   0.000055   0.000000   0.000000
    21  H    0.000000   0.000000   0.000000  -0.000023   0.000000   0.000000
    22  H    0.000000  -0.000001   0.000001  -0.000145   0.000000   0.000000
    23  O    0.008680  -0.004913  -0.003088  -0.004993  -0.001542  -0.000705
    24  Si  -0.046268  -0.022935  -0.036610  -0.131096  -0.010666   0.007989
    25  C   -0.003990   0.007445  -0.010869   0.006641  -0.000377  -0.001591
    26  H    0.000099   0.000010   0.000105   0.001032   0.000001   0.000000
    27  H    0.000103   0.000011   0.000422  -0.001679  -0.000001   0.000000
    28  H    0.000012  -0.000016   0.000004  -0.002944   0.000000   0.000000
    29  C   -0.016615  -0.032230   0.021128  -0.471950  -0.057069  -0.160705
    30  C    0.402522   0.401644   0.395843   0.014268   0.005162   0.000700
    31  H    0.489401  -0.022131  -0.020636   0.007479   0.000069   0.000000
    32  H   -0.022131   0.489664  -0.022904   0.018938  -0.000038  -0.000001
    33  H   -0.020636  -0.022904   0.494073  -0.001648   0.000011   0.000000
    34  C    0.007479   0.018938  -0.001648   5.984482   0.425393   0.468794
    35  H    0.000069  -0.000038   0.000011   0.425393   0.531860  -0.027331
    36  H    0.000000  -0.000001   0.000000   0.468794  -0.027331   0.540875
    37  H    0.000012   0.000005  -0.000006   0.455775  -0.027840  -0.027997
    38  C    0.004330   0.000485  -0.000246  -0.181794  -0.011520  -0.009038
    39  H    0.000516   0.000035  -0.000009  -0.017712   0.002675  -0.000324
    40  H   -0.000003   0.000008  -0.000008   0.008872   0.000018   0.000015
    41  H    0.000017  -0.000005   0.000000   0.010431  -0.000347   0.005753
    42  C    0.003303  -0.003651  -0.000936  -0.042723   0.002609   0.029203
    43  H    0.000000   0.000000   0.000000   0.009148   0.000038   0.005504
    44  H    0.000001   0.000000  -0.000001   0.005110  -0.000149   0.000018
    45  H    0.000000   0.000002  -0.000001  -0.008318   0.000009  -0.000294
    46  H    0.000000   0.000000   0.000000   0.000021   0.000000   0.000000
    47  H    0.000000   0.000000   0.000000  -0.000001   0.000000   0.000000
             37         38         39         40         41         42
     1  H    0.000187  -0.000681   0.000000   0.000000   0.000001  -0.000797
     2  C    0.012619  -0.023230  -0.001084   0.000742  -0.000520   0.022952
     3  C    0.003704   0.015579   0.000066   0.000016  -0.000019  -0.009929
     4  C    0.000183  -0.006130   0.000010  -0.000011   0.000009   0.009877
     5  C   -0.000002  -0.004460  -0.000040   0.000004   0.000002  -0.007505
     6  C   -0.005988   0.021785  -0.000069  -0.000113   0.000240  -0.014026
     7  C   -0.016514  -0.056100  -0.000190  -0.000151   0.000037   0.067787
     8  H   -0.000004  -0.000006   0.000000   0.000000   0.000000   0.000174
     9  H    0.000000   0.000011   0.000000   0.000000   0.000000  -0.000038
    10  H    0.000000  -0.000170   0.000000   0.000000   0.000000   0.000127
    11  H    0.002131   0.002406   0.000000   0.000000   0.000000  -0.008629
    12  H    0.000133  -0.000043   0.000000   0.000000   0.000000   0.000288
    13  H    0.000043  -0.000144   0.000000   0.000000   0.000000   0.000749
    14  O    0.000004   0.000017   0.000000   0.000000   0.000000   0.000128
    15  C    0.000390  -0.000013  -0.000001   0.000000   0.000000  -0.001209
    16  O   -0.000056   0.000009   0.000000   0.000000   0.000000  -0.000422
    17  H    0.000000  -0.000016   0.000000   0.000000   0.000000   0.000033
    18  O    0.000035   0.000383   0.000000   0.000000   0.000000  -0.000870
    19  C    0.000057   0.000737  -0.000001  -0.000007   0.000003  -0.000637
    20  H    0.000000   0.000036   0.000000   0.000000   0.000000   0.000040
    21  H    0.000000  -0.000006   0.000000   0.000000   0.000000  -0.000002
    22  H    0.000000  -0.000144   0.000000   0.000000   0.000000  -0.000214
    23  O    0.008066   0.032959   0.000621   0.000085  -0.000647   0.002800
    24  Si  -0.002690  -0.062270  -0.008373  -0.007808   0.015616  -0.179284
    25  C   -0.000151   0.057945  -0.000999   0.004304  -0.000451  -0.042913
    26  H    0.000000   0.007176  -0.000002   0.000244   0.000028   0.007083
    27  H   -0.000001  -0.000740  -0.000007   0.000002   0.000000  -0.000279
    28  H    0.000002  -0.000751   0.000016   0.000041  -0.000007   0.018023
    29  C   -0.106230  -0.443577  -0.093536  -0.090956  -0.141899  -0.334430
    30  C   -0.002211   0.023202   0.003185  -0.000317   0.000600  -0.013662
    31  H    0.000012   0.004330   0.000516  -0.000003   0.000017   0.003303
    32  H    0.000005   0.000485   0.000035   0.000008  -0.000005  -0.003651
    33  H   -0.000006  -0.000246  -0.000009  -0.000008   0.000000  -0.000936
    34  C    0.455775  -0.181794  -0.017712   0.008872   0.010431  -0.042723
    35  H   -0.027840  -0.011520   0.002675   0.000018  -0.000347   0.002609
    36  H   -0.027997  -0.009038  -0.000324   0.000015   0.005753   0.029203
    37  H    0.540531   0.001592   0.000042  -0.000151   0.000017  -0.002867
    38  C    0.001592   5.981849   0.464098   0.458014   0.443646  -0.187235
    39  H    0.000042   0.464098   0.534181  -0.027216  -0.027921   0.005504
    40  H   -0.000151   0.458014  -0.027216   0.531165  -0.027535  -0.020337
    41  H    0.000017   0.443646  -0.027921  -0.027535   0.539365   0.012737
    42  C   -0.002867  -0.187235   0.005504  -0.020337   0.012737   5.939614
    43  H   -0.000473  -0.001991  -0.000007  -0.000270   0.005178   0.480258
    44  H    0.000045  -0.012031   0.000035   0.002768  -0.000315   0.426411
    45  H    0.002948   0.010279  -0.000146   0.000045   0.000010   0.441834
    46  H    0.000000   0.000000   0.000000   0.000000   0.000000  -0.000001
    47  H    0.000000   0.000000   0.000000   0.000000   0.000000   0.000000
             43         44         45         46         47
     1  H    0.000002  -0.000001   0.000009   0.000000  -0.000001
     2  C    0.003622  -0.000480  -0.009855   0.003226  -0.003433
     3  C    0.000076   0.000092   0.000105   0.071169  -0.019602
     4  C   -0.000009  -0.000043   0.000489  -0.030437   0.099870
     5  C    0.000028   0.000110  -0.000953  -0.156196  -0.100172
     6  C    0.001022  -0.000276  -0.005191  -0.008089   0.009750
     7  C   -0.000939   0.001380   0.003006   0.000162  -0.000630
     8  H    0.000000   0.000000   0.000000   0.000295   0.000058
     9  H    0.000000   0.000000   0.000000   0.000105   0.000989
    10  H    0.000000   0.000000   0.000000   0.000001   0.000000
    11  H    0.000001   0.000002   0.001271   0.000000   0.000001
    12  H    0.000000   0.000000   0.000002  -0.000368   0.000275
    13  H    0.000000   0.000000   0.000059  -0.000016   0.000004
    14  O    0.000000   0.000000   0.000001  -0.037022  -0.033853
    15  C    0.000000   0.000005  -0.000069   0.493273   0.379590
    16  O    0.000000   0.000000  -0.000003   0.000305   0.001024
    17  H    0.000000   0.000000   0.000000  -0.000073  -0.000340
    18  O    0.000000   0.000000   0.000019  -0.000255   0.000505
    19  C    0.000009   0.000027  -0.000113  -0.000112   0.000426
    20  H    0.000000   0.000000   0.000000   0.000000   0.000000
    21  H    0.000000   0.000000   0.000000   0.000000   0.000000
    22  H    0.000000   0.000000  -0.000001   0.000000   0.000000
    23  O   -0.000811  -0.002203   0.010820  -0.000008   0.000000
    24  Si   0.007625   0.000317  -0.015306  -0.000040   0.000015
    25  C    0.000198   0.002232   0.001251   0.000000   0.000000
    26  H    0.000000   0.000055   0.000007   0.000000   0.000000
    27  H    0.000000   0.000000  -0.000005   0.000000   0.000000
    28  H   -0.000006   0.000090   0.000055   0.000000   0.000000
    29  C   -0.157035  -0.067740  -0.077591  -0.000011   0.000000
    30  C   -0.000974  -0.000332  -0.000762   0.000001  -0.000004
    31  H    0.000000   0.000001   0.000000   0.000000   0.000000
    32  H    0.000000   0.000000   0.000002   0.000000   0.000000
    33  H    0.000000  -0.000001  -0.000001   0.000000   0.000000
    34  C    0.009148   0.005110  -0.008318   0.000021  -0.000001
    35  H    0.000038  -0.000149   0.000009   0.000000   0.000000
    36  H    0.005504   0.000018  -0.000294   0.000000   0.000000
    37  H   -0.000473   0.000045   0.002948   0.000000   0.000000
    38  C   -0.001991  -0.012031   0.010279   0.000000   0.000000
    39  H   -0.000007   0.000035  -0.000146   0.000000   0.000000
    40  H   -0.000270   0.002768   0.000045   0.000000   0.000000
    41  H    0.005178  -0.000315   0.000010   0.000000   0.000000
    42  C    0.480258   0.426411   0.441834  -0.000001   0.000000
    43  H    0.542797  -0.027891  -0.027739   0.000000   0.000000
    44  H   -0.027891   0.531810  -0.025903   0.000000   0.000000
    45  H   -0.027739  -0.025903   0.525809   0.000000   0.000000
    46  H    0.000000   0.000000   0.000000   0.527239  -0.035557
    47  H    0.000000   0.000000   0.000000  -0.035557   0.531687
 Mulliken atomic charges:
              1
     1  H    0.156525
     2  C   -0.330768
     3  C   -0.451767
     4  C   -0.050126
     5  C   -0.049876
     6  C   -0.217689
     7  C   -0.153299
     8  H    0.173905
     9  H    0.161150
    10  H    0.144735
    11  H    0.160577
    12  H    0.183953
    13  H    0.193097
    14  O   -0.315242
    15  C    0.001600
    16  O   -0.504292
    17  H    0.383723
    18  O   -0.222623
    19  C   -0.151333
    20  H    0.137601
    21  H    0.160559
    22  H    0.172166
    23  O   -0.290648
    24  Si   0.923542
    25  C   -0.727253
    26  H    0.185771
    27  H    0.185633
    28  H    0.188637
    29  C   -0.012813
    30  C   -0.725392
    31  H    0.187657
    32  H    0.189103
    33  H    0.187580
    34  C   -0.595273
    35  H    0.167565
    36  H    0.165121
    37  H    0.164663
    38  C   -0.524203
    39  H    0.166655
    40  H    0.168541
    41  H    0.165976
    42  C   -0.598938
    43  H    0.162636
    44  H    0.166854
    45  H    0.174221
    46  H    0.172390
    47  H    0.169399
 Sum of Mulliken atomic charges =   0.00000
 Mulliken charges with hydrogens summed into heavy atoms:
              1
     2  C   -0.174242
     3  C   -0.093909
     4  C    0.111024
     5  C   -0.049876
     6  C   -0.072955
     7  C    0.200375
    14  O   -0.315242
    15  C    0.343389
    16  O   -0.120568
    18  O   -0.222623
    19  C    0.318993
    23  O   -0.290648
    24  Si   0.923542
    25  C   -0.167212
    29  C   -0.012813
    30  C   -0.161053
    34  C   -0.097924
    38  C   -0.023031
    42  C   -0.095227
 Sum of Mulliken charges with hydrogens summed into heavy atoms =   0.00000
 Electronic spatial extent (au):  <R**2>=           6534.5132
 Charge=              0.0000 electrons
 Dipole moment (field-independent basis, Debye):
    X=              0.3906    Y=             -1.8054    Z=              2.6530  Tot=              3.2327
 Quadrupole moment (field-independent basis, Debye-Ang):
   XX=           -119.8586   YY=           -118.5997   ZZ=           -129.4213
   XY=             10.4213   XZ=            -10.8518   YZ=              0.6338
 Traceless Quadrupole moment (field-independent basis, Debye-Ang):
   XX=              2.7679   YY=              4.0268   ZZ=             -6.7948
   XY=             10.4213   XZ=            -10.8518   YZ=              0.6338
 Octapole moment (field-independent basis, Debye-Ang**2):
  XXX=            -59.9988  YYY=             17.3313  ZZZ=              0.0725  XYY=            -29.8436
  XXY=            -40.4544  XXZ=             61.5758  XZZ=            -11.9366  YZZ=             -0.7702
  YYZ=             -1.4347  XYZ=              2.5688
 Hexadecapole moment (field-independent basis, Debye-Ang**3):
 XXXX=          -5960.7870 YYYY=          -1619.9165 ZZZZ=          -1021.0766 XXXY=            218.0574
 XXXZ=           -258.1990 YYYX=              3.4364 YYYZ=            -13.3486 ZZZX=            -33.2651
 ZZZY=            -36.2403 XXYY=          -1252.0953 XXZZ=          -1181.2833 YYZZ=           -428.8931
 XXYZ=             -9.0076 YYXZ=              1.7552 ZZXY=             23.0311
 N-N= 1.814780723289D+03 E-N=-6.300608178860D+03  KE= 1.131539522143D+03
 1\1\GINC-COMPUTE-8-30\SP\RmPW1PW91\6-31+G(d,p)\C14H28O4Si1\ELUCIANO.IQ
 UIR\06-Dec-2022\0\\# mPW1PW91/6-31+g** scrf=(PCM,solvent=chloroform) n
 mr\\comment\\0,1\H,0,-0.217424,-0.715289,0.847532\C,0,-0.445069,-0.077
 022,-0.017563\C,0,-2.254814,-1.717808,-0.661638\C,0,-2.758151,0.205572
 ,0.962841\C,0,-3.294585,-0.781497,-0.070975\C,0,-1.505246,0.942342,0.4
 51236\C,0,-1.013477,-0.946296,-1.14408\H,0,-2.707281,-2.280345,-1.4851
 81\H,0,-3.533342,0.95625,1.1699\H,0,-1.093122,1.53746,1.280854\H,0,-0.
 244994,-1.645833,-1.491521\H,0,-1.959414,-2.441798,0.109953\H,0,-1.276
 366,-0.296151,-1.985081\O,0,-4.252092,-0.236702,-0.993533\C,0,-4.71574
 5,-1.170956,-0.01397\O,0,-2.361692,-0.481392,2.153907\H,0,-3.134611,-0
 .968753,2.479548\O,0,-1.958286,1.791079,-0.588807\C,0,-1.192489,2.9622
 19,-0.820069\H,0,-1.01229,3.510727,0.118313\H,0,-1.789384,3.592751,-1.
 485635\H,0,-0.22921,2.740402,-1.289973\O,0,0.730277,0.597925,-0.462115
 \Si,0,2.257379,0.590675,0.242345\C,0,3.103464,2.110299,-0.485221\H,0,4
 .126398,2.228315,-0.109017\H,0,2.545957,3.016673,-0.222055\H,0,3.15168
 8,2.058774,-1.578634\C,0,3.224438,-1.009877,-0.206824\C,0,2.108093,0.7
 6775,2.121726\H,0,3.095429,0.767114,2.59924\H,0,1.522167,-0.038362,2.5
 78067\H,0,1.619082,1.714662,2.379921\C,0,2.550871,-2.252892,0.41407\H,
 0,2.503917,-2.193173,1.508283\H,0,3.118275,-3.161,0.162082\H,0,1.52959
 4,-2.397704,0.041824\C,0,4.667656,-0.909998,0.334776\H,0,4.692438,-0.8
 00918,1.426095\H,0,5.213545,-0.063524,-0.099145\H,0,5.232078,-1.820964
 ,0.087484\C,0,3.274241,-1.179884,-1.74014\H,0,3.811984,-2.101299,-2.00
 8213\H,0,3.794632,-0.346238,-2.22702\H,0,2.270188,-1.24234,-2.174929\H
 ,0,-5.021656,-2.144946,-0.398514\H,0,-5.372365,-0.752926,0.752365\\Ver
 sion=EM64L-G09RevC.01\State=1-A\HF=-1140.6197091\RMSD=5.455e-09\Dipole
 =0.1536695,-0.7102844,1.0437857\Quadrupole=2.0578877,2.9938435,-5.0517
 313,7.747956,-8.0680568,0.4712173\PG=C01 [X(C14H28O4Si1)]\\@


 ALMOST ANYTHING IS EASIER TO GET INTO THAN OUT OF.

                         -- AGNES ALLEN'S LAW FROM
                PAUL DICKSON'S "THE OFFICIAL RULES"
 Job cpu time:  0 days  1 hours  8 minutes 29.0 seconds.
 File lengths (MBytes):  RWF=    297 Int=      0 D2E=      0 Chk=     16 Scr=      1
 Normal termination of Gaussian 09 at Tue Dec  6 21:16:40 2022.
