 Entering Gaussian System, Link 0=g09
 Input=/home/eluciano.iquir/todos_optB3L_MPW_B_PCM/02_epoxido28_005_optB3L_nmr_MPW_B_PCM.gjc
 Output=/home/eluciano.iquir/todos_optB3L_MPW_B_PCM/02_epoxido28_005_optB3L_nmr_MPW_B_PCM.log
 Initial command:
 /share/apps/Gaussian09/EM64T.SSE4.2-enabled/g09/l1.exe /tmp/Gau-27818.inp -scrdir=/tmp/
 Entering Link 1 = /share/apps/Gaussian09/EM64T.SSE4.2-enabled/g09/l1.exe PID=     27819.
  
 Copyright (c) 1988,1990,1992,1993,1995,1998,2003,2009,2011,
            Gaussian, Inc.  All Rights Reserved.
  
 This is part of the Gaussian(R) 09 program.  It is based on
 the Gaussian(R) 03 system (copyright 2003, Gaussian, Inc.),
 the Gaussian(R) 98 system (copyright 1998, Gaussian, Inc.),
 the Gaussian(R) 94 system (copyright 1995, Gaussian, Inc.),
 the Gaussian 92(TM) system (copyright 1992, Gaussian, Inc.),
 the Gaussian 90(TM) system (copyright 1990, Gaussian, Inc.),
 the Gaussian 88(TM) system (copyright 1988, Gaussian, Inc.),
 the Gaussian 86(TM) system (copyright 1986, Carnegie Mellon
 University), and the Gaussian 82(TM) system (copyright 1983,
 Carnegie Mellon University). Gaussian is a federally registered
 trademark of Gaussian, Inc.
  
 This software contains proprietary and confidential information,
 including trade secrets, belonging to Gaussian, Inc.
  
 This software is provided under written license and may be
 used, copied, transmitted, or stored only in accord with that
 written license.
  
 The following legend is applicable only to US Government
 contracts under FAR:
  
                    RESTRICTED RIGHTS LEGEND
  
 Use, reproduction and disclosure by the US Government is
 subject to restrictions as set forth in subparagraphs (a)
 and (c) of the Commercial Computer Software - Restricted
 Rights clause in FAR 52.227-19.
  
 Gaussian, Inc.
 340 Quinnipiac St., Bldg. 40, Wallingford CT 06492
  
  
 ---------------------------------------------------------------
 Warning -- This program may not be used in any manner that
 competes with the business of Gaussian, Inc. or will provide
 assistance to any competitor of Gaussian, Inc.  The licensee
 of this program is prohibited from giving any competitor of
 Gaussian, Inc. access to this program.  By using this program,
 the user acknowledges that Gaussian, Inc. is engaged in the
 business of creating and licensing software in the field of
 computational chemistry and represents and warrants to the
 licensee that it is not a competitor of Gaussian, Inc. and that
 it will not use this program in any manner prohibited above.
 ---------------------------------------------------------------
  

 Cite this work as:
 Gaussian 09, Revision C.01,
 M. J. Frisch, G. W. Trucks, H. B. Schlegel, G. E. Scuseria, 
 M. A. Robb, J. R. Cheeseman, G. Scalmani, V. Barone, B. Mennucci, 
 G. A. Petersson, H. Nakatsuji, M. Caricato, X. Li, H. P. Hratchian, 
 A. F. Izmaylov, J. Bloino, G. Zheng, J. L. Sonnenberg, M. Hada, 
 M. Ehara, K. Toyota, R. Fukuda, J. Hasegawa, M. Ishida, T. Nakajima, 
 Y. Honda, O. Kitao, H. Nakai, T. Vreven, J. A. Montgomery, Jr., 
 J. E. Peralta, F. Ogliaro, M. Bearpark, J. J. Heyd, E. Brothers, 
 K. N. Kudin, V. N. Staroverov, T. Keith, R. Kobayashi, J. Normand, 
 K. Raghavachari, A. Rendell, J. C. Burant, S. S. Iyengar, J. Tomasi, 
 M. Cossi, N. Rega, J. M. Millam, M. Klene, J. E. Knox, J. B. Cross, 
 V. Bakken, C. Adamo, J. Jaramillo, R. Gomperts, R. E. Stratmann, 
 O. Yazyev, A. J. Austin, R. Cammi, C. Pomelli, J. W. Ochterski, 
 R. L. Martin, K. Morokuma, V. G. Zakrzewski, G. A. Voth, 
 P. Salvador, J. J. Dannenberg, S. Dapprich, A. D. Daniels, 
 O. Farkas, J. B. Foresman, J. V. Ortiz, J. Cioslowski, 
 and D. J. Fox, Gaussian, Inc., Wallingford CT, 2010.
 
 ******************************************
 Gaussian 09:  EM64L-G09RevC.01 23-Sep-2011
                 6-Dec-2022 
 ******************************************
 %nprocshared=4
 Will use up to    4 processors via shared memory.
 %mem=80MW
 -----------------------------------------------------
 # mPW1PW91/6-31+g** scrf=(PCM,solvent=chloroform) nmr
 -----------------------------------------------------
 1/38=1/1;
 2/12=2,17=6,18=5,40=1/2;
 3/5=1,6=6,7=111,11=2,16=1,25=1,30=1,70=2201,72=7,74=-7/1,2,8,3;
 4//1;
 5/5=2,38=5,53=7/2;
 8/6=1,10=90,11=11/1;
 10/13=100,45=16/2;
 6/7=2,8=2,9=2,10=2,28=1/1;
 99/9=1/99;
 -------
 comment
 -------
 Charge =  0 Multiplicity = 1
 Symbolic Z-Matrix:
 1                    -0.13445  -0.09902  -1.8636 
 6                     0.45198  -0.3676   -0.97466 
 6                     2.25342  -1.94236  -0.10908 
 6                     2.24811   0.51989   0.56518 
 6                     3.07868  -0.72237   0.23909 
 6                     1.32846   0.85387  -0.61988 
 6                     1.32585  -1.59562  -1.28716 
 1                     1.65018  -2.23485   0.75796 
 1                     1.60776   0.28844   1.42911 
 1                     1.96186   1.08316  -1.49378 
 1                     1.92426  -1.39013  -2.18577 
 1                     2.90851  -2.78481  -0.35527 
 1                     0.6734   -2.44326  -1.52266 
 8                     4.21227  -0.8943    1.11082 
 6                     4.44769  -0.5653   -0.27637 
 8                     3.08737   1.62752   0.86037 
 1                     3.71982   1.2978    1.52348 
 8                     0.46306   1.94583  -0.36463 
 6                     1.01048   3.23701  -0.60228 
 1                     1.80245   3.48049   0.11145 
 1                     0.18286   3.94334  -0.49526 
 1                     1.41336   3.31437  -1.62438 
 8                    -0.40459  -0.66724   0.11947 
 14                   -2.06305  -0.96757   0.12404 
 6                    -2.52942  -1.97327  -1.41341 
 1                    -3.6089   -2.16456  -1.44197 
 1                    -2.02511  -2.9471   -1.41077 
 1                    -2.26634  -1.46544  -2.34864 
 6                    -3.08463   0.65372   0.2049 
 6                    -2.3206   -2.01328   1.67209 
 1                    -3.36666  -2.31924   1.79019 
 1                    -2.0264   -1.47003   2.57701 
 1                    -1.71079  -2.92264   1.6199 
 6                    -2.59329   1.52329   1.3828 
 1                    -2.70417   1.00903   2.34596 
 1                    -3.18328   2.4502    1.4414 
 1                    -1.54124   1.7986    1.26032 
 6                    -4.57568   0.30881   0.4163 
 1                    -4.74425  -0.23698   1.35242 
 1                    -4.98402  -0.29621  -0.40337 
 1                    -5.17353   1.23053   0.46569 
 6                    -2.93727   1.45742  -1.10551 
 1                    -3.5333    2.38097  -1.053 
 1                    -3.29412   0.89373  -1.97708 
 1                    -1.89623   1.74785  -1.28122 
 1                     4.89158  -1.36773  -0.86559 
 1                     4.85187   0.4296   -0.4494 
 
                          Input orientation:                          
 ---------------------------------------------------------------------
 Center     Atomic      Atomic             Coordinates (Angstroms)
 Number     Number       Type             X           Y           Z
 ---------------------------------------------------------------------
      1          1           0       -0.134451   -0.099023   -1.863597
      2          6           0        0.451975   -0.367600   -0.974657
      3          6           0        2.253424   -1.942363   -0.109076
      4          6           0        2.248108    0.519894    0.565180
      5          6           0        3.078676   -0.722366    0.239094
      6          6           0        1.328462    0.853868   -0.619883
      7          6           0        1.325845   -1.595620   -1.287158
      8          1           0        1.650179   -2.234850    0.757962
      9          1           0        1.607762    0.288443    1.429112
     10          1           0        1.961861    1.083165   -1.493779
     11          1           0        1.924260   -1.390126   -2.185767
     12          1           0        2.908509   -2.784808   -0.355274
     13          1           0        0.673398   -2.443261   -1.522661
     14          8           0        4.212267   -0.894298    1.110825
     15          6           0        4.447692   -0.565302   -0.276367
     16          8           0        3.087370    1.627523    0.860367
     17          1           0        3.719820    1.297797    1.523479
     18          8           0        0.463063    1.945826   -0.364634
     19          6           0        1.010475    3.237012   -0.602282
     20          1           0        1.802450    3.480486    0.111446
     21          1           0        0.182860    3.943335   -0.495259
     22          1           0        1.413360    3.314371   -1.624382
     23          8           0       -0.404589   -0.667236    0.119468
     24         14           0       -2.063049   -0.967569    0.124038
     25          6           0       -2.529421   -1.973272   -1.413405
     26          1           0       -3.608902   -2.164561   -1.441972
     27          1           0       -2.025107   -2.947096   -1.410768
     28          1           0       -2.266343   -1.465437   -2.348640
     29          6           0       -3.084626    0.653723    0.204902
     30          6           0       -2.320604   -2.013276    1.672085
     31          1           0       -3.366663   -2.319237    1.790189
     32          1           0       -2.026401   -1.470030    2.577006
     33          1           0       -1.710791   -2.922644    1.619902
     34          6           0       -2.593286    1.523291    1.382796
     35          1           0       -2.704167    1.009025    2.345958
     36          1           0       -3.183283    2.450200    1.441395
     37          1           0       -1.541239    1.798601    1.260322
     38          6           0       -4.575675    0.308812    0.416297
     39          1           0       -4.744252   -0.236981    1.352415
     40          1           0       -4.984019   -0.296205   -0.403369
     41          1           0       -5.173530    1.230533    0.465694
     42          6           0       -2.937266    1.457422   -1.105508
     43          1           0       -3.533302    2.380968   -1.052995
     44          1           0       -3.294120    0.893733   -1.977079
     45          1           0       -1.896225    1.747852   -1.281217
     46          1           0        4.891584   -1.367734   -0.865586
     47          1           0        4.851874    0.429598   -0.449396
 ---------------------------------------------------------------------
                    Distance matrix (angstroms):
                    1          2          3          4          5
     1  H    0.000000
     2  C    1.098291   0.000000
     3  C    3.489727   2.544470   0.000000
     4  C    3.458121   2.526824   2.552912   0.000000
     5  C    3.890251   2.915237   1.513491   1.529505   0.000000
     6  C    2.143581   1.544694   2.989212   1.536770   2.507111
     7  C    2.168997   1.539266   1.538997   2.959244   2.482828
     8  H    3.823511   2.815010   1.095996   2.825473   2.144163
     9  H    3.745313   2.746696   2.785569   1.099996   2.145103
    10  H    2.434925   2.157304   3.340094   2.153723   2.740450
    11  H    2.451333   2.163324   2.173927   3.364634   2.767405
    12  H    4.329906   3.501584   1.095200   3.493483   2.153113
    13  H    2.502860   2.158172   2.178441   3.952098   3.442473
    14  O    5.326688   4.332025   2.534495   2.481046   1.440314
    15  C    4.871627   4.061090   2.595977   2.593072   1.471249
    16  O    4.558626   3.780626   3.792014   1.420682   2.430645
    17  H    5.317781   4.437684   3.913335   1.920783   2.478259
    18  O    2.604865   2.392528   4.288207   2.466622   3.784860
    19  C    3.745784   3.666581   5.349215   3.205844   4.545552
    20  H    4.523855   4.220328   5.446035   3.028133   4.394202
    21  H    4.279450   4.345849   6.251225   4.136391   5.540198
    22  H    3.755556   3.860481   5.534899   3.646929   4.747743
    23  O    2.080478   1.421476   2.956893   2.940194   3.485755
    24  Si   2.902508   2.809349   4.431310   4.581837   5.148854
    25  C    3.074307   3.414587   4.957604   5.740685   5.978819
    26  H    4.063991   4.465218   6.016049   6.748298   7.044829
    27  H    3.448355   3.602767   4.583636   5.846773   5.806898
    28  H    2.578239   3.237642   5.066695   5.728189   5.984793
    29  C    3.680876   3.865489   5.944159   5.346565   6.315147
    30  C    4.576535   4.171413   4.909103   5.339974   5.733423
    31  H    5.359729   5.102476   5.944293   6.409911   6.818965
    32  H    5.017777   4.469005   5.074942   5.126272   5.664507
    33  H    4.753151   4.235274   4.434559   5.351298   5.448564
    34  C    4.383702   4.290299   6.142234   5.011427   6.206624
    35  H    5.054855   4.783598   6.270215   5.285399   6.393580
    36  H    5.168838   5.195422   7.159354   5.830424   7.121996
    37  H    3.916491   3.696006   5.501775   4.059244   5.361138
    38  C    5.008864   5.260185   7.209743   6.828670   7.725530
    39  H    5.622458   5.695007   7.349269   7.077125   7.916646
    40  H    5.068477   5.466397   7.428124   7.342191   8.099471
    41  H    5.708383   6.022869   8.096745   7.456247   8.483164
    42  C    3.294388   3.851595   6.284479   5.527953   6.538424
    43  H    4.284813   4.841817   7.284804   6.285443   7.417441
    44  H    3.313903   4.077872   6.504469   6.108938   6.937992
    45  H    2.618007   3.175399   5.675490   4.700272   5.758729
    46  H    5.278890   4.552174   2.803996   3.549394   2.218886
    47  H    5.209879   4.502281   3.534679   2.795910   2.223796
                    6          7          8          9         10
     6  C    0.000000
     7  C    2.538751   0.000000
     8  H    3.397372   2.167100   0.000000
     9  H    2.143850   3.317724   2.611369   0.000000
    10  H    1.103388   2.760996   4.022028   3.049633   0.000000
    11  H    2.800442   1.099012   3.074771   3.998139   2.568546
    12  H    3.975743   2.188013   1.767807   3.784290   4.141685
    13  H    3.480686   1.095283   2.489734   4.128947   3.754551
    14  O    3.790484   3.817539   2.913055   2.878129   3.969716
    15  C    3.444074   3.439358   3.418085   3.420927   3.221629
    16  O    2.425580   4.254819   4.122369   2.075053   2.665539
    17  H    3.241862   4.690699   4.165216   2.342753   3.498619
    18  O    1.416489   3.759958   4.488599   2.697180   2.065320
    19  C    2.404330   4.891099   5.674571   3.630065   2.517729
    20  H    2.767423   5.286785   5.753802   3.458798   2.889517
    21  H    3.297384   5.710827   6.472523   4.369415   3.513184
    22  H    2.659004   4.922336   6.043633   4.303238   2.301345
    23  O    2.421541   2.415553   2.662172   2.584192   3.356569
    24  Si   3.920893   3.724315   3.974409   4.093365   4.798202
    25  C    4.848264   3.875775   4.717236   5.505592   5.433220
    26  H    5.845024   4.969848   5.701104   6.440026   6.448551
    27  H    5.130229   3.615335   4.326478   5.633060   5.669727
    28  H    4.614152   3.748000   5.057877   5.688251   5.010376
    29  C    4.493960   5.170884   5.573877   4.863191   5.342000
    30  C    5.175840   4.714673   4.080666   4.559496   6.160369
    31  H    6.158023   5.658031   5.122628   5.628079   7.124181
    32  H    5.184179   5.117137   4.172662   4.197264   6.244704
    33  H    5.340013   4.408305   3.537248   4.621718   6.263377
    34  C    4.454094   5.675901   5.702722   4.379018   5.405345
    35  H    5.008232   6.018696   5.657277   4.466831   6.043252
    36  H    5.210853   6.644238   6.766028   5.256183   6.079189
    37  H    3.558493   5.121578   5.167808   3.496466   4.513162
    38  C    6.019102   6.430907   6.734108   6.265868   6.854735
    39  H    6.477481   6.757168   6.725593   6.374169   7.403753
    40  H    6.420044   6.502611   7.008539   6.866686   7.164978
    41  H    6.602746   7.300788   7.658806   6.913872   7.401017
    42  C    4.335498   5.246730   6.176572   5.333675   4.928719
    43  H    5.114330   6.283263   7.173132   6.080301   5.663515
    44  H    4.817866   5.293104   6.458682   5.999747   5.281553
    45  H    3.411037   4.643337   5.709391   4.664084   3.920691
    46  H    4.206153   3.597798   3.727533   4.334980   3.871022
    47  H    3.552957   4.151654   4.336802   3.751397   3.141665
                   11         12         13         14         15
    11  H    0.000000
    12  H    2.502916   0.000000
    13  H    1.764500   2.544635   0.000000
    14  O    4.043308   2.724566   4.675268   0.000000
    15  C    3.270146   2.702132   4.396052   1.444979   0.000000
    16  O    4.442743   4.580223   5.298808   2.772671   2.819773
    17  H    4.920109   4.566793   5.705714   2.284309   2.690796
    18  O    4.071879   5.325335   4.544156   4.929484   4.710714
    19  C    4.975222   6.318691   5.764219   5.500357   5.135978
    20  H    5.386547   6.379271   6.247867   5.093595   4.849341
    21  H    5.859701   7.260624   6.487279   6.497563   6.210033
    22  H    4.765340   6.406722   5.805878   5.747011   5.106484
    23  O    3.355625   3.960569   2.648190   4.727547   4.869467
    24  Si   4.627352   5.314931   3.518157   6.352850   6.535434
    25  C    4.557617   5.599046   3.238962   7.279167   7.208005
    26  H    5.636387   6.636435   4.292118   8.324724   8.296082
    27  H    4.315354   5.047868   2.747417   7.034006   6.989774
    28  H    4.194443   5.700293   3.206315   7.366579   7.083984
    29  C    5.914521   6.932168   5.167062   7.514101   7.645486
    30  C    5.769767   5.661190   4.399470   6.651731   7.190475
    31  H    6.683213   6.648124   5.226131   7.741587   8.271099
    32  H    6.188547   5.888993   5.004334   6.434449   7.132612
    33  H    5.481361   5.025759   3.973647   6.281398   6.861473
    34  C    6.452198   7.200719   5.903087   7.227327   7.529304
    35  H    6.907590   7.293281   6.188088   7.279097   7.778443
    36  H    7.347884   8.230629   6.899679   8.123368   8.383063
    37  H    5.835511   6.589237   5.535612   6.354281   6.619422
    38  C    7.204601   8.135036   6.235883   8.897065   9.092030
    39  H    7.636591   8.244536   6.518026   8.983856   9.340908
    40  H    7.217889   8.275715   6.153782   9.339281   9.436404
    41  H    8.017276   9.061805   7.185881   9.644910   9.815477
    42  C    5.736717   7.261711   5.331626   7.845925   7.701720
    43  H    6.729733   8.286675   6.417951   8.683509   8.542829
    44  H    5.700092   7.391517   5.204154   8.311321   8.059582
    45  H    5.026054   6.669921   4.922061   7.072234   6.826836
    46  H    3.247829   2.490202   4.402454   2.142852   1.090007
    47  H    3.859703   3.757384   5.183134   2.143849   1.087717
                   16         17         18         19         20
    16  O    0.000000
    17  H    0.973874   0.000000
    18  O    2.913577   3.819866   0.000000
    19  C    3.007206   3.952210   1.422427   0.000000
    20  H    2.376000   3.230213   2.091839   1.093577   0.000000
    21  H    3.954350   4.856363   2.021291   1.093294   1.790361
    22  H    3.438276   4.392648   2.088766   1.101358   1.786640
    23  O    4.243657   4.779472   2.795580   4.215030   4.698370
    24  Si   5.814078   6.366466   3.886890   5.258573   5.892999
    25  C    7.048695   7.640562   5.041251   6.351051   7.129779
    26  H    8.032479   8.630874   5.885307   7.156865   7.972603
    27  H    7.226522   7.722248   5.588029   6.936253   7.634208
    28  H    6.966087   7.646105   4.798193   5.991688   6.860704
    29  C    6.282631   6.960888   3.818376   4.908643   5.646489
    30  C    6.569664   6.889993   5.250858   6.620752   7.043904
    31  H    7.622075   7.960673   6.123792   7.466938   7.948251
    32  H    6.220317   6.464506   5.149636   6.441020   6.726566
    33  H    6.656070   6.878441   5.689115   7.091174   7.457773
    34  C    5.705581   6.318698   3.545887   4.456957   4.976890
    35  H    6.010942   6.482860   4.272733   5.239715   5.604530
    36  H    6.351022   6.999114   4.100241   4.731099   5.261919
    37  H    4.649006   5.291389   2.584450   3.471248   3.915215
    38  C    7.788354   8.427288   5.355236   6.388813   7.129721
    39  H    8.065531   8.603797   5.901613   7.000454   7.630129
    40  H    8.393157   9.055959   5.890578   6.961117   7.783610
    41  H    8.279845   8.956289   5.742148   6.588509   7.338397
    42  C    6.339546   7.159179   3.514210   4.359454   5.295156
    43  H    6.932671   7.772982   4.078495   4.645628   5.570917
    44  H    7.022319   7.849365   4.221765   5.090242   6.085085
    45  H    5.425595   6.293555   2.538810   3.335784   4.315290
    46  H    3.899444   3.766393   5.553596   6.027937   5.831173
    47  H    2.502794   2.434656   4.644114   4.760388   4.349879
                   21         22         23         24         25
    21  H    0.000000
    22  H    1.784557   0.000000
    23  O    4.688321   4.711597   0.000000
    24  Si   5.435496   5.785966   1.685441   0.000000
    25  C    6.573104   6.599182   2.927514   1.895435   0.000000
    26  H    7.251215   7.434722   3.866225   2.504963   1.096671
    27  H    7.293238   7.146653   3.188332   2.505114   1.096664
    28  H    6.220002   6.075469   3.192931   2.530482   1.096253
    29  C    4.689162   5.536895   2.989119   1.918006   3.135008
    30  C    6.815125   7.293353   2.809547   1.885812   3.092807
    31  H    7.552628   8.139131   3.780780   2.510473   3.329216
    32  H    6.604859   7.236996   3.051925   2.504169   4.053352
    33  H    7.429770   7.693247   3.007379   2.486768   3.282136
    34  C    4.134089   5.320178   3.344369   2.840776   4.477585
    35  H    5.001761   6.167029   3.613194   3.042184   4.801817
    36  H    4.160649   5.592397   4.380301   3.830339   5.305141
    37  H    3.264118   4.398719   2.945144   3.035642   4.727827
    38  C    6.056760   7.004734   4.294035   2.833347   3.569716
    39  H    6.720519   7.706465   4.531882   3.038341   3.945877
    40  H    6.684219   7.446717   4.624089   3.043181   3.139710
    41  H    6.080595   7.217889   5.144336   3.824065   4.559242
    42  C    4.035759   4.758722   3.525506   2.855980   3.468544
    43  H    4.069634   5.066280   4.522727   3.841842   4.482977
    44  H    4.856465   5.305116   3.896347   3.065073   3.020300
    45  H    3.124175   3.677648   3.165367   3.062039   3.776927
    46  H    7.107509   5.881830   5.432355   7.036079   7.465795
    47  H    5.843641   4.639600   5.399727   7.077928   7.822187
                   26         27         28         29         30
    26  H    0.000000
    27  H    1.766845   0.000000
    28  H    1.764451   1.770060   0.000000
    29  C    3.306022   4.086425   3.417748   0.000000
    30  C    3.373418   3.234706   4.058239   3.138350   0.000000
    31  H    3.244914   3.527053   4.366873   3.381001   1.096266
    32  H    4.374799   4.252537   4.931489   3.355152   1.095698
    33  H    3.681384   3.047024   4.263967   4.084122   1.096150
    34  C    4.755107   5.301998   4.791973   1.544344   3.558841
    35  H    5.023804   5.497727   5.324838   2.203431   3.120181
    36  H    5.458111   6.213454   5.526062   2.183112   4.551928
    37  H    5.223435   5.467220   4.919789   2.192419   3.912463
    38  C    3.241202   4.521560   4.015700   1.544953   3.471951
    39  H    3.579551   4.730080   4.620275   2.205561   3.021834
    40  H    2.541731   4.098443   3.540755   2.209084   3.788089
    41  H    4.196893   5.557541   4.862146   2.182714   4.485183
    42  C    3.699063   4.508325   3.246324   1.544287   4.487877
    43  H    4.562768   5.548957   4.251907   2.183344   5.310939
    44  H    3.120671   4.084491   2.600013   2.205115   4.766008
    45  H    4.273883   4.698503   3.406113   2.194986   4.800851
    46  H    8.557185   7.115632   7.310603   8.297720   7.672819
    47  H    8.905032   7.721345   7.607056   7.966578   7.868466
                   31         32         33         34         35
    31  H    0.000000
    32  H    1.771027   0.000000
    33  H    1.770596   1.767978   0.000000
    34  C    3.940698   3.272227   4.538872   0.000000
    35  H    3.438765   2.580400   4.119706   1.097472   0.000000
    36  H    4.785689   4.242192   5.573827   1.100314   1.767702
    37  H    4.535363   3.557104   4.737953   1.094348   1.776074
    38  C    3.202488   3.785728   4.483139   2.517726   2.777847
    39  H    2.534795   3.225949   4.060323   2.779593   2.588746
    40  H    3.394141   4.359817   4.658951   3.495219   3.802650
    41  H    4.197609   4.653504   5.529162   2.753987   3.111625
    42  C    4.778347   4.791718   5.302554   2.512831   3.488268
    43  H    5.495761   5.502531   6.212425   2.748148   3.758001
    44  H    4.951843   5.285279   5.478133   3.489451   4.364629
    45  H    5.304426   5.025693   5.501310   2.762840   3.788804
    46  H    8.726806   7.727899   7.224040   8.332858   8.582449
    47  H    8.950765   7.751023   7.654286   7.744902   8.077345
                   36         37         38         39         40
    36  H    0.000000
    37  H    1.775860   0.000000
    38  C    2.752294   3.484200   0.000000
    39  H    3.108936   3.796231   1.096643   0.000000
    40  H    3.766768   4.359910   1.097562   1.773069   0.000000
    41  H    2.529953   3.761339   1.099746   1.767527   1.766950
    42  C    2.744603   2.768112   2.513877   3.489640   2.785212
    43  H    2.519779   3.107877   2.745759   3.755803   3.113495
    44  H    3.757770   3.791061   2.777186   3.803541   2.597744
    45  H    3.092317   2.566712   3.483079   4.357389   3.805688
    46  H    9.225089   7.478394   9.699640   9.952259   9.944313
    47  H    8.498333   6.757899   9.467983   9.786546   9.862743
                   41         42         43         44         45
    41  H    0.000000
    42  C    2.742450   0.000000
    43  H    2.514014   1.100433   0.000000
    44  H    3.100445   1.097600   1.767203   0.000000
    45  H    3.749673   1.094984   1.770012   1.779847   0.000000
    46  H   10.479972   8.326462   9.223155   8.564777   7.480239
    47  H   10.098892   7.884010   8.630374   8.300991   6.925789
                   46         47
    46  H    0.000000
    47  H    1.845317   0.000000
 Stoichiometry    C14H28O4Si
 Framework group  C1[X(C14H28O4Si)]
 Deg. of freedom   135
 Full point group                 C1      NOp   1
 Largest Abelian subgroup         C1      NOp   1
 Largest concise Abelian subgroup C1      NOp   1
                         Standard orientation:                         
 ---------------------------------------------------------------------
 Center     Atomic      Atomic             Coordinates (Angstroms)
 Number     Number       Type             X           Y           Z
 ---------------------------------------------------------------------
      1          1           0       -0.134451   -0.099023   -1.863597
      2          6           0        0.451975   -0.367600   -0.974657
      3          6           0        2.253424   -1.942363   -0.109076
      4          6           0        2.248108    0.519894    0.565180
      5          6           0        3.078676   -0.722366    0.239094
      6          6           0        1.328462    0.853868   -0.619883
      7          6           0        1.325845   -1.595620   -1.287158
      8          1           0        1.650179   -2.234850    0.757962
      9          1           0        1.607762    0.288443    1.429112
     10          1           0        1.961861    1.083165   -1.493779
     11          1           0        1.924260   -1.390126   -2.185767
     12          1           0        2.908509   -2.784808   -0.355274
     13          1           0        0.673398   -2.443261   -1.522661
     14          8           0        4.212267   -0.894298    1.110825
     15          6           0        4.447692   -0.565302   -0.276367
     16          8           0        3.087370    1.627523    0.860367
     17          1           0        3.719820    1.297797    1.523479
     18          8           0        0.463063    1.945826   -0.364634
     19          6           0        1.010475    3.237012   -0.602282
     20          1           0        1.802450    3.480486    0.111446
     21          1           0        0.182860    3.943335   -0.495259
     22          1           0        1.413360    3.314371   -1.624382
     23          8           0       -0.404589   -0.667236    0.119468
     24         14           0       -2.063049   -0.967569    0.124038
     25          6           0       -2.529421   -1.973272   -1.413405
     26          1           0       -3.608902   -2.164561   -1.441972
     27          1           0       -2.025107   -2.947096   -1.410768
     28          1           0       -2.266343   -1.465437   -2.348640
     29          6           0       -3.084626    0.653723    0.204902
     30          6           0       -2.320604   -2.013276    1.672085
     31          1           0       -3.366663   -2.319237    1.790189
     32          1           0       -2.026401   -1.470030    2.577006
     33          1           0       -1.710791   -2.922644    1.619902
     34          6           0       -2.593286    1.523291    1.382796
     35          1           0       -2.704167    1.009025    2.345958
     36          1           0       -3.183283    2.450200    1.441395
     37          1           0       -1.541239    1.798601    1.260322
     38          6           0       -4.575675    0.308812    0.416297
     39          1           0       -4.744252   -0.236981    1.352415
     40          1           0       -4.984019   -0.296205   -0.403369
     41          1           0       -5.173530    1.230533    0.465694
     42          6           0       -2.937266    1.457422   -1.105508
     43          1           0       -3.533302    2.380968   -1.052995
     44          1           0       -3.294120    0.893733   -1.977079
     45          1           0       -1.896225    1.747852   -1.281217
     46          1           0        4.891584   -1.367734   -0.865586
     47          1           0        4.851874    0.429598   -0.449396
 ---------------------------------------------------------------------
 Rotational constants (GHZ):      0.5694183      0.2223507      0.1885437
 Standard basis: 6-31+G(d,p) (6D, 7F)
 There are   505 symmetry adapted basis functions of A   symmetry.
 Integral buffers will be    131072 words long.
 Raffenetti 2 integral format.
 Two-electron integral symmetry is turned on.
   505 basis functions,   828 primitive gaussians,   505 cartesian basis functions
    79 alpha electrons       79 beta electrons
       nuclear repulsion energy      1830.1979465220 Hartrees.
 NAtoms=   47 NActive=   47 NUniq=   47 SFac= 1.00D+00 NAtFMM=   60 NAOKFM=F Big=F
 ------------------------------------------------------------------------------
 Polarizable Continuum Model (PCM)
 =================================
 Model                : PCM.
 Atomic radii         : UFF (Universal Force Field).
 Polarization charges : Total charges.
 Charge compensation  : None.
 Solution method      : Matrix inversion.
 Cavity type          : Scaled VdW (van der Waals Surface) (Alpha=1.100).
 Cavity algorithm     : GePol (No added spheres)
                        Default sphere list used, NSphG=   47.
                        Lebedev-Laikov grids with approx.  5.0 points / Ang**2.
                        Smoothing algorithm: Karplus/York (Gamma=1.0000).
                        Polarization charges: spherical gaussians, with
                                              point-specific exponents (IZeta= 3).
                        Self-potential: point-specific (ISelfS= 7).
                        Self-field    : sphere-specific E.n sum rule (ISelfD= 2).
 Solvent              : Chloroform, Eps=   4.711300 Eps(inf)=   2.090627
 ------------------------------------------------------------------------------
 One-electron integrals computed using PRISM.
 NBasis=   505 RedAO= T  NBF=   505
 NBsUse=   505 1.00D-06 NBFU=   505
 Harris functional with IExCor=  908 diagonalized for initial guess.
 ExpMin= 3.31D-02 ExpMax= 1.61D+04 ExpMxC= 2.43D+03 IAcc=3 IRadAn=         5 AccDes= 0.00D+00
 HarFok:  IExCor=  908 AccDes= 0.00D+00 IRadAn=         5 IDoV= 1
 ScaDFX=  1.000000  1.000000  1.000000  1.000000
 FoFCou: FMM=F IPFlag=           0 FMFlag=      100000 FMFlg1=           0
         NFxFlg=           0 DoJE=T BraDBF=F KetDBF=T FulRan=T
         Omega=  0.000000  0.000000  1.000000  0.000000  0.000000 ICntrl=     500 IOpCl=  0
         NMat0=    1 NMatS0=    1 NMatT0=    0 NMatD0=    1 NMtDS0=    0 NMtDT0=    0
         I1Cent=           4 NGrid=           0.
 Petite list used in FoFCou.
 Initial guess orbital symmetries:
       Occupied  (A) (A) (A) (A) (A) (A) (A) (A) (A) (A) (A) (A)
                 (A) (A) (A) (A) (A) (A) (A) (A) (A) (A) (A) (A)
                 (A) (A) (A) (A) (A) (A) (A) (A) (A) (A) (A) (A)
                 (A) (A) (A) (A) (A) (A) (A) (A) (A) (A) (A) (A)
                 (A) (A) (A) (A) (A) (A) (A) (A) (A) (A) (A) (A)
                 (A) (A) (A) (A) (A) (A) (A) (A) (A) (A) (A) (A)
                 (A) (A) (A) (A) (A) (A) (A)
       Virtual   (A) (A) (A) (A) (A) (A) (A) (A) (A) (A) (A) (A)
                 (A) (A) (A) (A) (A) (A) (A) (A) (A) (A) (A) (A)
                 (A) (A) (A) (A) (A) (A) (A) (A) (A) (A) (A) (A)
                 (A) (A) (A) (A) (A) (A) (A) (A) (A) (A) (A) (A)
                 (A) (A) (A) (A) (A) (A) (A) (A) (A) (A) (A) (A)
                 (A) (A) (A) (A) (A) (A) (A) (A) (A) (A) (A) (A)
                 (A) (A) (A) (A) (A) (A) (A) (A) (A) (A) (A) (A)
                 (A) (A) (A) (A) (A) (A) (A) (A) (A) (A) (A) (A)
                 (A) (A) (A) (A) (A) (A) (A) (A) (A) (A) (A) (A)
                 (A) (A) (A) (A) (A) (A) (A) (A) (A) (A) (A) (A)
                 (A) (A) (A) (A) (A) (A) (A) (A) (A) (A) (A) (A)
                 (A) (A) (A) (A) (A) (A) (A) (A) (A) (A) (A) (A)
                 (A) (A) (A) (A) (A) (A) (A) (A) (A) (A) (A) (A)
                 (A) (A) (A) (A) (A) (A) (A) (A) (A) (A) (A) (A)
                 (A) (A) (A) (A) (A) (A) (A) (A) (A) (A) (A) (A)
                 (A) (A) (A) (A) (A) (A) (A) (A) (A) (A) (A) (A)
                 (A) (A) (A) (A) (A) (A) (A) (A) (A) (A) (A) (A)
                 (A) (A) (A) (A) (A) (A) (A) (A) (A) (A) (A) (A)
                 (A) (A) (A) (A) (A) (A) (A) (A) (A) (A) (A) (A)
                 (A) (A) (A) (A) (A) (A) (A) (A) (A) (A) (A) (A)
                 (A) (A) (A) (A) (A) (A) (A) (A) (A) (A) (A) (A)
                 (A) (A) (A) (A) (A) (A) (A) (A) (A) (A) (A) (A)
                 (A) (A) (A) (A) (A) (A) (A) (A) (A) (A) (A) (A)
                 (A) (A) (A) (A) (A) (A) (A) (A) (A) (A) (A) (A)
                 (A) (A) (A) (A) (A) (A) (A) (A) (A) (A) (A) (A)
                 (A) (A) (A) (A) (A) (A) (A) (A) (A) (A) (A) (A)
                 (A) (A) (A) (A) (A) (A) (A) (A) (A) (A) (A) (A)
                 (A) (A) (A) (A) (A) (A) (A) (A) (A) (A) (A) (A)
                 (A) (A) (A) (A) (A) (A) (A) (A) (A) (A) (A) (A)
                 (A) (A) (A) (A) (A) (A) (A) (A) (A) (A) (A) (A)
                 (A) (A) (A) (A) (A) (A) (A) (A) (A) (A) (A) (A)
                 (A) (A) (A) (A) (A) (A) (A) (A) (A) (A) (A) (A)
                 (A) (A) (A) (A) (A) (A) (A) (A) (A) (A) (A) (A)
                 (A) (A) (A) (A) (A) (A) (A) (A) (A) (A) (A) (A)
                 (A) (A) (A) (A) (A) (A) (A) (A) (A) (A) (A) (A)
                 (A) (A) (A) (A) (A) (A)
 The electronic state of the initial guess is 1-A.
 Requested convergence on RMS density matrix=1.00D-08 within 128 cycles.
 Requested convergence on MAX density matrix=1.00D-06.
 Requested convergence on             energy=1.00D-06.
 No special actions if energy rises.
 Error on total polarization charges =  0.01535
 SCF Done:  E(RmPW1PW91) =  -1140.62358328     A.U. after   13 cycles
             Convg  =    0.5011D-08             -V/T =  2.0080
 Range of M.O.s used for correlation:     1   505
 NBasis=   505 NAE=    79 NBE=    79 NFC=     0 NFV=     0
 NROrb=    505 NOA=    79 NOB=    79 NVA=   426 NVB=   426

 **** Warning!!: The largest alpha MO coefficient is  0.90660932D+02

 NEqPCM:  Using equilibrium solvation (IEInf=0, Eps=   4.7113, EpsInf=   2.0906)
          Differentiating once with respect to magnetic field using GIAOs.
          Electric field/nuclear overlap derivatives assumed to be zero.
 FoFCou: FMM=F IPFlag=           0 FMFlag=    10101102 FMFlg1=           0
         NFxFlg=    40000000 DoJE=F BraDBF=F KetDBF=T FulRan=T
         Omega=  0.000000  0.000000  1.000000  0.000000  0.000000 ICntrl=    6100 IOpCl=  0
         NMat0=    1 NMatS0=    1 NMatT0=    0 NMatD0=    1 NMtDS0=    0 NMtDT0=    0
         I1Cent=           7 NGrid=        2984.
 Symmetry not used in FoFCou.
          There are     3 degrees of freedom in the 1st order CPHF.  IDoFFX=0.
      3 vectors produced by pass  0 Test12= 1.12D-12 3.33D-08 XBig12= 1.85D+02 2.42D+00.
 AX will form     3 AO Fock derivatives at one time.
      3 vectors produced by pass  1 Test12= 1.12D-12 3.33D-08 XBig12= 4.73D-01 1.20D-01.
      3 vectors produced by pass  2 Test12= 1.12D-12 3.33D-08 XBig12= 1.12D-03 6.15D-03.
      3 vectors produced by pass  3 Test12= 1.12D-12 3.33D-08 XBig12= 5.22D-06 2.94D-04.
      3 vectors produced by pass  4 Test12= 1.12D-12 3.33D-08 XBig12= 2.03D-08 1.56D-05.
      3 vectors produced by pass  5 Test12= 1.12D-12 3.33D-08 XBig12= 5.20D-11 1.06D-06.
      3 vectors produced by pass  6 Test12= 1.12D-12 3.33D-08 XBig12= 1.92D-13 4.55D-08.
 Inverted reduced A of dimension    21 with in-core refinement.
 Calculating GIAO nuclear magnetic shielding tensors.
 SCF GIAO Magnetic shielding tensor (ppm):
      1  H    Isotropic =    27.3120   Anisotropy =     3.2712
   XX=    28.8020   YX=     0.2839   ZX=    -1.4625
   XY=    -0.0422   YY=    24.2082   ZY=    -1.2303
   XZ=     0.7281   YZ=    -1.4392   ZZ=    28.9258
   Eigenvalues:    23.8566    28.5866    29.4928
      2  C    Isotropic =   121.6503   Anisotropy =    36.6371
   XX=   123.3709   YX=     9.6405   ZX=   -24.8207
   XY=     2.1905   YY=   121.2121   ZY=     0.2134
   XZ=   -19.5829   YZ=    -7.9526   ZZ=   120.3680
   Eigenvalues:    99.5455   119.3305   146.0751
      3  C    Isotropic =   168.4977   Anisotropy =    29.5682
   XX=   170.1103   YX=     5.0200   ZX=    13.5666
   XY=     6.6631   YY=   180.0309   ZY=     9.0203
   XZ=     9.1208   YZ=     9.1172   ZZ=   155.3520
   Eigenvalues:   148.2574   169.0260   188.2099
      4  C    Isotropic =   122.7167   Anisotropy =    38.8622
   XX=   122.5612   YX=     7.9839   ZX=     6.2553
   XY=    17.8807   YY=   139.7930   ZY=     6.2948
   XZ=    11.2610   YZ=     4.6433   ZZ=   105.7959
   Eigenvalues:   102.0552   117.4701   148.6248
      5  C    Isotropic =   134.2352   Anisotropy =    59.8207
   XX=    94.4963   YX=    -6.9567   ZX=    20.1255
   XY=    -3.7974   YY=   172.9775   ZY=    10.3805
   XZ=    24.9453   YZ=     2.7019   ZZ=   135.2319
   Eigenvalues:    83.8438   144.7462   174.1157
      6  C    Isotropic =   111.1003   Anisotropy =    43.0705
   XX=   111.7809   YX=   -13.6705   ZX=    -2.5319
   XY=   -20.6442   YY=   126.0043   ZY=     7.1860
   XZ=   -12.6590   YZ=     7.1608   ZZ=    95.5158
   Eigenvalues:    92.5125   100.9745   139.8140
      7  C    Isotropic =   163.1189   Anisotropy =    20.9694
   XX=   167.6558   YX=    -7.5706   ZX=    -7.9142
   XY=   -10.1981   YY=   164.9607   ZY=     6.9013
   XZ=    -1.6130   YZ=     0.6087   ZZ=   156.7401
   Eigenvalues:   154.9107   157.3474   177.0985
      8  H    Isotropic =    29.1930   Anisotropy =     6.1583
   XX=    30.6965   YX=     0.6613   ZX=    -1.0189
   XY=     1.6905   YY=    28.6518   ZY=    -4.2430
   XZ=    -1.3857   YZ=    -3.2889   ZZ=    28.2309
   Eigenvalues:    24.6688    29.6118    33.2986
      9  H    Isotropic =    27.1159   Anisotropy =     6.3191
   XX=    29.6813   YX=     3.0076   ZX=    -0.3568
   XY=     2.9218   YY=    25.9816   ZY=    -0.1312
   XZ=    -0.4719   YZ=     1.1149   ZZ=    25.6849
   Eigenvalues:    24.0873    25.9318    31.3287
     10  H    Isotropic =    28.5306   Anisotropy =     3.4074
   XX=    28.7132   YX=    -0.7211   ZX=    -1.1851
   XY=    -2.9671   YY=    29.1719   ZY=     0.2568
   XZ=    -1.3509   YZ=    -2.3455   ZZ=    27.7067
   Eigenvalues:    25.7242    29.0653    30.8022
     11  H    Isotropic =    30.0642   Anisotropy =     8.8496
   XX=    29.8959   YX=    -1.0787   ZX=    -3.0347
   XY=    -0.8946   YY=    26.1477   ZY=     2.1757
   XZ=    -2.5102   YZ=     1.5240   ZZ=    34.1490
   Eigenvalues:    25.6989    28.5298    35.9639
     12  H    Isotropic =    30.5284   Anisotropy =    11.0061
   XX=    30.5079   YX=    -3.5085   ZX=     0.6090
   XY=    -3.5038   YY=    35.9140   ZY=     2.2767
   XZ=     0.6193   YZ=     2.0807   ZZ=    25.1634
   Eigenvalues:    24.4241    29.2954    37.8659
     13  H    Isotropic =    29.8373   Anisotropy =     8.6188
   XX=    31.8548   YX=     1.2795   ZX=     2.1599
   XY=     2.5975   YY=    31.0167   ZY=     3.9748
   XZ=     2.3934   YZ=     4.0264   ZZ=    26.6405
   Eigenvalues:    24.1316    29.7972    35.5832
     14  O    Isotropic =   314.5380   Anisotropy =   110.9969
   XX=   355.0954   YX=    15.8545   ZX=   -39.9113
   XY=     9.9303   YY=   378.1748   ZY=    47.1592
   XZ=   -60.6295   YZ=    38.6434   ZZ=   210.3440
   Eigenvalues:   184.2517   370.8265   388.5360
     15  C    Isotropic =   146.1768   Anisotropy =    33.6328
   XX=   115.1943   YX=    -2.3463   ZX=    17.2660
   XY=    -5.6560   YY=   164.5701   ZY=     1.2577
   XZ=    16.7262   YZ=     9.4119   ZZ=   158.7661
   Eigenvalues:   108.8002   161.1315   168.5987
     16  O    Isotropic =   312.0139   Anisotropy =    45.7586
   XX=   331.2667   YX=    23.5102   ZX=    26.4528
   XY=   -12.3284   YY=   290.4848   ZY=   -13.8719
   XZ=     8.1537   YZ=   -21.2034   ZZ=   314.2903
   Eigenvalues:   277.7886   315.7336   342.5197
     17  H    Isotropic =    29.5985   Anisotropy =    17.3216
   XX=    29.9752   YX=    -3.2347   ZX=    11.1104
   XY=    -1.7019   YY=    29.1538   ZY=     0.1533
   XZ=    11.2815   YZ=     1.3515   ZZ=    29.6665
   Eigenvalues:    18.1530    29.4962    41.1463
     18  O    Isotropic =   294.9712   Anisotropy =    71.2103
   XX=   324.2088   YX=   -36.4662   ZX=   -10.6367
   XY=   -21.2990   YY=   283.2236   ZY=     2.8496
   XZ=   -17.9811   YZ=     5.6449   ZZ=   277.4813
   Eigenvalues:   267.2274   275.2415   342.4448
     19  C    Isotropic =   136.5252   Anisotropy =    86.0521
   XX=   114.2666   YX=    23.2815   ZX=    -5.8487
   XY=    21.3884   YY=   184.9555   ZY=   -14.2570
   XZ=    -7.0600   YZ=   -11.9149   ZZ=   110.3535
   Eigenvalues:   105.3168   110.3655   193.8933
     20  H    Isotropic =    27.2664   Anisotropy =     8.6758
   XX=    26.8868   YX=     1.6822   ZX=     3.3755
   XY=     3.0624   YY=    31.8884   ZY=     1.4024
   XZ=     2.3740   YZ=    -0.6754   ZZ=    23.0241
   Eigenvalues:    21.4272    27.3218    33.0503
     21  H    Isotropic =    27.9121   Anisotropy =    10.1872
   XX=    26.3902   YX=     0.2857   ZX=    -0.4592
   XY=    -2.7459   YY=    34.4463   ZY=    -0.6445
   XZ=    -0.2365   YZ=    -1.3431   ZZ=    22.8999
   Eigenvalues:    22.7570    26.2758    34.7036
     22  H    Isotropic =    28.3804   Anisotropy =     9.9694
   XX=    26.3247   YX=     1.8909   ZX=    -1.6886
   XY=     3.1291   YY=    30.6678   ZY=    -5.8802
   XZ=    -1.0441   YZ=    -3.1745   ZZ=    28.1488
   Eigenvalues:    24.5187    25.5960    35.0267
     23  O    Isotropic =   287.8296   Anisotropy =    23.7840
   XX=   290.7107   YX=     4.3120   ZX=     5.7730
   XY=    14.6403   YY=   294.2220   ZY=     3.1884
   XZ=     5.5274   YZ=     3.7427   ZZ=   278.5561
   Eigenvalues:   276.3304   283.4729   303.6856
     24  Si   Isotropic =   381.1060   Anisotropy =    30.6427
   XX=   399.2284   YX=     8.2036   ZX=     5.5827
   XY=     6.6708   YY=   375.6627   ZY=    -1.0184
   XZ=    -7.5904   YZ=    -8.2077   ZZ=   368.4269
   Eigenvalues:   365.9915   375.7921   401.5345
     25  C    Isotropic =   201.2321   Anisotropy =     6.4195
   XX=   204.2576   YX=    -1.9833   ZX=     0.3030
   XY=    -2.4892   YY=   199.3784   ZY=     5.4113
   XZ=    -0.1626   YZ=     1.6771   ZZ=   200.0602
   Eigenvalues:   195.8041   202.3804   205.5117
     26  H    Isotropic =    31.6210   Anisotropy =    10.6969
   XX=    37.6283   YX=     2.5879   ZX=     1.8445
   XY=     2.2926   YY=    29.3187   ZY=     2.2472
   XZ=     1.5149   YZ=     2.1950   ZZ=    27.9161
   Eigenvalues:    26.2874    29.8234    38.7523
     27  H    Isotropic =    31.6256   Anisotropy =     9.8422
   XX=    30.1408   YX=    -2.8777   ZX=     0.2563
   XY=    -2.8226   YY=    36.7407   ZY=     2.0614
   XZ=    -0.0620   YZ=     2.2267   ZZ=    27.9951
   Eigenvalues:    27.2427    29.4469    38.1871
     28  H    Isotropic =    31.1706   Anisotropy =     7.7122
   XX=    28.3648   YX=     1.1700   ZX=    -0.7812
   XY=     1.1157   YY=    29.2517   ZY=    -0.9434
   XZ=    -0.8825   YZ=    -1.8329   ZZ=    35.8954
   Eigenvalues:    27.5811    29.6187    36.3121
     29  C    Isotropic =   171.3829   Anisotropy =     7.9011
   XX=   175.0719   YX=     3.1906   ZX=    -1.4391
   XY=     2.3561   YY=   171.4858   ZY=    -0.5290
   XZ=    -0.2930   YZ=     0.4087   ZZ=   167.5910
   Eigenvalues:   167.4706   170.0278   176.6503
     30  C    Isotropic =   198.7673   Anisotropy =     7.8554
   XX=   201.9844   YX=    -0.8004   ZX=    -1.0215
   XY=     0.7554   YY=   194.0980   ZY=    -5.3257
   XZ=    -2.8523   YZ=    -3.4564   ZZ=   200.2196
   Eigenvalues:   191.7222   200.5755   204.0042
     31  H    Isotropic =    31.6336   Anisotropy =    10.8217
   XX=    36.4092   YX=     3.2385   ZX=    -2.6991
   XY=     3.0721   YY=    30.0084   ZY=    -2.7445
   XZ=    -2.4543   YZ=    -2.6486   ZZ=    28.4833
   Eigenvalues:    26.4403    29.6125    38.8481
     32  H    Isotropic =    31.1958   Anisotropy =     8.4034
   XX=    27.5292   YX=     0.8204   ZX=     1.3503
   XY=     0.6771   YY=    29.8457   ZY=     0.9977
   XZ=     1.6356   YZ=     1.8456   ZZ=    36.2124
   Eigenvalues:    27.1747    29.6146    36.7980
     33  H    Isotropic =    31.5545   Anisotropy =     9.6241
   XX=    30.6011   YX=    -3.9815   ZX=    -0.6775
   XY=    -3.7766   YY=    35.5305   ZY=    -2.1338
   XZ=    -0.1598   YZ=    -2.1797   ZZ=    28.5319
   Eigenvalues:    26.9586    29.7343    37.9706
     34  C    Isotropic =   171.0647   Anisotropy =    36.9447
   XX=   163.5297   YX=     3.6324   ZX=     9.5035
   XY=     7.1524   YY=   169.2327   ZY=    16.9301
   XZ=    12.5778   YZ=    13.6155   ZZ=   180.4319
   Eigenvalues:   156.9606   160.5391   195.6945
     35  H    Isotropic =    30.6101   Anisotropy =     8.4014
   XX=    26.6894   YX=    -0.7305   ZX=     0.1287
   XY=    -0.3188   YY=    28.9421   ZY=     0.4512
   XZ=    -0.3313   YZ=    -1.0312   ZZ=    36.1988
   Eigenvalues:    26.5705    29.0488    36.2111
     36  H    Isotropic =    31.1309   Anisotropy =     9.1261
   XX=    29.3943   YX=    -2.3471   ZX=    -0.7267
   XY=    -2.7925   YY=    34.6392   ZY=     3.0503
   XZ=    -1.1755   YZ=     3.6460   ZZ=    29.3593
   Eigenvalues:    27.6549    28.5230    37.2150
     37  H    Isotropic =    29.6201   Anisotropy =    10.1863
   XX=    35.5409   YX=     2.3283   ZX=    -1.3920
   XY=     3.3594   YY=    27.1149   ZY=     2.1456
   XZ=    -0.0865   YZ=     2.5629   ZZ=    26.2045
   Eigenvalues:    23.7571    28.6923    36.4109
     38  C    Isotropic =   168.9014   Anisotropy =    41.5150
   XX=   192.6517   YX=    12.6215   ZX=    -6.2188
   XY=     8.0983   YY=   158.9145   ZY=    -2.1968
   XZ=    -5.7261   YZ=    -2.8491   ZZ=   155.1381
   Eigenvalues:   153.8447   156.2814   196.5781
     39  H    Isotropic =    30.7116   Anisotropy =     9.1549
   XX=    32.4264   YX=     1.4189   ZX=    -4.5974
   XY=     0.8977   YY=    29.1217   ZY=    -3.8618
   XZ=    -2.9696   YZ=    -3.5033   ZZ=    30.5866
   Eigenvalues:    25.6544    29.6654    36.8148
     40  H    Isotropic =    30.7469   Anisotropy =     9.1436
   XX=    34.2728   YX=     2.6531   ZX=     3.3473
   XY=     2.0700   YY=    29.4338   ZY=     3.2971
   XZ=     1.8787   YZ=     2.7827   ZZ=    28.5340
   Eigenvalues:    25.8813    29.5168    36.8426
     41  H    Isotropic =    30.9627   Anisotropy =    10.0144
   XX=    35.3742   YX=    -4.5959   ZX=    -0.9951
   XY=    -3.1697   YY=    30.5309   ZY=     0.4447
   XZ=    -1.0084   YZ=     0.4151   ZZ=    26.9831
   Eigenvalues:    26.8648    28.3844    37.6390
     42  C    Isotropic =   170.8366   Anisotropy =    35.3751
   XX=   158.4913   YX=     0.1395   ZX=    -2.9740
   XY=     1.4653   YY=   167.6465   ZY=   -16.1227
   XZ=    -6.5272   YZ=   -11.8446   ZZ=   186.3721
   Eigenvalues:   157.1503   160.9396   194.4200
     43  H    Isotropic =    31.0717   Anisotropy =     9.1537
   XX=    29.9413   YX=    -3.2795   ZX=     0.7213
   XY=    -3.5738   YY=    34.3066   ZY=    -2.3654
   XZ=     1.2108   YZ=    -3.0598   ZZ=    28.9671
   Eigenvalues:    27.5861    28.4547    37.1742
     44  H    Isotropic =    30.6592   Anisotropy =     7.9571
   XX=    27.4881   YX=    -0.6010   ZX=     2.1920
   XY=    -0.5673   YY=    29.2566   ZY=     0.0154
   XZ=     2.5665   YZ=     1.6106   ZZ=    35.2328
   Eigenvalues:    26.5826    29.4311    35.9639
     45  H    Isotropic =    29.6871   Anisotropy =    10.2323
   XX=    35.3546   YX=     1.5719   ZX=    -1.1608
   XY=     2.6189   YY=    27.0622   ZY=    -2.8159
   XZ=    -2.4834   YZ=    -3.1240   ZZ=    26.6444
   Eigenvalues:    23.8751    28.6775    36.5086
     46  H    Isotropic =    29.0449   Anisotropy =    10.8268
   XX=    28.6920   YX=    -0.5905   ZX=    -3.2202
   XY=    -4.5703   YY=    28.9814   ZY=     4.5686
   XZ=    -4.9685   YZ=     3.4785   ZZ=    29.4613
   Eigenvalues:    24.6058    26.2662    36.2628
     47  H    Isotropic =    28.4370   Anisotropy =     7.9668
   XX=    28.6015   YX=     0.4055   ZX=    -4.0813
   XY=     4.0876   YY=    31.6374   ZY=    -2.1191
   XZ=    -2.8274   YZ=    -0.2263   ZZ=    25.0721
   Eigenvalues:    22.9540    28.6088    33.7482
 End of Minotr Frequency-dependent properties file   721 does not exist.
 End of Minotr Frequency-dependent properties file   722 does not exist.

 **********************************************************************

            Population analysis using the SCF density.

 **********************************************************************

 Orbital symmetries:
       Occupied  (A) (A) (A) (A) (A) (A) (A) (A) (A) (A) (A) (A)
                 (A) (A) (A) (A) (A) (A) (A) (A) (A) (A) (A) (A)
                 (A) (A) (A) (A) (A) (A) (A) (A) (A) (A) (A) (A)
                 (A) (A) (A) (A) (A) (A) (A) (A) (A) (A) (A) (A)
                 (A) (A) (A) (A) (A) (A) (A) (A) (A) (A) (A) (A)
                 (A) (A) (A) (A) (A) (A) (A) (A) (A) (A) (A) (A)
                 (A) (A) (A) (A) (A) (A) (A)
       Virtual   (A) (A) (A) (A) (A) (A) (A) (A) (A) (A) (A) (A)
                 (A) (A) (A) (A) (A) (A) (A) (A) (A) (A) (A) (A)
                 (A) (A) (A) (A) (A) (A) (A) (A) (A) (A) (A) (A)
                 (A) (A) (A) (A) (A) (A) (A) (A) (A) (A) (A) (A)
                 (A) (A) (A) (A) (A) (A) (A) (A) (A) (A) (A) (A)
                 (A) (A) (A) (A) (A) (A) (A) (A) (A) (A) (A) (A)
                 (A) (A) (A) (A) (A) (A) (A) (A) (A) (A) (A) (A)
                 (A) (A) (A) (A) (A) (A) (A) (A) (A) (A) (A) (A)
                 (A) (A) (A) (A) (A) (A) (A) (A) (A) (A) (A) (A)
                 (A) (A) (A) (A) (A) (A) (A) (A) (A) (A) (A) (A)
                 (A) (A) (A) (A) (A) (A) (A) (A) (A) (A) (A) (A)
                 (A) (A) (A) (A) (A) (A) (A) (A) (A) (A) (A) (A)
                 (A) (A) (A) (A) (A) (A) (A) (A) (A) (A) (A) (A)
                 (A) (A) (A) (A) (A) (A) (A) (A) (A) (A) (A) (A)
                 (A) (A) (A) (A) (A) (A) (A) (A) (A) (A) (A) (A)
                 (A) (A) (A) (A) (A) (A) (A) (A) (A) (A) (A) (A)
                 (A) (A) (A) (A) (A) (A) (A) (A) (A) (A) (A) (A)
                 (A) (A) (A) (A) (A) (A) (A) (A) (A) (A) (A) (A)
                 (A) (A) (A) (A) (A) (A) (A) (A) (A) (A) (A) (A)
                 (A) (A) (A) (A) (A) (A) (A) (A) (A) (A) (A) (A)
                 (A) (A) (A) (A) (A) (A) (A) (A) (A) (A) (A) (A)
                 (A) (A) (A) (A) (A) (A) (A) (A) (A) (A) (A) (A)
                 (A) (A) (A) (A) (A) (A) (A) (A) (A) (A) (A) (A)
                 (A) (A) (A) (A) (A) (A) (A) (A) (A) (A) (A) (A)
                 (A) (A) (A) (A) (A) (A) (A) (A) (A) (A) (A) (A)
                 (A) (A) (A) (A) (A) (A) (A) (A) (A) (A) (A) (A)
                 (A) (A) (A) (A) (A) (A) (A) (A) (A) (A) (A) (A)
                 (A) (A) (A) (A) (A) (A) (A) (A) (A) (A) (A) (A)
                 (A) (A) (A) (A) (A) (A) (A) (A) (A) (A) (A) (A)
                 (A) (A) (A) (A) (A) (A) (A) (A) (A) (A) (A) (A)
                 (A) (A) (A) (A) (A) (A) (A) (A) (A) (A) (A) (A)
                 (A) (A) (A) (A) (A) (A) (A) (A) (A) (A) (A) (A)
                 (A) (A) (A) (A) (A) (A) (A) (A) (A) (A) (A) (A)
                 (A) (A) (A) (A) (A) (A) (A) (A) (A) (A) (A) (A)
                 (A) (A) (A) (A) (A) (A) (A) (A) (A) (A) (A) (A)
                 (A) (A) (A) (A) (A) (A)
 The electronic state is 1-A.
 Alpha  occ. eigenvalues --  -66.30263 -19.27048 -19.25458 -19.25135 -19.23233
 Alpha  occ. eigenvalues --  -10.31645 -10.31025 -10.30559 -10.30427 -10.30170
 Alpha  occ. eigenvalues --  -10.28119 -10.25443 -10.25420 -10.24353 -10.23384
 Alpha  occ. eigenvalues --  -10.22847 -10.22577 -10.22438 -10.22119  -5.33638
 Alpha  occ. eigenvalues --   -3.67555  -3.67283  -3.67218  -1.11591  -1.07400
 Alpha  occ. eigenvalues --   -1.05434  -1.03041  -0.84907  -0.81778  -0.77632
 Alpha  occ. eigenvalues --   -0.75079  -0.72077  -0.70247  -0.69957  -0.69689
 Alpha  occ. eigenvalues --   -0.69225  -0.69164  -0.63432  -0.62398  -0.58644
 Alpha  occ. eigenvalues --   -0.56180  -0.55066  -0.52634  -0.52071  -0.51609
 Alpha  occ. eigenvalues --   -0.48867  -0.47711  -0.47140  -0.46609  -0.45649
 Alpha  occ. eigenvalues --   -0.44383  -0.44195  -0.43763  -0.43483  -0.42688
 Alpha  occ. eigenvalues --   -0.41563  -0.41029  -0.40596  -0.40079  -0.39920
 Alpha  occ. eigenvalues --   -0.39702  -0.39024  -0.38692  -0.38402  -0.37476
 Alpha  occ. eigenvalues --   -0.36804  -0.36724  -0.35843  -0.34162  -0.33775
 Alpha  occ. eigenvalues --   -0.33142  -0.32721  -0.31618  -0.31091  -0.30611
 Alpha  occ. eigenvalues --   -0.29874  -0.28428  -0.26880  -0.25932
 Alpha virt. eigenvalues --   -0.00231   0.00570   0.01397   0.01558   0.02331
 Alpha virt. eigenvalues --    0.03028   0.03293   0.03778   0.03879   0.04968
 Alpha virt. eigenvalues --    0.05170   0.05216   0.05948   0.06097   0.06671
 Alpha virt. eigenvalues --    0.06775   0.06879   0.07405   0.08228   0.08336
 Alpha virt. eigenvalues --    0.08480   0.09012   0.09285   0.09460   0.09693
 Alpha virt. eigenvalues --    0.10005   0.10342   0.10704   0.10928   0.11812
 Alpha virt. eigenvalues --    0.11909   0.12379   0.12559   0.12739   0.12868
 Alpha virt. eigenvalues --    0.13534   0.13717   0.14343   0.14674   0.14856
 Alpha virt. eigenvalues --    0.15236   0.15478   0.16079   0.16213   0.16442
 Alpha virt. eigenvalues --    0.16792   0.17093   0.17513   0.17728   0.18220
 Alpha virt. eigenvalues --    0.18609   0.18830   0.19109   0.19502   0.19930
 Alpha virt. eigenvalues --    0.20085   0.20386   0.20616   0.21240   0.21454
 Alpha virt. eigenvalues --    0.21576   0.21913   0.22115   0.22565   0.22771
 Alpha virt. eigenvalues --    0.22932   0.23145   0.23610   0.23823   0.24341
 Alpha virt. eigenvalues --    0.24514   0.25029   0.25376   0.25590   0.26328
 Alpha virt. eigenvalues --    0.26575   0.26751   0.27128   0.27852   0.27938
 Alpha virt. eigenvalues --    0.28271   0.28971   0.29440   0.29569   0.29686
 Alpha virt. eigenvalues --    0.30038   0.30556   0.30708   0.31252   0.31488
 Alpha virt. eigenvalues --    0.31782   0.32171   0.32575   0.33020   0.33270
 Alpha virt. eigenvalues --    0.33955   0.35000   0.35140   0.35921   0.36459
 Alpha virt. eigenvalues --    0.37253   0.37516   0.37929   0.38129   0.38375
 Alpha virt. eigenvalues --    0.39421   0.39719   0.40212   0.40703   0.41475
 Alpha virt. eigenvalues --    0.42336   0.43091   0.43611   0.44658   0.44899
 Alpha virt. eigenvalues --    0.46201   0.46740   0.47772   0.48234   0.49018
 Alpha virt. eigenvalues --    0.50264   0.50794   0.52295   0.53455   0.55175
 Alpha virt. eigenvalues --    0.56173   0.60100   0.61690   0.65342   0.67543
 Alpha virt. eigenvalues --    0.69109   0.69528   0.70028   0.70997   0.71549
 Alpha virt. eigenvalues --    0.72704   0.73335   0.74575   0.75147   0.75452
 Alpha virt. eigenvalues --    0.76308   0.77038   0.78253   0.79067   0.79560
 Alpha virt. eigenvalues --    0.80033   0.80102   0.81274   0.81575   0.82819
 Alpha virt. eigenvalues --    0.83636   0.84121   0.84530   0.85383   0.86557
 Alpha virt. eigenvalues --    0.87010   0.87285   0.88639   0.89811   0.90002
 Alpha virt. eigenvalues --    0.91097   0.91540   0.92312   0.92495   0.93360
 Alpha virt. eigenvalues --    0.94520   0.95727   0.96397   0.97478   0.98251
 Alpha virt. eigenvalues --    0.99117   0.99236   1.00277   1.01305   1.01617
 Alpha virt. eigenvalues --    1.02373   1.03791   1.04697   1.04810   1.05534
 Alpha virt. eigenvalues --    1.06003   1.06521   1.06833   1.08044   1.08691
 Alpha virt. eigenvalues --    1.09687   1.10124   1.10283   1.10867   1.12424
 Alpha virt. eigenvalues --    1.13635   1.13770   1.15729   1.16654   1.17619
 Alpha virt. eigenvalues --    1.18368   1.18689   1.19853   1.20553   1.21343
 Alpha virt. eigenvalues --    1.22729   1.23838   1.24109   1.25619   1.26577
 Alpha virt. eigenvalues --    1.29771   1.30361   1.31496   1.31984   1.34072
 Alpha virt. eigenvalues --    1.35524   1.35900   1.36244   1.37672   1.37905
 Alpha virt. eigenvalues --    1.38967   1.40305   1.41281   1.42520   1.42541
 Alpha virt. eigenvalues --    1.43254   1.46527   1.46637   1.49238   1.49799
 Alpha virt. eigenvalues --    1.50620   1.51092   1.52896   1.54380   1.56375
 Alpha virt. eigenvalues --    1.56944   1.59968   1.60613   1.62803   1.63369
 Alpha virt. eigenvalues --    1.64521   1.66606   1.67164   1.69020   1.70018
 Alpha virt. eigenvalues --    1.70647   1.72341   1.73366   1.74287   1.76580
 Alpha virt. eigenvalues --    1.77959   1.80551   1.81259   1.81886   1.82667
 Alpha virt. eigenvalues --    1.82896   1.85631   1.86238   1.86939   1.88296
 Alpha virt. eigenvalues --    1.89005   1.90491   1.91190   1.92114   1.92781
 Alpha virt. eigenvalues --    1.94406   1.94611   1.95732   1.95943   1.96688
 Alpha virt. eigenvalues --    1.98565   1.98986   1.99429   2.00366   2.00589
 Alpha virt. eigenvalues --    2.03165   2.04376   2.06189   2.06359   2.06592
 Alpha virt. eigenvalues --    2.07377   2.07674   2.08182   2.09568   2.10340
 Alpha virt. eigenvalues --    2.10487   2.11004   2.12275   2.13053   2.13738
 Alpha virt. eigenvalues --    2.13928   2.14553   2.15200   2.16053   2.16270
 Alpha virt. eigenvalues --    2.17043   2.17343   2.18276   2.18602   2.18853
 Alpha virt. eigenvalues --    2.19191   2.20082   2.20827   2.21598   2.22118
 Alpha virt. eigenvalues --    2.22452   2.24602   2.25110   2.25579   2.26527
 Alpha virt. eigenvalues --    2.27917   2.28866   2.31228   2.32265   2.34623
 Alpha virt. eigenvalues --    2.35988   2.36979   2.37612   2.39030   2.39221
 Alpha virt. eigenvalues --    2.39709   2.41289   2.42926   2.43246   2.44280
 Alpha virt. eigenvalues --    2.45439   2.46548   2.49381   2.52247   2.53287
 Alpha virt. eigenvalues --    2.54487   2.56530   2.57152   2.57379   2.59015
 Alpha virt. eigenvalues --    2.60363   2.61324   2.61861   2.64194   2.65490
 Alpha virt. eigenvalues --    2.66695   2.67425   2.68288   2.68496   2.70547
 Alpha virt. eigenvalues --    2.71114   2.72865   2.73717   2.73805   2.75668
 Alpha virt. eigenvalues --    2.77178   2.77504   2.78568   2.78828   2.79410
 Alpha virt. eigenvalues --    2.81163   2.81908   2.84328   2.84934   2.85820
 Alpha virt. eigenvalues --    2.86121   2.86652   2.87443   2.88081   2.88751
 Alpha virt. eigenvalues --    2.88799   2.89194   2.89399   2.89699   2.90794
 Alpha virt. eigenvalues --    2.91457   2.93521   2.94645   2.96468   2.97742
 Alpha virt. eigenvalues --    2.99234   2.99649   3.01674   3.04143   3.09189
 Alpha virt. eigenvalues --    3.10845   3.14838   3.20851   3.23781   3.27430
 Alpha virt. eigenvalues --    3.27855   3.28542   3.30852   3.30952   3.33210
 Alpha virt. eigenvalues --    3.33325   3.37388   3.38586   3.40031   3.43668
 Alpha virt. eigenvalues --    3.48212   3.48422   3.48763   3.49094   3.49462
 Alpha virt. eigenvalues --    3.50156   3.50827   3.50954   3.51461   3.51636
 Alpha virt. eigenvalues --    3.53204   3.54124   3.55896   3.56981   3.57786
 Alpha virt. eigenvalues --    3.58474   3.60304   3.61109   4.35464   4.42627
 Alpha virt. eigenvalues --    4.46354   4.49981   4.54321   4.54641   4.57991
 Alpha virt. eigenvalues --    4.60656   4.63992   4.66688   4.66820   4.69708
 Alpha virt. eigenvalues --    4.74571   4.76100   4.80228   4.83376   4.93389
 Alpha virt. eigenvalues --    4.95466
          Condensed to atoms (all electrons):
              1          2          3          4          5          6
     1  H    0.608746   0.070763   0.014975   0.037698  -0.010364   0.206352
     2  C    0.070763  14.196222   0.042210  -2.016713   2.856964  -7.571364
     3  C    0.014975   0.042210   7.884784  -1.449027  -1.370523  -0.273975
     4  C    0.037698  -2.016713  -1.449027  10.809080  -2.786498   1.032262
     5  C   -0.010364   2.856964  -1.370523  -2.786498  15.499066  -4.193909
     6  C    0.206352  -7.571364  -0.273975   1.032262  -4.193909  15.961696
     7  C   -0.064672  -1.241212   0.623129   0.025725  -1.138886   0.240673
     8  H   -0.000052   0.001157   0.420636  -0.047654   0.061453  -0.021813
     9  H   -0.000165   0.173835  -0.041146   0.279891   0.258585  -0.298780
    10  H   -0.005679   0.229510  -0.002777  -0.134301   0.179961   0.068292
    11  H   -0.002026  -0.154715  -0.046319   0.001394   0.046260   0.059870
    12  H   -0.000102   0.049747   0.355028   0.047963  -0.115357   0.011171
    13  H   -0.004908  -0.028728  -0.015540  -0.012947   0.037241   0.018573
    14  O    0.000002  -0.094989  -0.091373  -0.148096   0.025540   0.163328
    15  C   -0.001198  -0.592008   0.066583  -0.020664  -2.711214   1.066975
    16  O   -0.000864   0.204986   0.053758   0.108933   0.026284  -0.271672
    17  H    0.000005  -0.026340   0.018922   0.012426  -0.097634   0.073453
    18  O    0.007602  -0.112427   0.000086  -0.131243   0.082869   0.280019
    19  C   -0.002635   0.015908   0.021092   0.007121  -0.166190  -0.037394
    20  H    0.000022  -0.053342  -0.003334   0.000172  -0.023155   0.101991
    21  H   -0.000014  -0.004190  -0.000128   0.005143   0.002883  -0.000960
    22  H   -0.000066   0.072872   0.002057   0.001089   0.011975  -0.106638
    23  O   -0.053290   0.118398  -0.021009   0.064242   0.083716  -0.165263
    24  Si   0.106697  -0.501587  -0.110754  -0.060752   0.143339   0.335448
    25  C   -0.019880   0.089874   0.016771   0.003107  -0.004546  -0.125942
    26  H   -0.000029   0.001804   0.000257   0.000144  -0.000053  -0.000513
    27  H   -0.000031  -0.017364   0.000092  -0.000121  -0.000641   0.005893
    28  H    0.001120  -0.012800   0.001598  -0.000991   0.000458  -0.000998
    29  C   -0.040636   0.288821  -0.015503  -0.057176   0.032725  -0.256353
    30  C   -0.001825  -0.005087   0.005485   0.007350  -0.011187  -0.047179
    31  H    0.000002   0.002259  -0.000309  -0.000217   0.000306   0.000651
    32  H   -0.000003   0.001615   0.000254   0.001678  -0.001425   0.001325
    33  H   -0.000003  -0.010813  -0.000638   0.000941  -0.002365   0.002294
    34  C    0.000246  -0.121816   0.011900   0.033927  -0.039670   0.135404
    35  H    0.000000  -0.005893  -0.000024  -0.001534  -0.000085   0.006808
    36  H    0.000003  -0.001527  -0.000053  -0.001121  -0.000017   0.002957
    37  H    0.000000  -0.004779   0.001074   0.006851  -0.000331  -0.007160
    38  C   -0.002692   0.087690  -0.002587  -0.005247   0.008128  -0.113719
    39  H    0.000000  -0.000249   0.000003   0.000036   0.000002  -0.000247
    40  H   -0.000001   0.000826  -0.000026   0.000036   0.000015  -0.000465
    41  H    0.000001  -0.001301   0.000004  -0.000067  -0.000010   0.000618
    42  C    0.013544  -0.094427   0.024943   0.028986  -0.017790   0.085349
    43  H    0.000045  -0.008457   0.000009  -0.000259  -0.000133   0.008259
    44  H   -0.000026   0.004120  -0.000015  -0.000062   0.000040  -0.002568
    45  H    0.000208   0.012655   0.000931   0.002826   0.000185  -0.015437
    46  H    0.000001  -0.010669   0.062022   0.000356  -0.148431   0.008721
    47  H    0.000000  -0.016292  -0.030086   0.088766  -0.185178   0.024835
              7          8          9         10         11         12
     1  H   -0.064672  -0.000052  -0.000165  -0.005679  -0.002026  -0.000102
     2  C   -1.241212   0.001157   0.173835   0.229510  -0.154715   0.049747
     3  C    0.623129   0.420636  -0.041146  -0.002777  -0.046319   0.355028
     4  C    0.025725  -0.047654   0.279891  -0.134301   0.001394   0.047963
     5  C   -1.138886   0.061453   0.258585   0.179961   0.046260  -0.115357
     6  C    0.240673  -0.021813  -0.298780   0.068292   0.059870   0.011171
     7  C    7.085595  -0.065771  -0.022045  -0.004133   0.403931  -0.040083
     8  H   -0.065771   0.502614   0.001843   0.000029   0.004199  -0.026267
     9  H   -0.022045   0.001843   0.550306   0.005072   0.000009  -0.000159
    10  H   -0.004133   0.000029   0.005072   0.589154   0.000421  -0.000054
    11  H    0.403931   0.004199   0.000009   0.000421   0.535547  -0.004106
    12  H   -0.040083  -0.026267  -0.000159  -0.000054  -0.004106   0.532283
    13  H    0.349138  -0.003119  -0.000005   0.000050  -0.023701  -0.002347
    14  O    0.064483  -0.011562  -0.016924  -0.002222  -0.001146   0.005339
    15  C    0.284025  -0.024047  -0.032204  -0.025144  -0.004092   0.020053
    16  O    0.015596  -0.000305  -0.044463   0.003258  -0.000293  -0.000603
    17  H   -0.003562   0.000001  -0.004487  -0.000165   0.000001  -0.000014
    18  O    0.006068  -0.000498  -0.001966  -0.056375  -0.001148   0.000137
    19  C   -0.001011  -0.000404  -0.006853  -0.008995   0.000049   0.000249
    20  H    0.000913   0.000000   0.000079  -0.001707   0.000001   0.000000
    21  H   -0.001547   0.000000   0.000013   0.000020   0.000000   0.000000
    22  H    0.003957   0.000000   0.000006   0.010546  -0.000001   0.000000
    23  O   -0.086470   0.009266   0.008138   0.011649   0.014008  -0.002119
    24  Si  -0.206974   0.006846   0.011794  -0.002171  -0.001074  -0.001755
    25  C    0.027208  -0.000168   0.000568   0.001127  -0.000119   0.000088
    26  H    0.001499   0.000000   0.000000   0.000000   0.000000   0.000000
    27  H    0.009998   0.000009   0.000000   0.000000   0.000012  -0.000001
    28  H    0.008639   0.000000   0.000000   0.000002  -0.000001   0.000000
    29  C    0.039153  -0.000608  -0.006127  -0.002678  -0.000721   0.000072
    30  C    0.048692  -0.000928  -0.000837   0.000189  -0.000134   0.000075
    31  H   -0.000946   0.000000   0.000000   0.000000   0.000000   0.000000
    32  H   -0.001341  -0.000008  -0.000014   0.000000   0.000000   0.000000
    33  H    0.005933   0.000085  -0.000007   0.000000   0.000000   0.000000
    34  C   -0.019740   0.000093   0.001265   0.000913   0.000201   0.000022
    35  H   -0.000513   0.000000  -0.000003   0.000000   0.000000   0.000000
    36  H    0.000340   0.000000   0.000000   0.000000   0.000000   0.000000
    37  H    0.001070   0.000001   0.000182   0.000004   0.000000   0.000000
    38  C    0.023320  -0.000136  -0.000056  -0.000030  -0.000148   0.000004
    39  H   -0.000114   0.000000   0.000000   0.000000   0.000000   0.000000
    40  H    0.000044   0.000000   0.000000   0.000000   0.000000   0.000000
    41  H   -0.000014   0.000000   0.000000   0.000000   0.000000   0.000000
    42  C   -0.002520   0.000233   0.000899   0.000247   0.000580  -0.000029
    43  H   -0.000686   0.000000   0.000000   0.000000   0.000000   0.000000
    44  H    0.002613   0.000000   0.000000   0.000001   0.000000   0.000000
    45  H    0.006835   0.000000   0.000004   0.000008  -0.000001   0.000000
    46  H    0.008155   0.000029  -0.000080  -0.000098  -0.000015   0.000785
    47  H    0.004357  -0.000121  -0.000106  -0.000294  -0.000102   0.000174
             13         14         15         16         17         18
     1  H   -0.004908   0.000002  -0.001198  -0.000864   0.000005   0.007602
     2  C   -0.028728  -0.094989  -0.592008   0.204986  -0.026340  -0.112427
     3  C   -0.015540  -0.091373   0.066583   0.053758   0.018922   0.000086
     4  C   -0.012947  -0.148096  -0.020664   0.108933   0.012426  -0.131243
     5  C    0.037241   0.025540  -2.711214   0.026284  -0.097634   0.082869
     6  C    0.018573   0.163328   1.066975  -0.271672   0.073453   0.280019
     7  C    0.349138   0.064483   0.284025   0.015596  -0.003562   0.006068
     8  H   -0.003119  -0.011562  -0.024047  -0.000305   0.000001  -0.000498
     9  H   -0.000005  -0.016924  -0.032204  -0.044463  -0.004487  -0.001966
    10  H    0.000050  -0.002222  -0.025144   0.003258  -0.000165  -0.056375
    11  H   -0.023701  -0.001146  -0.004092  -0.000293   0.000001  -0.001148
    12  H   -0.002347   0.005339   0.020053  -0.000603  -0.000014   0.000137
    13  H    0.529143  -0.000407  -0.002224   0.000125   0.000000  -0.000612
    14  O   -0.000407   8.358348   0.152740   0.008605   0.030978  -0.000957
    15  C   -0.002224   0.152740   7.064956  -0.040175  -0.001196  -0.010443
    16  O    0.000125   0.008605  -0.040175   8.308153   0.235863   0.017485
    17  H    0.000000   0.030978  -0.001196   0.235863   0.359990   0.000396
    18  O   -0.000612  -0.000957  -0.010443   0.017485   0.000396   8.336537
    19  C    0.000442   0.001718   0.020873  -0.027074   0.002860  -0.040695
    20  H    0.000000   0.000031   0.001595  -0.017644   0.000193  -0.065250
    21  H    0.000000  -0.000006  -0.000231   0.001121  -0.000005  -0.071641
    22  H    0.000000  -0.000005  -0.001639   0.002852  -0.000001  -0.052644
    23  O   -0.006869  -0.001802  -0.010109  -0.009710   0.000615   0.016170
    24  Si  -0.005102  -0.002386  -0.004766  -0.011101   0.000926   0.021522
    25  C    0.000123  -0.000143  -0.002007   0.000171  -0.000021  -0.003777
    26  H    0.000016   0.000000  -0.000003   0.000000   0.000000  -0.000004
    27  H    0.000296   0.000000   0.000081   0.000000   0.000000   0.000049
    28  H   -0.000046   0.000000   0.000001   0.000000   0.000000   0.000009
    29  C    0.001698   0.000189   0.002344   0.002438  -0.000010  -0.001696
    30  C   -0.002278   0.000247   0.000630   0.000158  -0.000020  -0.002131
    31  H    0.000001   0.000000   0.000001   0.000000   0.000000   0.000014
    32  H    0.000001   0.000002   0.000015  -0.000001   0.000000  -0.000051
    33  H   -0.000002   0.000003   0.000079   0.000000   0.000000   0.000033
    34  C    0.000158   0.000151   0.001124   0.000151  -0.000044   0.009526
    35  H    0.000000   0.000000   0.000007  -0.000006   0.000000   0.000221
    36  H    0.000000   0.000000   0.000006   0.000003   0.000000   0.001519
    37  H    0.000000   0.000000  -0.000045  -0.000111   0.000000  -0.004283
    38  C   -0.000207   0.000003  -0.000133  -0.000049   0.000003  -0.005207
    39  H    0.000000   0.000000   0.000000   0.000000   0.000000   0.000000
    40  H    0.000000   0.000000   0.000000   0.000000   0.000000  -0.000001
    41  H    0.000000   0.000000   0.000000   0.000000   0.000000   0.000054
    42  C   -0.000098  -0.000053  -0.001640  -0.000473  -0.000010  -0.022771
    43  H    0.000000   0.000000   0.000001   0.000000   0.000000   0.001867
    44  H    0.000001   0.000000   0.000006   0.000000   0.000000   0.000256
    45  H   -0.000001   0.000000  -0.000021  -0.000039   0.000000  -0.008235
    46  H   -0.000017  -0.028270   0.442226  -0.000011   0.000193   0.000039
    47  H   -0.000001  -0.029251   0.478099   0.002245  -0.001692  -0.000300
             19         20         21         22         23         24
     1  H   -0.002635   0.000022  -0.000014  -0.000066  -0.053290   0.106697
     2  C    0.015908  -0.053342  -0.004190   0.072872   0.118398  -0.501587
     3  C    0.021092  -0.003334  -0.000128   0.002057  -0.021009  -0.110754
     4  C    0.007121   0.000172   0.005143   0.001089   0.064242  -0.060752
     5  C   -0.166190  -0.023155   0.002883   0.011975   0.083716   0.143339
     6  C   -0.037394   0.101991  -0.000960  -0.106638  -0.165263   0.335448
     7  C   -0.001011   0.000913  -0.001547   0.003957  -0.086470  -0.206974
     8  H   -0.000404   0.000000   0.000000   0.000000   0.009266   0.006846
     9  H   -0.006853   0.000079   0.000013   0.000006   0.008138   0.011794
    10  H   -0.008995  -0.001707   0.000020   0.010546   0.011649  -0.002171
    11  H    0.000049   0.000001   0.000000  -0.000001   0.014008  -0.001074
    12  H    0.000249   0.000000   0.000000   0.000000  -0.002119  -0.001755
    13  H    0.000442   0.000000   0.000000   0.000000  -0.006869  -0.005102
    14  O    0.001718   0.000031  -0.000006  -0.000005  -0.001802  -0.002386
    15  C    0.020873   0.001595  -0.000231  -0.001639  -0.010109  -0.004766
    16  O   -0.027074  -0.017644   0.001121   0.002852  -0.009710  -0.011101
    17  H    0.002860   0.000193  -0.000005  -0.000001   0.000615   0.000926
    18  O   -0.040695  -0.065250  -0.071641  -0.052644   0.016170   0.021522
    19  C    5.166371   0.411490   0.429858   0.412270  -0.012574  -0.025316
    20  H    0.411490   0.538957  -0.029275  -0.041661   0.000267   0.004908
    21  H    0.429858  -0.029275   0.532580  -0.027664  -0.000251  -0.001047
    22  H    0.412270  -0.041661  -0.027664   0.575621  -0.000278  -0.004320
    23  O   -0.012574   0.000267  -0.000251  -0.000278   8.372735  -0.028126
    24  Si  -0.025316   0.004908  -0.001047  -0.004320  -0.028126  13.966200
    25  C    0.000474  -0.000082   0.000080   0.000189  -0.061906   0.172405
    26  H    0.000001   0.000000   0.000000   0.000000   0.009991  -0.042861
    27  H    0.000023   0.000000   0.000000   0.000000  -0.003518  -0.036439
    28  H    0.000065   0.000000   0.000000   0.000000  -0.004755  -0.022647
    29  C    0.000087  -0.001186   0.003909  -0.001577   0.012488   0.189988
    30  C   -0.000117  -0.000039   0.000012   0.000000  -0.070250   0.200873
    31  H    0.000010   0.000000   0.000000   0.000000   0.011778  -0.035980
    32  H    0.000004   0.000000   0.000000   0.000000  -0.009773  -0.019705
    33  H    0.000004   0.000000   0.000000   0.000000  -0.002980  -0.017749
    34  C    0.009195  -0.000414  -0.002063   0.000742   0.002515  -0.178929
    35  H   -0.000350   0.000000  -0.000001   0.000000  -0.004101   0.011307
    36  H   -0.000423   0.000001  -0.000008   0.000000  -0.000635   0.022955
    37  H    0.002199  -0.000022   0.000165  -0.000006   0.013546  -0.038610
    38  C    0.002155  -0.000043   0.000883  -0.000118   0.020385  -0.157427
    39  H   -0.000023   0.000000   0.000000   0.000000  -0.000071  -0.007914
    40  H   -0.000004   0.000000   0.000000   0.000000   0.000620  -0.007660
    41  H    0.000001   0.000000   0.000000   0.000000  -0.000675   0.016085
    42  C    0.003265  -0.000330  -0.000152   0.000569  -0.011390  -0.133396
    43  H   -0.001058   0.000000  -0.000019   0.000001  -0.000632   0.026628
    44  H    0.000255   0.000000  -0.000002   0.000001  -0.001457  -0.023137
    45  H    0.001563  -0.000003   0.000216   0.000004   0.011029  -0.022823
    46  H    0.000110   0.000000   0.000000   0.000000  -0.000053   0.000049
    47  H    0.001345   0.000006   0.000000  -0.000001  -0.000139   0.000022
             25         26         27         28         29         30
     1  H   -0.019880  -0.000029  -0.000031   0.001120  -0.040636  -0.001825
     2  C    0.089874   0.001804  -0.017364  -0.012800   0.288821  -0.005087
     3  C    0.016771   0.000257   0.000092   0.001598  -0.015503   0.005485
     4  C    0.003107   0.000144  -0.000121  -0.000991  -0.057176   0.007350
     5  C   -0.004546  -0.000053  -0.000641   0.000458   0.032725  -0.011187
     6  C   -0.125942  -0.000513   0.005893  -0.000998  -0.256353  -0.047179
     7  C    0.027208   0.001499   0.009998   0.008639   0.039153   0.048692
     8  H   -0.000168   0.000000   0.000009   0.000000  -0.000608  -0.000928
     9  H    0.000568   0.000000   0.000000   0.000000  -0.006127  -0.000837
    10  H    0.001127   0.000000   0.000000   0.000002  -0.002678   0.000189
    11  H   -0.000119   0.000000   0.000012  -0.000001  -0.000721  -0.000134
    12  H    0.000088   0.000000  -0.000001   0.000000   0.000072   0.000075
    13  H    0.000123   0.000016   0.000296  -0.000046   0.001698  -0.002278
    14  O   -0.000143   0.000000   0.000000   0.000000   0.000189   0.000247
    15  C   -0.002007  -0.000003   0.000081   0.000001   0.002344   0.000630
    16  O    0.000171   0.000000   0.000000   0.000000   0.002438   0.000158
    17  H   -0.000021   0.000000   0.000000   0.000000  -0.000010  -0.000020
    18  O   -0.003777  -0.000004   0.000049   0.000009  -0.001696  -0.002131
    19  C    0.000474   0.000001   0.000023   0.000065   0.000087  -0.000117
    20  H   -0.000082   0.000000   0.000000   0.000000  -0.001186  -0.000039
    21  H    0.000080   0.000000   0.000000   0.000000   0.003909   0.000012
    22  H    0.000189   0.000000   0.000000   0.000000  -0.001577   0.000000
    23  O   -0.061906   0.009991  -0.003518  -0.004755   0.012488  -0.070250
    24  Si   0.172405  -0.042861  -0.036439  -0.022647   0.189988   0.200873
    25  C    5.456539   0.402371   0.396936   0.401864  -0.106036   0.007678
    26  H    0.402371   0.488090  -0.020823  -0.022430  -0.013518  -0.005038
    27  H    0.396936  -0.020823   0.494849  -0.023469   0.017970  -0.008906
    28  H    0.401864  -0.022430  -0.023469   0.495988  -0.031107   0.007333
    29  C   -0.106036  -0.013518   0.017970  -0.031107   8.627924  -0.126896
    30  C    0.007678  -0.005038  -0.008906   0.007333  -0.126896   5.482843
    31  H   -0.006439   0.000082   0.000107   0.000013  -0.022553   0.402213
    32  H    0.005895   0.000015   0.000006  -0.000016  -0.020294   0.396412
    33  H   -0.009456   0.000110   0.000405   0.000009   0.015874   0.385615
    34  C   -0.013824   0.001841  -0.000554  -0.004368  -0.562339  -0.052099
    35  H    0.000222   0.000001  -0.000001   0.000000  -0.066469  -0.000307
    36  H   -0.001557   0.000000   0.000000   0.000000  -0.163232  -0.000389
    37  H   -0.000337  -0.000001   0.000000   0.000002  -0.085413   0.002876
    38  C    0.041650   0.001627   0.000815   0.004956  -0.434406   0.099273
    39  H   -0.000579  -0.000005  -0.000007   0.000005  -0.100530   0.004750
    40  H    0.003260   0.000613  -0.000013   0.000024  -0.088544  -0.001072
    41  H    0.000660   0.000014   0.000000  -0.000004  -0.142568  -0.000396
    42  C   -0.002015   0.007631  -0.000779   0.018192  -0.540883  -0.022441
    43  H   -0.001458   0.000000   0.000000   0.000004  -0.171305  -0.001764
    44  H    0.006840   0.000089   0.000025  -0.000127  -0.056911  -0.000143
    45  H    0.000059   0.000015  -0.000005   0.000055  -0.094452   0.000320
    46  H   -0.000005   0.000000   0.000000   0.000000   0.000009  -0.000004
    47  H   -0.000006   0.000000   0.000000   0.000000  -0.000018   0.000002
             31         32         33         34         35         36
     1  H    0.000002  -0.000003  -0.000003   0.000246   0.000000   0.000003
     2  C    0.002259   0.001615  -0.010813  -0.121816  -0.005893  -0.001527
     3  C   -0.000309   0.000254  -0.000638   0.011900  -0.000024  -0.000053
     4  C   -0.000217   0.001678   0.000941   0.033927  -0.001534  -0.001121
     5  C    0.000306  -0.001425  -0.002365  -0.039670  -0.000085  -0.000017
     6  C    0.000651   0.001325   0.002294   0.135404   0.006808   0.002957
     7  C   -0.000946  -0.001341   0.005933  -0.019740  -0.000513   0.000340
     8  H    0.000000  -0.000008   0.000085   0.000093   0.000000   0.000000
     9  H    0.000000  -0.000014  -0.000007   0.001265  -0.000003   0.000000
    10  H    0.000000   0.000000   0.000000   0.000913   0.000000   0.000000
    11  H    0.000000   0.000000   0.000000   0.000201   0.000000   0.000000
    12  H    0.000000   0.000000   0.000000   0.000022   0.000000   0.000000
    13  H    0.000001   0.000001  -0.000002   0.000158   0.000000   0.000000
    14  O    0.000000   0.000002   0.000003   0.000151   0.000000   0.000000
    15  C    0.000001   0.000015   0.000079   0.001124   0.000007   0.000006
    16  O    0.000000  -0.000001   0.000000   0.000151  -0.000006   0.000003
    17  H    0.000000   0.000000   0.000000  -0.000044   0.000000   0.000000
    18  O    0.000014  -0.000051   0.000033   0.009526   0.000221   0.001519
    19  C    0.000010   0.000004   0.000004   0.009195  -0.000350  -0.000423
    20  H    0.000000   0.000000   0.000000  -0.000414   0.000000   0.000001
    21  H    0.000000   0.000000   0.000000  -0.002063  -0.000001  -0.000008
    22  H    0.000000   0.000000   0.000000   0.000742   0.000000   0.000000
    23  O    0.011778  -0.009773  -0.002980   0.002515  -0.004101  -0.000635
    24  Si  -0.035980  -0.019705  -0.017749  -0.178929   0.011307   0.022955
    25  C   -0.006439   0.005895  -0.009456  -0.013824   0.000222  -0.001557
    26  H    0.000082   0.000015   0.000110   0.001841   0.000001   0.000000
    27  H    0.000107   0.000006   0.000405  -0.000554  -0.000001   0.000000
    28  H    0.000013  -0.000016   0.000009  -0.004368   0.000000   0.000000
    29  C   -0.022553  -0.020294   0.015874  -0.562339  -0.066469  -0.163232
    30  C    0.402213   0.396412   0.385615  -0.052099  -0.000307  -0.000389
    31  H    0.491503  -0.021436  -0.021187   0.005094   0.000059   0.000000
    32  H   -0.021436   0.486075  -0.022161   0.019806   0.000235  -0.000004
    33  H   -0.021187  -0.022161   0.492137   0.001822  -0.000005   0.000001
    34  C    0.005094   0.019806   0.001822   6.210566   0.409545   0.481157
    35  H    0.000059   0.000235  -0.000005   0.409545   0.542118  -0.028610
    36  H    0.000000  -0.000004   0.000001   0.481157  -0.028610   0.553749
    37  H    0.000000   0.000040  -0.000006   0.472795  -0.025567  -0.027934
    38  C    0.006642  -0.003445  -0.001997  -0.339048  -0.007182  -0.026285
    39  H    0.000109   0.000030   0.000011  -0.019153   0.002712  -0.000329
    40  H   -0.000010   0.000021  -0.000007   0.005723   0.000024  -0.000003
    41  H    0.000034  -0.000008   0.000000   0.016553  -0.000303   0.005459
    42  C    0.001873  -0.002875  -0.001108   0.076144   0.008429   0.024200
    43  H    0.000000   0.000000   0.000000   0.035414   0.000028   0.005765
    44  H    0.000001   0.000000  -0.000001   0.003889  -0.000155   0.000032
    45  H   -0.000001   0.000001  -0.000001  -0.010910   0.000046  -0.000514
    46  H    0.000000   0.000000   0.000000   0.000002   0.000000   0.000000
    47  H    0.000000   0.000000   0.000000   0.000005   0.000000   0.000000
             37         38         39         40         41         42
     1  H    0.000000  -0.002692   0.000000  -0.000001   0.000001   0.013544
     2  C   -0.004779   0.087690  -0.000249   0.000826  -0.001301  -0.094427
     3  C    0.001074  -0.002587   0.000003  -0.000026   0.000004   0.024943
     4  C    0.006851  -0.005247   0.000036   0.000036  -0.000067   0.028986
     5  C   -0.000331   0.008128   0.000002   0.000015  -0.000010  -0.017790
     6  C   -0.007160  -0.113719  -0.000247  -0.000465   0.000618   0.085349
     7  C    0.001070   0.023320  -0.000114   0.000044  -0.000014  -0.002520
     8  H    0.000001  -0.000136   0.000000   0.000000   0.000000   0.000233
     9  H    0.000182  -0.000056   0.000000   0.000000   0.000000   0.000899
    10  H    0.000004  -0.000030   0.000000   0.000000   0.000000   0.000247
    11  H    0.000000  -0.000148   0.000000   0.000000   0.000000   0.000580
    12  H    0.000000   0.000004   0.000000   0.000000   0.000000  -0.000029
    13  H    0.000000  -0.000207   0.000000   0.000000   0.000000  -0.000098
    14  O    0.000000   0.000003   0.000000   0.000000   0.000000  -0.000053
    15  C   -0.000045  -0.000133   0.000000   0.000000   0.000000  -0.001640
    16  O   -0.000111  -0.000049   0.000000   0.000000   0.000000  -0.000473
    17  H    0.000000   0.000003   0.000000   0.000000   0.000000  -0.000010
    18  O   -0.004283  -0.005207   0.000000  -0.000001   0.000054  -0.022771
    19  C    0.002199   0.002155  -0.000023  -0.000004   0.000001   0.003265
    20  H   -0.000022  -0.000043   0.000000   0.000000   0.000000  -0.000330
    21  H    0.000165   0.000883   0.000000   0.000000   0.000000  -0.000152
    22  H   -0.000006  -0.000118   0.000000   0.000000   0.000000   0.000569
    23  O    0.013546   0.020385  -0.000071   0.000620  -0.000675  -0.011390
    24  Si  -0.038610  -0.157427  -0.007914  -0.007660   0.016085  -0.133396
    25  C   -0.000337   0.041650  -0.000579   0.003260   0.000660  -0.002015
    26  H   -0.000001   0.001627  -0.000005   0.000613   0.000014   0.007631
    27  H    0.000000   0.000815  -0.000007  -0.000013   0.000000  -0.000779
    28  H    0.000002   0.004956   0.000005   0.000024  -0.000004   0.018192
    29  C   -0.085413  -0.434406  -0.100530  -0.088544  -0.142568  -0.540883
    30  C    0.002876   0.099273   0.004750  -0.001072  -0.000396  -0.022441
    31  H    0.000000   0.006642   0.000109  -0.000010   0.000034   0.001873
    32  H    0.000040  -0.003445   0.000030   0.000021  -0.000008  -0.002875
    33  H   -0.000006  -0.001997   0.000011  -0.000007   0.000000  -0.001108
    34  C    0.472795  -0.339048  -0.019153   0.005723   0.016553   0.076144
    35  H   -0.025567  -0.007182   0.002712   0.000024  -0.000303   0.008429
    36  H   -0.027934  -0.026285  -0.000329  -0.000003   0.005459   0.024200
    37  H    0.499653   0.010907   0.000039  -0.000142   0.000002  -0.017301
    38  C    0.010907   6.218999   0.473849   0.452200   0.428643  -0.302867
    39  H    0.000039   0.473849   0.533483  -0.027835  -0.027605   0.002216
    40  H   -0.000142   0.452200  -0.027835   0.538536  -0.028203  -0.014225
    41  H    0.000002   0.428643  -0.027605  -0.028203   0.540363   0.022265
    42  C   -0.017301  -0.302867   0.002216  -0.014225   0.022265   6.148740
    43  H   -0.000397  -0.035069   0.000007  -0.000365   0.005716   0.485275
    44  H    0.000027  -0.001695   0.000020   0.002745  -0.000346   0.417688
    45  H    0.003690   0.008545  -0.000146   0.000039   0.000008   0.459268
    46  H    0.000000   0.000000   0.000000   0.000000   0.000000  -0.000001
    47  H    0.000000  -0.000001   0.000000   0.000000   0.000000  -0.000002
             43         44         45         46         47
     1  H    0.000045  -0.000026   0.000208   0.000001   0.000000
     2  C   -0.008457   0.004120   0.012655  -0.010669  -0.016292
     3  C    0.000009  -0.000015   0.000931   0.062022  -0.030086
     4  C   -0.000259  -0.000062   0.002826   0.000356   0.088766
     5  C   -0.000133   0.000040   0.000185  -0.148431  -0.185178
     6  C    0.008259  -0.002568  -0.015437   0.008721   0.024835
     7  C   -0.000686   0.002613   0.006835   0.008155   0.004357
     8  H    0.000000   0.000000   0.000000   0.000029  -0.000121
     9  H    0.000000   0.000000   0.000004  -0.000080  -0.000106
    10  H    0.000000   0.000001   0.000008  -0.000098  -0.000294
    11  H    0.000000   0.000000  -0.000001  -0.000015  -0.000102
    12  H    0.000000   0.000000   0.000000   0.000785   0.000174
    13  H    0.000000   0.000001  -0.000001  -0.000017  -0.000001
    14  O    0.000000   0.000000   0.000000  -0.028270  -0.029251
    15  C    0.000001   0.000006  -0.000021   0.442226   0.478099
    16  O    0.000000   0.000000  -0.000039  -0.000011   0.002245
    17  H    0.000000   0.000000   0.000000   0.000193  -0.001692
    18  O    0.001867   0.000256  -0.008235   0.000039  -0.000300
    19  C   -0.001058   0.000255   0.001563   0.000110   0.001345
    20  H    0.000000   0.000000  -0.000003   0.000000   0.000006
    21  H   -0.000019  -0.000002   0.000216   0.000000   0.000000
    22  H    0.000001   0.000001   0.000004   0.000000  -0.000001
    23  O   -0.000632  -0.001457   0.011029  -0.000053  -0.000139
    24  Si   0.026628  -0.023137  -0.022823   0.000049   0.000022
    25  C   -0.001458   0.006840   0.000059  -0.000005  -0.000006
    26  H    0.000000   0.000089   0.000015   0.000000   0.000000
    27  H    0.000000   0.000025  -0.000005   0.000000   0.000000
    28  H    0.000004  -0.000127   0.000055   0.000000   0.000000
    29  C   -0.171305  -0.056911  -0.094452   0.000009  -0.000018
    30  C   -0.001764  -0.000143   0.000320  -0.000004   0.000002
    31  H    0.000000   0.000001  -0.000001   0.000000   0.000000
    32  H    0.000000   0.000000   0.000001   0.000000   0.000000
    33  H    0.000000  -0.000001  -0.000001   0.000000   0.000000
    34  C    0.035414   0.003889  -0.010910   0.000002   0.000005
    35  H    0.000028  -0.000155   0.000046   0.000000   0.000000
    36  H    0.005765   0.000032  -0.000514   0.000000   0.000000
    37  H   -0.000397   0.000027   0.003690   0.000000   0.000000
    38  C   -0.035069  -0.001695   0.008545   0.000000  -0.000001
    39  H    0.000007   0.000020  -0.000146   0.000000   0.000000
    40  H   -0.000365   0.002745   0.000039   0.000000   0.000000
    41  H    0.005716  -0.000346   0.000008   0.000000   0.000000
    42  C    0.485275   0.417688   0.459268  -0.000001  -0.000002
    43  H    0.551239  -0.028171  -0.027646   0.000000   0.000000
    44  H   -0.028171   0.542522  -0.026946   0.000000   0.000000
    45  H   -0.027646  -0.026946   0.512393   0.000000   0.000000
    46  H    0.000000   0.000000   0.000000   0.523958  -0.031627
    47  H    0.000000   0.000000   0.000000  -0.031627   0.510857
 Mulliken atomic charges:
              1
     1  H    0.143129
     2  C    0.186855
     3  C   -0.153458
     4  C    0.266549
     5  C   -0.332401
     6  C   -0.390867
     7  C   -0.388847
     8  H    0.194970
     9  H    0.183940
    10  H    0.146371
    11  H    0.173381
    12  H    0.169807
    13  H    0.172154
    14  O   -0.382116
    15  C   -0.117217
    16  O   -0.567589
    17  H    0.398378
    18  O   -0.188123
    19  C   -0.179940
    20  H    0.176863
    21  H    0.162322
    22  H    0.141865
    23  O   -0.211348
    24  Si   0.474517
    25  C   -0.675858
    26  H    0.189068
    27  H    0.185106
    28  H    0.183424
    29  C   -0.023944
    30  C   -0.691561
    31  H    0.186328
    32  H    0.189133
    33  H    0.185129
    34  C   -0.582918
    35  H    0.159350
    36  H    0.154496
    37  H    0.197324
    38  C   -0.450882
    39  H    0.167536
    40  H    0.163851
    41  H    0.165019
    42  C   -0.640958
    43  H    0.157161
    44  H    0.160591
    45  H    0.186278
    46  H    0.172627
    47  H    0.184505
 Sum of Mulliken atomic charges =   0.00000
 Mulliken charges with hydrogens summed into heavy atoms:
              1
     2  C    0.329983
     3  C    0.211319
     4  C    0.450489
     5  C   -0.332401
     6  C   -0.244496
     7  C   -0.043312
    14  O   -0.382116
    15  C    0.239915
    16  O   -0.169211
    18  O   -0.188123
    19  C    0.301110
    23  O   -0.211348
    24  Si   0.474517
    25  C   -0.118260
    29  C   -0.023944
    30  C   -0.130971
    34  C   -0.071749
    38  C    0.045524
    42  C   -0.136929
 Sum of Mulliken charges with hydrogens summed into heavy atoms =   0.00000
 Electronic spatial extent (au):  <R**2>=           6256.2846
 Charge=              0.0000 electrons
 Dipole moment (field-independent basis, Debye):
    X=              0.0906    Y=             -1.1749    Z=             -3.1553  Tot=              3.3682
 Quadrupole moment (field-independent basis, Debye-Ang):
   XX=           -125.7373   YY=           -124.5625   ZZ=           -124.8956
   XY=              2.0127   XZ=             -8.4891   YZ=              1.8697
 Traceless Quadrupole moment (field-independent basis, Debye-Ang):
   XX=             -0.6722   YY=              0.5026   ZZ=              0.1695
   XY=              2.0127   XZ=             -8.4891   YZ=              1.8697
 Octapole moment (field-independent basis, Debye-Ang**2):
  XXX=             35.1042  YYY=             12.3269  ZZZ=              3.3408  XYY=              9.5698
  XXY=              4.2901  XXZ=            -31.6848  XZZ=             15.0592  YZZ=              7.5664
  YYZ=             -8.9476  XYZ=             12.0590
 Hexadecapole moment (field-independent basis, Debye-Ang**3):
 XXXX=          -5617.0942 YYYY=          -1892.1190 ZZZZ=           -866.3968 XXXY=             87.1684
 XXXZ=           -122.7950 YYYX=             -9.7944 YYYZ=             -9.6747 ZZZX=             20.5868
 ZZZY=              5.9371 XXYY=          -1282.2479 XXZZ=          -1098.1253 YYZZ=           -491.4488
 XXYZ=             65.2456 YYXZ=            -17.4120 ZZXY=             26.7966
 N-N= 1.830197946522D+03 E-N=-6.331290102166D+03  KE= 1.131546221962D+03
 1\1\GINC-COMPUTE-8-17\SP\RmPW1PW91\6-31+G(d,p)\C14H28O4Si1\ELUCIANO.IQ
 UIR\06-Dec-2022\0\\# mPW1PW91/6-31+g** scrf=(PCM,solvent=chloroform) n
 mr\\comment\\0,1\H,0,-0.134451,-0.099023,-1.863597\C,0,0.451975,-0.367
 6,-0.974657\C,0,2.253424,-1.942363,-0.109076\C,0,2.248108,0.519894,0.5
 6518\C,0,3.078676,-0.722366,0.239094\C,0,1.328462,0.853868,-0.619883\C
 ,0,1.325845,-1.59562,-1.287158\H,0,1.650179,-2.23485,0.757962\H,0,1.60
 7762,0.288443,1.429112\H,0,1.961861,1.083165,-1.493779\H,0,1.92426,-1.
 390126,-2.185767\H,0,2.908509,-2.784808,-0.355274\H,0,0.673398,-2.4432
 61,-1.522661\O,0,4.212267,-0.894298,1.110825\C,0,4.447692,-0.565302,-0
 .276367\O,0,3.08737,1.627523,0.860367\H,0,3.71982,1.297797,1.523479\O,
 0,0.463063,1.945826,-0.364634\C,0,1.010475,3.237012,-0.602282\H,0,1.80
 245,3.480486,0.111446\H,0,0.18286,3.943335,-0.495259\H,0,1.41336,3.314
 371,-1.624382\O,0,-0.404589,-0.667236,0.119468\Si,0,-2.063049,-0.96756
 9,0.124038\C,0,-2.529421,-1.973272,-1.413405\H,0,-3.608902,-2.164561,-
 1.441972\H,0,-2.025107,-2.947096,-1.410768\H,0,-2.266343,-1.465437,-2.
 34864\C,0,-3.084626,0.653723,0.204902\C,0,-2.320604,-2.013276,1.672085
 \H,0,-3.366663,-2.319237,1.790189\H,0,-2.026401,-1.47003,2.577006\H,0,
 -1.710791,-2.922644,1.619902\C,0,-2.593286,1.523291,1.382796\H,0,-2.70
 4167,1.009025,2.345958\H,0,-3.183283,2.4502,1.441395\H,0,-1.541239,1.7
 98601,1.260322\C,0,-4.575675,0.308812,0.416297\H,0,-4.744252,-0.236981
 ,1.352415\H,0,-4.984019,-0.296205,-0.403369\H,0,-5.17353,1.230533,0.46
 5694\C,0,-2.937266,1.457422,-1.105508\H,0,-3.533302,2.380968,-1.052995
 \H,0,-3.29412,0.893733,-1.977079\H,0,-1.896225,1.747852,-1.281217\H,0,
 4.891584,-1.367734,-0.865586\H,0,4.851874,0.429598,-0.449396\\Version=
 EM64L-G09RevC.01\State=1-A\HF=-1140.6235833\RMSD=5.011e-09\Dipole=0.03
 56273,-0.4622421,-1.2413916\Quadrupole=-0.4997359,0.3736893,0.1260466,
 1.4963794,-6.3114134,1.3900773\PG=C01 [X(C14H28O4Si1)]\\@


 THE TRULY SUCCESSFUL PERFORMANCE OF RESEARCHES IN
 INORGANIC CHEMISTRY IS POSSIBLE ONLY TO ONE WHO IS NOT
 ONLY A THEORETICAL CHEMIST, BUT ALSO AN ACCOMPLISHED
 ANALYST AND, MOREOVER, NOT MERELY A PRACTICALLY TRAINED,
 MECHANICAL WORKER, BUT A THINKING CREATIVE ARTIST.
   --  CLEMENS WINKLER, BER. 33, 1697(1900)
 Job cpu time:  0 days  3 hours 27 minutes 27.4 seconds.
 File lengths (MBytes):  RWF=    294 Int=      0 D2E=      0 Chk=     16 Scr=      1
 Normal termination of Gaussian 09 at Tue Dec  6 21:55:26 2022.
