 Entering Gaussian System, Link 0=g09
 Input=/home/lpassaglia.iquir/Link1/01_RRSS_THC_003.gjc
 Output=/home/lpassaglia.iquir/Link1/01_RRSS_THC_003.log
 Initial command:
 /share/apps/Gaussian09/EM64T.SSE4.2-enabled/g09/l1.exe /tmp/Gau-12858.inp -scrdir=/tmp/
 Entering Link 1 = /share/apps/Gaussian09/EM64T.SSE4.2-enabled/g09/l1.exe PID=     12860.
  
 Copyright (c) 1988,1990,1992,1993,1995,1998,2003,2009,2011,
            Gaussian, Inc.  All Rights Reserved.
  
 This is part of the Gaussian(R) 09 program.  It is based on
 the Gaussian(R) 03 system (copyright 2003, Gaussian, Inc.),
 the Gaussian(R) 98 system (copyright 1998, Gaussian, Inc.),
 the Gaussian(R) 94 system (copyright 1995, Gaussian, Inc.),
 the Gaussian 92(TM) system (copyright 1992, Gaussian, Inc.),
 the Gaussian 90(TM) system (copyright 1990, Gaussian, Inc.),
 the Gaussian 88(TM) system (copyright 1988, Gaussian, Inc.),
 the Gaussian 86(TM) system (copyright 1986, Carnegie Mellon
 University), and the Gaussian 82(TM) system (copyright 1983,
 Carnegie Mellon University). Gaussian is a federally registered
 trademark of Gaussian, Inc.
  
 This software contains proprietary and confidential information,
 including trade secrets, belonging to Gaussian, Inc.
  
 This software is provided under written license and may be
 used, copied, transmitted, or stored only in accord with that
 written license.
  
 The following legend is applicable only to US Government
 contracts under FAR:
  
                    RESTRICTED RIGHTS LEGEND
  
 Use, reproduction and disclosure by the US Government is
 subject to restrictions as set forth in subparagraphs (a)
 and (c) of the Commercial Computer Software - Restricted
 Rights clause in FAR 52.227-19.
  
 Gaussian, Inc.
 340 Quinnipiac St., Bldg. 40, Wallingford CT 06492
  
  
 ---------------------------------------------------------------
 Warning -- This program may not be used in any manner that
 competes with the business of Gaussian, Inc. or will provide
 assistance to any competitor of Gaussian, Inc.  The licensee
 of this program is prohibited from giving any competitor of
 Gaussian, Inc. access to this program.  By using this program,
 the user acknowledges that Gaussian, Inc. is engaged in the
 business of creating and licensing software in the field of
 computational chemistry and represents and warrants to the
 licensee that it is not a competitor of Gaussian, Inc. and that
 it will not use this program in any manner prohibited above.
 ---------------------------------------------------------------
  

 Cite this work as:
 Gaussian 09, Revision C.01,
 M. J. Frisch, G. W. Trucks, H. B. Schlegel, G. E. Scuseria, 
 M. A. Robb, J. R. Cheeseman, G. Scalmani, V. Barone, B. Mennucci, 
 G. A. Petersson, H. Nakatsuji, M. Caricato, X. Li, H. P. Hratchian, 
 A. F. Izmaylov, J. Bloino, G. Zheng, J. L. Sonnenberg, M. Hada, 
 M. Ehara, K. Toyota, R. Fukuda, J. Hasegawa, M. Ishida, T. Nakajima, 
 Y. Honda, O. Kitao, H. Nakai, T. Vreven, J. A. Montgomery, Jr., 
 J. E. Peralta, F. Ogliaro, M. Bearpark, J. J. Heyd, E. Brothers, 
 K. N. Kudin, V. N. Staroverov, T. Keith, R. Kobayashi, J. Normand, 
 K. Raghavachari, A. Rendell, J. C. Burant, S. S. Iyengar, J. Tomasi, 
 M. Cossi, N. Rega, J. M. Millam, M. Klene, J. E. Knox, J. B. Cross, 
 V. Bakken, C. Adamo, J. Jaramillo, R. Gomperts, R. E. Stratmann, 
 O. Yazyev, A. J. Austin, R. Cammi, C. Pomelli, J. W. Ochterski, 
 R. L. Martin, K. Morokuma, V. G. Zakrzewski, G. A. Voth, 
 P. Salvador, J. J. Dannenberg, S. Dapprich, A. D. Daniels, 
 O. Farkas, J. B. Foresman, J. V. Ortiz, J. Cioslowski, 
 and D. J. Fox, Gaussian, Inc., Wallingford CT, 2010.
 
 ******************************************
 Gaussian 09:  EM64L-G09RevC.01 23-Sep-2011
                23-Dec-2022 
 ******************************************
 %chk=01_RRSS_THC_003_optB_NMR
 %nprocshared=4
 Will use up to    4 processors via shared memory.
 ------------------------------------------------
 # mPW1PW91/6-31+G** scrf=(PCM,solvent=water) nmr
 ------------------------------------------------
 1/38=1/1;
 2/12=2,17=6,18=5,40=1/2;
 3/5=1,6=6,7=111,11=2,16=1,25=1,30=1,70=2201,72=1,74=-7/1,2,8,3;
 4//1;
 5/5=2,38=5,53=1/2;
 8/6=1,10=90,11=11/1;
 10/13=100,45=16/2;
 6/7=2,8=2,9=2,10=2,28=1/1;
 99/9=1/99;
 -------
 comment
 -------
 Charge =  0 Multiplicity = 1
 Symbolic Z-Matrix:
 6                    -1.82089   0.77442  -2.65104 
 6                    -2.55225   1.91236  -1.91858 
 1                    -1.97748   2.8441   -1.99112 
 1                    -3.52536   2.09588  -2.39155 
 6                    -2.79879   1.58962  -0.44233 
 1                    -3.27436   2.45515   0.03611 
 6                    -1.4987    1.22554   0.30705 
 1                    -0.87106   2.12523   0.26567 
 6                    -0.75507   0.07077  -0.43349 
 1                    -1.46348  -0.76709  -0.45156 
 6                    -0.49277   0.42922  -1.9218 
 1                    -0.01614  -0.43252  -2.40768 
 6                     0.52217  -0.42374   0.25385 
 6                     2.79317  -1.40703   1.66662 
 6                     1.5899    0.41564   0.60898 
 6                     0.65563  -1.78411   0.5844 
 6                     1.76783  -2.27387   1.27865 
 6                     2.69717  -0.05816   1.31642 
 1                     1.8452   -3.32983   1.52168 
 1                     3.49107   0.63733   1.57878 
 8                    -0.3251   -2.66398   0.20721 
 1                    -0.1479   -3.52324   0.62375 
 8                     1.64087   1.73967   0.26953 
 1                     1.1225    1.84345  -0.55754 
 8                     0.41939   1.53802  -2.01159 
 1                     0.79375   1.52587  -2.91272 
 6                    -1.58108   1.17257  -4.11155 
 1                    -2.53331   1.31076  -4.63684 
 1                    -1.04563   0.37954  -4.64578 
 1                    -1.00579   2.09939  -4.19967 
 8                    -2.68642  -0.36774  -2.66529 
 1                    -2.21467  -1.10855  -3.08414 
 1                    -3.52024   0.7656   -0.38248 
 6                    -1.79215   0.93279   1.78089 
 6                    -1.22942   1.6706    2.75416 
 1                    -1.41855   1.47166   3.80416 
 1                    -0.54579   2.48379   2.52667 
 6                    -2.71376  -0.20731   2.12199 
 1                    -3.72716  -0.01014   1.76066 
 1                    -2.7816   -0.36543   3.2041 
 1                    -2.36109  -1.1441    1.68261 
 6                     3.99872  -1.92036   2.40934 
 1                     4.38136  -1.13893   3.07721 
 1                     3.70454  -2.75499   3.05735 
 6                     5.09937  -2.36965   1.46051 
 1                     5.96079  -2.73701   2.02718 
 1                     5.43805  -1.54403   0.82543 
 1                     4.75452  -3.17718   0.8058 
 
                          Input orientation:                          
 ---------------------------------------------------------------------
 Center     Atomic      Atomic             Coordinates (Angstroms)
 Number     Number       Type             X           Y           Z
 ---------------------------------------------------------------------
      1          6           0       -1.820891    0.774424   -2.651042
      2          6           0       -2.552247    1.912355   -1.918582
      3          1           0       -1.977480    2.844098   -1.991115
      4          1           0       -3.525364    2.095880   -2.391546
      5          6           0       -2.798790    1.589619   -0.442331
      6          1           0       -3.274357    2.455152    0.036108
      7          6           0       -1.498704    1.225544    0.307047
      8          1           0       -0.871060    2.125227    0.265670
      9          6           0       -0.755067    0.070766   -0.433488
     10          1           0       -1.463480   -0.767087   -0.451562
     11          6           0       -0.492774    0.429224   -1.921802
     12          1           0       -0.016142   -0.432518   -2.407683
     13          6           0        0.522173   -0.423738    0.253845
     14          6           0        2.793174   -1.407030    1.666617
     15          6           0        1.589902    0.415638    0.608978
     16          6           0        0.655629   -1.784111    0.584399
     17          6           0        1.767833   -2.273868    1.278652
     18          6           0        2.697170   -0.058162    1.316419
     19          1           0        1.845201   -3.329834    1.521684
     20          1           0        3.491066    0.637327    1.578779
     21          8           0       -0.325100   -2.663978    0.207214
     22          1           0       -0.147897   -3.523236    0.623752
     23          8           0        1.640872    1.739673    0.269530
     24          1           0        1.122499    1.843453   -0.557537
     25          8           0        0.419385    1.538023   -2.011593
     26          1           0        0.793750    1.525868   -2.912717
     27          6           0       -1.581083    1.172574   -4.111553
     28          1           0       -2.533305    1.310758   -4.636840
     29          1           0       -1.045629    0.379542   -4.645779
     30          1           0       -1.005792    2.099391   -4.199674
     31          8           0       -2.686423   -0.367741   -2.665295
     32          1           0       -2.214666   -1.108554   -3.084139
     33          1           0       -3.520240    0.765604   -0.382484
     34          6           0       -1.792149    0.932794    1.780892
     35          6           0       -1.229416    1.670596    2.754159
     36          1           0       -1.418545    1.471665    3.804163
     37          1           0       -0.545792    2.483795    2.526672
     38          6           0       -2.713757   -0.207311    2.121989
     39          1           0       -3.727159   -0.010142    1.760655
     40          1           0       -2.781599   -0.365430    3.204095
     41          1           0       -2.361092   -1.144097    1.682607
     42          6           0        3.998722   -1.920364    2.409339
     43          1           0        4.381359   -1.138933    3.077212
     44          1           0        3.704541   -2.754989    3.057353
     45          6           0        5.099371   -2.369649    1.460515
     46          1           0        5.960788   -2.737007    2.027181
     47          1           0        5.438047   -1.544026    0.825431
     48          1           0        4.754520   -3.177185    0.805804
 ---------------------------------------------------------------------
                    Distance matrix (angstroms):
                    1          2          3          4          5
     1  C    0.000000
     2  C    1.538267   0.000000
     3  H    2.177974   1.097161   0.000000
     4  H    2.172282   1.097421   1.765254   0.000000
     5  C    2.549359   1.531098   2.155690   2.140946   0.000000
     6  H    3.486858   2.153342   2.437786   2.466898   1.097367
     7  C    3.009585   2.556382   2.851402   3.485289   1.544131
     8  H    3.351724   2.764537   2.614196   3.755927   2.122330
     9  C    2.559035   2.970995   3.407619   3.950902   2.546330
    10  H    2.709559   3.242988   3.959176   4.026348   2.708726
    11  C    1.553978   2.537936   2.835626   3.492134   2.975409
    12  H    2.184731   3.488478   3.841430   4.325239   3.961663
    13  C    3.919682   4.430444   4.686882   5.452442   3.945511
    14  C    6.685097   7.241926   7.362760   8.286313   6.685628
    15  C    4.731803   5.078004   5.038265   6.163789   4.663056
    16  C    4.811168   5.497204   5.914969   6.433606   4.936521
    17  C    6.132986   6.812479   7.135287   7.783507   6.224336
    18  C    6.070159   6.473373   6.419911   7.557039   6.001163
    19  H    6.906288   7.658559   8.066603   8.578736   7.044503
    20  H    6.791691   7.097807   6.893401   8.192750   6.674881
    21  O    4.714831   5.515616   6.156453   6.296943   4.963279
    22  H    5.656242   6.464520   7.122348   7.216216   5.857051
    23  O    4.630902   4.732854   4.407124   5.822217   4.498874
    24  H    3.766846   3.919305   3.558975   5.002993   3.931184
    25  O    2.451696   2.996560   2.729691   4.002076   3.580768
    26  H    2.733037   3.511890   3.204184   4.387628   4.360414
    27  C    1.532686   2.509892   2.728989   2.755204   3.888435
    28  H    2.176828   2.784098   3.108043   2.577196   4.212143
    29  H    2.176221   3.472321   3.740270   3.765165   4.712412
    30  H    2.195036   2.762225   2.525173   3.101222   4.194322
    31  O    1.433140   2.403003   3.357533   2.616904   2.964026
    32  H    1.971862   3.255515   4.107848   3.530724   3.821058
    33  H    2.834470   2.147474   3.047612   2.409562   1.096846
    34  C    4.434856   3.901718   4.232667   4.665409   2.527344
    35  C    5.510822   4.862390   4.945132   5.650710   3.561887
    36  H    6.505205   5.850581   5.981741   6.573822   4.466732
    37  H    5.599692   4.910468   4.752889   5.763437   3.832823
    38  C    4.954073   4.565664   5.174053   5.131802   3.132399
    39  H    4.869545   4.314302   5.028304   4.660131   2.876500
    40  H    6.041925   5.610948   6.159374   6.158119   4.137504
    41  H    4.770016   4.727262   5.435908   5.334014   3.490006
    42  C    8.169286   8.737038   8.819245   9.787266   8.164445
    43  H    8.656890   9.074316   9.054684  10.143352   8.449066
    44  H    8.693269   9.256967   9.440454  10.270977   8.568356
    45  C    8.641766   9.396868   9.443449  10.448224   9.037564
    46  H    9.735011  10.471742  10.502929  11.526882  10.077121
    47  H    8.375754   9.128032   9.065241  10.195125   8.903506
    48  H    8.414334   9.312064   9.455074  10.323988   9.018467
                    6          7          8          9         10
     6  H    0.000000
     7  C    2.176760   0.000000
     8  H    2.436675   1.097761   0.000000
     9  C    3.500377   1.560417   2.173267   0.000000
    10  H    3.728259   2.132441   3.038233   1.097348   0.000000
    11  C    3.959166   2.571729   2.793664   1.553180   2.129562
    12  H    4.992666   3.509547   3.797336   2.167199   2.456244
    13  C    4.769597   2.609005   2.904903   1.532417   2.135018
    14  C    7.374953   5.215275   5.278835   4.379992   4.797428
    15  C    5.305545   3.207272   3.016105   2.589314   3.441907
    16  C    5.806614   3.711617   4.208954   2.542976   2.568692
    17  C    7.023619   4.884687   5.228951   3.846265   3.963006
    18  C    6.604171   4.502455   4.313181   3.872562   4.575953
    19  H    7.866566   5.780010   6.222004   4.706184   4.626958
    20  H    7.173233   5.182770   4.792311   4.732848   5.535539
    21  O    5.910405   4.063951   4.820578   2.841513   2.308266
    22  H    6.772090   4.947312   5.705815   3.795163   3.237811
    23  O    4.972512   3.181616   2.541352   3.003333   4.054728
    24  H    4.478720   2.828431   2.175165   2.585161   3.676062
    25  O    4.321798   3.025360   2.682534   2.454098   3.360418
    26  H    5.109660   3.963890   3.637715   3.265384   4.050928
    27  C    4.659965   4.419686   4.535611   3.927397   4.143869
    28  H    4.867775   5.051700   5.240326   4.729469   4.793591
    29  H    5.585288   5.044946   5.215383   4.233576   4.368159
    30  H    4.818174   4.617045   4.467451   4.285130   4.740730
    31  O    3.951198   3.575479   4.254526   2.983854   2.560406
    32  H    4.853749   4.178607   4.846012   3.247641   2.758866
    33  H    1.757910   2.184858   3.047430   2.851593   2.565964
    34  C    2.749324   1.531023   2.136867   2.592704   2.825149
    35  C    3.490718   2.501788   2.554934   3.597994   4.034071
    36  H    4.313876   3.506682   3.639755   4.512251   4.808868
    37  H    3.694428   2.723596   2.312250   3.824795   4.503361
    38  C    3.428393   2.612172   3.504595   3.231758   2.915425
    39  H    3.042494   2.933583   3.866793   3.695151   3.254399
    40  H    4.270203   3.545406   4.299753   4.186778   3.906737
    41  H    4.061970   2.872469   3.862174   2.921142   2.345745
    42  C    8.813344   6.673684   6.684078   5.885981   6.272994
    43  H    8.987533   6.916626   6.793189   6.338080   6.837592
    44  H    9.218379   7.105110   7.248871   6.329215   6.555355
    45  C    9.768672   7.602006   7.568197   6.619465   7.021058
    46  H   10.780110   8.620017   8.568453   7.683826   8.071215
    47  H    9.618858   7.487172   7.319943   6.522812   7.061545
    48  H    9.837607   7.663915   7.749481   6.514643   6.786241
                   11         12         13         14         15
    11  C    0.000000
    12  H    1.098115   0.000000
    13  C    2.547764   2.715436   0.000000
    14  C    5.200580   5.043992   2.849602   0.000000
    15  C    3.277586   3.521220   1.403822   2.426640   0.000000
    16  C    3.535353   3.351214   1.406304   2.425383   2.390055
    17  C    4.760247   4.490234   2.454563   1.397587   2.777330
    18  C    4.571583   4.622894   2.448127   1.396889   1.396783
    19  H    5.608408   5.224841   3.435580   2.148682   3.863517
    20  H    5.307387   5.416360   3.419888   2.161981   2.145714
    21  O    3.758819   3.451458   2.395563   3.665162   3.648655
    22  H    4.713886   4.331224   3.192603   3.770384   4.305217
    23  O    3.327411   3.825125   2.435587   3.630618   1.367806
    24  H    2.543692   3.146361   2.481711   4.278277   1.902072
    25  O    1.438587   2.056600   2.998547   5.276120   3.081761
    26  H    1.959512   2.178592   3.728517   5.793952   3.777407
    27  C    2.555777   2.815765   5.101823   7.692576   5.736855
    28  H    3.508888   3.787381   6.021895   8.688574   6.732063
    29  H    2.779958   2.593908   5.206686   7.600960   5.878758
    30  H    2.870775   3.255949   5.341787   7.819239   5.718023
    31  O    2.449496   2.683460   4.338156   7.061980   5.442564
    32  H    2.584705   2.397524   4.370514   6.909213   5.516974
    33  H    3.412946   4.220856   4.261519   6.984150   5.217185
    34  C    3.956248   4.749994   3.086768   5.149080   3.616504
    35  C    4.893696   5.704361   3.702144   5.180324   3.758361
    36  H    5.893251   6.646779   4.468075   5.531235   4.513884
    37  H    4.900306   5.756151   3.841880   5.198741   3.537798
    38  C    4.657272   5.276910   3.742732   5.654465   4.604209
    39  H    4.920851   5.596882   4.527511   6.668949   5.456994
    40  H    5.669657   6.256541   4.429704   5.875956   5.143415
    41  H    4.354045   4.768187   3.297498   5.160993   4.381302
    42  C    6.667299   6.444884   4.355736   1.506152   3.807968
    43  H    7.155867   7.065488   4.834897   2.141025   4.037463
    44  H    7.249045   7.007423   4.839613   2.140498   4.529803
    45  C    7.109560   6.699546   5.117946   2.507521   4.560627
    46  H    8.201704   7.791173   6.170451   3.454363   5.572711
    47  H    6.827564   6.437131   5.074207   2.778797   4.323812
    48  H    6.926768   6.373297   5.079261   2.778727   4.791860
                   16         17         18         19         20
    16  C    0.000000
    17  C    1.399588   0.000000
    18  C    2.771758   2.403008   0.000000
    19  H    2.163988   1.086331   3.387007   0.000000
    20  H    3.858996   3.396272   1.087570   4.295404   0.000000
    21  O    1.370498   2.383387   4.141827   2.623243   5.229047
    22  H    1.916184   2.379041   4.536621   2.194568   5.609315
    23  O    3.672451   4.140405   2.333228   5.225853   2.520420
    24  H    3.831606   4.554160   3.099588   5.622131   3.410088
    25  O    4.222743   5.212920   4.337255   6.181669   4.810120
    26  H    4.817142   5.740593   4.900791   6.659377   5.313996
    27  C    5.983046   7.221323   7.020046   7.984013   7.641536
    28  H    6.856300   8.145082   8.041959   8.867571   8.682193
    29  H    5.910198   7.074958   7.053222   7.755899   7.706697
    30  H    6.381948   7.538597   6.985288   8.386810   7.466585
    31  O    4.871953   6.247274   6.703205   6.844005   7.561990
    32  H    4.706712   6.020979   6.677901   6.529181   7.572732
    33  H    4.987363   6.321509   6.497773   7.013303   7.281581
    34  C    3.847699   4.817510   4.620792   5.609590   5.295330
    35  C    4.494024   5.169083   4.524796   5.998047   4.973139
    36  H    5.026843   5.528130   5.046618   6.238280   5.454606
    37  H    4.840543   5.435602   4.294539   6.365935   4.539182
    38  C    4.025325   5.006648   5.472597   5.558292   6.285564
    39  H    4.872307   5.962526   6.439849   6.490659   7.249487
    40  H    4.548626   5.295923   5.802986   5.746779   6.556942
    41  H    3.273574   4.299719   5.186460   4.743021   6.118170
    42  C    3.811199   2.525923   2.521171   2.722534   2.736663
    43  H    4.528955   3.369483   2.665511   3.694836   2.488578
    44  H    4.044004   2.673218   3.364301   2.479087   3.706691
    45  C    4.566977   3.337873   3.336811   3.393423   3.412116
    46  H    5.579815   4.284351   4.281657   4.188678   4.205558
    47  H    4.794502   3.769423   3.156147   4.072152   3.019365
    48  H    4.334810   3.155925   3.771169   2.999987   4.091980
                   21         22         23         24         25
    21  O    0.000000
    22  H    0.971200   0.000000
    23  O    4.822974   5.569864   0.000000
    24  H    4.795553   5.640098   0.981592   0.000000
    25  O    4.809801   5.734387   2.595423   1.643757   0.000000
    26  H    5.342342   6.235926   3.300004   2.399126   0.975869
    27  C    5.911715   6.821127   5.467768   4.515580   2.923227
    28  H    6.643760   7.532031   6.456020   5.503578   3.957518
    29  H    5.773536   6.618577   5.764331   4.853610   3.229130
    30  H    6.524852   7.457571   5.206536   4.226144   2.670948
    31  O    4.370339   5.217192   5.637365   4.882613   3.702068
    32  H    4.101561   4.883715   5.850185   5.121985   3.884964
    33  H    4.724267   5.547915   5.292543   4.769426   4.332583
    34  C    4.191117   4.888634   3.836784   3.846131   4.431719
    35  C    5.108155   5.717011   3.796934   4.065552   5.044652
    36  H    5.589025   6.056286   4.682466   5.061576   6.099624
    37  H    5.650501   6.313783   3.229537   3.564489   4.735178
    38  C    3.925208   4.452383   5.117142   5.109046   5.472593
    39  H    4.585851   5.142518   5.839612   5.685861   5.815540
    40  H    4.505442   4.854513   5.709762   5.854145   6.408809
    41  H    2.938041   3.417559   5.131144   5.106771   5.345273
    42  C    4.908947   4.790822   4.851196   5.589394   6.657081
    43  H    5.719564   5.676137   4.866181   5.720682   6.982784
    44  H    4.936556   4.621028   5.677382   6.393750   7.410561
    45  C    5.575149   5.437349   5.501471   6.135004   7.016246
    46  H    6.544463   6.316945   6.464648   7.146357   8.080515
    47  H    5.903418   5.929647   5.050766   5.657876   6.537178
    48  H    5.140450   4.917986   5.844474   6.344847   6.997450
                   26         27         28         29         30
    26  H    0.000000
    27  C    2.683628   0.000000
    28  H    3.753421   1.096242   0.000000
    29  H    2.775047   1.095905   1.755113   0.000000
    30  H    2.285506   1.094401   1.773796   1.777210   0.000000
    31  O    3.969708   2.384536   2.593799   2.678237   3.356424
    32  H    4.002516   2.580805   2.892314   2.453528   3.605095
    33  H    5.058714   4.222785   4.401224   4.944535   4.761552
    34  C    5.391529   5.901098   6.471433   6.493495   6.143816
    35  C    6.018939   6.892728   7.513752   7.513966   6.970629
    36  H    7.072034   7.923032   8.515815   8.528383   8.039018
    37  H    5.683217   6.845230   7.526096   7.491447   6.753007
    38  C    6.376110   6.484141   6.929564   6.994979   6.942726
    39  H    6.681194   6.362962   6.640633   6.955922   6.883421
    40  H    7.333179   7.571354   8.021939   8.073977   8.002789
    41  H    6.180513   6.288694   6.781694   6.640812   6.852611
    42  C    7.104410   9.122638  10.136871   8.972722   9.213178
    43  H    7.473376   9.621441  10.645194   9.560469   9.615675
    44  H    7.901910   9.734310  10.707083   9.577455   9.920519
    45  C    7.269015   9.392750  10.439390   9.088779   9.448972
    46  H    8.323039  10.480873  11.530099  10.165193  10.521298
    47  H    6.705780   9.001217  10.076142   8.698983   8.947023
    48  H    7.185666   9.123632  10.142800   8.718474   9.277837
                   31         32         33         34         35
    31  O    0.000000
    32  H    0.973031   0.000000
    33  H    2.681594   3.537786   0.000000
    34  C    4.718018   5.292839   2.773886   0.000000
    35  C    5.970609   6.540651   3.988159   1.344719   0.000000
    36  H    6.844327   7.398651   4.737473   2.126872   1.085289
    37  H    6.298419   6.868137   4.501412   2.124900   1.086455
    38  C    4.790050   5.307080   2.805239   1.505173   2.475770
    39  H    4.560706   5.192896   2.288590   2.152626   3.170276
    40  H    5.870162   6.357321   3.832542   2.165618   2.599445
    41  H    4.428636   4.769126   3.042233   2.155651   3.217361
    42  C    8.535439   8.333278   8.458338   6.486112   6.351954
    43  H    9.139183   9.026113   8.833574   6.639631   6.283201
    44  H    8.904610   8.687098   8.742112   6.741120   6.634882
    45  C    9.035958   8.702837   9.355434   7.648649   7.619098
    46  H   10.119635   9.778317  10.390604   8.581150   8.464898
    47  H    8.920528   8.604555   9.329756   7.702161   7.649108
    48  H    8.678083   8.245024   9.242795   7.791123   7.943838
                   36         37         38         39         40
    36  H    0.000000
    37  H    1.848807   0.000000
    38  C    2.706703   3.479352   0.000000
    39  H    3.420727   4.114317   1.093811   0.000000
    40  H    2.364934   3.684537   1.095700   1.761770   0.000000
    41  H    3.497371   4.143593   1.093159   1.777100   1.760135
    42  C    6.542031   6.329533   6.933577   7.984922   7.001586
    43  H    6.401762   6.140364   7.219490   8.291897   7.205718
    44  H    6.683437   6.766964   6.968509   8.027813   6.913865
    45  C    7.920329   7.520670   8.133771   9.141389   8.316649
    46  H    8.679005   8.357143   9.036375  10.067926   9.134485
    47  H    8.061022   7.411065   8.361804   9.339617   8.637691
    48  H    8.289070   7.943638   8.144179   9.103888   8.393500
                   41         42         43         44         45
    41  H    0.000000
    42  C    6.448098   0.000000
    43  H    6.885172   1.096859   0.000000
    44  H    6.424703   1.096843   1.752174   0.000000
    45  C    7.563717   1.521037   2.154975   2.154978   0.000000
    46  H    8.479963   2.159317   2.480121   2.480368   1.094578
    47  H    7.856288   2.173028   2.520161   3.074566   1.095302
    48  H    7.452124   2.173052   3.074576   2.519956   1.095300
                   46         47         48
    46  H    0.000000
    47  H    1.772193   0.000000
    48  H    1.772174   1.770538   0.000000
 Stoichiometry    C18H26O4
 Framework group  C1[X(C18H26O4)]
 Deg. of freedom   138
 Full point group                 C1      NOp   1
 Largest Abelian subgroup         C1      NOp   1
 Largest concise Abelian subgroup C1      NOp   1
                         Standard orientation:                         
 ---------------------------------------------------------------------
 Center     Atomic      Atomic             Coordinates (Angstroms)
 Number     Number       Type             X           Y           Z
 ---------------------------------------------------------------------
      1          6           0       -3.038748   -1.245137    0.293878
      2          6           0       -3.678511   -0.119314   -0.536478
      3          1           0       -3.634331   -0.361583   -1.605644
      4          1           0       -4.738753   -0.017057   -0.272349
      5          6           0       -3.001272    1.233537   -0.301103
      6          1           0       -3.465127    1.981954   -0.956027
      7          6           0       -1.479431    1.184019   -0.557787
      8          1           0       -1.366293    0.938326   -1.621701
      9          6           0       -0.827682    0.043177    0.284000
     10          1           0       -1.057122    0.285409    1.329397
     11          6           0       -1.512743   -1.323782    0.011084
     12          1           0       -1.053283   -2.078681    0.662913
     13          6           0        0.696163   -0.063206    0.162022
     14          6           0        3.541978   -0.100772    0.020022
     15          6           0        1.371709   -0.195826   -1.061402
     16          6           0        1.495257   -0.003386    1.317687
     17          6           0        2.893351   -0.020705    1.255385
     18          6           0        2.766403   -0.197517   -1.137744
     19          1           0        3.486581    0.027221    2.164173
     20          1           0        3.240034   -0.289338   -2.112449
     21          8           0        0.891556    0.062106    2.546313
     22          1           0        1.572390    0.231668    3.217835
     23          8           0        0.724650   -0.359754   -2.255276
     24          1           0       -0.131469   -0.798091   -2.059206
     25          8           0       -1.285804   -1.729240   -1.350400
     26          1           0       -1.444922   -2.691201   -1.390791
     27          6           0       -3.742656   -2.572406   -0.009427
     28          1           0       -4.795397   -2.530735    0.293471
     29          1           0       -3.288857   -3.390289    0.561660
     30          1           0       -3.703986   -2.828882   -1.072648
     31          8           0       -3.268979   -0.956141    1.678568
     32          1           0       -2.826709   -1.637116    2.214719
     33          1           0       -3.207011    1.550752    0.728517
     34          6           0       -0.851284    2.561736   -0.331156
     35          6           0       -0.215337    3.200483   -1.329075
     36          1           0        0.243800    4.173142   -1.184236
     37          1           0       -0.118816    2.757097   -2.316231
     38          6           0       -0.947041    3.183948    1.036041
     39          1           0       -1.987600    3.403726    1.291693
     40          1           0       -0.394060    4.128178    1.092609
     41          1           0       -0.530662    2.522315    1.800153
     42          6           0        5.045658   -0.125929   -0.062487
     43          1           0        5.372148    0.345915   -0.997295
     44          1           0        5.469379    0.480968    0.746958
     45          6           0        5.593444   -1.542693    0.016659
     46          1           0        6.686175   -1.529877   -0.045593
     47          1           0        5.214070   -2.161797   -0.803385
     48          1           0        5.312902   -2.025162    0.959104
 ---------------------------------------------------------------------
 Rotational constants (GHZ):      0.4494524      0.1892090      0.1723515
 Standard basis: 6-31+G(d,p) (6D, 7F)
 There are   548 symmetry adapted basis functions of A   symmetry.
 Integral buffers will be    131072 words long.
 Raffenetti 2 integral format.
 Two-electron integral symmetry is turned on.
   548 basis functions,   886 primitive gaussians,   548 cartesian basis functions
    83 alpha electrons       83 beta electrons
       nuclear repulsion energy      1982.7147335223 Hartrees.
 NAtoms=   48 NActive=   48 NUniq=   48 SFac= 1.00D+00 NAtFMM=   60 NAOKFM=F Big=F
 ------------------------------------------------------------------------------
 Polarizable Continuum Model (PCM)
 =================================
 Model                : PCM.
 Atomic radii         : UFF (Universal Force Field).
 Polarization charges : Total charges.
 Charge compensation  : None.
 Solution method      : Matrix inversion.
 Cavity type          : Scaled VdW (van der Waals Surface) (Alpha=1.100).
 Cavity algorithm     : GePol (No added spheres)
                        Default sphere list used, NSphG=   48.
                        Lebedev-Laikov grids with approx.  5.0 points / Ang**2.
                        Smoothing algorithm: Karplus/York (Gamma=1.0000).
                        Polarization charges: spherical gaussians, with
                                              point-specific exponents (IZeta= 3).
                        Self-potential: point-specific (ISelfS= 7).
                        Self-field    : sphere-specific E.n sum rule (ISelfD= 2).
 Solvent              : Water, Eps=  78.355300 Eps(inf)=   1.777849
 ------------------------------------------------------------------------------
 One-electron integrals computed using PRISM.
 NBasis=   548 RedAO= T  NBF=   548
 NBsUse=   546 1.00D-06 NBFU=   546
 Harris functional with IExCor=  908 diagonalized for initial guess.
 ExpMin= 4.38D-02 ExpMax= 5.48D+03 ExpMxC= 8.25D+02 IAcc=2 IRadAn=         4 AccDes= 0.00D+00
 HarFok:  IExCor=  908 AccDes= 0.00D+00 IRadAn=         4 IDoV= 1
 ScaDFX=  1.000000  1.000000  1.000000  1.000000
 FoFCou: FMM=F IPFlag=           0 FMFlag=      100000 FMFlg1=           0
         NFxFlg=           0 DoJE=T BraDBF=F KetDBF=T FulRan=T
         Omega=  0.000000  0.000000  1.000000  0.000000  0.000000 ICntrl=     500 IOpCl=  0
         NMat0=    1 NMatS0=    1 NMatT0=    0 NMatD0=    1 NMtDS0=    0 NMtDT0=    0
         I1Cent=           4 NGrid=           0.
 Petite list used in FoFCou.
 Initial guess orbital symmetries:
       Occupied  (A) (A) (A) (A) (A) (A) (A) (A) (A) (A) (A) (A)
                 (A) (A) (A) (A) (A) (A) (A) (A) (A) (A) (A) (A)
                 (A) (A) (A) (A) (A) (A) (A) (A) (A) (A) (A) (A)
                 (A) (A) (A) (A) (A) (A) (A) (A) (A) (A) (A) (A)
                 (A) (A) (A) (A) (A) (A) (A) (A) (A) (A) (A) (A)
                 (A) (A) (A) (A) (A) (A) (A) (A) (A) (A) (A) (A)
                 (A) (A) (A) (A) (A) (A) (A) (A) (A) (A) (A)
       Virtual   (A) (A) (A) (A) (A) (A) (A) (A) (A) (A) (A) (A)
                 (A) (A) (A) (A) (A) (A) (A) (A) (A) (A) (A) (A)
                 (A) (A) (A) (A) (A) (A) (A) (A) (A) (A) (A) (A)
                 (A) (A) (A) (A) (A) (A) (A) (A) (A) (A) (A) (A)
                 (A) (A) (A) (A) (A) (A) (A) (A) (A) (A) (A) (A)
                 (A) (A) (A) (A) (A) (A) (A) (A) (A) (A) (A) (A)
                 (A) (A) (A) (A) (A) (A) (A) (A) (A) (A) (A) (A)
                 (A) (A) (A) (A) (A) (A) (A) (A) (A) (A) (A) (A)
                 (A) (A) (A) (A) (A) (A) (A) (A) (A) (A) (A) (A)
                 (A) (A) (A) (A) (A) (A) (A) (A) (A) (A) (A) (A)
                 (A) (A) (A) (A) (A) (A) (A) (A) (A) (A) (A) (A)
                 (A) (A) (A) (A) (A) (A) (A) (A) (A) (A) (A) (A)
                 (A) (A) (A) (A) (A) (A) (A) (A) (A) (A) (A) (A)
                 (A) (A) (A) (A) (A) (A) (A) (A) (A) (A) (A) (A)
                 (A) (A) (A) (A) (A) (A) (A) (A) (A) (A) (A) (A)
                 (A) (A) (A) (A) (A) (A) (A) (A) (A) (A) (A) (A)
                 (A) (A) (A) (A) (A) (A) (A) (A) (A) (A) (A) (A)
                 (A) (A) (A) (A) (A) (A) (A) (A) (A) (A) (A) (A)
                 (A) (A) (A) (A) (A) (A) (A) (A) (A) (A) (A) (A)
                 (A) (A) (A) (A) (A) (A) (A) (A) (A) (A) (A) (A)
                 (A) (A) (A) (A) (A) (A) (A) (A) (A) (A) (A) (A)
                 (A) (A) (A) (A) (A) (A) (A) (A) (A) (A) (A) (A)
                 (A) (A) (A) (A) (A) (A) (A) (A) (A) (A) (A) (A)
                 (A) (A) (A) (A) (A) (A) (A) (A) (A) (A) (A) (A)
                 (A) (A) (A) (A) (A) (A) (A) (A) (A) (A) (A) (A)
                 (A) (A) (A) (A) (A) (A) (A) (A) (A) (A) (A) (A)
                 (A) (A) (A) (A) (A) (A) (A) (A) (A) (A) (A) (A)
                 (A) (A) (A) (A) (A) (A) (A) (A) (A) (A) (A) (A)
                 (A) (A) (A) (A) (A) (A) (A) (A) (A) (A) (A) (A)
                 (A) (A) (A) (A) (A) (A) (A) (A) (A) (A) (A) (A)
                 (A) (A) (A) (A) (A) (A) (A) (A) (A) (A) (A) (A)
                 (A) (A) (A) (A) (A) (A) (A) (A) (A) (A) (A) (A)
                 (A) (A) (A) (A) (A) (A) (A) (A) (A) (A) (A) (A)
                 (A) (A) (A) (A) (A) (A) (A) (A) (A) (A) (A) (A)
                 (A) (A) (A) (A) (A) (A) (A) (A) (A) (A) (A) (A)
                 (A) (A) (A) (A) (A) (A) (A) (A) (A) (A) (A) (A)
                 (A) (A) (A) (A) (A) (A) (A) (A) (A) (A) (A) (A)
                 (A) (A) (A) (A) (A) (A) (A) (A) (A) (A) (A) (A)
                 (A) (A) (A) (A) (A) (A) (A)
 The electronic state of the initial guess is 1-A.
 Requested convergence on RMS density matrix=1.00D-08 within 128 cycles.
 Requested convergence on MAX density matrix=1.00D-06.
 Requested convergence on             energy=1.00D-06.
 No special actions if energy rises.
 CoulSu:  requested number of processors reduced to:   2 ShMem   1 Linda.
 CoulSu:  requested number of processors reduced to:   2 ShMem   1 Linda.
 Error on total polarization charges =  0.01930
 SCF Done:  E(RmPW1PW91) =  -1002.31694244     A.U. after   14 cycles
             Convg  =    0.4875D-08             -V/T =  2.0094
 Range of M.O.s used for correlation:     1   546
 NBasis=   548 NAE=    83 NBE=    83 NFC=     0 NFV=     0
 NROrb=    546 NOA=    83 NOB=    83 NVA=   463 NVB=   463

 **** Warning!!: The largest alpha MO coefficient is  0.14787560D+03

 NEqPCM:  Using equilibrium solvation (IEInf=0, Eps=  78.3553, EpsInf=   1.7778)
          Differentiating once with respect to magnetic field using GIAOs.
          Electric field/nuclear overlap derivatives assumed to be zero.
 FoFCou: FMM=F IPFlag=           0 FMFlag=    10101102 FMFlg1=           0
         NFxFlg=    40000000 DoJE=F BraDBF=F KetDBF=T FulRan=T
         Omega=  0.000000  0.000000  1.000000  0.000000  0.000000 ICntrl=    6100 IOpCl=  0
         NMat0=    1 NMatS0=    1 NMatT0=    0 NMatD0=    1 NMtDS0=    0 NMtDT0=    0
         I1Cent=           7 NGrid=        3050.
 Symmetry not used in FoFCou.
          There are     3 degrees of freedom in the 1st order CPHF.  IDoFFX=0.
      3 vectors produced by pass  0 Test12= 1.28D-12 3.33D-08 XBig12= 7.18D+02 3.39D+00.
 AX will form     3 AO Fock derivatives at one time.
      3 vectors produced by pass  1 Test12= 1.28D-12 3.33D-08 XBig12= 1.65D+00 4.63D-01.
      3 vectors produced by pass  2 Test12= 1.28D-12 3.33D-08 XBig12= 7.33D-03 4.04D-02.
      3 vectors produced by pass  3 Test12= 1.28D-12 3.33D-08 XBig12= 3.76D-05 1.67D-03.
      3 vectors produced by pass  4 Test12= 1.28D-12 3.33D-08 XBig12= 1.22D-07 1.13D-04.
      3 vectors produced by pass  5 Test12= 1.28D-12 3.33D-08 XBig12= 3.92D-10 5.12D-06.
      3 vectors produced by pass  6 Test12= 1.28D-12 3.33D-08 XBig12= 1.85D-12 2.61D-07.
 Inverted reduced A of dimension    21 with in-core refinement.
 Calculating GIAO nuclear magnetic shielding tensors.
 SCF GIAO Magnetic shielding tensor (ppm):
      1  C    Isotropic =   121.7363   Anisotropy =    49.9754
   XX=   108.1776   YX=    -0.3105   ZX=   -16.1360
   XY=     2.1733   YY=   107.6627   ZY=    10.1692
   XZ=    -8.0593   YZ=    12.3471   ZZ=   149.3685
   Eigenvalues:   101.3128   108.8429   155.0532
      2  C    Isotropic =   162.5650   Anisotropy =    23.6286
   XX=   156.3913   YX=    -3.4631   ZX=     5.3756
   XY=     4.6521   YY=   174.8989   ZY=   -10.6265
   XZ=     0.0185   YZ=    -6.6577   ZZ=   156.4049
   Eigenvalues:   151.4791   157.8986   178.3174
      3  H    Isotropic =    29.4457   Anisotropy =     6.8172
   XX=    27.8318   YX=     1.0953   ZX=     3.0127
   XY=     0.2212   YY=    27.9974   ZY=     0.6532
   XZ=     2.8116   YZ=     0.3057   ZZ=    32.5079
   Eigenvalues:    26.3413    28.0052    33.9905
      4  H    Isotropic =    29.8429   Anisotropy =     9.4233
   XX=    36.0965   YX=     0.4768   ZX=     0.0891
   XY=     0.4155   YY=    28.8699   ZY=    -0.5077
   XZ=     0.1963   YZ=    -0.4303   ZZ=    24.5622
   Eigenvalues:    24.5086    28.8949    36.1251
      5  C    Isotropic =   166.5427   Anisotropy =    24.8682
   XX=   183.0324   YX=     1.6485   ZX=     1.6381
   XY=     0.5627   YY=   163.2440   ZY=    -2.5549
   XZ=     0.6624   YZ=    -6.8705   ZZ=   153.3516
   Eigenvalues:   151.3967   165.1098   183.1214
      6  H    Isotropic =    30.2463   Anisotropy =     9.8050
   XX=    31.5473   YX=    -2.4310   ZX=     3.1538
   XY=    -2.9547   YY=    32.5621   ZY=    -3.4562
   XZ=     3.0914   YZ=    -3.0296   ZZ=    26.6296
   Eigenvalues:    24.6241    29.3319    36.7830
      7  C    Isotropic =   152.6047   Anisotropy =    32.2386
   XX=   156.6997   YX=    15.7142   ZX=     2.7673
   XY=    12.2835   YY=   161.7783   ZY=     5.4750
   XZ=     0.8646   YZ=     3.6793   ZZ=   139.3361
   Eigenvalues:   138.3568   145.3601   174.0971
      8  H    Isotropic =    28.1556   Anisotropy =     4.0864
   XX=    27.5712   YX=    -0.3030   ZX=    -1.9074
   XY=    -1.8389   YY=    27.1289   ZY=    -0.6102
   XZ=    -1.9034   YZ=    -1.0884   ZZ=    29.7666
   Eigenvalues:    25.4048    28.1821    30.8798
      9  C    Isotropic =   156.2748   Anisotropy =    15.3447
   XX=   160.8454   YX=     0.3399   ZX=     1.3960
   XY=    -4.3869   YY=   165.4019   ZY=     1.1641
   XZ=    -1.4486   YZ=    -7.2076   ZZ=   142.5772
   Eigenvalues:   142.1794   160.1404   166.5046
     10  H    Isotropic =    27.2456   Anisotropy =     6.4619
   XX=    28.7825   YX=     1.0548   ZX=     1.9811
   XY=     1.1623   YY=    23.3356   ZY=     1.1840
   XZ=     2.0197   YZ=     1.1222   ZZ=    29.6186
   Eigenvalues:    23.0222    27.1609    31.5535
     11  C    Isotropic =   112.8632   Anisotropy =    37.3561
   XX=   114.5576   YX=     7.1409   ZX=   -17.0130
   XY=    12.4881   YY=    92.0538   ZY=     6.3099
   XZ=    -6.0728   YZ=     6.2927   ZZ=   131.9782
   Eigenvalues:    86.1021   114.7202   137.7673
     12  H    Isotropic =    27.7422   Anisotropy =     3.3832
   XX=    26.5469   YX=    -0.0090   ZX=     0.2270
   XY=     1.9554   YY=    28.0583   ZY=    -0.7581
   XZ=     1.0253   YZ=    -2.4948   ZZ=    28.6215
   Eigenvalues:    25.4655    27.7635    29.9977
     13  C    Isotropic =    87.3089   Anisotropy =   121.2423
   XX=    44.8081   YX=     5.9274   ZX=     0.7507
   XY=    -0.2371   YY=   167.3479   ZY=    -7.9373
   XZ=    -0.1381   YZ=   -10.5850   ZZ=    49.7706
   Eigenvalues:    44.6803    49.1093   168.1371
     14  C    Isotropic =    49.6832   Anisotropy =   189.2110
   XX=   -32.5199   YX=    -2.4601   ZX=     4.5159
   XY=    -1.9650   YY=   174.8774   ZY=   -13.1624
   XZ=     4.1447   YZ=   -11.7270   ZZ=     6.6920
   Eigenvalues:   -32.9959     6.2216   175.8239
     15  C    Isotropic =    40.9781   Anisotropy =   129.9350
   XX=    15.4596   YX=    -9.4718   ZX=   -30.0510
   XY=    -5.2839   YY=   125.3676   ZY=   -14.6555
   XZ=   -30.1292   YZ=   -20.3055   ZZ=   -17.8927
   Eigenvalues:   -37.7876    33.1206   127.6015
     16  C    Isotropic =    44.9058   Anisotropy =   124.2942
   XX=    31.0332   YX=     1.5981   ZX=    29.6820
   XY=     2.5059   YY=   127.0766   ZY=   -11.4812
   XZ=    21.3918   YZ=    -8.9585   ZZ=   -23.3923
   Eigenvalues:   -34.1508    41.0997   127.7687
     17  C    Isotropic =    91.9206   Anisotropy =    96.5734
   XX=    76.3706   YX=     0.0214   ZX=   -32.3046
   XY=     4.3169   YY=   155.7418   ZY=    -7.2642
   XZ=   -34.7937   YZ=    -4.9863   ZZ=    43.6493
   Eigenvalues:    22.5610    96.8979   156.3029
     18  C    Isotropic =    87.5935   Anisotropy =   108.9144
   XX=    75.4261   YX=     2.3647   ZX=    28.5484
   XY=    15.4572   YY=   158.2801   ZY=   -15.7784
   XZ=    29.0862   YZ=   -12.1598   ZZ=    29.0744
   Eigenvalues:    13.4018    89.1757   160.2032
     19  H    Isotropic =    25.2770   Anisotropy =     7.1101
   XX=    28.7715   YX=    -0.9286   ZX=    -2.1096
   XY=    -1.1814   YY=    21.4498   ZY=     0.9382
   XZ=    -2.0763   YZ=     0.7449   ZZ=    25.6098
   Eigenvalues:    21.2231    24.5909    30.0171
     20  H    Isotropic =    24.9918   Anisotropy =     7.7666
   XX=    29.3388   YX=    -0.5273   ZX=     1.9913
   XY=    -0.9004   YY=    21.0411   ZY=    -0.9608
   XZ=     2.1024   YZ=     0.2246   ZZ=    24.5956
   Eigenvalues:    20.9682    23.8376    30.1696
     21  O    Isotropic =   228.1037   Anisotropy =    39.2807
   XX=   200.4219   YX=    -5.9615   ZX=   -16.0723
   XY=     2.9402   YY=   241.8982   ZY=     3.0926
   XZ=   -35.3810   YZ=    -5.3497   ZZ=   241.9909
   Eigenvalues:   188.0694   241.9508   254.2908
     22  H    Isotropic =    26.6992   Anisotropy =    15.4255
   XX=    29.2119   YX=     0.8809   ZX=     4.8232
   XY=     1.3846   YY=    18.5151   ZY=     2.7452
   XZ=     6.3724   YZ=     2.1387   ZZ=    32.3706
   Eigenvalues:    18.0940    25.0207    36.9828
     23  O    Isotropic =   218.2294   Anisotropy =    75.7629
   XX=   178.4424   YX=    -7.5810   ZX=    20.3209
   XY=   -10.9527   YY=   256.6200   ZY=   -47.2509
   XZ=    29.3649   YZ=     8.8939   ZZ=   219.6259
   Eigenvalues:   166.7660   219.1842   268.7380
     24  H    Isotropic =    21.8000   Anisotropy =    27.7829
   XX=    31.6262   YX=    10.8591   ZX=    -7.3577
   XY=    14.2899   YY=    16.3153   ZY=     0.2426
   XZ=    -5.7972   YZ=    -1.6330   ZZ=    17.4587
   Eigenvalues:     8.3787    16.6994    40.3220
     25  O    Isotropic =   285.9755   Anisotropy =    41.1825
   XX=   278.2482   YX=    15.7837   ZX=     3.5232
   XY=    21.2446   YY=   299.1797   ZY=    15.3713
   XZ=    -9.7581   YZ=    12.1760   ZZ=   280.4986
   Eigenvalues:   261.8125   282.6836   313.4306
     26  H    Isotropic =    28.5862   Anisotropy =    18.9454
   XX=    22.5867   YX=     2.9983   ZX=    -3.1545
   XY=     3.6797   YY=    39.5891   ZY=     4.5974
   XZ=    -2.2424   YZ=     4.7939   ZZ=    23.5827
   Eigenvalues:    18.8238    25.7183    41.2165
     27  C    Isotropic =   168.0435   Anisotropy =    45.5302
   XX=   157.9933   YX=    18.2836   ZX=     5.7349
   XY=    15.7721   YY=   189.9005   ZY=     6.2516
   XZ=     4.0487   YZ=     4.4408   ZZ=   156.2366
   Eigenvalues:   149.6219   156.1116   198.3969
     28  H    Isotropic =    30.1593   Anisotropy =     9.6445
   XX=    34.9303   YX=     2.5630   ZX=    -1.4440
   XY=     3.9917   YY=    29.3383   ZY=    -0.6613
   XZ=    -0.8933   YZ=    -0.1624   ZZ=    26.2092
   Eigenvalues:    26.0551    27.8337    36.5890
     29  H    Isotropic =    30.7577   Anisotropy =     9.4110
   XX=    28.3954   YX=     0.9203   ZX=    -0.0787
   XY=     0.2520   YY=    36.1376   ZY=    -3.3412
   XZ=     0.1962   YZ=    -2.3016   ZZ=    27.7402
   Eigenvalues:    26.8464    28.3951    37.0317
     30  H    Isotropic =    30.2079   Anisotropy =     9.1365
   XX=    28.3497   YX=     2.9881   ZX=     0.9754
   XY=     3.2186   YY=    30.4524   ZY=     4.8525
   XZ=     0.7794   YZ=     3.4742   ZZ=    31.8215
   Eigenvalues:    25.4397    28.8850    36.2988
     31  O    Isotropic =   265.0074   Anisotropy =    48.8928
   XX=   254.7615   YX=   -13.4127   ZX=    13.0344
   XY=    -8.9112   YY=   248.6673   ZY=   -21.2545
   XZ=    -1.3775   YZ=    -6.6978   ZZ=   291.5934
   Eigenvalues:   238.8886   258.5310   297.6026
     32  H    Isotropic =    30.2821   Anisotropy =    16.1002
   XX=    26.0030   YX=    -3.5607   ZX=     2.1661
   XY=    -2.5675   YY=    28.9105   ZY=    -6.6063
   XZ=     2.7361   YZ=    -7.0564   ZZ=    35.9329
   Eigenvalues:    23.6034    26.2274    41.0156
     33  H    Isotropic =    29.3924   Anisotropy =     6.5176
   XX=    28.9593   YX=     0.4359   ZX=    -2.7926
   XY=     0.2028   YY=    30.6777   ZY=     4.0099
   XZ=    -1.8864   YZ=     3.3203   ZZ=    28.5402
   Eigenvalues:    24.7437    29.6960    33.7375
     34  C    Isotropic =    44.9539   Anisotropy =   182.3500
   XX=   128.4066   YX=   -63.8255   ZX=    18.3532
   XY=   -60.1504   YY=     3.8034   ZY=   -68.3471
   XZ=    18.3513   YZ=   -67.8823   ZZ=     2.6517
   Eigenvalues:   -70.2231    38.5643   166.5206
     35  C    Isotropic =    86.6698   Anisotropy =    97.7399
   XX=   135.5803   YX=   -32.0725   ZX=    -3.9827
   XY=   -33.5001   YY=    51.4758   ZY=   -62.3087
   XZ=    -5.6039   YZ=   -59.9775   ZZ=    72.9533
   Eigenvalues:    -5.5887   113.7683   151.8297
     36  H    Isotropic =    26.8144   Anisotropy =     6.7496
   XX=    26.0761   YX=     1.7462   ZX=    -1.3603
   XY=     0.1237   YY=    28.1329   ZY=    -2.2843
   XZ=    -2.6352   YZ=    -4.2179   ZZ=    26.2343
   Eigenvalues:    23.3158    25.8134    31.3141
     37  H    Isotropic =    26.5427   Anisotropy =     7.4585
   XX=    25.7063   YX=    -0.1112   ZX=    -2.9257
   XY=    -0.3648   YY=    26.6474   ZY=    -5.7966
   XZ=    -1.4728   YZ=    -2.5215   ZZ=    27.2743
   Eigenvalues:    21.9900    26.1230    31.5150
     38  C    Isotropic =   178.0626   Anisotropy =    28.5928
   XX=   168.0303   YX=     2.0413   ZX=    -2.6877
   XY=     0.7206   YY=   174.3962   ZY=    12.2235
   XZ=    -2.5034   YZ=     9.5910   ZZ=   191.7614
   Eigenvalues:   166.0886   170.9747   197.1245
     39  H    Isotropic =    29.7680   Anisotropy =     8.3401
   XX=    32.2396   YX=    -1.1862   ZX=    -2.5006
   XY=    -2.3186   YY=    29.7802   ZY=     4.1066
   XZ=    -2.9738   YZ=     2.9028   ZZ=    27.2841
   Eigenvalues:    24.5797    29.3962    35.3281
     40  H    Isotropic =    30.1328   Anisotropy =     8.7659
   XX=    27.7999   YX=     3.0511   ZX=    -0.2868
   XY=     2.6401   YY=    34.4318   ZY=     1.3758
   XZ=     0.4621   YZ=     2.7255   ZZ=    28.1667
   Eigenvalues:    26.4418    27.9798    35.9767
     41  H    Isotropic =    29.8628   Anisotropy =     6.1546
   XX=    26.4607   YX=    -1.2079   ZX=     3.6824
   XY=    -2.7273   YY=    31.5605   ZY=     0.7436
   XZ=     3.2158   YZ=    -1.4150   ZZ=    31.5672
   Eigenvalues:    24.3566    31.2659    33.9659
     42  C    Isotropic =   164.7378   Anisotropy =    27.0637
   XX=   182.6457   YX=     5.4649   ZX=    -1.3649
   XY=    -8.9218   YY=   153.3583   ZY=     0.3642
   XZ=    -0.4250   YZ=    -0.1814   ZZ=   158.2093
   Eigenvalues:   153.2564   158.1768   182.7802
     43  H    Isotropic =    29.1430   Anisotropy =     7.1685
   XX=    30.2487   YX=     0.5914   ZX=    -2.5434
   XY=     1.7689   YY=    27.3758   ZY=    -4.1426
   XZ=    -1.1186   YZ=    -3.5724   ZZ=    29.8045
   Eigenvalues:    24.5427    28.9644    33.9221
     44  H    Isotropic =    29.2138   Anisotropy =     7.2807
   XX=    30.6997   YX=     1.4378   ZX=     2.2923
   XY=     2.2058   YY=    28.6708   ZY=     4.0970
   XZ=     0.7953   YZ=     3.7090   ZZ=    28.2710
   Eigenvalues:    24.5594    29.0145    34.0677
     45  C    Isotropic =   178.6533   Anisotropy =    31.8318
   XX=   180.2467   YX=    -6.9096   ZX=    -0.3452
   XY=   -20.6919   YY=   190.1036   ZY=    -1.1546
   XZ=     0.6983   YZ=    -1.6346   ZZ=   165.6096
   Eigenvalues:   165.4786   170.6068   199.8745
     46  H    Isotropic =    30.2275   Anisotropy =    12.0735
   XX=    37.1767   YX=    -2.2533   ZX=    -0.4282
   XY=    -4.5861   YY=    27.5396   ZY=     0.2145
   XZ=    -0.2164   YZ=     0.0249   ZZ=    25.9661
   Eigenvalues:    25.9560    26.4500    38.2765
     47  H    Isotropic =    30.5799   Anisotropy =     7.3883
   XX=    29.0360   YX=    -1.1683   ZX=     1.2115
   XY=    -1.9679   YY=    32.0315   ZY=     4.8298
   XZ=     1.2516   YZ=     3.3112   ZZ=    30.6722
   Eigenvalues:    25.9727    30.2616    35.5054
     48  H    Isotropic =    30.6155   Anisotropy =     7.4233
   XX=    28.7938   YX=    -1.6849   ZX=    -0.6370
   XY=    -2.6153   YY=    30.8939   ZY=    -4.5535
   XZ=    -0.4403   YZ=    -3.1124   ZZ=    32.1587
   Eigenvalues:    26.1100    30.1720    35.5644
 End of Minotr Frequency-dependent properties file   721 does not exist.
 End of Minotr Frequency-dependent properties file   722 does not exist.

 **********************************************************************

            Population analysis using the SCF density.

 **********************************************************************

 Orbital symmetries:
       Occupied  (A) (A) (A) (A) (A) (A) (A) (A) (A) (A) (A) (A)
                 (A) (A) (A) (A) (A) (A) (A) (A) (A) (A) (A) (A)
                 (A) (A) (A) (A) (A) (A) (A) (A) (A) (A) (A) (A)
                 (A) (A) (A) (A) (A) (A) (A) (A) (A) (A) (A) (A)
                 (A) (A) (A) (A) (A) (A) (A) (A) (A) (A) (A) (A)
                 (A) (A) (A) (A) (A) (A) (A) (A) (A) (A) (A) (A)
                 (A) (A) (A) (A) (A) (A) (A) (A) (A) (A) (A)
       Virtual   (A) (A) (A) (A) (A) (A) (A) (A) (A) (A) (A) (A)
                 (A) (A) (A) (A) (A) (A) (A) (A) (A) (A) (A) (A)
                 (A) (A) (A) (A) (A) (A) (A) (A) (A) (A) (A) (A)
                 (A) (A) (A) (A) (A) (A) (A) (A) (A) (A) (A) (A)
                 (A) (A) (A) (A) (A) (A) (A) (A) (A) (A) (A) (A)
                 (A) (A) (A) (A) (A) (A) (A) (A) (A) (A) (A) (A)
                 (A) (A) (A) (A) (A) (A) (A) (A) (A) (A) (A) (A)
                 (A) (A) (A) (A) (A) (A) (A) (A) (A) (A) (A) (A)
                 (A) (A) (A) (A) (A) (A) (A) (A) (A) (A) (A) (A)
                 (A) (A) (A) (A) (A) (A) (A) (A) (A) (A) (A) (A)
                 (A) (A) (A) (A) (A) (A) (A) (A) (A) (A) (A) (A)
                 (A) (A) (A) (A) (A) (A) (A) (A) (A) (A) (A) (A)
                 (A) (A) (A) (A) (A) (A) (A) (A) (A) (A) (A) (A)
                 (A) (A) (A) (A) (A) (A) (A) (A) (A) (A) (A) (A)
                 (A) (A) (A) (A) (A) (A) (A) (A) (A) (A) (A) (A)
                 (A) (A) (A) (A) (A) (A) (A) (A) (A) (A) (A) (A)
                 (A) (A) (A) (A) (A) (A) (A) (A) (A) (A) (A) (A)
                 (A) (A) (A) (A) (A) (A) (A) (A) (A) (A) (A) (A)
                 (A) (A) (A) (A) (A) (A) (A) (A) (A) (A) (A) (A)
                 (A) (A) (A) (A) (A) (A) (A) (A) (A) (A) (A) (A)
                 (A) (A) (A) (A) (A) (A) (A) (A) (A) (A) (A) (A)
                 (A) (A) (A) (A) (A) (A) (A) (A) (A) (A) (A) (A)
                 (A) (A) (A) (A) (A) (A) (A) (A) (A) (A) (A) (A)
                 (A) (A) (A) (A) (A) (A) (A) (A) (A) (A) (A) (A)
                 (A) (A) (A) (A) (A) (A) (A) (A) (A) (A) (A) (A)
                 (A) (A) (A) (A) (A) (A) (A) (A) (A) (A) (A) (A)
                 (A) (A) (A) (A) (A) (A) (A) (A) (A) (A) (A) (A)
                 (A) (A) (A) (A) (A) (A) (A) (A) (A) (A) (A) (A)
                 (A) (A) (A) (A) (A) (A) (A) (A) (A) (A) (A) (A)
                 (A) (A) (A) (A) (A) (A) (A) (A) (A) (A) (A) (A)
                 (A) (A) (A) (A) (A) (A) (A) (A) (A) (A) (A) (A)
                 (A) (A) (A) (A) (A) (A) (A) (A) (A) (A) (A) (A)
                 (A) (A) (A) (A) (A) (A) (A) (A) (A) (A) (A) (A)
                 (A) (A) (A) (A) (A) (A) (A) (A) (A) (A) (A) (A)
                 (A) (A) (A) (A) (A) (A) (A) (A) (A) (A) (A) (A)
                 (A) (A) (A) (A) (A) (A) (A) (A) (A) (A) (A) (A)
                 (A) (A) (A) (A) (A) (A) (A) (A) (A) (A) (A) (A)
                 (A) (A) (A) (A) (A) (A) (A) (A) (A) (A) (A) (A)
                 (A) (A) (A) (A) (A) (A) (A)
 The electronic state is 1-A.
 Alpha  occ. eigenvalues --  -19.28276 -19.28048 -19.25735 -19.25598 -10.32012
 Alpha  occ. eigenvalues --  -10.31640 -10.31454 -10.31321 -10.26892 -10.26454
 Alpha  occ. eigenvalues --  -10.26406 -10.25963 -10.25945 -10.24861 -10.24559
 Alpha  occ. eigenvalues --  -10.24514 -10.24307 -10.23997 -10.23971 -10.23878
 Alpha  occ. eigenvalues --  -10.23673 -10.23492  -1.09837  -1.09161  -1.07292
 Alpha  occ. eigenvalues --   -1.06102  -0.88570  -0.86654  -0.82118  -0.81958
 Alpha  occ. eigenvalues --   -0.78570  -0.77038  -0.75782  -0.73929  -0.71089
 Alpha  occ. eigenvalues --   -0.70224  -0.66938  -0.64417  -0.63571  -0.62392
 Alpha  occ. eigenvalues --   -0.60808  -0.59155  -0.56811  -0.55419  -0.54718
 Alpha  occ. eigenvalues --   -0.52240  -0.51371  -0.50879  -0.49864  -0.48241
 Alpha  occ. eigenvalues --   -0.47036  -0.46335  -0.45880  -0.45425  -0.44803
 Alpha  occ. eigenvalues --   -0.43724  -0.43520  -0.43105  -0.42813  -0.41740
 Alpha  occ. eigenvalues --   -0.41462  -0.41315  -0.40206  -0.39715  -0.39412
 Alpha  occ. eigenvalues --   -0.38712  -0.38281  -0.38012  -0.37512  -0.36800
 Alpha  occ. eigenvalues --   -0.36641  -0.35752  -0.35442  -0.34811  -0.34135
 Alpha  occ. eigenvalues --   -0.33393  -0.32670  -0.31316  -0.31057  -0.28615
 Alpha  occ. eigenvalues --   -0.25915  -0.24058  -0.23031
 Alpha virt. eigenvalues --   -0.00661  -0.00067   0.00575   0.00821   0.01110
 Alpha virt. eigenvalues --    0.01662   0.01932   0.02756   0.03292   0.03344
 Alpha virt. eigenvalues --    0.03654   0.04117   0.04422   0.04588   0.05375
 Alpha virt. eigenvalues --    0.05967   0.06252   0.06362   0.06898   0.07235
 Alpha virt. eigenvalues --    0.07324   0.08161   0.08597   0.08761   0.09328
 Alpha virt. eigenvalues --    0.09634   0.09972   0.10291   0.10675   0.10999
 Alpha virt. eigenvalues --    0.11097   0.11606   0.12100   0.12682   0.12819
 Alpha virt. eigenvalues --    0.13191   0.13417   0.14000   0.14359   0.14689
 Alpha virt. eigenvalues --    0.14987   0.15528   0.15607   0.16024   0.16138
 Alpha virt. eigenvalues --    0.16453   0.16860   0.17095   0.17512   0.18011
 Alpha virt. eigenvalues --    0.18240   0.18530   0.18675   0.18954   0.19246
 Alpha virt. eigenvalues --    0.19542   0.20076   0.20257   0.20570   0.21035
 Alpha virt. eigenvalues --    0.21313   0.21620   0.21671   0.22051   0.22162
 Alpha virt. eigenvalues --    0.22433   0.22791   0.23006   0.23433   0.23721
 Alpha virt. eigenvalues --    0.24117   0.24190   0.24354   0.24661   0.24835
 Alpha virt. eigenvalues --    0.25676   0.25915   0.26162   0.26515   0.26789
 Alpha virt. eigenvalues --    0.26959   0.27226   0.27590   0.27855   0.28143
 Alpha virt. eigenvalues --    0.28385   0.28511   0.29099   0.29423   0.29671
 Alpha virt. eigenvalues --    0.30134   0.30327   0.30569   0.30790   0.31311
 Alpha virt. eigenvalues --    0.31587   0.31881   0.32291   0.32857   0.32869
 Alpha virt. eigenvalues --    0.33641   0.33953   0.34163   0.34567   0.35103
 Alpha virt. eigenvalues --    0.35530   0.36001   0.36480   0.36694   0.37133
 Alpha virt. eigenvalues --    0.37314   0.37878   0.38288   0.38585   0.39187
 Alpha virt. eigenvalues --    0.40079   0.40866   0.40997   0.42060   0.42688
 Alpha virt. eigenvalues --    0.43350   0.43689   0.44524   0.45408   0.45808
 Alpha virt. eigenvalues --    0.46205   0.47330   0.47498   0.47902   0.48505
 Alpha virt. eigenvalues --    0.49081   0.49661   0.50918   0.52096   0.53185
 Alpha virt. eigenvalues --    0.53726   0.56555   0.60697   0.63361   0.65713
 Alpha virt. eigenvalues --    0.68099   0.68752   0.69487   0.70076   0.71458
 Alpha virt. eigenvalues --    0.71763   0.71977   0.73001   0.73742   0.74124
 Alpha virt. eigenvalues --    0.74736   0.75314   0.75492   0.76670   0.77303
 Alpha virt. eigenvalues --    0.77797   0.78387   0.78934   0.79666   0.79729
 Alpha virt. eigenvalues --    0.80738   0.81512   0.81868   0.83023   0.83276
 Alpha virt. eigenvalues --    0.84431   0.85079   0.85345   0.86359   0.87271
 Alpha virt. eigenvalues --    0.87707   0.88836   0.88967   0.89501   0.90743
 Alpha virt. eigenvalues --    0.92371   0.93441   0.93722   0.94409   0.94833
 Alpha virt. eigenvalues --    0.95367   0.96269   0.96917   0.97450   0.99290
 Alpha virt. eigenvalues --    1.00193   1.00396   1.01568   1.02691   1.03586
 Alpha virt. eigenvalues --    1.04148   1.05133   1.05952   1.07512   1.08090
 Alpha virt. eigenvalues --    1.08434   1.09230   1.10333   1.10536   1.11942
 Alpha virt. eigenvalues --    1.12688   1.12756   1.13627   1.14789   1.15035
 Alpha virt. eigenvalues --    1.15669   1.16158   1.16514   1.17465   1.18546
 Alpha virt. eigenvalues --    1.19011   1.19911   1.20518   1.21011   1.22038
 Alpha virt. eigenvalues --    1.23191   1.24938   1.25003   1.26689   1.27003
 Alpha virt. eigenvalues --    1.27503   1.28501   1.29968   1.30616   1.31189
 Alpha virt. eigenvalues --    1.31555   1.32486   1.32942   1.33809   1.34349
 Alpha virt. eigenvalues --    1.34884   1.35925   1.36959   1.38335   1.38811
 Alpha virt. eigenvalues --    1.39655   1.40405   1.41494   1.42188   1.43464
 Alpha virt. eigenvalues --    1.44397   1.44644   1.46158   1.48234   1.48942
 Alpha virt. eigenvalues --    1.50354   1.53093   1.53140   1.53585   1.54648
 Alpha virt. eigenvalues --    1.55244   1.56969   1.57244   1.58517   1.59421
 Alpha virt. eigenvalues --    1.60634   1.61906   1.62245   1.62715   1.65658
 Alpha virt. eigenvalues --    1.66843   1.68097   1.69327   1.70707   1.71981
 Alpha virt. eigenvalues --    1.73202   1.75593   1.76727   1.79512   1.79787
 Alpha virt. eigenvalues --    1.80576   1.81564   1.82043   1.82614   1.85123
 Alpha virt. eigenvalues --    1.85408   1.86087   1.86645   1.87267   1.87627
 Alpha virt. eigenvalues --    1.88258   1.89361   1.90140   1.90737   1.91848
 Alpha virt. eigenvalues --    1.92233   1.93074   1.93799   1.94426   1.95416
 Alpha virt. eigenvalues --    1.95625   1.96460   1.97732   1.98548   1.99050
 Alpha virt. eigenvalues --    2.00182   2.02228   2.02876   2.03689   2.05418
 Alpha virt. eigenvalues --    2.06093   2.06859   2.07397   2.07652   2.08269
 Alpha virt. eigenvalues --    2.09482   2.09699   2.10624   2.11091   2.11952
 Alpha virt. eigenvalues --    2.13527   2.13849   2.14655   2.15261   2.15464
 Alpha virt. eigenvalues --    2.16602   2.17191   2.17643   2.19427   2.19516
 Alpha virt. eigenvalues --    2.19781   2.21621   2.23469   2.24160   2.25924
 Alpha virt. eigenvalues --    2.26872   2.27173   2.29163   2.29434   2.30303
 Alpha virt. eigenvalues --    2.30936   2.32335   2.33205   2.34425   2.35053
 Alpha virt. eigenvalues --    2.35910   2.36563   2.38280   2.39291   2.39975
 Alpha virt. eigenvalues --    2.40951   2.41676   2.42939   2.44228   2.46937
 Alpha virt. eigenvalues --    2.48168   2.48641   2.50295   2.50840   2.51753
 Alpha virt. eigenvalues --    2.52464   2.53901   2.55089   2.55137   2.55851
 Alpha virt. eigenvalues --    2.56465   2.56865   2.58261   2.58523   2.59503
 Alpha virt. eigenvalues --    2.61097   2.61563   2.62669   2.63764   2.65367
 Alpha virt. eigenvalues --    2.65612   2.67058   2.68718   2.69248   2.70056
 Alpha virt. eigenvalues --    2.70829   2.71298   2.71853   2.73011   2.73396
 Alpha virt. eigenvalues --    2.74128   2.75336   2.76192   2.76636   2.77542
 Alpha virt. eigenvalues --    2.77886   2.79517   2.79924   2.81705   2.82322
 Alpha virt. eigenvalues --    2.83114   2.85033   2.85644   2.86655   2.87280
 Alpha virt. eigenvalues --    2.88198   2.88452   2.89520   2.90484   2.91067
 Alpha virt. eigenvalues --    2.92188   2.93248   2.93804   2.94086   2.95616
 Alpha virt. eigenvalues --    2.96495   2.97281   2.99743   3.02301   3.06203
 Alpha virt. eigenvalues --    3.07642   3.08101   3.10419   3.10900   3.13349
 Alpha virt. eigenvalues --    3.19810   3.21205   3.25664   3.27754   3.29488
 Alpha virt. eigenvalues --    3.31062   3.31148   3.36289   3.37612   3.39153
 Alpha virt. eigenvalues --    3.40103   3.42339   3.45422   3.47168   3.47868
 Alpha virt. eigenvalues --    3.49532   3.50058   3.51124   3.51617   3.52339
 Alpha virt. eigenvalues --    3.54084   3.54711   3.57728   3.57979   3.58537
 Alpha virt. eigenvalues --    3.59779   3.61801   3.63855   3.66293   3.71845
 Alpha virt. eigenvalues --    3.80643   4.35950   4.37474   4.39525   4.46724
 Alpha virt. eigenvalues --    4.48188   4.50192   4.52493   4.53034   4.55680
 Alpha virt. eigenvalues --    4.59436   4.60827   4.63487   4.67586   4.70900
 Alpha virt. eigenvalues --    4.73164   4.74789   4.76985   4.84878   4.91182
 Alpha virt. eigenvalues --    4.95355   5.00180   5.04239
          Condensed to atoms (all electrons):
              1          2          3          4          5          6
     1  C   13.697584  -1.977424  -0.098817  -0.045877  -0.621429   0.011277
     2  C   -1.977424   7.472060   0.392147   0.365312   0.424977  -0.016351
     3  H   -0.098817   0.392147   0.518095  -0.025608  -0.055535  -0.004853
     4  H   -0.045877   0.365312  -0.025608   0.526855  -0.031917  -0.002497
     5  C   -0.621429   0.424977  -0.055535  -0.031917   8.197256   0.491154
     6  H    0.011277  -0.016351  -0.004853  -0.002497   0.491154   0.542009
     7  C    2.187645  -0.495006   0.047297   0.010450  -3.899075  -0.326646
     8  H   -0.057514  -0.003859   0.003638  -0.000033  -0.026334  -0.005652
     9  C   -0.175218   0.149666  -0.037176   0.022013   1.211806   0.147295
    10  H   -0.060259   0.009377   0.000113  -0.000039  -0.068955  -0.000031
    11  C   -4.381945   0.721370   0.065433   0.056969  -0.008335  -0.032642
    12  H   -0.022048   0.028677  -0.000065  -0.000113  -0.026175   0.000010
    13  C    0.095590  -0.287755  -0.010230   0.000428   0.280480   0.029058
    14  C    0.025198  -0.003944  -0.000100  -0.000026   0.034787   0.000060
    15  C    0.758511  -0.040815   0.003716  -0.002170   0.034166  -0.018446
    16  C   -0.676530   0.061277   0.000995   0.000733   0.270445   0.008626
    17  C   -0.190899   0.014980   0.000210   0.000042   0.025628   0.000729
    18  C   -0.174898   0.003167   0.000679  -0.000021  -0.124575  -0.002309
    19  H   -0.000126   0.000020   0.000000   0.000000  -0.000145   0.000000
    20  H   -0.000084  -0.000010   0.000000   0.000000   0.000041   0.000000
    21  O   -0.023924   0.011935  -0.000002   0.000004   0.015895  -0.000002
    22  H    0.000313   0.000075   0.000000   0.000000  -0.000503   0.000000
    23  O    0.038580  -0.001318  -0.000027   0.000006   0.012486   0.000070
    24  H    0.003232  -0.012056  -0.000057   0.000001   0.005700  -0.000011
    25  O    0.037168  -0.047696   0.003954  -0.001358  -0.122665  -0.000090
    26  H   -0.000486   0.010257   0.000221  -0.000011   0.014250   0.000000
    27  C   -2.846871   0.255077   0.019711  -0.038634  -0.348119  -0.010608
    28  H   -0.156166   0.021932   0.000176   0.002006   0.009457  -0.000002
    29  H   -0.032643   0.014973   0.000035  -0.000023  -0.008081   0.000002
    30  H   -0.175687   0.033269   0.001562   0.000310   0.002820  -0.000004
    31  O    0.208588  -0.193670   0.009785  -0.003127   0.050865  -0.001023
    32  H    0.090701   0.052799  -0.000226  -0.000028  -0.009498   0.000011
    33  H   -0.018159  -0.069918   0.004656  -0.004559   0.400208  -0.029047
    34  C    0.378305  -0.557565  -0.029776  -0.002346   1.027923   0.068263
    35  C    0.011770  -0.098669   0.009549  -0.001496  -0.496778  -0.000578
    36  H    0.000436   0.000682   0.000000   0.000000  -0.007527  -0.000043
    37  H    0.004100  -0.004344   0.000001   0.000000  -0.021493   0.000008
    38  C    0.089579   0.052937  -0.003203  -0.000971   0.007751  -0.018491
    39  H   -0.003488   0.006780  -0.000005   0.000004   0.052291   0.000089
    40  H    0.000626   0.001366   0.000000   0.000000  -0.003398  -0.000022
    41  H   -0.006534  -0.001994   0.000000   0.000001   0.000004   0.000077
    42  C   -0.007172  -0.000129  -0.000002   0.000000   0.007747   0.000004
    43  H   -0.000004   0.000000   0.000000   0.000000   0.000010   0.000000
    44  H    0.000010  -0.000001   0.000000   0.000000  -0.000004   0.000000
    45  C    0.000300  -0.000089   0.000000   0.000000  -0.000104   0.000000
    46  H    0.000000   0.000000   0.000000   0.000000   0.000000   0.000000
    47  H    0.000005   0.000000   0.000000   0.000000  -0.000001   0.000000
    48  H   -0.000011   0.000000   0.000000   0.000000   0.000001   0.000000
              7          8          9         10         11         12
     1  C    2.187645  -0.057514  -0.175218  -0.060259  -4.381945  -0.022048
     2  C   -0.495006  -0.003859   0.149666   0.009377   0.721370   0.028677
     3  H    0.047297   0.003638  -0.037176   0.000113   0.065433  -0.000065
     4  H    0.010450  -0.000033   0.022013  -0.000039   0.056969  -0.000113
     5  C   -3.899075  -0.026334   1.211806  -0.068955  -0.008335  -0.026175
     6  H   -0.326646  -0.005652   0.147295  -0.000031  -0.032642   0.000010
     7  C   25.508014   0.308655  -6.053709   0.073222   0.085949  -0.023509
     8  H    0.308655   0.564578   0.108370   0.004981   0.039941  -0.000167
     9  C   -6.053709   0.108370  15.872407   0.375690  -2.225979  -0.020451
    10  H    0.073222   0.004981   0.375690   0.515020   0.153821  -0.003833
    11  C    0.085949   0.039941  -2.225979   0.153821  14.190059   0.228080
    12  H   -0.023509  -0.000167  -0.020451  -0.003833   0.228080   0.565303
    13  C   -3.034734   0.137434   4.423362  -0.190446  -1.644734   0.051719
    14  C   -0.636796  -0.007271  -0.737773  -0.012196  -0.351005   0.008452
    15  C    1.663209  -0.173791  -2.421217  -0.123700  -2.416088   0.058991
    16  C   -4.184527   0.055140  -0.250922   0.046089  -0.289054   0.074606
    17  C   -1.256824   0.015269  -1.277180   0.046430   0.070055   0.020881
    18  C   -0.545908  -0.036800  -1.306014   0.007991   0.931468   0.004334
    19  H    0.000012   0.000000   0.001130  -0.000007   0.001155   0.000002
    20  H   -0.000411   0.000004   0.006608   0.000001  -0.001373   0.000000
    21  O   -0.046087  -0.000241  -0.093975   0.002357  -0.004373  -0.000022
    22  H   -0.001469   0.000000   0.030084   0.000085   0.002778   0.000021
    23  O    0.071717   0.006173   0.157716   0.000472  -0.035625  -0.002834
    24  H   -0.100085   0.001118  -0.022246  -0.000065  -0.004762   0.000568
    25  O    0.416335   0.006118  -0.291160   0.011092   0.250137  -0.043840
    26  H   -0.015741   0.000003   0.046178  -0.000190  -0.016881  -0.008580
    27  C    0.559646   0.010003  -1.208292   0.027612   1.563313  -0.054115
    28  H   -0.009560   0.000000   0.006980  -0.000005   0.041002  -0.000059
    29  H   -0.010373   0.000000   0.018785   0.000005  -0.013010   0.002659
    30  H    0.001932   0.000016  -0.010626   0.000001   0.022355   0.000510
    31  O    0.152509   0.001082  -0.144967   0.010802   0.253520  -0.009440
    32  H    0.020393  -0.000003   0.016400  -0.000123  -0.124524   0.004683
    33  H    0.060297   0.005096  -0.038303   0.003664   0.016666  -0.000056
    34  C   -6.135626  -0.206098   0.446525  -0.033581  -0.902481  -0.002043
    35  C    1.113223   0.115197   0.353932   0.023109   0.168596   0.000034
    36  H    0.055170   0.000304   0.002394   0.000005   0.001553   0.000000
    37  H   -0.006036   0.005611   0.036639  -0.000004  -0.001125   0.000000
    38  C    0.537836  -0.028991  -0.485122  -0.015769  -0.011303  -0.002241
    39  H   -0.078593  -0.000095  -0.009465  -0.000079   0.011904   0.000000
    40  H    0.022633  -0.000076  -0.005287  -0.000015   0.000610   0.000000
    41  H    0.026797  -0.000101   0.000403  -0.000097  -0.025363   0.000005
    42  C   -0.187306   0.000375  -0.297224  -0.000445  -0.021561   0.000244
    43  H   -0.000134   0.000000   0.000150   0.000000  -0.000023   0.000000
    44  H   -0.000202   0.000000   0.002229   0.000000   0.000067   0.000000
    45  C    0.000409   0.000002   0.004018   0.000004  -0.000579   0.000022
    46  H    0.000007   0.000000   0.000147   0.000000   0.000013   0.000000
    47  H   -0.000080   0.000000   0.000395   0.000000  -0.000110   0.000000
    48  H    0.000003   0.000000  -0.000521   0.000000  -0.000153   0.000000
             13         14         15         16         17         18
     1  C    0.095590   0.025198   0.758511  -0.676530  -0.190899  -0.174898
     2  C   -0.287755  -0.003944  -0.040815   0.061277   0.014980   0.003167
     3  H   -0.010230  -0.000100   0.003716   0.000995   0.000210   0.000679
     4  H    0.000428  -0.000026  -0.002170   0.000733   0.000042  -0.000021
     5  C    0.280480   0.034787   0.034166   0.270445   0.025628  -0.124575
     6  H    0.029058   0.000060  -0.018446   0.008626   0.000729  -0.002309
     7  C   -3.034734  -0.636796   1.663209  -4.184527  -1.256824  -0.545908
     8  H    0.137434  -0.007271  -0.173791   0.055140   0.015269  -0.036800
     9  C    4.423362  -0.737773  -2.421217  -0.250922  -1.277180  -1.306014
    10  H   -0.190446  -0.012196  -0.123700   0.046089   0.046430   0.007991
    11  C   -1.644734  -0.351005  -2.416088  -0.289054   0.070055   0.931468
    12  H    0.051719   0.008452   0.058991   0.074606   0.020881   0.004334
    13  C   23.408293  -2.789936 -12.698676   0.647714  -2.726848   1.860047
    14  C   -2.789936  11.056616   3.580833  -0.001655  -0.152568  -1.943087
    15  C  -12.698676   3.580833  33.376445  -1.666098  -2.908964 -10.142989
    16  C    0.647714  -0.001655  -1.666098  11.006199   1.415354  -0.844673
    17  C   -2.726848  -0.152568  -2.908964   1.415354  13.433447  -1.095526
    18  C    1.860047  -1.943087 -10.142989  -0.844673  -1.095526  18.297659
    19  H    0.078048   0.040072  -0.055025  -0.060485   0.275906   0.053658
    20  H    0.057767   0.066332   0.080210  -0.003166   0.034811   0.106521
    21  O   -0.074338   0.013244   0.023053   0.253931  -0.069389  -0.003990
    22  H    0.121203   0.018143  -0.026868   0.042813  -0.195368   0.014589
    23  O   -0.450804   0.152389   0.932561  -0.084041  -0.017327  -0.657832
    24  H    0.010444  -0.010987  -0.023815   0.026669  -0.001244   0.151520
    25  O   -0.037721  -0.028368  -0.031173  -0.139075  -0.044282  -0.023240
    26  H   -0.031761   0.002271   0.030180  -0.002226  -0.001199  -0.010002
    27  C   -0.435947  -0.018182  -0.071210  -0.154432  -0.020336   0.046291
    28  H   -0.001881  -0.000025  -0.001621   0.000173   0.000015  -0.000082
    29  H    0.000389  -0.000089  -0.004648   0.003226   0.000397  -0.000382
    30  H   -0.002241   0.000129   0.010091  -0.001047  -0.000155   0.001198
    31  O   -0.134386  -0.004469  -0.019363  -0.081579  -0.008070   0.002755
    32  H   -0.012117  -0.000336  -0.005363  -0.003003   0.000011  -0.000138
    33  H   -0.010499  -0.000104  -0.008575   0.010457   0.002085   0.000219
    34  C   -0.340172   0.418647   1.146806   0.865688   0.103982  -0.054567
    35  C    0.650878  -0.206427  -1.218148   0.123265   0.254606   0.128920
    36  H   -0.004209   0.000527   0.005070  -0.000894   0.000379   0.002184
    37  H    0.020928  -0.002672   0.005836   0.002653   0.002399  -0.029384
    38  C   -0.026742   0.019068   0.409901  -0.524465  -0.356787  -0.040345
    39  H   -0.011347   0.000450   0.008380  -0.002115  -0.001360   0.001876
    40  H    0.000294  -0.000086   0.002657   0.003016   0.000119   0.001568
    41  H    0.044207  -0.004580  -0.012372  -0.005798  -0.009890  -0.004459
    42  C   -1.388281  -2.231751  -0.642203  -0.216485   0.737322   0.961194
    43  H    0.005585  -0.273603   0.022886  -0.029220  -0.098299   0.197233
    44  H   -0.013530  -0.250695  -0.002191   0.053857   0.168331  -0.144325
    45  C    0.028892  -0.001847   0.042223  -0.001616   0.015948   0.000881
    46  H    0.001306   0.010210   0.002068   0.001717   0.007882   0.005771
    47  H   -0.011289  -0.027858   0.014034   0.004103   0.023602  -0.052162
    48  H   -0.002118  -0.050935  -0.006098  -0.010200  -0.015780   0.030509
             19         20         21         22         23         24
     1  C   -0.000126  -0.000084  -0.023924   0.000313   0.038580   0.003232
     2  C    0.000020  -0.000010   0.011935   0.000075  -0.001318  -0.012056
     3  H    0.000000   0.000000  -0.000002   0.000000  -0.000027  -0.000057
     4  H    0.000000   0.000000   0.000004   0.000000   0.000006   0.000001
     5  C   -0.000145   0.000041   0.015895  -0.000503   0.012486   0.005700
     6  H    0.000000   0.000000  -0.000002   0.000000   0.000070  -0.000011
     7  C    0.000012  -0.000411  -0.046087  -0.001469   0.071717  -0.100085
     8  H    0.000000   0.000004  -0.000241   0.000000   0.006173   0.001118
     9  C    0.001130   0.006608  -0.093975   0.030084   0.157716  -0.022246
    10  H   -0.000007   0.000001   0.002357   0.000085   0.000472  -0.000065
    11  C    0.001155  -0.001373  -0.004373   0.002778  -0.035625  -0.004762
    12  H    0.000002   0.000000  -0.000022   0.000021  -0.002834   0.000568
    13  C    0.078048   0.057767  -0.074338   0.121203  -0.450804   0.010444
    14  C    0.040072   0.066332   0.013244   0.018143   0.152389  -0.010987
    15  C   -0.055025   0.080210   0.023053  -0.026868   0.932561  -0.023815
    16  C   -0.060485  -0.003166   0.253931   0.042813  -0.084041   0.026669
    17  C    0.275906   0.034811  -0.069389  -0.195368  -0.017327  -0.001244
    18  C    0.053658   0.106521  -0.003990   0.014589  -0.657832   0.151520
    19  H    0.521159  -0.000140  -0.017726   0.008211   0.000145   0.000000
    20  H   -0.000140   0.518021   0.000081  -0.000001  -0.005777   0.000096
    21  O   -0.017726   0.000081   8.318892   0.200970  -0.002156  -0.000073
    22  H    0.008211  -0.000001   0.200970   0.366396   0.000037   0.000000
    23  O    0.000145  -0.005777  -0.002156   0.000037   8.348970   0.187484
    24  H    0.000000   0.000096  -0.000073   0.000000   0.187484   0.312063
    25  O    0.000007  -0.000016  -0.000908  -0.000015   0.000463   0.014580
    26  H    0.000000   0.000000  -0.000075   0.000000   0.003113   0.000533
    27  C    0.000002  -0.000012   0.001438   0.000042   0.000465  -0.006312
    28  H    0.000000   0.000000   0.000001   0.000000   0.000003   0.000000
    29  H    0.000000   0.000000   0.000015   0.000000   0.000008  -0.000003
    30  H    0.000000   0.000000   0.000006   0.000000  -0.000143   0.000045
    31  O    0.000002   0.000000  -0.001948  -0.000026   0.000740  -0.000201
    32  H    0.000000   0.000000   0.000517   0.000003   0.000017   0.000001
    33  H    0.000000   0.000000  -0.000165   0.000000   0.000042  -0.000005
    34  C   -0.001587  -0.002740   0.039020   0.000909  -0.092599   0.003341
    35  C    0.000175   0.002835  -0.004667   0.000241   0.025541   0.008802
    36  H    0.000000   0.000000  -0.000059   0.000000   0.000031  -0.000002
    37  H    0.000000  -0.000003  -0.000028   0.000000   0.003093  -0.000101
    38  C    0.000354   0.000226  -0.014830   0.000400  -0.014525  -0.002470
    39  H    0.000000   0.000000   0.000096   0.000000  -0.000023   0.000000
    40  H    0.000000   0.000000   0.000053   0.000001  -0.000011   0.000000
    41  H   -0.000001   0.000000   0.002804  -0.000219  -0.000077   0.000002
    42  C   -0.017467  -0.030700  -0.005454   0.001608  -0.036032   0.002912
    43  H    0.000077   0.001643   0.000042   0.000000   0.000058   0.000000
    44  H    0.002106   0.000097   0.000038  -0.000001   0.000027   0.000000
    45  C    0.007477   0.004779   0.000163  -0.000014   0.001046  -0.000009
    46  H   -0.000030  -0.000027   0.000000   0.000000   0.000000   0.000000
    47  H    0.000011   0.000181   0.000004   0.000000  -0.000028   0.000000
    48  H    0.000171   0.000005   0.000022   0.000001   0.000005   0.000000
             25         26         27         28         29         30
     1  C    0.037168  -0.000486  -2.846871  -0.156166  -0.032643  -0.175687
     2  C   -0.047696   0.010257   0.255077   0.021932   0.014973   0.033269
     3  H    0.003954   0.000221   0.019711   0.000176   0.000035   0.001562
     4  H   -0.001358  -0.000011  -0.038634   0.002006  -0.000023   0.000310
     5  C   -0.122665   0.014250  -0.348119   0.009457  -0.008081   0.002820
     6  H   -0.000090   0.000000  -0.010608  -0.000002   0.000002  -0.000004
     7  C    0.416335  -0.015741   0.559646  -0.009560  -0.010373   0.001932
     8  H    0.006118   0.000003   0.010003   0.000000   0.000000   0.000016
     9  C   -0.291160   0.046178  -1.208292   0.006980   0.018785  -0.010626
    10  H    0.011092  -0.000190   0.027612  -0.000005   0.000005   0.000001
    11  C    0.250137  -0.016881   1.563313   0.041002  -0.013010   0.022355
[...]
    16  C   -0.120324   0.001437  -0.120734   0.000208   0.002711  -0.000538
    17  C   -0.041293  -0.000297  -0.022571   0.000020   0.000350  -0.000102
    18  C    0.042235  -0.015830   0.043801  -0.000084  -0.000370   0.000814
    19  H    0.000004   0.000000   0.000004   0.000000   0.000000   0.000000
    20  H   -0.000055   0.000000  -0.000015   0.000000   0.000000   0.000000
    21  O   -0.001091  -0.000065   0.005579   0.000003   0.000010   0.000006
    22  H   -0.000002   0.000000   0.000134   0.000000   0.000000   0.000000
    23  O   -0.011423   0.004606  -0.001512   0.000004   0.000012  -0.000123
    24  H    0.023408  -0.000241  -0.005067   0.000000  -0.000002   0.000040
    25  O    8.507356   0.239977  -0.006870  -0.000824  -0.002983   0.006115
    26  H    0.239977   0.307653  -0.004715  -0.000066   0.000260   0.000166
    27  C   -0.006870  -0.004715   7.923316   0.480521   0.467096   0.473922
    28  H   -0.000824  -0.000066   0.480521   0.529159  -0.028372  -0.025406
    29  H   -0.002983   0.000260   0.467096  -0.028372   0.536927  -0.027339
    30  H    0.006115   0.000166   0.473922  -0.025406  -0.027339   0.529376
    31  O    0.014492   0.000057  -0.062836  -0.002204  -0.010403   0.009583
    32  H    0.001249  -0.000003  -0.000109  -0.000462   0.003334  -0.000006
    33  H    0.000487   0.000003  -0.000577   0.000001   0.000001   0.000000
    34  C   -0.023329  -0.001988  -0.099528   0.000141  -0.000198  -0.000125
    35  C    0.015091  -0.000250   0.004143  -0.000016  -0.000014   0.000063
    36  H   -0.000009   0.000000   0.000026   0.000000   0.000000   0.000000
    37  H    0.000053   0.000000   0.000217   0.000000   0.000000   0.000000
    38  C    0.000398  -0.000006   0.004957   0.000012  -0.000135  -0.000045
    39  H   -0.000023   0.000000   0.000303   0.000000   0.000000   0.000000
    40  H   -0.000006   0.000000   0.000001   0.000000   0.000000   0.000000
    41  H    0.000081   0.000000  -0.001138   0.000000   0.000000   0.000000
    42  C   -0.006779   0.000081  -0.000550   0.000000  -0.000003   0.000001
    43  H   -0.000001   0.000000   0.000000   0.000000   0.000000   0.000000
    44  H    0.000000   0.000000   0.000000   0.000000   0.000000   0.000000
    45  C    0.000047  -0.000001  -0.000141   0.000000   0.000000   0.000000
    46  H    0.000000   0.000000   0.000000   0.000000   0.000000   0.000000
    47  H    0.000001   0.000000   0.000000   0.000000   0.000000   0.000000
    48  H    0.000000   0.000000  -0.000001   0.000000   0.000000   0.000000
             31         32         33         34         35         36
     1  C    0.129730   0.069332  -0.050368   0.343688   0.040242   0.000685
     2  C   -0.185614   0.035922  -0.061041  -0.393470  -0.191298  -0.000989
     3  H    0.008326  -0.000216   0.005052  -0.034753   0.009415   0.000000
     4  H   -0.003273   0.000013  -0.004988  -0.010930  -0.000439   0.000000
     5  C    0.071271  -0.011145   0.517107   0.929628  -0.505037  -0.005174
     6  H   -0.000913   0.000011  -0.033328   0.070642   0.001265  -0.000044
     7  C    0.083123   0.019326  -0.151204  -4.688875   0.562168   0.013655
     8  H    0.001402  -0.000004   0.005460  -0.199371   0.076136   0.000339
     9  C   -0.081016   0.013569   0.060151   0.226906   0.534157   0.000761
    10  H    0.012072  -0.000395   0.003724  -0.048815   0.009227   0.000006
    11  C    0.181333  -0.115024   0.011244  -1.022893   0.147313   0.000461
    12  H   -0.009339   0.004881  -0.000051  -0.000258   0.000808   0.000000
    13  C   -0.085546  -0.004178   0.000739  -0.733101   0.687964   0.001795
    14  C   -0.002999  -0.000133   0.000064   0.401386  -0.156015   0.000351
    15  C   -0.027268  -0.002012  -0.016670   1.534966  -1.312994  -0.000163
    16  C   -0.058158  -0.004113   0.023345   0.648405   0.257643  -0.001229
    17  C   -0.004843  -0.000403   0.003379   0.089061   0.322512   0.000028
    18  C    0.002569   0.000111  -0.000302  -0.197017   0.115091   0.001731
    19  H    0.000002   0.000000   0.000000  -0.001201   0.000304   0.000000
    20  H    0.000000   0.000000   0.000000  -0.002308   0.002562   0.000000
    21  O   -0.002520   0.000298  -0.000060   0.036396  -0.010271  -0.000058
    22  H   -0.000032   0.000001   0.000000   0.000698   0.000359   0.000000
    23  O    0.000803   0.000012   0.000040  -0.110354   0.050666   0.000110
    24  H   -0.000253   0.000001  -0.000008   0.007332   0.003941  -0.000001
    25  O    0.014492   0.001249   0.000487  -0.023329   0.015091  -0.000009
    26  H    0.000057  -0.000003   0.000003  -0.001988  -0.000250   0.000000
    27  C   -0.062836  -0.000109  -0.000577  -0.099528   0.004143   0.000026
    28  H   -0.002204  -0.000462   0.000001   0.000141  -0.000016   0.000000
    29  H   -0.010403   0.003334   0.000001  -0.000198  -0.000014   0.000000
    30  H    0.009583  -0.000006   0.000000  -0.000125   0.000063   0.000000
    31  O    8.373771   0.248945   0.010282  -0.024041   0.009412   0.000002
    32  H    0.248945   0.336287  -0.000204   0.000072   0.000324   0.000000
    33  H    0.010282  -0.000204   0.561600  -0.023111   0.050061   0.000007
    34  C   -0.024041   0.000072  -0.023111  11.849905  -2.607116  -0.133724
    35  C    0.009412   0.000324   0.050061  -2.607116   8.791163   0.468487
    36  H    0.000002   0.000000   0.000007  -0.133724   0.468487   0.538091
    37  H    0.000004   0.000000  -0.000003  -0.224593   0.634592  -0.035337
    38  C   -0.000749  -0.000066  -0.065123   0.081953  -1.396697   0.000747
    39  H   -0.000318   0.000000  -0.001260  -0.083597  -0.039543   0.000222
    40  H   -0.000008   0.000000   0.000042  -0.067266  -0.052119   0.003553
    41  H    0.000053   0.000005  -0.000023  -0.146820  -0.017036   0.000161
    42  C    0.000064  -0.000002   0.000009   0.029795   0.015986   0.000261
    43  H    0.000000   0.000000   0.000000   0.000299  -0.000196   0.000000
    44  H    0.000000   0.000000   0.000000   0.000143  -0.000091   0.000000
    45  C    0.000005   0.000000   0.000000  -0.001566  -0.000177   0.000001
    46  H    0.000000   0.000000   0.000000   0.000007  -0.000004   0.000000
    47  H    0.000000   0.000000   0.000000   0.000027  -0.000017   0.000000
    48  H    0.000000   0.000000   0.000000   0.000016  -0.000007   0.000000
             37         38         39         40         41         42
     1  C    0.004914   0.099718  -0.005435   0.000822  -0.005841  -0.005816
     2  C   -0.004454   0.081438   0.006400  -0.001197   0.001495  -0.000401
     3  H    0.000000  -0.004135  -0.000005   0.000000   0.000000  -0.000005
     4  H    0.000000  -0.002392   0.000003   0.000000   0.000001   0.000000
     5  C   -0.021120   0.020264   0.041031   0.005526  -0.015441   0.007934
     6  H   -0.000003  -0.017880   0.000043  -0.000017   0.000080   0.000006
     7  C   -0.048189   0.236407  -0.044098  -0.052351   0.089170  -0.145853
     8  H    0.006016  -0.025845  -0.000102  -0.000083  -0.000100   0.000322
     9  C    0.028962  -0.619310  -0.016648  -0.006031  -0.012069  -0.177521
    10  H   -0.000004  -0.004242  -0.000077   0.000005  -0.000005  -0.000614
    11  C    0.000492  -0.115966   0.011010  -0.002040  -0.015516  -0.054217
    12  H    0.000000  -0.002760   0.000000   0.000000   0.000004   0.000336
    13  C    0.002152  -0.004832  -0.009489   0.005691   0.030171  -1.201793
    14  C   -0.001250   0.024206  -0.000245   0.000970  -0.003416  -2.187544
    15  C    0.016039   0.443048   0.008641  -0.000499  -0.014355  -0.565393
    16  C    0.002692  -0.559215  -0.008307   0.008178  -0.026686  -0.279064
    17  C    0.002608  -0.415317  -0.003084   0.002170  -0.011509   0.738978
    18  C   -0.027695   0.009919   0.002463  -0.000076  -0.001192   0.616418
    19  H    0.000000   0.000193   0.000000   0.000000  -0.000001  -0.017634
    20  H   -0.000002   0.000208   0.000000   0.000000   0.000000  -0.018818
    21  O   -0.000044  -0.008050   0.000357   0.000055   0.003274  -0.001696
    22  H    0.000000   0.000411   0.000000   0.000000  -0.000233   0.000863
    23  O    0.003312  -0.022000  -0.000045  -0.000007  -0.000006  -0.023940
    24  H   -0.000104  -0.001311   0.000000   0.000000   0.000002   0.000961
    25  O    0.000053   0.000398  -0.000023  -0.000006   0.000081  -0.006779
    26  H    0.000000  -0.000006   0.000000   0.000000   0.000000   0.000081
    27  C    0.000217   0.004957   0.000303   0.000001  -0.001138  -0.000550
    28  H    0.000000   0.000012   0.000000   0.000000   0.000000   0.000000
    29  H    0.000000  -0.000135   0.000000   0.000000   0.000000  -0.000003
    30  H    0.000000  -0.000045   0.000000   0.000000   0.000000   0.000001
    31  O    0.000004  -0.000749  -0.000318  -0.000008   0.000053   0.000064
    32  H    0.000000  -0.000066   0.000000   0.000000   0.000005  -0.000002
    33  H   -0.000003  -0.065123  -0.001260   0.000042  -0.000023   0.000009
    34  C   -0.224593   0.081953  -0.083597  -0.067266  -0.146820   0.029795
    35  C    0.634592  -1.396697  -0.039543  -0.052119  -0.017036   0.015986
    36  H   -0.035337   0.000747   0.000222   0.003553   0.000161   0.000261
    37  H    0.548098  -0.028401  -0.000191   0.000201  -0.000208   0.000185
    38  C   -0.028401   7.439674   0.488828   0.510442   0.496586  -0.011814
    39  H   -0.000191   0.488828   0.536616  -0.027039  -0.028831  -0.000020
    40  H    0.000201   0.510442  -0.027039   0.541105  -0.027028  -0.000008
    41  H   -0.000208   0.496586  -0.028831  -0.027028   0.535465  -0.000168
    42  C    0.000185  -0.011814  -0.000020  -0.000008  -0.000168   8.272439
    43  H    0.000000   0.000042   0.000000   0.000000   0.000000   0.535272
    44  H    0.000000   0.000020   0.000000   0.000000   0.000000   0.538891
    45  C   -0.000006   0.000610   0.000000   0.000000   0.000014   0.122861
    46  H    0.000000   0.000001   0.000000   0.000000   0.000000  -0.037156
    47  H    0.000000   0.000000   0.000000   0.000000   0.000000  -0.040272
    48  H    0.000000   0.000001   0.000000   0.000000   0.000000  -0.039352
             43         44         45         46         47         48
     1  C   -0.000002   0.000005   0.000438   0.000000   0.000006  -0.000013
     2  C    0.000000   0.000000  -0.000149   0.000000   0.000000   0.000001
     3  H    0.000000   0.000000   0.000000   0.000000   0.000000   0.000000
     4  H    0.000000   0.000000   0.000000   0.000000   0.000000   0.000000
     5  C    0.000005  -0.000005  -0.000108   0.000000  -0.000003   0.000002
     6  H    0.000000   0.000000   0.000000   0.000000   0.000000   0.000000
     7  C   -0.000205  -0.000149   0.001821   0.000009  -0.000096  -0.000012
     8  H    0.000000   0.000000  -0.000002   0.000000   0.000000   0.000000
     9  C   -0.000071   0.001454   0.001418   0.000177   0.000104  -0.000938
    10  H    0.000000   0.000000   0.000006   0.000000   0.000000   0.000000
    11  C   -0.000051   0.000020   0.000054   0.000000  -0.000158  -0.000166
    12  H    0.000000   0.000000   0.000023   0.000000   0.000000   0.000000
    13  C   -0.009936  -0.014657   0.013732   0.000223  -0.020590  -0.000341
    14  C   -0.207543  -0.207287   0.089990  -0.047283   0.061801   0.016888
    15  C    0.022775  -0.012058   0.032108   0.001521   0.004119  -0.001379
    16  C   -0.023289   0.029671  -0.017109   0.000238   0.015237  -0.031456
    17  C   -0.062949   0.097540  -0.013479   0.004314   0.054166  -0.063504
    18  C    0.088149  -0.090984  -0.038266   0.014490  -0.135959   0.057909
    19  H    0.000109   0.002368   0.003906  -0.000036   0.000016   0.000196
    20  H    0.002148   0.000115   0.002952  -0.000035   0.000246   0.000008
    21  O    0.000033   0.000048   0.000543  -0.000001   0.000002   0.000047
    22  H    0.000000  -0.000003  -0.000062   0.000000   0.000000   0.000000
    23  O    0.000011   0.000026   0.001146  -0.000001  -0.000038   0.000009
    24  H    0.000000   0.000000  -0.000006   0.000000   0.000000   0.000000
    25  O   -0.000001   0.000000   0.000047   0.000000   0.000001   0.000000
    26  H    0.000000   0.000000  -0.000001   0.000000   0.000000   0.000000
    27  C    0.000000   0.000000  -0.000141   0.000000   0.000000  -0.000001
    28  H    0.000000   0.000000   0.000000   0.000000   0.000000   0.000000
    29  H    0.000000   0.000000   0.000000   0.000000   0.000000   0.000000
    30  H    0.000000   0.000000   0.000000   0.000000   0.000000   0.000000
    31  O    0.000000   0.000000   0.000005   0.000000   0.000000   0.000000
    32  H    0.000000   0.000000   0.000000   0.000000   0.000000   0.000000
    33  H    0.000000   0.000000   0.000000   0.000000   0.000000   0.000000
    34  C    0.000299   0.000143  -0.001566   0.000007   0.000027   0.000016
    35  C   -0.000196  -0.000091  -0.000177  -0.000004  -0.000017  -0.000007
    36  H    0.000000   0.000000   0.000001   0.000000   0.000000   0.000000
    37  H    0.000000   0.000000  -0.000006   0.000000   0.000000   0.000000
    38  C    0.000042   0.000020   0.000610   0.000001   0.000000   0.000001
    39  H    0.000000   0.000000   0.000000   0.000000   0.000000   0.000000
    40  H    0.000000   0.000000   0.000000   0.000000   0.000000   0.000000
    41  H    0.000000   0.000000   0.000014   0.000000   0.000000   0.000000
    42  C    0.535272   0.538891   0.122861  -0.037156  -0.040272  -0.039352
    43  H    0.565367  -0.033565  -0.024672  -0.003301  -0.004982   0.004872
    44  H   -0.033565   0.567157  -0.026408  -0.003335   0.004927  -0.004990
    45  C   -0.024672  -0.026408   5.184958   0.422383   0.416781   0.418060
    46  H   -0.003301  -0.003335   0.422383   0.549768  -0.026815  -0.027028
    47  H   -0.004982   0.004927   0.416781  -0.026815   0.542796  -0.028491
    48  H    0.004872  -0.004990   0.418060  -0.027028  -0.028491   0.542112
 Mulliken atomic charges:
              1
     1  C    0.291254
     2  C   -0.286903
     3  H    0.166961
     4  H    0.155919
     5  C   -0.686760
     6  H    0.150628
     7  C    0.147315
     8  H    0.141202
     9  C   -0.313814
    10  H    0.172083
    11  C   -0.232513
    12  H    0.155821
    13  C    0.339339
    14  C    0.013276
    15  C   -1.264893
    16  C    0.506861
    17  C   -0.105131
    18  C    0.368377
    19  H    0.148366
    20  H    0.146380
    21  O   -0.595803
    22  H    0.447067
    23  O   -0.624712
    24  H    0.474676
    25  O   -0.679750
    26  H    0.447466
    27  C   -0.320516
    28  H    0.167484
    29  H    0.163200
    30  H    0.169121
    31  O   -0.594969
    32  H    0.404781
    33  H    0.155520
    34  C    0.628882
    35  C   -0.521757
    36  H    0.145249
    37  H    0.141068
    38  C   -0.633792
    39  H    0.172442
    40  H    0.157013
    41  H    0.171061
    42  C   -0.065231
    43  H    0.151684
    44  H    0.151144
    45  C   -0.591707
    46  H    0.151862
    47  H    0.157191
    48  H    0.157558
 Sum of Mulliken atomic charges =   0.00000
 Mulliken charges with hydrogens summed into heavy atoms:
              1
     1  C    0.291254
     2  C    0.035978
     5  C   -0.380612
     7  C    0.288516
     9  C   -0.141731
    11  C   -0.076692
    13  C    0.339339
    14  C    0.013276
    15  C   -1.264893
    16  C    0.506861
    17  C    0.043235
    18  C    0.514757
    21  O   -0.148736
    23  O   -0.150035
    25  O   -0.232284
    27  C    0.179288
    31  O   -0.190188
    34  C    0.628882
    35  C   -0.235441
    38  C   -0.133276
    42  C    0.237597
    45  C   -0.125095
 Sum of Mulliken charges with hydrogens summed into heavy atoms =   0.00000
 Electronic spatial extent (au):  <R**2>=           7152.4061
 Charge=              0.0000 electrons
 Dipole moment (field-independent basis, Debye):
    X=              0.0023    Y=             -4.3883    Z=              3.6785  Tot=              5.7261
 Quadrupole moment (field-independent basis, Debye-Ang):
   XX=           -126.7380   YY=           -124.8747   ZZ=           -133.8228
   XY=              9.2520   XZ=             13.7977   YZ=              2.7197
 Traceless Quadrupole moment (field-independent basis, Debye-Ang):
   XX=              1.7405   YY=              3.6038   ZZ=             -5.3443
   XY=              9.2520   XZ=             13.7977   YZ=              2.7197
 Octapole moment (field-independent basis, Debye-Ang**2):
  XXX=             55.7163  YYY=            -57.7480  ZZZ=             57.3621  XYY=            -37.2356
  XXY=            -18.0337  XXZ=             -3.5801  XZZ=             19.6278  YZZ=            -12.6687
  YYZ=              8.1285  XYZ=              0.5965
 Hexadecapole moment (field-independent basis, Debye-Ang**3):
 XXXX=          -6223.1139 YYYY=          -2036.3785 ZZZZ=          -1143.5317 XXXY=             48.5647
 XXXZ=            121.9176 YYYX=            139.9569 YYYZ=             59.1283 ZZZX=            104.4609
 ZZZY=              8.4940 XXYY=          -1423.7493 XXZZ=          -1234.4202 YYZZ=           -540.2775
 XXYZ=             15.9972 YYXZ=            -22.3174 ZZXY=             48.4423
 N-N= 1.982727954799D+03 E-N=-6.298620391729D+03  KE= 9.931644071995D+02

 Test job not archived.
 1\1\GINC-COMPUTE-10-4\SP\RB3LYP\6-31+G(d,p)\C18H26O4\LPASSAGLIA.IQUIR\
 23-Dec-2022\0\\# B3LYP/6-31+G** geom=allcheck test scrf=(pcm,solvent=w
 ater,smd,dovacuum)\\comment\\0,1\C,0,-1.8208912,0.774424278,-2.6510418
 1\C,0,-2.552247098,1.912355495,-1.918582233\H,0,-1.977479807,2.8440980
 19,-1.991115104\H,0,-3.525364018,2.095879742,-2.391546135\C,0,-2.79878
 9785,1.589618757,-0.442331143\H,0,-3.27435687,2.455151581,0.036107795\
 C,0,-1.498704294,1.225544068,0.307047094\H,0,-0.87105993,2.125227045,0
 .265670108\C,0,-0.755066666,0.070765909,-0.433488188\H,0,-1.463480125,
 -0.767086659,-0.451561734\C,0,-0.492774345,0.429223644,-1.921801801\H,
 0,-0.016142265,-0.432517942,-2.407683378\C,0,0.522172574,-0.423738139,
 0.253845152\C,0,2.79317403,-1.407029636,1.666616881\C,0,1.589901583,0.
 415637746,0.608977837\C,0,0.655629379,-1.78411084,0.584398942\C,0,1.76
 7833137,-2.273867923,1.278651835\C,0,2.697170193,-0.058162272,1.316419
 248\H,0,1.845201069,-3.329833682,1.521684179\H,0,3.491065933,0.6373267
 08,1.578779197\O,0,-0.325100328,-2.663978292,0.207214413\H,0,-0.147897
 044,-3.523236289,0.62375168\O,0,1.640872371,1.739673146,0.269530334\H,
 0,1.122498741,1.843452892,-0.557537124\O,0,0.419385238,1.538023019,-2.
 011593494\H,0,0.793750018,1.525868459,-2.9127169\C,0,-1.581082896,1.17
 257401,-4.111553254\H,0,-2.533305057,1.310757633,-4.636839574\H,0,-1.0
 45629199,0.379542274,-4.645778933\H,0,-1.00579241,2.099390987,-4.19967
 4055\O,0,-2.686423083,-0.367741191,-2.665294982\H,0,-2.214665673,-1.10
 8554394,-3.08413857\H,0,-3.52023984,0.765604198,-0.382483906\C,0,-1.79
 2149495,0.932793646,1.780892142\C,0,-1.229416325,1.670596076,2.7541589
 39\H,0,-1.418545016,1.471664526,3.804162653\H,0,-0.545792158,2.4837947
 67,2.526672441\C,0,-2.713756654,-0.207310793,2.121989196\H,0,-3.727159
 159,-0.010142331,1.76065502\H,0,-2.781598554,-0.36542981,3.204095268\H
 ,0,-2.361092213,-1.144097105,1.682606879\C,0,3.998722312,-1.92036355,2
 .409338812\H,0,4.381358876,-1.138932761,3.077212328\H,0,3.704541084,-2
 .75498866,3.057353463\C,0,5.099371221,-2.369649112,1.460514631\H,0,5.9
 60787585,-2.737006825,2.027181337\H,0,5.438046654,-1.544025556,0.82543
 0558\H,0,4.75451951,-3.177184862,0.805803952\\Version=EM64L-G09RevC.01
 \State=1-A\HF=-1002.558645\RMSD=6.459e-09\Dipole=0.2967863,-1.5220463,
 -1.6341884\Quadrupole=-9.9014336,3.1729141,6.7285195,-4.8481702,-1.421
 0573,-8.1696984\PG=C01 [X(C18H26O4)]\\@


 DO NOT LET SELFISH MEN OR GREEDY INTERESTS SKIN YOUR COUNTRY OF ITS
 BEAUTY, ITS RICHES, OR ITS ROMANCE. -- THEODORE ROOSEVELT
 Job cpu time:  0 days  1 hours 12 minutes 40.3 seconds.
 File lengths (MBytes):  RWF=    242 Int=      0 D2E=      0 Chk=     19 Scr=      1
 Normal termination of Gaussian 09 at Fri Dec 23 14:39:45 2022.
