 Entering Gaussian System, Link 0=g09
 Input=/home/lpassaglia.iquir/Link1/01_RRSS_THC_001.gjc
 Output=/home/lpassaglia.iquir/Link1/01_RRSS_THC_001.log
 Initial command:
 /share/apps/Gaussian09/EM64T.SSE4.2-enabled/g09/l1.exe /tmp/Gau-23804.inp -scrdir=/tmp/
 Entering Link 1 = /share/apps/Gaussian09/EM64T.SSE4.2-enabled/g09/l1.exe PID=     23805.
  
 Copyright (c) 1988,1990,1992,1993,1995,1998,2003,2009,2011,
            Gaussian, Inc.  All Rights Reserved.
  
 This is part of the Gaussian(R) 09 program.  It is based on
 the Gaussian(R) 03 system (copyright 2003, Gaussian, Inc.),
 the Gaussian(R) 98 system (copyright 1998, Gaussian, Inc.),
 the Gaussian(R) 94 system (copyright 1995, Gaussian, Inc.),
 the Gaussian 92(TM) system (copyright 1992, Gaussian, Inc.),
 the Gaussian 90(TM) system (copyright 1990, Gaussian, Inc.),
 the Gaussian 88(TM) system (copyright 1988, Gaussian, Inc.),
 the Gaussian 86(TM) system (copyright 1986, Carnegie Mellon
 University), and the Gaussian 82(TM) system (copyright 1983,
 Carnegie Mellon University). Gaussian is a federally registered
 trademark of Gaussian, Inc.
  
 This software contains proprietary and confidential information,
 including trade secrets, belonging to Gaussian, Inc.
  
 This software is provided under written license and may be
 used, copied, transmitted, or stored only in accord with that
 written license.
  
 The following legend is applicable only to US Government
 contracts under FAR:
  
                    RESTRICTED RIGHTS LEGEND
  
 Use, reproduction and disclosure by the US Government is
 subject to restrictions as set forth in subparagraphs (a)
 and (c) of the Commercial Computer Software - Restricted
 Rights clause in FAR 52.227-19.
  
 Gaussian, Inc.
 340 Quinnipiac St., Bldg. 40, Wallingford CT 06492
  
  
 ---------------------------------------------------------------
 Warning -- This program may not be used in any manner that
 competes with the business of Gaussian, Inc. or will provide
 assistance to any competitor of Gaussian, Inc.  The licensee
 of this program is prohibited from giving any competitor of
 Gaussian, Inc. access to this program.  By using this program,
 the user acknowledges that Gaussian, Inc. is engaged in the
 business of creating and licensing software in the field of
 computational chemistry and represents and warrants to the
 licensee that it is not a competitor of Gaussian, Inc. and that
 it will not use this program in any manner prohibited above.
 ---------------------------------------------------------------
  

 Cite this work as:
 Gaussian 09, Revision C.01,
 M. J. Frisch, G. W. Trucks, H. B. Schlegel, G. E. Scuseria, 
 M. A. Robb, J. R. Cheeseman, G. Scalmani, V. Barone, B. Mennucci, 
 G. A. Petersson, H. Nakatsuji, M. Caricato, X. Li, H. P. Hratchian, 
 A. F. Izmaylov, J. Bloino, G. Zheng, J. L. Sonnenberg, M. Hada, 
 M. Ehara, K. Toyota, R. Fukuda, J. Hasegawa, M. Ishida, T. Nakajima, 
 Y. Honda, O. Kitao, H. Nakai, T. Vreven, J. A. Montgomery, Jr., 
 J. E. Peralta, F. Ogliaro, M. Bearpark, J. J. Heyd, E. Brothers, 
 K. N. Kudin, V. N. Staroverov, T. Keith, R. Kobayashi, J. Normand, 
 K. Raghavachari, A. Rendell, J. C. Burant, S. S. Iyengar, J. Tomasi, 
 M. Cossi, N. Rega, J. M. Millam, M. Klene, J. E. Knox, J. B. Cross, 
 V. Bakken, C. Adamo, J. Jaramillo, R. Gomperts, R. E. Stratmann, 
 O. Yazyev, A. J. Austin, R. Cammi, C. Pomelli, J. W. Ochterski, 
 R. L. Martin, K. Morokuma, V. G. Zakrzewski, G. A. Voth, 
 P. Salvador, J. J. Dannenberg, S. Dapprich, A. D. Daniels, 
 O. Farkas, J. B. Foresman, J. V. Ortiz, J. Cioslowski, 
 and D. J. Fox, Gaussian, Inc., Wallingford CT, 2010.
 
 ******************************************
 Gaussian 09:  EM64L-G09RevC.01 23-Sep-2011
                23-Dec-2022 
 ******************************************
 %chk=01_RRSS_THC_001_optB_NMR
 %nprocshared=4
 Will use up to    4 processors via shared memory.
 ------------------------------------------------
 # mPW1PW91/6-31+G** scrf=(PCM,solvent=water) nmr
 ------------------------------------------------
 1/38=1/1;
 2/12=2,17=6,18=5,40=1/2;
 3/5=1,6=6,7=111,11=2,16=1,25=1,30=1,70=2201,72=1,74=-7/1,2,8,3;
 4//1;
 5/5=2,38=5,53=1/2;
 8/6=1,10=90,11=11/1;
 10/13=100,45=16/2;
 6/7=2,8=2,9=2,10=2,28=1/1;
 99/9=1/99;
 -------
 comment
 -------
 Charge =  0 Multiplicity = 1
 Symbolic Z-Matrix:
 6                    -1.67771   0.88245  -2.82662 
 6                    -2.30458   2.05528  -2.05269 
 1                    -1.65601   2.93846  -2.10884 
 1                    -3.26495   2.33275  -2.50523 
 6                    -2.55651   1.7104   -0.58375 
 1                    -2.96293   2.59428  -0.076 
 6                    -1.27522   1.23634   0.13447 
 1                    -0.58309   2.08774   0.09819 
 6                    -0.62974   0.04459  -0.63972 
 1                    -1.39473  -0.74191  -0.65769 
 6                    -0.37278   0.40665  -2.13008 
 1                     0.01742  -0.48459  -2.63966 
 6                     0.62207  -0.54275   0.02446 
 6                     2.84975  -1.69076   1.38402 
 6                     1.75605   0.21621   0.35662 
 6                     0.65882  -1.90694   0.36504 
 6                     1.74768  -2.47627   1.03579 
 6                     2.84142  -0.33714   1.0402 
 1                     1.74379  -3.53074   1.2967 
 1                     3.68561   0.30069   1.29152 
 8                    -0.40034  -2.70917   0.0312 
 1                    -0.23918  -3.60276   0.3737 
 8                     1.89379   1.53572   0.02286 
 1                     1.36737   1.67851  -0.79332 
 8                     0.62689   1.43886  -2.22602 
 1                     1.02958   1.34756  -3.11088 
 6                    -1.41927   1.29773  -4.2798 
 1                    -2.35946   1.5409   -4.78839 
 1                    -0.96813   0.47255  -4.84243 
 1                    -0.76053   2.1688   -4.35115 
 8                    -2.60706  -0.20695  -2.86127 
 1                    -3.44408   0.11933  -3.23506 
 1                    -3.33351   0.93776  -0.53487 
 6                    -1.5678    0.94047   1.60801 
 6                    -0.93795   1.6181    2.58393 
 1                    -1.12432   1.41414   3.63346 
 1                    -0.19913   2.38215   2.35862 
 6                    -2.56439  -0.13587   1.94533 
 1                    -3.56612   0.141     1.6042 
 1                    -2.62691  -0.30797   3.02561 
 1                    -2.28837  -1.08773   1.48447 
 6                     4.01387  -2.28262   2.13409 
 1                     4.14724  -3.33112   1.84099 
 1                     4.93898  -1.76806   1.84691 
 6                     3.82091  -2.19054   3.64003 
 1                     4.68     -2.62726   4.15901 
 1                     2.92204  -2.72898   3.95911 
 1                     3.72154  -1.14925   3.96493 
 
                          Input orientation:                          
 ---------------------------------------------------------------------
 Center     Atomic      Atomic             Coordinates (Angstroms)
 Number     Number       Type             X           Y           Z
 ---------------------------------------------------------------------
      1          6           0       -1.677711    0.882446   -2.826620
      2          6           0       -2.304577    2.055282   -2.052692
      3          1           0       -1.656007    2.938457   -2.108844
      4          1           0       -3.264953    2.332745   -2.505234
      5          6           0       -2.556505    1.710400   -0.583747
      6          1           0       -2.962934    2.594279   -0.076004
      7          6           0       -1.275222    1.236340    0.134471
      8          1           0       -0.583088    2.087736    0.098193
      9          6           0       -0.629743    0.044591   -0.639718
     10          1           0       -1.394735   -0.741913   -0.657695
     11          6           0       -0.372783    0.406648   -2.130080
     12          1           0        0.017418   -0.484587   -2.639656
     13          6           0        0.622074   -0.542751    0.024456
     14          6           0        2.849754   -1.690762    1.384023
     15          6           0        1.756052    0.216210    0.356618
     16          6           0        0.658825   -1.906941    0.365041
     17          6           0        1.747676   -2.476273    1.035787
     18          6           0        2.841423   -0.337136    1.040196
     19          1           0        1.743795   -3.530739    1.296699
     20          1           0        3.685606    0.300686    1.291521
     21          8           0       -0.400337   -2.709172    0.031198
     22          1           0       -0.239181   -3.602764    0.373700
     23          8           0        1.893787    1.535715    0.022864
     24          1           0        1.367372    1.678515   -0.793321
     25          8           0        0.626890    1.438861   -2.226017
     26          1           0        1.029581    1.347556   -3.110878
     27          6           0       -1.419266    1.297734   -4.279803
     28          1           0       -2.359455    1.540896   -4.788389
     29          1           0       -0.968133    0.472550   -4.842432
     30          1           0       -0.760529    2.168799   -4.351146
     31          8           0       -2.607057   -0.206950   -2.861268
     32          1           0       -3.444084    0.119329   -3.235059
     33          1           0       -3.333514    0.937764   -0.534868
     34          6           0       -1.567804    0.940470    1.608007
     35          6           0       -0.937950    1.618097    2.583930
     36          1           0       -1.124320    1.414139    3.633461
     37          1           0       -0.199131    2.382152    2.358619
     38          6           0       -2.564389   -0.135871    1.945329
     39          1           0       -3.566122    0.141004    1.604200
     40          1           0       -2.626914   -0.307973    3.025614
     41          1           0       -2.288368   -1.087734    1.484467
     42          6           0        4.013867   -2.282623    2.134092
     43          1           0        4.147235   -3.331120    1.840993
     44          1           0        4.938977   -1.768061    1.846908
     45          6           0        3.820911   -2.190540    3.640027
     46          1           0        4.679995   -2.627260    4.159010
     47          1           0        2.922036   -2.728978    3.959113
     48          1           0        3.721540   -1.149254    3.964935
 ---------------------------------------------------------------------
                    Distance matrix (angstroms):
                    1          2          3          4          5
     1  C    0.000000
     2  C    1.538658   0.000000
     3  H    2.177809   1.097176   0.000000
     4  H    2.173935   1.097316   1.764290   0.000000
     5  C    2.547208   1.529775   2.155212   2.140402   0.000000
     6  H    3.485406   2.152033   2.441097   2.461863   1.097373
     7  C    3.009202   2.552238   2.841595   3.482696   1.543456
     8  H    3.347455   2.755156   2.597286   3.745699   2.121744
     9  C    2.565693   2.973961   3.403823   3.957289   2.547640
    10  H    2.724492   3.255477   3.964747   4.045323   2.714594
    11  C    1.553831   2.540829   2.838516   3.495031   2.976501
    12  H    2.185680   3.491006   3.846992   4.327747   3.958512
    13  C    3.930500   4.430531   4.675407   5.456811   3.943345
    14  C    6.696929   7.239544   7.343819   8.288823   6.683388
    15  C    4.729440   5.067117   5.013111   6.154706   4.659940
    16  C    4.840123   5.506941   5.912397   6.450539   4.931907
    17  C    6.158934   6.818684   7.126926   7.796919   6.219092
    18  C    6.071427   6.463044   6.393187   7.548919   5.997269
    19  H    6.941518   7.668857   8.062684   8.597831   7.035496
    20  H    6.786951   7.081289   6.859530   8.176483   6.668424
    21  O    4.764298   5.537938   6.168647   6.329332   4.955789
    22  H    5.694606   6.493591   7.138487   7.257674   5.875067
    23  O    4.615400   4.712127   4.371830   5.799925   4.494841
    24  H    3.747073   3.900151   3.529713   4.981676   3.929599
    25  O    2.445712   3.000586   2.733887   4.002928   3.592324
    26  H    2.761622   3.568927   3.278325   4.447519   4.402051
    27  C    1.533296   2.513498   2.731497   2.761685   3.889014
    28  H    2.178731   2.784177   3.102898   2.580649   4.212668
    29  H    2.176008   3.474733   3.745179   3.768050   4.710796
    30  H    2.195474   2.771256   2.534201   3.115511   4.198685
    31  O    1.432365   2.421359   3.371086   2.647572   2.977564
    32  H    1.967040   2.538578   3.523217   2.337508   3.216948
    33  H    2.827874   2.147405   3.048639   2.415163   1.096858
    34  C    4.436369   3.896968   4.220748   4.662349   2.524700
    35  C    5.510216   4.853562   4.927584   5.641388   3.558429
    36  H    6.505504   5.842637   5.964923   6.565799   4.463605
    37  H    5.596608   4.898920   4.731828   5.749676   3.829619
    38  C    4.959301   4.566489   5.168459   5.137350   3.131295
    39  H    4.873193   4.316112   5.026030   4.667107   2.875664
    40  H    6.047043   5.610532   6.151799   6.162042   4.135974
    41  H    4.779120   4.731840   5.433413   5.345195   3.489838
    42  C    8.186598   8.733231   8.798276   9.788064   8.154795
    43  H    8.571508   9.262828   9.412036  10.291239   8.731348
    44  H    8.523357   9.071599   9.016269  10.151957   8.613364
    45  C    9.027492   9.378468   9.452659  10.413156   8.586562
    46  H   10.076581  10.454458  10.507527  11.495042   9.678635
    47  H    8.958026   9.292386   9.481477  10.280450   8.388091
    48  H    8.910945   9.099175   9.083952  10.138959   8.263292
                    6          7          8          9         10
     6  H    0.000000
     7  C    2.176389   0.000000
     8  H    2.439384   1.097834   0.000000
     9  C    3.501780   1.560858   2.172816   0.000000
    10  H    3.731995   2.134314   3.039251   1.097326   0.000000
    11  C    3.964069   2.575069   2.799194   1.555087   2.128731
    12  H    4.993418   3.511166   3.804375   2.167625   2.447154
    13  C    4.764801   2.603267   2.894359   1.533995   2.138343
    14  C    7.367537   5.210062   5.264486   4.383364   4.804645
    15  C    5.302000   3.206032   3.006821   2.591168   3.445909
    16  C    5.794190   3.697827   4.191778   2.545275   2.573011
    17  C    7.009738   4.871733   5.209772   3.848921   3.968707
    18  C    6.597701   4.499215   4.300541   3.875154   4.581672
    19  H    7.845601   5.761101   6.198230   4.708118   4.631153
    20  H    7.164759   5.179192   4.779051   4.734712   5.540426
    21  O    5.891094   4.042667   4.800855   2.843583   2.309439
    22  H    6.784129   4.954548   5.707536   3.805621   3.253237
    23  O    4.971727   3.185075   2.538762   3.005107   4.057724
    24  H    4.483828   2.835422   2.183244   2.584912   3.675064
    25  O    4.341012   3.038248   2.699452   2.457532   3.361901
    26  H    5.167683   3.982056   3.666974   3.249262   4.032529
    27  C    4.662173   4.417049   4.526603   3.929877   4.156973
    28  H    4.866248   5.050036   5.228116   4.737331   4.817109
    29  H    5.585678   5.044526   5.212183   4.237979   4.378234
    30  H    4.827883   4.610331   4.453614   4.278326   4.745108
    31  O    3.966261   3.582083   4.256811   2.984682   2.571312
    32  H    4.041845   4.159977   4.813573   3.829086   3.403583
    33  H    1.758388   2.184886   3.047629   2.849409   2.568125
    34  C    2.741782   1.531161   2.136685   2.595154   2.827326
    35  C    3.482634   2.501867   2.554481   3.600391   4.035644
    36  H    4.305039   3.506753   3.639338   4.514457   4.809959
    37  H    3.689308   2.723544   2.311630   3.826179   4.504153
    38  C    3.420284   2.612302   3.504553   3.233865   2.917380
    39  H    3.034054   2.933954   3.867339   3.696861   3.257397
    40  H    4.260987   3.545516   4.299586   4.188992   3.908111
    41  H    4.055531   2.872329   3.861780   2.923244   2.346706
    42  C    8.794569   6.660034   6.661600   5.888383   6.278602
    43  H    9.451970   7.292253   7.401169   6.353650   6.607637
    44  H    9.228640   7.111621   6.958332   6.362363   6.887810
    45  C    9.095270   7.071281   7.088261   6.566608   6.911721
    46  H   10.179105   8.160205   8.149937   7.639364   7.978566
    47  H    8.902365   6.925938   7.098826   6.438716   6.625546
    48  H    8.661722   6.732842   6.630206   6.446841   6.907308
                   11         12         13         14         15
    11  C    0.000000
    12  H    1.098282   0.000000
    13  C    2.555998   2.732486   0.000000
    14  C    5.208915   5.066259   2.851125   0.000000
    15  C    3.279005   3.534348   1.404372   2.426580   0.000000
    16  C    3.555635   3.385661   1.406544   2.425949   2.389927
    17  C    4.778106   4.524322   2.455256   1.397452   2.776834
    18  C    4.575477   4.640911   2.449392   1.396635   1.396962
    19  H    5.632560   5.268236   3.435831   2.148554   3.863098
    20  H    5.309341   5.433821   3.420829   2.161729   2.145777
    21  O    3.792126   3.500966   2.395569   3.664750   3.648804
    22  H    4.728864   4.343868   3.198033   3.770680   4.308806
    23  O    3.323748   3.832935   2.436653   3.629984   1.368012
    24  H    2.536278   3.148068   2.481582   4.276718   1.900465
    25  O    1.440144   2.059662   2.998573   5.269541   3.072440
    26  H    1.952919   2.145523   3.683699   5.722634   3.719036
    27  C    2.551562   2.816170   5.106965   7.696400   5.722651
    28  H    3.507134   3.790668   6.032792   8.699319   6.720364
    29  H    2.777704   2.596083   5.219788   7.617410   5.875118
    30  H    2.861583   3.251901   5.330102   7.798880   5.684086
    31  O    2.429634   2.648408   4.343668   7.071137   5.437883
    32  H    3.276648   3.563877   5.253230   8.014035   6.320676
    33  H    3.404808   4.204992   4.260451   6.987424   5.217190
    34  C    3.960599   4.752511   3.082717   5.146686   3.624714
    35  C    4.899889   5.711379   3.695110   5.170592   3.766145
    36  H    5.899004   6.652873   4.461415   5.522105   4.524299
    37  H    4.907259   5.766094   3.831156   5.180171   3.538652
    38  C    4.659015   5.273463   3.742839   5.660891   4.616727
    39  H    4.920654   5.589583   4.528145   6.675875   5.466960
    40  H    5.672123   6.254516   4.429220   5.882246   5.158362
    41  H    4.355180   4.763279   3.301410   5.174362   4.396549
    42  C    6.682667   6.480216   4.356832   1.506008   3.808058
    43  H    7.083141   6.725648   4.847842   2.140806   4.528209
    44  H    6.982878   6.782205   4.843385   2.141282   4.036002
    45  C    7.591218   7.537323   5.100992   2.506487   4.564741
    46  H    8.619038   8.517777   6.156821   3.453601   5.576105
    47  H    7.600412   7.551016   5.054794   2.777446   4.797043
    48  H    7.505566   7.601508   5.049942   2.777471   4.329849
                   16         17         18         19         20
    16  C    0.000000
    17  C    1.399870   0.000000
    18  C    2.771978   2.402543   0.000000
    19  H    2.163762   1.086272   3.386692   0.000000
    20  H    3.859195   3.395950   1.087486   4.295401   0.000000
    21  O    1.369982   2.382730   4.141696   2.621787   5.229015
    22  H    1.918933   2.378012   4.538576   2.188449   5.610996
    23  O    3.673432   4.140461   2.332499   5.226290   2.519008
    24  H    3.833972   4.555495   3.097977   5.625496   3.408693
    25  O    4.231903   5.217644   4.327409   6.193055   4.798360
    26  H    4.776110   5.686138   4.832429   6.613214   5.247049
    27  C    6.013566   7.247630   7.009184   8.025987   7.621907
    28  H    6.896045   8.180905   8.034211   8.921123   8.662920
    29  H    5.952038   7.115100   7.055043   7.814718   7.701442
    30  H    6.392860   7.542337   6.951284   8.405625   7.422780
    31  O    4.895409   6.269016   6.702560   6.875040   7.556517
    32  H    5.822401   7.206362   7.615364   7.795763   8.447206
    33  H    4.984070   6.319897   6.498927   7.007226   7.280770
    34  C    3.822380   4.795203   4.625578   5.572729   5.301679
    35  C    4.460835   5.135484   4.526556   5.946362   4.978268
    36  H    4.989163   5.489224   5.051644   6.175626   5.464416
    37  H    4.806949   5.398540   4.286926   6.313866   4.534576
    38  C    4.002887   4.989854   5.484758   5.523250   6.299244
    39  H    4.855900   5.950603   6.450066   6.463085   7.260221
    40  H    4.520113   5.272378   5.817684   5.698988   6.574607
    41  H    3.257323   4.291736   5.203415   4.718248   6.136228
    42  C    3.811429   2.525747   2.521141   2.722544   2.737000
    43  H    4.046693   2.671517   3.363088   2.472373   3.702032
    44  H    4.531547   3.368069   2.664219   3.690386   2.481756
    45  C    4.561222   3.340959   3.339704   3.406130   3.426368
    46  H    5.575201   4.286702   4.283925   4.198853   4.217128
    47  H    4.326109   3.160509   3.774584   3.019854   4.108279
    48  H    4.786810   3.773198   3.160417   4.086860   3.041506
                   21         22         23         24         25
    21  O    0.000000
    22  H    0.970456   0.000000
    23  O    4.825158   5.574640   0.000000
    24  H    4.801711   5.642239   0.981664   0.000000
    25  O    4.832846   5.738170   2.582997   1.630449   0.000000
    26  H    5.326758   6.185282   3.256162   2.365312   0.976460
    27  C    5.973126   6.860216   5.435614   4.479497   2.902535
    28  H    6.717860   7.589464   6.421702   5.465230   3.936295
    29  H    5.847908   6.659399   5.743867   4.827445   3.213018
    30  H    6.567289   7.477093   5.155401   4.174501   2.640817
    31  O    4.415551   5.253895   5.622517   4.860809   3.683837
    32  H    5.285192   6.094959   6.411948   5.616338   4.396836
    33  H    4.714245   5.569272   5.290868   4.765903   4.335422
    34  C    4.143573   4.891802   3.853519   3.863463   4.445764
    35  C    5.052794   5.712336   3.818976   4.089497   5.061269
    36  H    5.522875   6.048044   4.707458   5.086730   6.115622
    37  H    5.601692   6.305611   3.248463   3.589397   4.752999
    38  C    3.868966   4.460488   5.134725   5.123567   5.483080
    39  H    4.540929   5.157370   5.852900   5.696614   5.825491
    40  H    4.437334   4.856909   5.731704   5.872369   6.420148
    41  H    2.881963   3.429044   5.148707   5.119071   5.352579
    42  C    4.908086   4.788546   4.850951   5.591449   6.658199
    43  H    4.933821   4.633291   5.663012   6.305846   7.189306
    44  H    5.717584   5.687689   4.849254   5.621927   6.742935
    45  C    5.577774   5.398853   5.539193   6.375266   7.601631
    46  H    6.546397   6.283190   6.496231   7.351106   8.586592
    47  H    5.144616   4.859216   5.893977   6.665479   7.803488
    48  H    5.907411   5.882516   5.107804   6.014931   7.389390
                   26         27         28         29         30
    26  H    0.000000
    27  C    2.713986   0.000000
    28  H    3.786422   1.096241   0.000000
    29  H    2.784740   1.095902   1.755010   0.000000
    30  H    2.327488   1.094431   1.772571   1.778123   0.000000
    31  O    3.962818   2.384777   2.613440   2.659474   3.357616
    32  H    4.640866   2.565154   2.368566   2.973003   3.556325
    33  H    5.083340   4.221191   4.405110   4.936249   4.764418
    34  C    5.401852   5.900509   6.473106   6.495131   6.137752
    35  C    6.031185   6.888042   7.508510   7.514255   6.959169
    36  H    7.080242   7.919614   8.512883   8.529463   8.028437
    37  H    5.700484   6.836179   7.513617   7.489532   6.736590
    38  C    6.378275   6.489899   6.942370   6.999422   6.943415
    39  H    6.693893   6.369341   6.654392   6.958343   6.888357
    40  H    7.332616   7.576663   8.034208   8.078794   8.002149
    41  H    6.169004   6.298619   6.801725   6.648846   6.855194
    42  C    7.042291   9.136516  10.156736   9.004620   9.201540
    43  H    7.492049   9.480314  10.489150   9.235966   9.626934
    44  H    7.040603   9.346815  10.404013   9.201172   9.295113
    45  C    8.116918  10.116877  11.097690  10.098470  10.190794
    46  H    9.054057  11.127449  12.123668  11.069604  11.181424
    47  H    8.377606  10.145987  11.074510  10.141518  10.325208
    48  H    7.971689  10.019548  10.992547  10.109055  10.012774
                   31         32         33         34         35
    31  O    0.000000
    32  H    0.973033   0.000000
    33  H    2.692628   2.823666   0.000000
    34  C    4.729803   5.258326   2.776626   0.000000
    35  C    5.980543   6.510579   3.991050   1.344738   0.000000
    36  H    6.856234   7.364401   4.741565   2.126853   1.085287
    37  H    6.304663   6.851228   4.503652   2.124884   1.086461
    38  C    4.807311   5.260742   2.809915   1.505150   2.475786
    39  H    4.580533   4.840846   2.294460   2.152309   3.170009
    40  H    5.887782   6.328221   3.837731   2.165625   2.599506
    41  H    4.445532   5.006656   3.045109   2.155942   3.217758
    42  C    8.549776   9.498326   8.454481   6.466850   6.319688
    43  H    8.802963   9.762173   8.934746   7.138798   7.134830
    44  H    9.030317   9.983203   9.023772   7.052050   6.822575
    45  C    9.355225  10.265596   8.854481   6.555195   6.186098
    46  H   10.404005  11.323280   9.947774   7.633564   7.215624
    47  H    9.135047  10.019803   8.530696   6.257093   5.973916
    48  H    9.356074  10.236962   8.624248   6.156234   5.592518
                   36         37         38         39         40
    36  H    0.000000
    37  H    1.848849   0.000000
    38  C    2.706681   3.479323   0.000000
    39  H    3.420697   4.114427   1.093845   0.000000
    40  H    2.364940   3.684533   1.095694   1.761848   0.000000
    41  H    3.497507   4.143569   1.092989   1.776736   1.760050
    42  C    6.505008   6.289665   6.922256   7.975650   6.985273
    43  H    7.315718   7.197244   7.434137   8.462127   7.512113
    44  H    7.076845   6.624672   7.679468   8.720100   7.795121
    45  C    6.119564   6.221918   6.918505   8.009303   6.745073
    46  H    7.092192   7.220906   7.974240   9.065803   7.749490
    47  H    5.800385   6.198945   6.393777   7.475199   6.125645
    48  H    5.492106   5.515682   6.679720   7.768388   6.472477
                   41         42         43         44         45
    41  H    0.000000
    42  C    6.447320   0.000000
    43  H    6.824725   1.096832   0.000000
    44  H    7.268337   1.096848   1.752154   0.000000
    45  C    6.571598   1.521036   2.154979   2.154956   0.000000
    46  H    7.621115   2.159350   2.480414   2.480142   1.094574
    47  H    5.997154   2.173024   2.519945   3.074545   1.095312
    48  H    6.501961   2.173008   3.074554   2.520141   1.095316
                   46         47         48
    46  H    0.000000
    47  H    1.772210   0.000000
    48  H    1.772231   1.770528   0.000000
 Stoichiometry    C18H26O4
 Framework group  C1[X(C18H26O4)]
 Deg. of freedom   138
 Full point group                 C1      NOp   1
 Largest Abelian subgroup         C1      NOp   1
 Largest concise Abelian subgroup C1      NOp   1
                         Standard orientation:                         
 ---------------------------------------------------------------------
 Center     Atomic      Atomic             Coordinates (Angstroms)
 Number     Number       Type             X           Y           Z
 ---------------------------------------------------------------------
      1          6           0       -3.232291   -0.889087    0.299296
      2          6           0       -3.656618    0.286143   -0.598617
      3          1           0       -3.619858   -0.009019   -1.654706
      4          1           0       -4.693959    0.569590   -0.380250
      5          6           0       -2.776087    1.519833   -0.391535
      6          1           0       -3.098292    2.306716   -1.085240
      7          6           0       -1.278683    1.213120   -0.605930
      8          1           0       -1.187378    0.901438   -1.654623
      9          6           0       -0.834263    0.023185    0.301166
     10          1           0       -1.034605    0.348171    1.329938
     11          6           0       -1.731719   -1.227327    0.079603
     12          1           0       -1.418496   -2.006905    0.786974
     13          6           0        0.656592   -0.325926    0.208349
     14          6           0        3.461677   -0.826702    0.110209
     15          6           0        1.309662   -0.638281   -0.995059
     16          6           0        1.452685   -0.309359    1.367800
     17          6           0        2.830974   -0.550672    1.326307
     18          6           0        2.686973   -0.864910   -1.051240
     19          1           0        3.423234   -0.519919    2.236400
     20          1           0        3.145701   -1.082331   -2.012969
     21          8           0        0.866513   -0.051216    2.578838
     22          1           0        1.553625   -0.031913    3.263885
     23          8           0        0.653107   -0.763717   -2.188650
     24          1           0       -0.262675   -1.049319   -1.980235
     25          8           0       -1.545524   -1.743659   -1.251843
     26          1           0       -1.784771   -2.689591   -1.213790
     27          6           0       -4.127673   -2.102994    0.024125
     28          1           0       -5.172002   -1.880894    0.272704
     29          1           0       -3.833556   -2.950041    0.654210
     30          1           0       -4.088505   -2.418121   -1.023224
     31          8           0       -3.428513   -0.526213    1.670970
     32          1           0       -4.354608   -0.249326    1.782656
     33          1           0       -2.948880    1.906168    0.620387
     34          6           0       -0.442717    2.483307   -0.426375
     35          6           0        0.303666    2.964089   -1.436365
     36          1           0        0.911057    3.856418   -1.323796
     37          1           0        0.345391    2.463252   -2.399599
     38          6           0       -0.459562    3.177199    0.909180
     39          1           0       -1.455545    3.572040    1.129669
     40          1           0        0.236729    4.022750    0.936858
     41          1           0       -0.167832    2.495218    1.711939
     42          6           0        4.948679   -1.056434    0.046100
     43          1           0        5.288191   -1.537229    0.971632
     44          1           0        5.179639   -1.760194   -0.762885
     45          6           0        5.711879    0.241640   -0.168565
     46          1           0        6.787878    0.045391   -0.211038
     47          1           0        5.528031    0.950091    0.646301
     48          1           0        5.417769    0.725043   -1.106401
 ---------------------------------------------------------------------
 Rotational constants (GHZ):      0.4741905      0.1859782      0.1726156
 Standard basis: 6-31+G(d,p) (6D, 7F)
 There are   548 symmetry adapted basis functions of A   symmetry.
 Integral buffers will be    131072 words long.
 Raffenetti 2 integral format.
 Two-electron integral symmetry is turned on.
   548 basis functions,   886 primitive gaussians,   548 cartesian basis functions
    83 alpha electrons       83 beta electrons
       nuclear repulsion energy      1983.3667660982 Hartrees.
 NAtoms=   48 NActive=   48 NUniq=   48 SFac= 1.00D+00 NAtFMM=   60 NAOKFM=F Big=F
 ------------------------------------------------------------------------------
 Polarizable Continuum Model (PCM)
 =================================
 Model                : PCM.
 Atomic radii         : UFF (Universal Force Field).
 Polarization charges : Total charges.
 Charge compensation  : None.
 Solution method      : Matrix inversion.
 Cavity type          : Scaled VdW (van der Waals Surface) (Alpha=1.100).
 Cavity algorithm     : GePol (No added spheres)
                        Default sphere list used, NSphG=   48.
                        Lebedev-Laikov grids with approx.  5.0 points / Ang**2.
                        Smoothing algorithm: Karplus/York (Gamma=1.0000).
                        Polarization charges: spherical gaussians, with
                                              point-specific exponents (IZeta= 3).
                        Self-potential: point-specific (ISelfS= 7).
                        Self-field    : sphere-specific E.n sum rule (ISelfD= 2).
 Solvent              : Water, Eps=  78.355300 Eps(inf)=   1.777849
 ------------------------------------------------------------------------------
 One-electron integrals computed using PRISM.
 NBasis=   548 RedAO= T  NBF=   548
 NBsUse=   546 1.00D-06 NBFU=   546
 Harris functional with IExCor=  908 diagonalized for initial guess.
 ExpMin= 4.38D-02 ExpMax= 5.48D+03 ExpMxC= 8.25D+02 IAcc=2 IRadAn=         4 AccDes= 0.00D+00
 HarFok:  IExCor=  908 AccDes= 0.00D+00 IRadAn=         4 IDoV= 1
 ScaDFX=  1.000000  1.000000  1.000000  1.000000
 FoFCou: FMM=F IPFlag=           0 FMFlag=      100000 FMFlg1=           0
         NFxFlg=           0 DoJE=T BraDBF=F KetDBF=T FulRan=T
         Omega=  0.000000  0.000000  1.000000  0.000000  0.000000 ICntrl=     500 IOpCl=  0
         NMat0=    1 NMatS0=    1 NMatT0=    0 NMatD0=    1 NMtDS0=    0 NMtDT0=    0
         I1Cent=           4 NGrid=           0.
 Petite list used in FoFCou.
 Initial guess orbital symmetries:
       Occupied  (A) (A) (A) (A) (A) (A) (A) (A) (A) (A) (A) (A)
                 (A) (A) (A) (A) (A) (A) (A) (A) (A) (A) (A) (A)
                 (A) (A) (A) (A) (A) (A) (A) (A) (A) (A) (A) (A)
                 (A) (A) (A) (A) (A) (A) (A) (A) (A) (A) (A) (A)
                 (A) (A) (A) (A) (A) (A) (A) (A) (A) (A) (A) (A)
                 (A) (A) (A) (A) (A) (A) (A) (A) (A) (A) (A) (A)
                 (A) (A) (A) (A) (A) (A) (A) (A) (A) (A) (A)
       Virtual   (A) (A) (A) (A) (A) (A) (A) (A) (A) (A) (A) (A)
                 (A) (A) (A) (A) (A) (A) (A) (A) (A) (A) (A) (A)
                 (A) (A) (A) (A) (A) (A) (A) (A) (A) (A) (A) (A)
                 (A) (A) (A) (A) (A) (A) (A) (A) (A) (A) (A) (A)
                 (A) (A) (A) (A) (A) (A) (A) (A) (A) (A) (A) (A)
                 (A) (A) (A) (A) (A) (A) (A) (A) (A) (A) (A) (A)
                 (A) (A) (A) (A) (A) (A) (A) (A) (A) (A) (A) (A)
                 (A) (A) (A) (A) (A) (A) (A) (A) (A) (A) (A) (A)
                 (A) (A) (A) (A) (A) (A) (A) (A) (A) (A) (A) (A)
                 (A) (A) (A) (A) (A) (A) (A) (A) (A) (A) (A) (A)
                 (A) (A) (A) (A) (A) (A) (A) (A) (A) (A) (A) (A)
                 (A) (A) (A) (A) (A) (A) (A) (A) (A) (A) (A) (A)
                 (A) (A) (A) (A) (A) (A) (A) (A) (A) (A) (A) (A)
                 (A) (A) (A) (A) (A) (A) (A) (A) (A) (A) (A) (A)
                 (A) (A) (A) (A) (A) (A) (A) (A) (A) (A) (A) (A)
                 (A) (A) (A) (A) (A) (A) (A) (A) (A) (A) (A) (A)
                 (A) (A) (A) (A) (A) (A) (A) (A) (A) (A) (A) (A)
                 (A) (A) (A) (A) (A) (A) (A) (A) (A) (A) (A) (A)
                 (A) (A) (A) (A) (A) (A) (A) (A) (A) (A) (A) (A)
                 (A) (A) (A) (A) (A) (A) (A) (A) (A) (A) (A) (A)
                 (A) (A) (A) (A) (A) (A) (A) (A) (A) (A) (A) (A)
                 (A) (A) (A) (A) (A) (A) (A) (A) (A) (A) (A) (A)
                 (A) (A) (A) (A) (A) (A) (A) (A) (A) (A) (A) (A)
                 (A) (A) (A) (A) (A) (A) (A) (A) (A) (A) (A) (A)
                 (A) (A) (A) (A) (A) (A) (A) (A) (A) (A) (A) (A)
                 (A) (A) (A) (A) (A) (A) (A) (A) (A) (A) (A) (A)
                 (A) (A) (A) (A) (A) (A) (A) (A) (A) (A) (A) (A)
                 (A) (A) (A) (A) (A) (A) (A) (A) (A) (A) (A) (A)
                 (A) (A) (A) (A) (A) (A) (A) (A) (A) (A) (A) (A)
                 (A) (A) (A) (A) (A) (A) (A) (A) (A) (A) (A) (A)
                 (A) (A) (A) (A) (A) (A) (A) (A) (A) (A) (A) (A)
                 (A) (A) (A) (A) (A) (A) (A) (A) (A) (A) (A) (A)
                 (A) (A) (A) (A) (A) (A) (A) (A) (A) (A) (A) (A)
                 (A) (A) (A) (A) (A) (A) (A) (A) (A) (A) (A) (A)
                 (A) (A) (A) (A) (A) (A) (A) (A) (A) (A) (A) (A)
                 (A) (A) (A) (A) (A) (A) (A) (A) (A) (A) (A) (A)
                 (A) (A) (A) (A) (A) (A) (A) (A) (A) (A) (A) (A)
                 (A) (A) (A) (A) (A) (A) (A) (A) (A) (A) (A) (A)
                 (A) (A) (A) (A) (A) (A) (A)
 The electronic state of the initial guess is 1-A.
 Requested convergence on RMS density matrix=1.00D-08 within 128 cycles.
 Requested convergence on MAX density matrix=1.00D-06.
 Requested convergence on             energy=1.00D-06.
 No special actions if energy rises.
 CoulSu:  requested number of processors reduced to:   2 ShMem   1 Linda.
 CoulSu:  requested number of processors reduced to:   2 ShMem   1 Linda.
 Error on total polarization charges =  0.01925
 SCF Done:  E(RmPW1PW91) =  -1002.31606414     A.U. after   14 cycles
             Convg  =    0.5378D-08             -V/T =  2.0094
 Range of M.O.s used for correlation:     1   546
 NBasis=   548 NAE=    83 NBE=    83 NFC=     0 NFV=     0
 NROrb=    546 NOA=    83 NOB=    83 NVA=   463 NVB=   463

 **** Warning!!: The largest alpha MO coefficient is  0.15940894D+03

 NEqPCM:  Using equilibrium solvation (IEInf=0, Eps=  78.3553, EpsInf=   1.7778)
          Differentiating once with respect to magnetic field using GIAOs.
          Electric field/nuclear overlap derivatives assumed to be zero.
 FoFCou: FMM=F IPFlag=           0 FMFlag=    10101102 FMFlg1=           0
         NFxFlg=    40000000 DoJE=F BraDBF=F KetDBF=T FulRan=T
         Omega=  0.000000  0.000000  1.000000  0.000000  0.000000 ICntrl=    6100 IOpCl=  0
         NMat0=    1 NMatS0=    1 NMatT0=    0 NMatD0=    1 NMtDS0=    0 NMtDT0=    0
         I1Cent=           7 NGrid=        3036.
 Symmetry not used in FoFCou.
          There are     3 degrees of freedom in the 1st order CPHF.  IDoFFX=0.
      3 vectors produced by pass  0 Test12= 1.28D-12 3.33D-08 XBig12= 7.15D+02 4.22D+00.
 AX will form     3 AO Fock derivatives at one time.
      3 vectors produced by pass  1 Test12= 1.28D-12 3.33D-08 XBig12= 1.52D+00 3.28D-01.
      3 vectors produced by pass  2 Test12= 1.28D-12 3.33D-08 XBig12= 6.25D-03 3.60D-02.
      3 vectors produced by pass  3 Test12= 1.28D-12 3.33D-08 XBig12= 3.08D-05 1.77D-03.
      3 vectors produced by pass  4 Test12= 1.28D-12 3.33D-08 XBig12= 9.84D-08 5.44D-05.
      3 vectors produced by pass  5 Test12= 1.28D-12 3.33D-08 XBig12= 2.99D-10 3.76D-06.
      3 vectors produced by pass  6 Test12= 1.28D-12 3.33D-08 XBig12= 1.57D-12 3.22D-07.
 Inverted reduced A of dimension    21 with in-core refinement.
 Calculating GIAO nuclear magnetic shielding tensors.
 SCF GIAO Magnetic shielding tensor (ppm):
      1  C    Isotropic =   122.9435   Anisotropy =    50.7692
   XX=   106.8971   YX=    -2.1228   ZX=   -15.3272
   XY=     2.2255   YY=   112.5464   ZY=    14.8767
   XZ=    -8.1654   YZ=    13.7943   ZZ=   149.3872
   Eigenvalues:   101.9290   110.1119   156.7897
      2  C    Isotropic =   159.0675   Anisotropy =    24.5216
   XX=   154.8371   YX=    -2.1467   ZX=     1.6048
   XY=     3.5636   YY=   167.2095   ZY=   -15.6752
   XZ=    -3.8589   YZ=    -9.9565   ZZ=   155.1558
   Eigenvalues:   146.9785   154.8087   175.4152
      3  H    Isotropic =    29.4487   Anisotropy =     6.6874
   XX=    27.9911   YX=     0.9556   ZX=     2.5812
   XY=     0.4216   YY=    27.5332   ZY=    -0.0529
   XZ=     2.4527   YZ=     0.0680   ZZ=    32.8218
   Eigenvalues:    26.5212    27.9179    33.9070
      4  H    Isotropic =    30.2563   Anisotropy =     8.9142
   XX=    36.1317   YX=    -0.4972   ZX=     0.4439
   XY=    -0.4853   YY=    29.2991   ZY=    -0.5310
   XZ=     0.6379   YZ=    -0.8907   ZZ=    25.3380
   Eigenvalues:    25.1957    29.3740    36.1991
      5  C    Isotropic =   167.5923   Anisotropy =    21.6845
   XX=   181.6538   YX=     0.2904   ZX=     2.9773
   XY=    -2.2384   YY=   164.3390   ZY=    -1.2913
   XZ=     2.5028   YZ=    -4.7439   ZZ=   156.7840
   Eigenvalues:   155.5279   165.2003   182.0486
      6  H    Isotropic =    30.1267   Anisotropy =    10.0891
   XX=    30.6793   YX=    -2.4443   ZX=     2.5275
   XY=    -2.3402   YY=    32.7086   ZY=    -4.4890
   XZ=     2.7858   YZ=    -4.0437   ZZ=    26.9923
   Eigenvalues:    24.4291    29.0982    36.8528
      7  C    Isotropic =   151.3369   Anisotropy =    29.6640
   XX=   160.2128   YX=    13.9312   ZX=     3.5544
   XY=    10.0459   YY=   155.9543   ZY=     0.3400
   XZ=     4.7665   YZ=     6.3203   ZZ=   137.8436
   Eigenvalues:   136.9889   145.9089   171.1129
      8  H    Isotropic =    28.3053   Anisotropy =     4.2024
   XX=    27.6253   YX=    -0.3277   ZX=    -1.9437
   XY=    -1.5061   YY=    27.3777   ZY=    -0.3462
   XZ=    -2.1291   YZ=    -0.5256   ZZ=    29.9129
   Eigenvalues:    25.7889    28.0201    31.1069
      9  C    Isotropic =   155.5918   Anisotropy =    13.4503
   XX=   160.8836   YX=     1.0399   ZX=     1.3427
   XY=    -1.3747   YY=   163.4624   ZY=    -1.6675
   XZ=    -2.2968   YZ=    -8.1786   ZZ=   142.4294
   Eigenvalues:   141.3212   160.8955   164.5586
     10  H    Isotropic =    27.4404   Anisotropy =     6.9459
   XX=    29.1005   YX=     0.1371   ZX=     2.3878
   XY=     0.1786   YY=    23.3239   ZY=     1.0353
   XZ=     2.4189   YZ=     1.5427   ZZ=    29.8968
   Eigenvalues:    23.0639    27.1863    32.0710
     11  C    Isotropic =   114.8973   Anisotropy =    35.6167
   XX=   117.7988   YX=     4.2815   ZX=   -12.1582
   XY=     9.3800   YY=    94.6735   ZY=    15.0871
   XZ=    -5.9917   YZ=    11.1700   ZZ=   132.2195
   Eigenvalues:    87.6217   118.4284   138.6417
     12  H    Isotropic =    27.5830   Anisotropy =     3.5589
   XX=    26.6863   YX=     0.1028   ZX=     0.0826
   XY=     2.3373   YY=    27.2476   ZY=    -0.8111
   XZ=     0.8712   YZ=    -2.6514   ZZ=    28.8150
   Eigenvalues:    25.0896    27.7037    29.9556
     13  C    Isotropic =    89.6669   Anisotropy =   119.3646
   XX=    53.0088   YX=    23.7752   ZX=    -2.0003
   XY=    20.9645   YY=   162.4170   ZY=   -15.7503
   XZ=    -4.5191   YZ=   -17.1350   ZZ=    53.5748
   Eigenvalues:    48.6115    51.1459   169.2433
     14  C    Isotropic =    51.0593   Anisotropy =   188.4560
   XX=   -25.2071   YX=    37.6085   ZX=    -1.0612
   XY=    34.9407   YY=   166.5179   ZY=   -25.7732
   XZ=     0.0687   YZ=   -23.1820   ZZ=    11.8671
   Eigenvalues:   -32.2125     8.6937   176.6966
     15  C    Isotropic =    40.7969   Anisotropy =   128.4869
   XX=    16.3842   YX=     5.8445   ZX=   -33.9860
   XY=    11.0616   YY=   122.3538   ZY=   -14.1207
   XZ=   -31.6853   YZ=   -23.6903   ZZ=   -16.3474
   Eigenvalues:   -37.5366    33.4725   126.4548
     16  C    Isotropic =    44.0766   Anisotropy =   123.3399
   XX=    32.1846   YX=    18.4544   ZX=    26.2043
   XY=    21.7429   YY=   119.2320   ZY=   -26.8810
   XZ=    16.7980   YZ=   -21.8340   ZZ=   -19.1869
   Eigenvalues:   -32.8786    38.8052   126.3032
     17  C    Isotropic =    93.4592   Anisotropy =    99.1300
   XX=    76.4646   YX=     6.8190   ZX=   -33.7322
   XY=    -1.0779   YY=   157.8321   ZY=   -11.2598
   XZ=   -34.4939   YZ=   -11.7269   ZZ=    46.0808
   Eigenvalues:    23.4408    97.3909   159.5458
     18  C    Isotropic =    88.0966   Anisotropy =   108.7130
   XX=    77.7949   YX=    13.4765   ZX=    24.7893
   XY=    15.5098   YY=   154.4891   ZY=   -29.5509
   XZ=    27.8372   YZ=   -20.9501   ZZ=    32.0058
   Eigenvalues:    14.0350    89.6829   160.5719
     19  H    Isotropic =    25.2876   Anisotropy =     6.8775
   XX=    28.5720   YX=    -1.4971   ZX=    -2.0503
   XY=    -1.2055   YY=    21.6157   ZY=     0.1504
   XZ=    -2.0730   YZ=     0.6130   ZZ=    25.6751
   Eigenvalues:    21.3624    24.6278    29.8726
     20  H    Isotropic =    24.8425   Anisotropy =     7.7997
   XX=    29.2049   YX=    -0.9039   ZX=     2.1153
   XY=    -1.1243   YY=    21.3653   ZY=     0.9671
   XZ=     2.2330   YZ=     0.6757   ZZ=    23.9573
   Eigenvalues:    20.7921    23.6931    30.0423
     21  O    Isotropic =   227.6752   Anisotropy =    43.4854
   XX=   199.5604   YX=     2.0744   ZX=   -19.0438
   XY=     4.4327   YY=   241.5884   ZY=     5.6050
   XZ=   -37.6479   YZ=     4.1661   ZZ=   241.8769
   Eigenvalues:   184.8875   241.4727   256.6655
     22  H    Isotropic =    26.5696   Anisotropy =    15.3584
   XX=    28.9604   YX=    -1.1573   ZX=     5.0277
   XY=    -0.7468   YY=    18.3146   ZY=     1.5503
   XZ=     6.6700   YZ=     0.9458   ZZ=    32.4339
   Eigenvalues:    17.9613    24.9390    36.8086
     23  O    Isotropic =   221.5830   Anisotropy =    77.0396
   XX=   179.2524   YX=     6.3958   ZX=    13.9785
   XY=     6.2146   YY=   256.4942   ZY=   -53.5159
   XZ=    28.8366   YZ=     0.6054   ZZ=   229.0024
   Eigenvalues:   168.4730   223.3332   272.9428
     24  H    Isotropic =    21.6788   Anisotropy =    28.5573
   XX=    35.4090   YX=     7.8004   ZX=    -7.5266
   XY=    11.2934   YY=    12.4910   ZY=     1.6303
   XZ=    -6.9300   YZ=    -0.2760   ZZ=    17.1363
   Eigenvalues:     7.8246    16.4948    40.7170
     25  O    Isotropic =   289.0661   Anisotropy =    44.2511
   XX=   285.9605   YX=    18.7334   ZX=     4.7591
   XY=    23.0477   YY=   301.1100   ZY=    13.1846
   XZ=    -7.6433   YZ=    13.6659   ZZ=   280.1279
   Eigenvalues:   265.1884   283.4431   318.5668
     26  H    Isotropic =    28.5707   Anisotropy =    19.3330
   XX=    23.2445   YX=     4.2114   ZX=    -2.7547
   XY=     5.0910   YY=    39.6750   ZY=     3.7927
   XZ=    -2.0091   YZ=     4.0424   ZZ=    22.7925
   Eigenvalues:    18.8711    25.3816    41.4593
     27  C    Isotropic =   167.0674   Anisotropy =    46.4077
   XX=   164.5047   YX=    22.5656   ZX=     5.2525
   XY=    19.0299   YY=   183.8925   ZY=     5.1738
   XZ=     2.5025   YZ=     4.6808   ZZ=   152.8051
   Eigenvalues:   150.8914   152.3050   198.0059
     28  H    Isotropic =    30.6408   Anisotropy =     9.2156
   XX=    36.0253   YX=     1.6124   ZX=    -1.1632
   XY=     2.9632   YY=    28.9360   ZY=    -0.4269
   XZ=    -0.6362   YZ=     0.0667   ZZ=    26.9611
   Eigenvalues:    26.8713    28.2666    36.7845
     29  H    Isotropic =    30.4722   Anisotropy =     9.3951
   XX=    28.5883   YX=     1.9946   ZX=    -0.6369
   XY=     1.3479   YY=    35.1160   ZY=    -3.9657
   XZ=    -0.1736   YZ=    -2.6488   ZZ=    27.7124
   Eigenvalues:    26.4249    28.2561    36.7356
     30  H    Isotropic =    30.1726   Anisotropy =     8.8886
   XX=    29.3690   YX=     3.0946   ZX=     1.4176
   XY=     3.2315   YY=    29.6619   ZY=     4.8469
   XZ=     0.5854   YZ=     3.6110   ZZ=    31.4868
   Eigenvalues:    25.2416    29.1778    36.0983
     31  O    Isotropic =   262.0675   Anisotropy =    95.6608
   XX=   303.0079   YX=   -28.6806   ZX=   -37.7357
   XY=   -21.1237   YY=   218.1787   ZY=    12.0563
   XZ=   -19.4525   YZ=    15.3300   ZZ=   265.0160
   Eigenvalues:   210.6760   249.6852   325.8414
     32  H    Isotropic =    30.6964   Anisotropy =    17.6066
   XX=    38.5073   YX=    -4.0046   ZX=    -4.9289
   XY=    -3.9001   YY=    24.0638   ZY=     1.8735
   XZ=    -6.5140   YZ=     2.8468   ZZ=    29.5182
   Eigenvalues:    22.8806    26.7745    42.4342
     33  H    Isotropic =    29.3731   Anisotropy =     6.3186
   XX=    29.3411   YX=     0.4150   ZX=    -2.2190
   XY=     0.3789   YY=    30.7373   ZY=     4.2091
   XZ=    -1.6385   YZ=     3.3966   ZZ=    28.0409
   Eigenvalues:    24.6497    29.8841    33.5855
     34  C    Isotropic =    43.1479   Anisotropy =   181.0658
   XX=   105.3604   YX=   -77.1916   ZX=     9.9781
   XY=   -75.1177   YY=    19.1591   ZY=   -71.2761
   XZ=    11.9734   YZ=   -69.2266   ZZ=     4.9243
   Eigenvalues:   -70.8770    36.4624   163.8584
     35  C    Isotropic =    87.1944   Anisotropy =    99.1536
   XX=   125.7698   YX=   -43.3935   ZX=   -11.8766
   XY=   -44.4259   YY=    59.3695   ZY=   -61.3822
   XZ=   -12.6624   YZ=   -60.3442   ZZ=    76.4439
   Eigenvalues:    -6.6410   114.9274   153.2968
     36  H    Isotropic =    26.7607   Anisotropy =     6.6575
   XX=    26.6724   YX=     1.9976   ZX=    -1.7423
   XY=     0.1408   YY=    27.5082   ZY=    -2.0541
   XZ=    -3.0664   YZ=    -4.0586   ZZ=    26.1015
   Eigenvalues:    23.1301    25.9530    31.1990
     37  H    Isotropic =    26.5507   Anisotropy =     7.4556
   XX=    25.7761   YX=    -0.0877   ZX=    -3.8407
   XY=    -0.1219   YY=    26.2320   ZY=    -5.1571
   XZ=    -1.6852   YZ=    -2.2850   ZZ=    27.6440
   Eigenvalues:    22.0880    26.0431    31.5211
     38  C    Isotropic =   177.8378   Anisotropy =    27.9747
   XX=   168.0177   YX=     2.1581   ZX=    -0.3699
   XY=    -0.3505   YY=   175.9960   ZY=    12.5437
   XZ=     0.1049   YZ=    11.3794   ZZ=   189.4998
   Eigenvalues:   167.5295   169.4964   196.4876
     39  H    Isotropic =    29.7715   Anisotropy =     8.3271
   XX=    31.7619   YX=    -1.3364   ZX=    -1.8017
   XY=    -2.7792   YY=    30.8208   ZY=     4.2486
   XZ=    -2.2474   YZ=     3.3410   ZZ=    26.7319
   Eigenvalues:    24.3937    29.5980    35.3229
     40  H    Isotropic =    30.0639   Anisotropy =     8.7631
   XX=    28.8752   YX=     3.9466   ZX=    -0.3098
   XY=     3.6401   YY=    33.3440   ZY=     1.2135
   XZ=     0.8950   YZ=     2.5116   ZZ=    27.9725
   Eigenvalues:    26.3556    27.9302    35.9060
     41  H    Isotropic =    29.8192   Anisotropy =     6.1794
   XX=    25.7132   YX=    -0.1244   ZX=     3.6846
   XY=    -1.6592   YY=    31.7558   ZY=     0.0279
   XZ=     2.6740   YZ=    -1.7918   ZZ=    31.9888
   Eigenvalues:    24.3519    31.1670    33.9388
     42  C    Isotropic =   164.1196   Anisotropy =    30.4477
   XX=   183.4921   YX=   -10.4525   ZX=    -0.0040
   XY=    -0.2556   YY=   152.4927   ZY=     0.8927
   XZ=    -1.3823   YZ=     1.4132   ZZ=   156.3740
   Eigenvalues:   151.3837   156.5571   184.4181
     43  H    Isotropic =    29.3071   Anisotropy =     7.7281
   XX=    29.9261   YX=    -1.5360   ZX=     2.0079
   XY=    -2.6250   YY=    27.8292   ZY=    -4.5644
   XZ=     0.9247   YZ=    -3.4002   ZZ=    30.1662
   Eigenvalues:    24.7106    28.7516    34.4592
     44  H    Isotropic =    29.2247   Anisotropy =     7.3939
   XX=    29.6168   YX=    -1.5121   ZX=    -1.5181
   XY=    -2.1935   YY=    29.8905   ZY=     4.6162
   XZ=    -0.1562   YZ=     3.7454   ZZ=    28.1667
   Eigenvalues:    24.6990    28.8210    34.1539
     45  C    Isotropic =   176.5846   Anisotropy =    31.8429
   XX=   184.8385   YX=     7.1353   ZX=    -2.1360
   XY=    23.2417   YY=   178.6821   ZY=    -3.5814
   XZ=    -4.3644   YZ=    -1.7034   ZZ=   166.2332
   Eigenvalues:   165.6774   166.2632   197.8132
     46  H    Isotropic =    30.2795   Anisotropy =    12.1068
   XX=    38.0839   YX=     0.3233   ZX=    -0.7762
   XY=     2.6259   YY=    26.8752   ZY=    -0.4238
   XZ=    -1.1126   YZ=    -0.1507   ZZ=    25.8793
   Eigenvalues:    25.7741    26.7137    38.3507
     47  H    Isotropic =    30.6313   Anisotropy =     7.3581
   XX=    29.7286   YX=     1.7206   ZX=    -0.1735
   XY=     2.7542   YY=    31.8847   ZY=     4.5878
   XZ=    -0.6146   YZ=     3.3552   ZZ=    30.2807
   Eigenvalues:    26.1436    30.2137    35.5367
     48  H    Isotropic =    30.6585   Anisotropy =     7.1078
   XX=    29.8535   YX=     1.2848   ZX=     0.0957
   XY=     2.1225   YY=    29.8997   ZY=    -4.6845
   XZ=     0.3001   YZ=    -3.3756   ZZ=    32.2224
   Eigenvalues:    26.2453    30.3332    35.3970
 End of Minotr Frequency-dependent properties file   721 does not exist.
 End of Minotr Frequency-dependent properties file   722 does not exist.

 **********************************************************************

            Population analysis using the SCF density.

 **********************************************************************

 Orbital symmetries:
       Occupied  (A) (A) (A) (A) (A) (A) (A) (A) (A) (A) (A) (A)
                 (A) (A) (A) (A) (A) (A) (A) (A) (A) (A) (A) (A)
                 (A) (A) (A) (A) (A) (A) (A) (A) (A) (A) (A) (A)
                 (A) (A) (A) (A) (A) (A) (A) (A) (A) (A) (A) (A)
                 (A) (A) (A) (A) (A) (A) (A) (A) (A) (A) (A) (A)
                 (A) (A) (A) (A) (A) (A) (A) (A) (A) (A) (A) (A)
                 (A) (A) (A) (A) (A) (A) (A) (A) (A) (A) (A)
       Virtual   (A) (A) (A) (A) (A) (A) (A) (A) (A) (A) (A) (A)
                 (A) (A) (A) (A) (A) (A) (A) (A) (A) (A) (A) (A)
                 (A) (A) (A) (A) (A) (A) (A) (A) (A) (A) (A) (A)
                 (A) (A) (A) (A) (A) (A) (A) (A) (A) (A) (A) (A)
                 (A) (A) (A) (A) (A) (A) (A) (A) (A) (A) (A) (A)
                 (A) (A) (A) (A) (A) (A) (A) (A) (A) (A) (A) (A)
                 (A) (A) (A) (A) (A) (A) (A) (A) (A) (A) (A) (A)
                 (A) (A) (A) (A) (A) (A) (A) (A) (A) (A) (A) (A)
                 (A) (A) (A) (A) (A) (A) (A) (A) (A) (A) (A) (A)
                 (A) (A) (A) (A) (A) (A) (A) (A) (A) (A) (A) (A)
                 (A) (A) (A) (A) (A) (A) (A) (A) (A) (A) (A) (A)
                 (A) (A) (A) (A) (A) (A) (A) (A) (A) (A) (A) (A)
                 (A) (A) (A) (A) (A) (A) (A) (A) (A) (A) (A) (A)
                 (A) (A) (A) (A) (A) (A) (A) (A) (A) (A) (A) (A)
                 (A) (A) (A) (A) (A) (A) (A) (A) (A) (A) (A) (A)
                 (A) (A) (A) (A) (A) (A) (A) (A) (A) (A) (A) (A)
                 (A) (A) (A) (A) (A) (A) (A) (A) (A) (A) (A) (A)
                 (A) (A) (A) (A) (A) (A) (A) (A) (A) (A) (A) (A)
                 (A) (A) (A) (A) (A) (A) (A) (A) (A) (A) (A) (A)
                 (A) (A) (A) (A) (A) (A) (A) (A) (A) (A) (A) (A)
                 (A) (A) (A) (A) (A) (A) (A) (A) (A) (A) (A) (A)
                 (A) (A) (A) (A) (A) (A) (A) (A) (A) (A) (A) (A)
                 (A) (A) (A) (A) (A) (A) (A) (A) (A) (A) (A) (A)
                 (A) (A) (A) (A) (A) (A) (A) (A) (A) (A) (A) (A)
                 (A) (A) (A) (A) (A) (A) (A) (A) (A) (A) (A) (A)
                 (A) (A) (A) (A) (A) (A) (A) (A) (A) (A) (A) (A)
                 (A) (A) (A) (A) (A) (A) (A) (A) (A) (A) (A) (A)
                 (A) (A) (A) (A) (A) (A) (A) (A) (A) (A) (A) (A)
                 (A) (A) (A) (A) (A) (A) (A) (A) (A) (A) (A) (A)
                 (A) (A) (A) (A) (A) (A) (A) (A) (A) (A) (A) (A)
                 (A) (A) (A) (A) (A) (A) (A) (A) (A) (A) (A) (A)
                 (A) (A) (A) (A) (A) (A) (A) (A) (A) (A) (A) (A)
                 (A) (A) (A) (A) (A) (A) (A) (A) (A) (A) (A) (A)
                 (A) (A) (A) (A) (A) (A) (A) (A) (A) (A) (A) (A)
                 (A) (A) (A) (A) (A) (A) (A) (A) (A) (A) (A) (A)
                 (A) (A) (A) (A) (A) (A) (A) (A) (A) (A) (A) (A)
                 (A) (A) (A) (A) (A) (A) (A) (A) (A) (A) (A) (A)
                 (A) (A) (A) (A) (A) (A) (A) (A) (A) (A) (A) (A)
                 (A) (A) (A) (A) (A) (A) (A)
 The electronic state is 1-A.
 Alpha  occ. eigenvalues --  -19.28263 -19.28212 -19.25671 -19.25409 -10.32035
 Alpha  occ. eigenvalues --  -10.31824 -10.31480 -10.31320 -10.26938 -10.26446
 Alpha  occ. eigenvalues --  -10.26415 -10.25984 -10.25962 -10.24856 -10.24552
 Alpha  occ. eigenvalues --  -10.24470 -10.24340 -10.23984 -10.23947 -10.23863
 Alpha  occ. eigenvalues --  -10.23665 -10.23498  -1.09850  -1.09253  -1.07255
 Alpha  occ. eigenvalues --   -1.06084  -0.88562  -0.86660  -0.82127  -0.81869
 Alpha  occ. eigenvalues --   -0.78466  -0.77223  -0.75768  -0.73956  -0.71082
 Alpha  occ. eigenvalues --   -0.70220  -0.67003  -0.64471  -0.63337  -0.62442
 Alpha  occ. eigenvalues --   -0.60893  -0.59765  -0.56557  -0.55226  -0.53589
 Alpha  occ. eigenvalues --   -0.52513  -0.51217  -0.50450  -0.49612  -0.49203
 Alpha  occ. eigenvalues --   -0.47468  -0.46479  -0.46108  -0.45395  -0.44976
 Alpha  occ. eigenvalues --   -0.44366  -0.43394  -0.42915  -0.42305  -0.41956
 Alpha  occ. eigenvalues --   -0.41374  -0.41251  -0.40580  -0.39737  -0.39451
 Alpha  occ. eigenvalues --   -0.39011  -0.38177  -0.37977  -0.37548  -0.37044
 Alpha  occ. eigenvalues --   -0.36126  -0.35736  -0.35529  -0.34779  -0.34215
 Alpha  occ. eigenvalues --   -0.33124  -0.32581  -0.31482  -0.30267  -0.29071
 Alpha  occ. eigenvalues --   -0.25928  -0.24059  -0.23018
 Alpha virt. eigenvalues --   -0.00488  -0.00204   0.00346   0.00875   0.01134
 Alpha virt. eigenvalues --    0.01788   0.01910   0.02498   0.03225   0.03445
 Alpha virt. eigenvalues --    0.03836   0.04264   0.04440   0.04988   0.05168
 Alpha virt. eigenvalues --    0.05613   0.06474   0.06532   0.06768   0.07096
 Alpha virt. eigenvalues --    0.07319   0.08164   0.08523   0.08783   0.09421
 Alpha virt. eigenvalues --    0.09553   0.09776   0.10240   0.10707   0.11119
 Alpha virt. eigenvalues --    0.11341   0.11481   0.12359   0.12945   0.13311
 Alpha virt. eigenvalues --    0.13395   0.13565   0.13719   0.14112   0.14487
 Alpha virt. eigenvalues --    0.14819   0.15187   0.15418   0.16013   0.16258
 Alpha virt. eigenvalues --    0.16558   0.17141   0.17360   0.17588   0.17921
 Alpha virt. eigenvalues --    0.18350   0.18448   0.18798   0.19197   0.19261
 Alpha virt. eigenvalues --    0.19630   0.20094   0.20283   0.20704   0.20886
 Alpha virt. eigenvalues --    0.21333   0.21484   0.21766   0.21933   0.22381
 Alpha virt. eigenvalues --    0.22471   0.22651   0.23261   0.23471   0.23558
 Alpha virt. eigenvalues --    0.23660   0.23917   0.24085   0.24695   0.25090
 Alpha virt. eigenvalues --    0.25461   0.25966   0.26026   0.26452   0.26701
 Alpha virt. eigenvalues --    0.26966   0.27208   0.27439   0.27759   0.28066
 Alpha virt. eigenvalues --    0.28503   0.28646   0.28814   0.29050   0.29928
 Alpha virt. eigenvalues --    0.30104   0.30491   0.30659   0.31310   0.31396
 Alpha virt. eigenvalues --    0.31687   0.32002   0.32627   0.32806   0.33251
 Alpha virt. eigenvalues --    0.33670   0.34045   0.34350   0.34839   0.35085
 Alpha virt. eigenvalues --    0.35662   0.35974   0.36338   0.36673   0.37122
 Alpha virt. eigenvalues --    0.37181   0.37966   0.38348   0.38589   0.39421
 Alpha virt. eigenvalues --    0.40211   0.40541   0.41065   0.41846   0.42492
 Alpha virt. eigenvalues --    0.43385   0.43472   0.44594   0.45323   0.45757
 Alpha virt. eigenvalues --    0.46531   0.46747   0.47460   0.47931   0.48282
 Alpha virt. eigenvalues --    0.48942   0.50433   0.50923   0.51981   0.52553
 Alpha virt. eigenvalues --    0.53570   0.56990   0.60864   0.63317   0.65701
 Alpha virt. eigenvalues --    0.68139   0.68543   0.69514   0.69946   0.70608
 Alpha virt. eigenvalues --    0.71828   0.72210   0.73039   0.73520   0.73801
 Alpha virt. eigenvalues --    0.74659   0.75274   0.75867   0.76268   0.76848
 Alpha virt. eigenvalues --    0.77924   0.78083   0.78887   0.79591   0.79704
 Alpha virt. eigenvalues --    0.80094   0.81494   0.81878   0.83296   0.83627
 Alpha virt. eigenvalues --    0.84298   0.84622   0.85983   0.86885   0.87455
 Alpha virt. eigenvalues --    0.87940   0.88353   0.88820   0.90272   0.90833
 Alpha virt. eigenvalues --    0.91143   0.93103   0.93896   0.94359   0.95267
 Alpha virt. eigenvalues --    0.95558   0.96213   0.97191   0.97475   0.99503
 Alpha virt. eigenvalues --    1.00412   1.00721   1.01645   1.02625   1.03339
 Alpha virt. eigenvalues --    1.04582   1.04948   1.06013   1.07585   1.08159
 Alpha virt. eigenvalues --    1.08595   1.09615   1.10060   1.10689   1.11236
 Alpha virt. eigenvalues --    1.12138   1.13534   1.13724   1.14277   1.14538
 Alpha virt. eigenvalues --    1.15193   1.16056   1.16766   1.17483   1.19039
 Alpha virt. eigenvalues --    1.19618   1.19956   1.20684   1.20891   1.21914
 Alpha virt. eigenvalues --    1.23862   1.24958   1.25237   1.26460   1.26557
 Alpha virt. eigenvalues --    1.27386   1.28519   1.29841   1.30120   1.31101
 Alpha virt. eigenvalues --    1.31596   1.32121   1.32367   1.33300   1.34727
 Alpha virt. eigenvalues --    1.35186   1.36860   1.37379   1.38305   1.38783
 Alpha virt. eigenvalues --    1.39600   1.40125   1.41306   1.42332   1.43173
 Alpha virt. eigenvalues --    1.44128   1.44978   1.45338   1.47098   1.48027
 Alpha virt. eigenvalues --    1.50157   1.51137   1.53591   1.53865   1.54691
 Alpha virt. eigenvalues --    1.56493   1.56884   1.58224   1.59052   1.59819
 Alpha virt. eigenvalues --    1.60456   1.61339   1.62462   1.63360   1.65543
 Alpha virt. eigenvalues --    1.66876   1.67336   1.68591   1.70115   1.71427
 Alpha virt. eigenvalues --    1.72981   1.75930   1.77387   1.79121   1.79785
 Alpha virt. eigenvalues --    1.81098   1.81425   1.82080   1.83021   1.85311
 Alpha virt. eigenvalues --    1.85519   1.85575   1.86611   1.86986   1.87563
 Alpha virt. eigenvalues --    1.88214   1.89423   1.90146   1.91121   1.92053
 Alpha virt. eigenvalues --    1.92473   1.92723   1.93704   1.94795   1.95243
 Alpha virt. eigenvalues --    1.95844   1.96370   1.97112   1.97720   1.99109
 Alpha virt. eigenvalues --    2.00111   2.01728   2.02428   2.03779   2.05542
 Alpha virt. eigenvalues --    2.06215   2.06862   2.07251   2.07906   2.08184
 Alpha virt. eigenvalues --    2.09468   2.10511   2.11119   2.11906   2.12860
 Alpha virt. eigenvalues --    2.13408   2.13863   2.14355   2.15319   2.15723
 Alpha virt. eigenvalues --    2.16765   2.17801   2.18157   2.18866   2.19947
 Alpha virt. eigenvalues --    2.20120   2.21131   2.23693   2.24204   2.25983
 Alpha virt. eigenvalues --    2.26813   2.27455   2.28776   2.29060   2.29710
 Alpha virt. eigenvalues --    2.30449   2.32024   2.32989   2.33515   2.34733
 Alpha virt. eigenvalues --    2.35800   2.36968   2.38443   2.39847   2.40086
 Alpha virt. eigenvalues --    2.40993   2.42157   2.43030   2.44733   2.47475
 Alpha virt. eigenvalues --    2.48294   2.48616   2.49459   2.50468   2.51301
 Alpha virt. eigenvalues --    2.52836   2.53469   2.54608   2.55497   2.55630
 Alpha virt. eigenvalues --    2.56464   2.56773   2.57347   2.59396   2.60415
 Alpha virt. eigenvalues --    2.60901   2.61450   2.63127   2.63561   2.65224
 Alpha virt. eigenvalues --    2.65583   2.66136   2.67859   2.70249   2.70804
 Alpha virt. eigenvalues --    2.70876   2.71329   2.71801   2.72765   2.73341
 Alpha virt. eigenvalues --    2.74534   2.75738   2.76259   2.76463   2.77671
 Alpha virt. eigenvalues --    2.78259   2.79481   2.80318   2.81837   2.82224
 Alpha virt. eigenvalues --    2.83339   2.85015   2.85260   2.86127   2.87781
 Alpha virt. eigenvalues --    2.88272   2.88415   2.88669   2.90085   2.90375
 Alpha virt. eigenvalues --    2.92263   2.93046   2.93812   2.94243   2.95477
 Alpha virt. eigenvalues --    2.96254   2.97443   2.99143   3.01998   3.05222
 Alpha virt. eigenvalues --    3.07792   3.09808   3.10436   3.11117   3.13567
 Alpha virt. eigenvalues --    3.19206   3.21421   3.25657   3.27724   3.29310
 Alpha virt. eigenvalues --    3.31081   3.31245   3.36018   3.37614   3.39242
 Alpha virt. eigenvalues --    3.40036   3.42356   3.45458   3.47209   3.48115
 Alpha virt. eigenvalues --    3.49494   3.50238   3.51035   3.51562   3.52554
 Alpha virt. eigenvalues --    3.54062   3.54736   3.56579   3.59024   3.59751
 Alpha virt. eigenvalues --    3.59855   3.60995   3.63728   3.66252   3.71912
 Alpha virt. eigenvalues --    3.80709   4.35031   4.37008   4.39176   4.46697
 Alpha virt. eigenvalues --    4.48129   4.50717   4.52840   4.53175   4.55761
 Alpha virt. eigenvalues --    4.59542   4.60426   4.63262   4.67738   4.71124
 Alpha virt. eigenvalues --    4.73485   4.74237   4.77350   4.84777   4.90616
 Alpha virt. eigenvalues --    4.95771   5.01039   5.03842
          Condensed to atoms (all electrons):
              1          2          3          4          5          6
     1  C   13.115124  -1.865103  -0.111282   0.034081  -0.740783   0.023184
     2  C   -1.865103   7.176986   0.426080   0.313915   0.404204  -0.025533
     3  H   -0.111282   0.426080   0.521154  -0.025170  -0.089616  -0.004852
     4  H    0.034081   0.313915  -0.025170   0.536695  -0.029145  -0.002754
     5  C   -0.740783   0.404204  -0.089616  -0.029145   9.127024   0.479358
     6  H    0.023184  -0.025533  -0.004852  -0.002754   0.479358   0.540115
     7  C    3.042315  -1.071057   0.098296   0.032233  -5.678024  -0.313342
     8  H   -0.050891   0.000674   0.003841  -0.000026  -0.044919  -0.005567
     9  C   -1.312884   0.692671  -0.069582   0.020718   2.487549   0.144019
    10  H   -0.059817   0.015059   0.000102  -0.000040  -0.067902  -0.000042
    11  C   -2.327244   0.349118   0.059184   0.013039  -0.118939  -0.026105
    12  H   -0.043240   0.036576  -0.000083  -0.000101  -0.034870   0.000010
    13  C   -0.424927  -0.113429  -0.013948   0.003339   0.468522   0.025883
    14  C   -0.011663   0.011398  -0.000094  -0.000006   0.005285   0.000164
    15  C    0.497680   0.113966   0.004152  -0.002197  -0.208744  -0.014976
    16  C   -0.829103   0.132940  -0.001087   0.000951   0.473197   0.009109
    17  C   -0.200165   0.022112   0.000140   0.000057   0.053710   0.000737
    18  C   -0.069738   0.007609   0.000514   0.000000  -0.234934  -0.001747
    19  H   -0.000142   0.000018   0.000000   0.000000  -0.000129   0.000000
    20  H   -0.000038  -0.000011   0.000000   0.000000   0.000013   0.000000
    21  O   -0.017423   0.006221  -0.000006   0.000004   0.020218   0.000003
    22  H    0.000208   0.000000   0.000000   0.000000  -0.000808   0.000000
    23  O    0.032110  -0.005518   0.000088   0.000007   0.020007   0.000016
    24  H    0.006230  -0.012353  -0.000077   0.000001   0.001896  -0.000009
    25  O    0.021777  -0.045470   0.006060  -0.000793  -0.165274  -0.000168
    26  H   -0.018507   0.009892   0.000205  -0.000013   0.014220   0.000000
    27  C   -2.982016   0.305724   0.024154  -0.051478  -0.744446  -0.008367
    28  H   -0.077664  -0.010173   0.000259   0.002046   0.010262  -0.000001
    29  H   -0.143471   0.022153   0.000044  -0.000047  -0.011761   0.000002
    30  H   -0.139769   0.035749   0.001215   0.000358   0.005938  -0.000003
    31  O    0.436947  -0.020871   0.011722  -0.015952  -0.102504  -0.001614
    32  H    0.073341  -0.076703   0.000068   0.004727   0.011960  -0.000014
    33  H   -0.034106  -0.042079   0.004706  -0.004460   0.385083  -0.029295
    34  C   -0.077031  -0.379328  -0.035993   0.001268   1.552421   0.057185
    35  C    0.115613  -0.138799   0.010612  -0.001010  -0.620095   0.000151
    36  H   -0.000025   0.000855   0.000000   0.000000  -0.005603  -0.000045
    37  H    0.003980  -0.004612   0.000001   0.000000  -0.020368   0.000007
    38  C    0.115625   0.030285  -0.002916  -0.000640  -0.091082  -0.017059
    39  H   -0.004785   0.005959  -0.000005   0.000004   0.058925   0.000072
    40  H    0.000123   0.001539   0.000000   0.000000  -0.002800  -0.000021
    41  H   -0.004235  -0.001506   0.000000   0.000001  -0.003735   0.000071
    42  C   -0.004459   0.001080  -0.000001   0.000000  -0.002989   0.000009
    43  H    0.000010   0.000000   0.000000   0.000000  -0.000004   0.000000
    44  H    0.000002   0.000000   0.000000   0.000000  -0.000002   0.000000
    45  C    0.000097  -0.000004   0.000000   0.000000  -0.000090   0.000000
    46  H    0.000000   0.000000   0.000000   0.000000   0.000000   0.000000
    47  H    0.000002   0.000000   0.000000   0.000000  -0.000008   0.000000
    48  H    0.000000   0.000000   0.000000   0.000000  -0.000004   0.000000
              7          8          9         10         11         12
     1  C    3.042315  -0.050891  -1.312884  -0.059817  -2.327244  -0.043240
     2  C   -1.071057   0.000674   0.692671   0.015059   0.349118   0.036576
     3  H    0.098296   0.003841  -0.069582   0.000102   0.059184  -0.000083
     4  H    0.032233  -0.000026   0.020718  -0.000040   0.013039  -0.000101
     5  C   -5.678024  -0.044919   2.487549  -0.067902  -0.118939  -0.034870
     6  H   -0.313342  -0.005567   0.144019  -0.000042  -0.026105   0.000010
     7  C   26.742221   0.354985  -7.960443   0.077033  -0.533381   0.009973
     8  H    0.354985   0.564922   0.090068   0.004953   0.021336  -0.000169
     9  C   -7.960443   0.090068  17.712343   0.394377  -2.236182  -0.024775
    10  H    0.077033   0.004953   0.394377   0.513713   0.123407  -0.004189
    11  C   -0.533381   0.021336  -2.236182   0.123407  12.018269   0.205075
    12  H    0.009973  -0.000169  -0.024775  -0.004189   0.205075   0.556821
    13  C   -3.117773   0.140462   4.581153  -0.173594  -1.206369   0.041242
    14  C   -0.305262  -0.007666  -0.650903  -0.013089  -0.210285   0.009355
    15  C    3.494921  -0.180055  -2.780565  -0.126150  -1.394736   0.075324
    16  C   -4.701497   0.050800   0.073100   0.041277  -0.266552   0.057645
    17  C   -1.576828   0.015149  -1.347497   0.044927   0.164565   0.014821
    18  C   -0.228763  -0.035479  -1.328364   0.006720   0.550270   0.015236
    19  H   -0.000341   0.000000  -0.006123  -0.000008   0.000276   0.000002
    20  H   -0.000743   0.000004   0.008514   0.000001  -0.000970   0.000000
    21  O   -0.064165  -0.000257  -0.092870   0.002648   0.009222  -0.001027
    22  H    0.001664   0.000000   0.036087   0.000097   0.004942   0.000010
    23  O   -0.007010   0.006436   0.172808   0.000512  -0.052526  -0.002745
    24  H   -0.083654   0.000954  -0.027841  -0.000079  -0.000133   0.000558
    25  O    0.478474   0.007461  -0.318794   0.011318   0.209854  -0.039204
    26  H   -0.022959   0.000010   0.040268  -0.000194   0.007088  -0.008984
    27  C    0.939811   0.009741  -2.159020   0.022065   1.476188  -0.038385
    28  H   -0.003771   0.000000   0.000733  -0.000006   0.023114  -0.000010
    29  H   -0.008099   0.000001  -0.001792   0.000006   0.022515   0.002674
    30  H   -0.005001   0.000014   0.019761   0.000001   0.017726   0.000402
    31  O    0.293674   0.001284  -0.167736   0.006507  -0.153706   0.003319
    32  H    0.006898   0.000001  -0.031521  -0.000164   0.047339  -0.000169
    33  H    0.093694   0.005128  -0.049753   0.003656   0.008922  -0.000055
    34  C   -5.508688  -0.208159   0.552146  -0.027111  -0.460619  -0.003727
    35  C    0.816369   0.118772   0.389907   0.022018   0.044189  -0.000179
    36  H    0.054786   0.000301   0.000048   0.000006   0.001613   0.000000
    37  H   -0.011630   0.005597   0.036456  -0.000005  -0.002132   0.000000
    38  C    0.864777  -0.027843  -0.599470  -0.017734   0.028779  -0.001721
    39  H   -0.090126  -0.000099  -0.007051  -0.000071   0.011332   0.000000
    40  H    0.023265  -0.000078  -0.006801  -0.000016   0.000570   0.000000
    41  H    0.049406  -0.000096   0.002522  -0.000034  -0.020308   0.000005
    42  C   -0.125445   0.000483  -0.190468  -0.000553  -0.031281   0.000499
    43  H    0.000088   0.000000   0.000928   0.000000  -0.000164   0.000000
    44  H   -0.000291   0.000000  -0.000331   0.000000   0.000093   0.000000
    45  C   -0.000154  -0.000010   0.000676   0.000000  -0.000606   0.000010
    46  H    0.000014   0.000000   0.000021   0.000000  -0.000007   0.000000
    47  H   -0.000171   0.000000   0.000056   0.000000   0.000024   0.000000
    48  H    0.000086   0.000000  -0.000129   0.000000  -0.000024   0.000000
             13         14         15         16         17         18
     1  C   -0.424927  -0.011663   0.497680  -0.829103  -0.200165  -0.069738
     2  C   -0.113429   0.011398   0.113966   0.132940   0.022112   0.007609
     3  H   -0.013948  -0.000094   0.004152  -0.001087   0.000140   0.000514
     4  H    0.003339  -0.000006  -0.002197   0.000951   0.000057   0.000000
     5  C    0.468522   0.005285  -0.208744   0.473197   0.053710  -0.234934
     6  H    0.025883   0.000164  -0.014976   0.009109   0.000737  -0.001747
     7  C   -3.117773  -0.305262   3.494921  -4.701497  -1.576828  -0.228763
     8  H    0.140462  -0.007666  -0.180055   0.050800   0.015149  -0.035479
     9  C    4.581153  -0.650903  -2.780565   0.073100  -1.347497  -1.328364
    10  H   -0.173594  -0.013089  -0.126150   0.041277   0.044927   0.006720
    11  C   -1.206369  -0.210285  -1.394736  -0.266552   0.164565   0.550270
    12  H    0.041242   0.009355   0.075324   0.057645   0.014821   0.015236
    13  C   22.851874  -2.637730 -11.361345   0.821737  -3.442571   0.927550
    14  C   -2.637730  10.904226   3.164957  -0.164032   0.356429  -2.225244
    15  C  -11.361345   3.164957  31.037099  -2.048362  -2.873922  -9.849724
    16  C    0.821737  -0.164032  -2.048362  11.760397   1.350744  -1.010352
    17  C   -3.442571   0.356429  -2.873922   1.350744  13.673869  -0.908882
    18  C    0.927550  -2.225244  -9.849724  -1.010352  -0.908882  18.783632
    19  H    0.074901   0.044870  -0.054487  -0.060501   0.283737   0.052082
    20  H    0.052877   0.058658   0.081458  -0.004049   0.035894   0.110553
    21  O   -0.091919   0.032775   0.049234   0.228791  -0.065384  -0.015138
    22  H    0.123428   0.013721  -0.026031   0.037482  -0.198808   0.013982
    23  O   -0.388704   0.150009   0.977889  -0.060234  -0.012287  -0.717795
    24  H   -0.016408  -0.007616  -0.026221   0.018583  -0.004278   0.171639
    25  O   -0.035974  -0.024903   0.061131  -0.161543  -0.051612  -0.034885
    26  H   -0.027277   0.002087   0.024701  -0.000322  -0.000878  -0.011016
    27  C   -0.461948  -0.005477   0.111307  -0.218292  -0.018756   0.077758
    28  H   -0.000461  -0.000014  -0.001091   0.000161   0.000014  -0.000030
    29  H   -0.000887  -0.000014  -0.001733   0.002332   0.000303  -0.000041
    30  H   -0.001270   0.000048   0.006279  -0.000577  -0.000128   0.000679
    31  O   -0.049886   0.000728   0.017477  -0.031438  -0.001395   0.003888
    32  H   -0.000569   0.000024   0.000110  -0.002150  -0.000137  -0.000019
    33  H   -0.012120  -0.000168  -0.009506   0.008015   0.001964   0.000033
    34  C   -0.307227   0.310532   0.374776   0.937346   0.207285  -0.067845
    35  C    0.530632  -0.160119  -0.920284   0.090975   0.233396   0.134923
    36  H   -0.000062  -0.000002   0.004147  -0.000301   0.000659   0.000154
    37  H    0.024287  -0.002704   0.004176   0.003277   0.002511  -0.029740
    38  C   -0.022368  -0.006459   0.446015  -0.587114  -0.418225  -0.019842
    39  H   -0.010609   0.000483   0.008516  -0.000467  -0.000904   0.001567
    40  H    0.001675  -0.000270   0.002027   0.004298   0.000005   0.001484
    41  H    0.040026  -0.005591  -0.009110  -0.016077  -0.016189  -0.002785
    42  C   -1.223211  -2.287085  -1.151960  -0.241336   0.803780   1.447261
    43  H   -0.005290  -0.210712  -0.010197   0.061802   0.158261  -0.133867
    44  H    0.005230  -0.242270   0.033011  -0.024819  -0.098976   0.179356
    45  C    0.001159  -0.059553   0.023895   0.008110   0.036445   0.001631
    46  H    0.002077   0.029126   0.001771   0.003697   0.006716   0.006360
    47  H   -0.001080  -0.042742  -0.002073  -0.004365  -0.017419   0.022800
    48  H   -0.004762  -0.023021  -0.001366   0.002885   0.021342  -0.032934
             19         20         21         22         23         24
     1  C   -0.000142  -0.000038  -0.017423   0.000208   0.032110   0.006230
     2  C    0.000018  -0.000011   0.006221   0.000000  -0.005518  -0.012353
     3  H    0.000000   0.000000  -0.000006   0.000000   0.000088  -0.000077
     4  H    0.000000   0.000000   0.000004   0.000000   0.000007   0.000001
     5  C   -0.000129   0.000013   0.020218  -0.000808   0.020007   0.001896
     6  H    0.000000   0.000000   0.000003   0.000000   0.000016  -0.000009
     7  C   -0.000341  -0.000743  -0.064165   0.001664  -0.007010  -0.083654
     8  H    0.000000   0.000004  -0.000257   0.000000   0.006436   0.000954
     9  C   -0.006123   0.008514  -0.092870   0.036087   0.172808  -0.027841
    10  H   -0.000008   0.000001   0.002648   0.000097   0.000512  -0.000079
    11  C    0.000276  -0.000970   0.009222   0.004942  -0.052526  -0.000133
    12  H    0.000002   0.000000  -0.001027   0.000010  -0.002745   0.000558
    13  C    0.074901   0.052877  -0.091919   0.123428  -0.388704  -0.016408
    14  C    0.044870   0.058658   0.032775   0.013721   0.150009  -0.007616
    15  C   -0.054487   0.081458   0.049234  -0.026031   0.977889  -0.026221
    16  C   -0.060501  -0.004049   0.228791   0.037482  -0.060234   0.018583
    17  C    0.283737   0.035894  -0.065384  -0.198808  -0.012287  -0.004278
    18  C    0.052082   0.110553  -0.015138   0.013982  -0.717795   0.171639
    19  H    0.522522  -0.000140  -0.018894   0.008544   0.000139   0.000000
    20  H   -0.000140   0.518071   0.000086  -0.000001  -0.005706   0.000086
    21  O   -0.018894   0.000086   8.320257   0.202738  -0.002141  -0.000093
    22  H    0.008544  -0.000001   0.202738   0.364205   0.000043   0.000000
    23  O    0.000139  -0.005706  -0.002141   0.000043   8.337314   0.189021
    24  H    0.000000   0.000086  -0.000093   0.000000   0.189021   0.313746
    25  O    0.000005   0.000000  -0.001383  -0.000014  -0.000975   0.011586
    26  H    0.000000   0.000000  -0.000053   0.000000   0.002590   0.000471
    27  C   -0.000004  -0.000006   0.002224   0.000130  -0.002749  -0.002972
    28  H    0.000000   0.000000   0.000001   0.000000   0.000002   0.000000
    29  H    0.000000   0.000000   0.000019   0.000000  -0.000002  -0.000002
    30  H    0.000000   0.000000   0.000002   0.000000  -0.000099   0.000038
    31  O    0.000001   0.000000  -0.001144   0.000015   0.000373  -0.000135
    32  H    0.000000   0.000000   0.000027   0.000000  -0.000001   0.000000
    33  H    0.000000   0.000000  -0.000191   0.000000   0.000056  -0.000006
    34  C   -0.001201  -0.002186   0.040503  -0.000345  -0.060829   0.000432
    35  C    0.000085   0.002471  -0.011895   0.000326   0.018009   0.009651
    36  H    0.000000   0.000000  -0.000066   0.000000   0.000052  -0.000002
    37  H    0.000000  -0.000003  -0.000030   0.000000   0.003104  -0.000100
    38  C    0.000211   0.000256  -0.007164   0.000416  -0.015577  -0.001870
    39  H    0.000000   0.000000   0.000125  -0.000001  -0.000024   0.000000
    40  H    0.000000   0.000000   0.000087   0.000000  -0.000009   0.000000
    41  H   -0.000001   0.000000   0.002455  -0.000220  -0.000063   0.000002
    42  C   -0.017599  -0.025546  -0.001319   0.000995  -0.037291   0.003454
    43  H    0.002232   0.000094  -0.000018   0.000001   0.000034   0.000000
    44  H    0.000075   0.001823   0.000038   0.000000  -0.000005   0.000000
    45  C    0.007826   0.004173  -0.000054   0.000095   0.000320  -0.000068
    46  H   -0.000028  -0.000025  -0.000001   0.000000   0.000000   0.000000
    47  H    0.000176   0.000008   0.000029   0.000000   0.000006   0.000000
    48  H    0.000010   0.000181   0.000002   0.000000  -0.000001   0.000000
             25         26         27         28         29         30
     1  C    0.021777  -0.018507  -2.982016  -0.077664  -0.143471  -0.139769
     2  C   -0.045470   0.009892   0.305724  -0.010173   0.022153   0.035749
     3  H    0.006060   0.000205   0.024154   0.000259   0.000044   0.001215
     4  H   -0.000793  -0.000013  -0.051478   0.002046  -0.000047   0.000358
     5  C   -0.165274   0.014220  -0.744446   0.010262  -0.011761   0.005938
     6  H   -0.000168   0.000000  -0.008367  -0.000001   0.000002  -0.000003
     7  C    0.478474  -0.022959   0.939811  -0.003771  -0.008099  -0.005001
     8  H    0.007461   0.000010   0.009741   0.000000   0.000001   0.000014
     9  C   -0.318794   0.040268  -2.159020   0.000733  -0.001792   0.019761
    10  H    0.011318  -0.000194   0.022065  -0.000006   0.000006   0.000001
    11  C    0.209854   0.007088   1.476188   0.023114   0.022515   0.017726
[...]
    17  C   -0.045851  -0.000013  -0.016704   0.000028   0.000231  -0.000085
    18  C    0.032137  -0.016939   0.042461  -0.000063  -0.000023   0.000635
    19  H    0.000003   0.000000  -0.000003   0.000000   0.000000   0.000000
    20  H   -0.000031   0.000000  -0.000009   0.000000   0.000000   0.000000
    21  O   -0.001540  -0.000050   0.004543   0.000003   0.000015   0.000003
    22  H   -0.000001   0.000000   0.000150   0.000000   0.000000   0.000000
    23  O   -0.013047   0.004140  -0.002071   0.000003   0.000005  -0.000108
    24  H    0.020899  -0.000266  -0.002617   0.000000  -0.000001   0.000038
    25  O    8.488119   0.241164   0.002390  -0.000904  -0.002440   0.006904
    26  H    0.241164   0.307229   0.001070  -0.000039   0.000341  -0.000188
    27  C    0.002390   0.001070   8.333009   0.453879   0.540014   0.446341
    28  H   -0.000904  -0.000039   0.453879   0.531066  -0.028566  -0.025583
    29  H   -0.002440   0.000341   0.540014  -0.028566   0.537846  -0.027256
    30  H    0.006904  -0.000188   0.446341  -0.025583  -0.027256   0.528879
    31  O    0.021777  -0.000110  -0.205685  -0.012317   0.000098   0.009072
    32  H   -0.000879  -0.000004   0.002176   0.003545  -0.000415   0.000069
    33  H    0.000647   0.000003  -0.001944  -0.000001   0.000002   0.000001
    34  C   -0.020775  -0.001660  -0.123754   0.000269  -0.000717   0.000248
    35  C    0.013065  -0.000255  -0.002695  -0.000043   0.000020   0.000046
    36  H   -0.000007   0.000000   0.000006   0.000000   0.000000   0.000000
    37  H    0.000047   0.000000   0.000129   0.000000   0.000000   0.000000
    38  C    0.002012  -0.000034   0.012336   0.000020  -0.000100  -0.000072
    39  H   -0.000020   0.000000   0.000236   0.000000   0.000000   0.000000
    40  H   -0.000006   0.000000  -0.000012   0.000000   0.000000   0.000000
    41  H    0.000090   0.000000  -0.000803   0.000000   0.000000   0.000000
    42  C   -0.006820   0.000075  -0.000704   0.000000  -0.000001   0.000000
    43  H    0.000000   0.000000   0.000000   0.000000   0.000000   0.000000
    44  H    0.000000   0.000000  -0.000001   0.000000   0.000000   0.000000
    45  C    0.000009  -0.000002  -0.000039   0.000000   0.000000   0.000000
    46  H    0.000000   0.000000   0.000000   0.000000   0.000000   0.000000
    47  H    0.000000   0.000000   0.000000   0.000000   0.000000   0.000000
    48  H    0.000000   0.000000   0.000000   0.000000   0.000000   0.000000
             31         32         33         34         35         36
     1  C    0.357053   0.017745  -0.064967   0.064220   0.088657   0.000242
     2  C   -0.021780  -0.048585  -0.040915  -0.314332  -0.210109  -0.000873
     3  H    0.009310   0.000089   0.005125  -0.036143   0.009752   0.000000
     4  H   -0.017378   0.004495  -0.004932  -0.008832  -0.000187   0.000000
     5  C   -0.056679   0.007589   0.509837   1.252031  -0.539228  -0.002973
     6  H   -0.001779   0.000013  -0.033598   0.064427  -0.000031  -0.000046
     7  C    0.235897  -0.003865  -0.122570  -4.153195   0.222225   0.011898
     8  H    0.001527  -0.000001   0.005506  -0.197078   0.079750   0.000336
     9  C   -0.114788  -0.024798   0.050077   0.353876   0.566975  -0.000956
    10  H    0.007676  -0.000144   0.003770  -0.039027   0.007707   0.000007
    11  C   -0.236396   0.060736   0.005770  -0.513880  -0.008222   0.000513
    12  H    0.005429  -0.000184  -0.000057  -0.004958   0.001141   0.000000
    13  C   -0.017780  -0.003565  -0.003457  -0.761515   0.631535   0.005682
    14  C    0.001211  -0.000013  -0.000084   0.341557  -0.131668  -0.000157
    15  C    0.004768  -0.000413  -0.018161   0.865176  -1.064985  -0.001651
    16  C   -0.016231  -0.001849   0.019900   0.669333   0.279763  -0.000918
    17  C    0.001526  -0.000104   0.003049   0.164707   0.326906   0.000169
    18  C    0.003225  -0.000070  -0.000473  -0.133479   0.074002  -0.000282
    19  H    0.000002   0.000000   0.000000  -0.000612   0.000151   0.000000
    20  H    0.000000   0.000000   0.000000  -0.001516   0.002169   0.000000
    21  O   -0.001758   0.000046  -0.000087   0.035645  -0.016396  -0.000065
    22  H    0.000013   0.000000   0.000000  -0.000400   0.000345   0.000000
    23  O    0.000484   0.000000   0.000059  -0.078892   0.042451   0.000141
    24  H   -0.000170   0.000000  -0.000009   0.002782   0.005242  -0.000002
    25  O    0.021777  -0.000879   0.000647  -0.020775   0.013065  -0.000007
    26  H   -0.000110  -0.000004   0.000003  -0.001660  -0.000255   0.000000
    27  C   -0.205685   0.002176  -0.001944  -0.123754  -0.002695   0.000006
    28  H   -0.012317   0.003545  -0.000001   0.000269  -0.000043   0.000000
    29  H    0.000098  -0.000415   0.000002  -0.000717   0.000020   0.000000
    30  H    0.009072   0.000069   0.000001   0.000248   0.000046   0.000000
    31  O    8.427669   0.240102   0.012731  -0.037584   0.010452   0.000001
    32  H    0.240102   0.336567  -0.000176  -0.000773  -0.000010   0.000000
    33  H    0.012731  -0.000176   0.562558  -0.027312   0.051682   0.000007
    34  C   -0.037584  -0.000773  -0.027312  10.841154  -2.109892  -0.127488
    35  C    0.010452  -0.000010   0.051682  -2.109892   8.495802   0.464636
    36  H    0.000001   0.000000   0.000007  -0.127488   0.464636   0.538457
    37  H    0.000004   0.000000  -0.000004  -0.214852   0.629277  -0.035272
    38  C    0.007669  -0.000071  -0.065886  -0.077231  -1.329199  -0.000602
    39  H   -0.000365   0.000001  -0.001351  -0.081163  -0.039529   0.000233
    40  H   -0.000007   0.000000   0.000041  -0.064539  -0.052411   0.003571
    41  H    0.000035  -0.000001  -0.000011  -0.164234  -0.013815   0.000170
    42  C    0.000128   0.000000   0.000004  -0.012416   0.046974   0.000176
    43  H    0.000000   0.000000   0.000000   0.000031  -0.000047   0.000000
    44  H    0.000000   0.000000   0.000000  -0.000095   0.000085   0.000000
    45  C    0.000001   0.000000   0.000000  -0.000900  -0.002189   0.000013
    46  H    0.000000   0.000000   0.000000  -0.000061   0.000053   0.000000
    47  H    0.000000   0.000000   0.000000   0.000092  -0.000117   0.000000
    48  H    0.000000   0.000000   0.000000   0.000238  -0.000353   0.000000
             37         38         39         40         41         42
     1  C    0.004494   0.099912  -0.005433   0.000391  -0.003500  -0.002262
     2  C   -0.004548   0.082512   0.005228  -0.001074   0.001775   0.000677
     3  H    0.000001  -0.003998  -0.000005   0.000000   0.000000  -0.000005
     4  H    0.000000  -0.002316   0.000002   0.000000   0.000001   0.000000
     5  C   -0.019375  -0.035839   0.046099   0.005699  -0.020017   0.000272
     6  H   -0.000002  -0.016548   0.000035  -0.000016   0.000077   0.000012
     7  C   -0.057145   0.567230  -0.048311  -0.052106   0.105248  -0.106385
     8  H    0.005989  -0.026131  -0.000104  -0.000085  -0.000092   0.000381
     9  C    0.029097  -0.734454  -0.017790  -0.005791  -0.011500  -0.129862
    10  H   -0.000004  -0.007238  -0.000062   0.000003   0.000118  -0.000847
    11  C   -0.000834  -0.067632   0.010156  -0.001931  -0.010917  -0.072917
    12  H    0.000000  -0.002365   0.000000   0.000000   0.000003   0.000543
    13  C    0.006843  -0.000077  -0.008577   0.004963   0.029438  -0.899879
    14  C   -0.001057  -0.005688  -0.000210   0.000862  -0.004413  -1.777044
    15  C    0.014436   0.496519   0.008430  -0.000921  -0.009758  -0.763772
    16  C    0.004485  -0.637153  -0.008258   0.009994  -0.034836  -0.242352
    17  C    0.002971  -0.496741  -0.002883   0.002259  -0.017317   0.707016
    18  C   -0.028305   0.020721   0.002168  -0.000087   0.000150   0.782662
    19  H    0.000000   0.000097   0.000000   0.000000  -0.000001  -0.017387
    20  H   -0.000003   0.000229   0.000000   0.000000   0.000000  -0.014189
    21  O   -0.000048  -0.001274   0.000396   0.000090   0.002872   0.001728
    22  H    0.000000   0.000363   0.000000   0.000000  -0.000222   0.000241
    23  O    0.003222  -0.022488  -0.000044  -0.000007   0.000000  -0.026033
    24  H   -0.000100  -0.000805   0.000000   0.000000   0.000002   0.001497
    25  O    0.000047   0.002012  -0.000020  -0.000006   0.000090  -0.006820
    26  H    0.000000  -0.000034   0.000000   0.000000   0.000000   0.000075
    27  C    0.000129   0.012336   0.000236  -0.000012  -0.000803  -0.000704
    28  H    0.000000   0.000020   0.000000   0.000000   0.000000   0.000000
    29  H    0.000000  -0.000100   0.000000   0.000000   0.000000  -0.000001
    30  H    0.000000  -0.000072   0.000000   0.000000   0.000000   0.000000
    31  O    0.000004   0.007669  -0.000365  -0.000007   0.000035   0.000128
    32  H    0.000000  -0.000071   0.000001   0.000000  -0.000001   0.000000
    33  H   -0.000004  -0.065886  -0.001351   0.000041  -0.000011   0.000004
    34  C   -0.214852  -0.077231  -0.081163  -0.064539  -0.164234  -0.012416
    35  C    0.629277  -1.329199  -0.039529  -0.052411  -0.013815   0.046974
    36  H   -0.035272  -0.000602   0.000233   0.003571   0.000170   0.000176
    37  H    0.548374  -0.028851  -0.000190   0.000200  -0.000207   0.000379
    38  C   -0.028851   7.435521   0.488326   0.506633   0.501717  -0.020696
    39  H   -0.000190   0.488326   0.536607  -0.027022  -0.028961  -0.000024
    40  H    0.000200   0.506633  -0.027022   0.541518  -0.026948  -0.000015
    41  H   -0.000207   0.501717  -0.028961  -0.026948   0.534755  -0.000141
    42  C    0.000379  -0.020696  -0.000024  -0.000015  -0.000141   7.515741
    43  H    0.000000   0.000025   0.000000   0.000000   0.000000   0.486582
    44  H    0.000000  -0.000013   0.000000   0.000000   0.000000   0.489379
    45  C   -0.000028   0.001961  -0.000002   0.000017   0.000039   0.206354
    46  H    0.000000  -0.000002   0.000000   0.000000   0.000000  -0.065700
    47  H    0.000000   0.000042   0.000000   0.000000   0.000000  -0.046933
    48  H    0.000000  -0.000032   0.000000   0.000000   0.000000  -0.053228
             43         44         45         46         47         48
     1  C    0.000009   0.000000  -0.000001   0.000000   0.000000   0.000001
     2  C    0.000000   0.000000  -0.000022   0.000000  -0.000001   0.000000
     3  H    0.000000   0.000000   0.000000   0.000000   0.000000   0.000000
     4  H    0.000000   0.000000   0.000000   0.000000   0.000000   0.000000
     5  C   -0.000005  -0.000003  -0.000109  -0.000001  -0.000002   0.000000
     6  H    0.000000   0.000000   0.000000   0.000000   0.000000   0.000000
     7  C    0.000037  -0.000265   0.001203   0.000004  -0.000215   0.000147
     8  H    0.000000   0.000000  -0.000012   0.000000   0.000000   0.000000
     9  C    0.000065  -0.000738  -0.004794  -0.000052  -0.000177  -0.000258
    10  H    0.000000   0.000000   0.000007   0.000000   0.000000   0.000000
    11  C   -0.000162   0.000069  -0.002732   0.000001   0.000013  -0.000060
    12  H    0.000000   0.000000   0.000011   0.000000   0.000000   0.000000
    13  C   -0.007814  -0.005864  -0.022089   0.001541  -0.001248  -0.014985
    14  C   -0.163560  -0.164585   0.044643  -0.019590   0.023233   0.068716
    15  C   -0.011835   0.027527   0.042377  -0.004010   0.009132   0.002203
    16  C    0.038875  -0.019097   0.003772   0.002237  -0.026592   0.013875
    17  C    0.088069  -0.067306  -0.009127   0.002936  -0.065765   0.054072
    18  C   -0.090649   0.080799  -0.056967   0.017451   0.045339  -0.132088
    19  H    0.002482   0.000109   0.004405  -0.000034   0.000198   0.000015
    20  H    0.000117   0.002312   0.002418  -0.000034   0.000012   0.000259
    21  O    0.000010   0.000025   0.000173  -0.000003   0.000058   0.000001
    22  H   -0.000001   0.000000   0.000054   0.000000  -0.000001   0.000000
    23  O    0.000024  -0.000029   0.000107   0.000000   0.000006  -0.000038
    24  H    0.000000   0.000000  -0.000051   0.000000   0.000000   0.000000
    25  O    0.000000   0.000000   0.000009   0.000000   0.000000   0.000000
    26  H    0.000000   0.000000  -0.000002   0.000000   0.000000   0.000000
    27  C    0.000000  -0.000001  -0.000039   0.000000   0.000000   0.000000
    28  H    0.000000   0.000000   0.000000   0.000000   0.000000   0.000000
    29  H    0.000000   0.000000   0.000000   0.000000   0.000000   0.000000
    30  H    0.000000   0.000000   0.000000   0.000000   0.000000   0.000000
    31  O    0.000000   0.000000   0.000001   0.000000   0.000000   0.000000
    32  H    0.000000   0.000000   0.000000   0.000000   0.000000   0.000000
    33  H    0.000000   0.000000   0.000000   0.000000   0.000000   0.000000
    34  C    0.000031  -0.000095  -0.000900  -0.000061   0.000092   0.000238
    35  C   -0.000047   0.000085  -0.002189   0.000053  -0.000117  -0.000353
    36  H    0.000000   0.000000   0.000013   0.000000   0.000000   0.000000
    37  H    0.000000   0.000000  -0.000028   0.000000   0.000000   0.000000
    38  C    0.000025  -0.000013   0.001961  -0.000002   0.000042  -0.000032
    39  H    0.000000   0.000000  -0.000002   0.000000   0.000000   0.000000
    40  H    0.000000   0.000000   0.000017   0.000000   0.000000   0.000000
    41  H    0.000000   0.000000   0.000039   0.000000   0.000000   0.000000
    42  C    0.486582   0.489379   0.206354  -0.065700  -0.046933  -0.053228
    43  H    0.567455  -0.033737  -0.023505  -0.003368  -0.005012   0.004900
    44  H   -0.033737   0.565403  -0.022026  -0.003310   0.004853  -0.005068
    45  C   -0.023505  -0.022026   5.181928   0.424457   0.419107   0.417533
    46  H   -0.003368  -0.003310   0.424457   0.549452  -0.027110  -0.027065
    47  H   -0.005012   0.004853   0.419107  -0.027110   0.541800  -0.028588
    48  H    0.004900  -0.005068   0.417533  -0.027065  -0.028588   0.541951
 Mulliken atomic charges:
              1
     1  C    0.280291
     2  C   -0.306302
     3  H    0.162246
     4  H    0.155983
     5  C   -0.583661
     6  H    0.150187
     7  C    0.041208
     8  H    0.140784
     9  C   -0.123941
    10  H    0.173073
    11  C   -0.313479
    12  H    0.157657
    13  C    0.367042
    14  C   -0.064575
    15  C   -1.350611
    16  C    0.505774
    17  C   -0.112322
    18  C    0.402288
    19  H    0.148068
    20  H    0.146581
    21  O   -0.600988
    22  H    0.448585
    23  O   -0.622307
    24  H    0.474649
    25  O   -0.662655
    26  H    0.445144
    27  C   -0.361123
    28  H    0.164974
    29  H    0.163156
    30  H    0.170058
    31  O   -0.617052
    32  H    0.412743
    33  H    0.155228
    34  C    0.653522
    35  C   -0.529481
    36  H    0.145036
    37  H    0.140876
    38  C   -0.640309
    39  H    0.172385
    40  H    0.156738
    41  H    0.171204
    42  C    0.018793
    43  H    0.151015
    44  H    0.151577
    45  C   -0.605994
    46  H    0.152208
    47  H    0.157875
    48  H    0.157853
 Sum of Mulliken atomic charges =   0.00000
 Mulliken charges with hydrogens summed into heavy atoms:
              1
     1  C    0.280291
     2  C    0.011927
     5  C   -0.278246
     7  C    0.181992
     9  C    0.049132
    11  C   -0.155822
    13  C    0.367042
    14  C   -0.064575
    15  C   -1.350611
    16  C    0.505774
    17  C    0.035745
    18  C    0.548869
    21  O   -0.152403
    23  O   -0.147658
    25  O   -0.217512
    27  C    0.137065
    31  O   -0.204309
    34  C    0.653522
    35  C   -0.243570
    38  C   -0.139981
    42  C    0.321386
    45  C   -0.138058
 Sum of Mulliken charges with hydrogens summed into heavy atoms =   0.00000
 Electronic spatial extent (au):  <R**2>=           7130.4767
 Charge=              0.0000 electrons
 Dipole moment (field-independent basis, Debye):
    X=             -3.1545    Y=             -2.1528    Z=              2.9783  Tot=              4.8431
 Quadrupole moment (field-independent basis, Debye-Ang):
   XX=           -104.6657   YY=           -129.4800   ZZ=           -137.7873
   XY=              3.6313   XZ=             11.2195   YZ=              4.4224
 Traceless Quadrupole moment (field-independent basis, Debye-Ang):
   XX=             19.3119   YY=             -5.5023   ZZ=            -13.8096
   XY=              3.6313   XZ=             11.2195   YZ=              4.4224
 Octapole moment (field-independent basis, Debye-Ang**2):
  XXX=            -74.6476  YYY=            -42.5736  ZZZ=             47.0977  XYY=            -28.5508
  XXY=            -24.9906  XXZ=             29.1311  XZZ=             21.6048  YZZ=             -1.0610
  YYZ=              0.4702  XYZ=            -12.3524
 Hexadecapole moment (field-independent basis, Debye-Ang**3):
 XXXX=          -5774.6504 YYYY=          -1904.4296 ZZZZ=          -1162.0553 XXXY=            -47.6796
 XXXZ=            -67.9053 YYYX=            119.5815 YYYZ=             79.4447 ZZZX=            122.3289
 ZZZY=             19.7500 XXYY=          -1401.4182 XXZZ=          -1214.7908 YYZZ=           -547.3435
 XXYZ=             34.3550 YYXZ=              6.0078 ZZXY=              0.9310
 N-N= 1.983380062101D+03 E-N=-6.300319784776D+03  KE= 9.931595239520D+02

 Test job not archived.
 1\1\GINC-COMPUTE-7-2\SP\RB3LYP\6-31+G(d,p)\C18H26O4\LPASSAGLIA.IQUIR\2
 3-Dec-2022\0\\# B3LYP/6-31+G** geom=allcheck test scrf=(pcm,solvent=wa
 ter,smd,dovacuum)\\comment\\0,1\C,0,-1.677710624,0.882446484,-2.826620
 418\C,0,-2.304577135,2.055281637,-2.052692486\H,0,-1.656007039,2.93845
 6925,-2.108844279\H,0,-3.264953029,2.332745393,-2.505233989\C,0,-2.556
 505407,1.710400468,-0.583747354\H,0,-2.962933831,2.59427918,-0.0760044
 25\C,0,-1.27522245,1.236340353,0.134470684\H,0,-0.583088386,2.08773564
 3,0.098192762\C,0,-0.629742789,0.044590863,-0.639717699\H,0,-1.3947348
 73,-0.74191278,-0.657694794\C,0,-0.37278262,0.406648186,-2.130080302\H
 ,0,0.017418346,-0.484587125,-2.639655832\C,0,0.622073584,-0.542750919,
 0.024455846\C,0,2.849754101,-1.690762115,1.384023402\C,0,1.756051939,0
 .216209647,0.356617733\C,0,0.658824695,-1.906941369,0.365041393\C,0,1.
 747675625,-2.476273226,1.035787474\C,0,2.841423272,-0.337135864,1.0401
 96261\H,0,1.7437949,-3.530738599,1.296699458\H,0,3.685605694,0.3006863
 98,1.291521322\O,0,-0.400337183,-2.709172412,0.031198085\H,0,-0.239181
 327,-3.602764205,0.373700181\O,0,1.893786768,1.535715306,0.022864063\H
 ,0,1.367371728,1.678514867,-0.793321498\O,0,0.62689032,1.438861256,-2.
 22601729\H,0,1.029580673,1.347556025,-3.110877574\C,0,-1.419266146,1.2
 97733806,-4.279802524\H,0,-2.359455298,1.54089606,-4.788388918\H,0,-0.
 968132805,0.472550423,-4.842432044\H,0,-0.760529231,2.168799396,-4.351
 146447\O,0,-2.607056912,-0.20694975,-2.861267925\H,0,-3.444084193,0.11
 9329282,-3.235058963\H,0,-3.333513821,0.937764343,-0.534868169\C,0,-1.
 567804197,0.940469973,1.608007239\C,0,-0.937949736,1.618096608,2.58392
 968\H,0,-1.124320087,1.414139445,3.633460698\H,0,-0.199131485,2.382151
 737,2.358619476\C,0,-2.564388674,-0.135871014,1.945328622\H,0,-3.56612
 1652,0.141004153,1.604200414\H,0,-2.626914282,-0.307973209,3.025613913
 \H,0,-2.288367628,-1.087734331,1.484466758\C,0,4.013867347,-2.28262264
 8,2.134091873\H,0,4.147235085,-3.331120065,1.840992658\H,0,4.938977023
 ,-1.768061083,1.846908453\C,0,3.820910801,-2.190540352,3.640026773\H,0
 ,4.679995141,-2.627259954,4.159009695\H,0,2.922035578,-2.728978445,3.9
 59113215\H,0,3.721540222,-1.149254389,3.964934799\\Version=EM64L-G09Re
 vC.01\State=1-A\HF=-1002.5575751\RMSD=5.720e-09\Dipole=-0.8051568,-0.6
 794406,-1.5876804\Quadrupole=-2.1108018,-1.1185637,3.2293655,-8.426830
 8,3.9138712,-12.5471556\PG=C01 [X(C18H26O4)]\\@


 LET US PLACE AT THE END OF EVERY CHAPTER.....THE
 TWO LETTERS USED BY THE ROMAN JUDGES WHEN THEY DID
 NOT UNDERSTAND A PLEADING.
 N. L. -NON LIQUET- IT IS NOT CLEAR.
                                              -- VOLTAIRE
 Job cpu time:  0 days  1 hours  0 minutes 22.0 seconds.
 File lengths (MBytes):  RWF=    241 Int=      0 D2E=      0 Chk=     19 Scr=      1
 Normal termination of Gaussian 09 at Fri Dec 23 14:33:45 2022.
