 Entering Gaussian System, Link 0=g09
 Input=/home/lpassaglia.iquir/Link1/02_RSSS_THC_010.gjc
 Output=/home/lpassaglia.iquir/Link1/02_RSSS_THC_010.log
 Initial command:
 /share/apps/Gaussian09/EM64T.SSE4.2-enabled/g09/l1.exe /tmp/Gau-14757.inp -scrdir=/tmp/
 Entering Link 1 = /share/apps/Gaussian09/EM64T.SSE4.2-enabled/g09/l1.exe PID=     14758.
  
 Copyright (c) 1988,1990,1992,1993,1995,1998,2003,2009,2011,
            Gaussian, Inc.  All Rights Reserved.
  
 This is part of the Gaussian(R) 09 program.  It is based on
 the Gaussian(R) 03 system (copyright 2003, Gaussian, Inc.),
 the Gaussian(R) 98 system (copyright 1998, Gaussian, Inc.),
 the Gaussian(R) 94 system (copyright 1995, Gaussian, Inc.),
 the Gaussian 92(TM) system (copyright 1992, Gaussian, Inc.),
 the Gaussian 90(TM) system (copyright 1990, Gaussian, Inc.),
 the Gaussian 88(TM) system (copyright 1988, Gaussian, Inc.),
 the Gaussian 86(TM) system (copyright 1986, Carnegie Mellon
 University), and the Gaussian 82(TM) system (copyright 1983,
 Carnegie Mellon University). Gaussian is a federally registered
 trademark of Gaussian, Inc.
  
 This software contains proprietary and confidential information,
 including trade secrets, belonging to Gaussian, Inc.
  
 This software is provided under written license and may be
 used, copied, transmitted, or stored only in accord with that
 written license.
  
 The following legend is applicable only to US Government
 contracts under FAR:
  
                    RESTRICTED RIGHTS LEGEND
  
 Use, reproduction and disclosure by the US Government is
 subject to restrictions as set forth in subparagraphs (a)
 and (c) of the Commercial Computer Software - Restricted
 Rights clause in FAR 52.227-19.
  
 Gaussian, Inc.
 340 Quinnipiac St., Bldg. 40, Wallingford CT 06492
  
  
 ---------------------------------------------------------------
 Warning -- This program may not be used in any manner that
 competes with the business of Gaussian, Inc. or will provide
 assistance to any competitor of Gaussian, Inc.  The licensee
 of this program is prohibited from giving any competitor of
 Gaussian, Inc. access to this program.  By using this program,
 the user acknowledges that Gaussian, Inc. is engaged in the
 business of creating and licensing software in the field of
 computational chemistry and represents and warrants to the
 licensee that it is not a competitor of Gaussian, Inc. and that
 it will not use this program in any manner prohibited above.
 ---------------------------------------------------------------
  

 Cite this work as:
 Gaussian 09, Revision C.01,
 M. J. Frisch, G. W. Trucks, H. B. Schlegel, G. E. Scuseria, 
 M. A. Robb, J. R. Cheeseman, G. Scalmani, V. Barone, B. Mennucci, 
 G. A. Petersson, H. Nakatsuji, M. Caricato, X. Li, H. P. Hratchian, 
 A. F. Izmaylov, J. Bloino, G. Zheng, J. L. Sonnenberg, M. Hada, 
 M. Ehara, K. Toyota, R. Fukuda, J. Hasegawa, M. Ishida, T. Nakajima, 
 Y. Honda, O. Kitao, H. Nakai, T. Vreven, J. A. Montgomery, Jr., 
 J. E. Peralta, F. Ogliaro, M. Bearpark, J. J. Heyd, E. Brothers, 
 K. N. Kudin, V. N. Staroverov, T. Keith, R. Kobayashi, J. Normand, 
 K. Raghavachari, A. Rendell, J. C. Burant, S. S. Iyengar, J. Tomasi, 
 M. Cossi, N. Rega, J. M. Millam, M. Klene, J. E. Knox, J. B. Cross, 
 V. Bakken, C. Adamo, J. Jaramillo, R. Gomperts, R. E. Stratmann, 
 O. Yazyev, A. J. Austin, R. Cammi, C. Pomelli, J. W. Ochterski, 
 R. L. Martin, K. Morokuma, V. G. Zakrzewski, G. A. Voth, 
 P. Salvador, J. J. Dannenberg, S. Dapprich, A. D. Daniels, 
 O. Farkas, J. B. Foresman, J. V. Ortiz, J. Cioslowski, 
 and D. J. Fox, Gaussian, Inc., Wallingford CT, 2010.
 
 ******************************************
 Gaussian 09:  EM64L-G09RevC.01 23-Sep-2011
                23-Dec-2022 
 ******************************************
 %chk=02_RSSS_THC_010_optB_NMR
 %nprocshared=4
 Will use up to    4 processors via shared memory.
 ------------------------------------------------
 # mPW1PW91/6-31+G** scrf=(PCM,solvent=water) nmr
 ------------------------------------------------
 1/38=1/1;
 2/12=2,17=6,18=5,40=1/2;
 3/5=1,6=6,7=111,11=2,16=1,25=1,30=1,70=2201,72=1,74=-7/1,2,8,3;
 4//1;
 5/5=2,38=5,53=1/2;
 8/6=1,10=90,11=11/1;
 10/13=100,45=16/2;
 6/7=2,8=2,9=2,10=2,28=1/1;
 99/9=1/99;
 -------
 comment
 -------
 Charge =  0 Multiplicity = 1
 Symbolic Z-Matrix:
 6                     1.71808   2.42854  -1.64206 
 6                     0.90387   3.44652  -0.84327 
 1                     1.40969   4.42089  -0.84962 
 1                    -0.0511    3.63117  -1.34662 
 6                     0.66737   3.00776   0.59681 
 1                     1.6212    3.07912   1.13635 
 6                     0.12705   1.5686    0.77318 
 1                     0.39193   1.33461   1.81362 
 6                     0.89597   0.51538  -0.11017 
 1                     1.92746   0.46954   0.269 
 6                     1.03911   1.0388   -1.56126 
 1                     0.05983   1.11752  -2.04311 
 6                     0.38142  -0.91842   0.11814 
 6                    -0.69269  -3.49273   0.75594 
 6                     0.53196  -1.50096   1.3947 
 6                    -0.26177  -1.71372  -0.84108 
 6                    -0.81513  -2.95991  -0.52796 
 6                    -0.00034  -2.75566   1.71753 
 1                    -1.3256   -3.51941  -1.30874 
 1                     0.11759  -3.16495   2.71669 
 8                    -0.35787  -1.36715  -2.1587 
 1                     0.53232  -1.02811  -2.40151 
 8                     1.24251  -0.82765   2.35641 
 1                     1.27025  -1.37143   3.16015 
 8                     1.78556   0.11604  -2.38236 
 1                     2.01652   0.63882  -3.18074 
 6                     3.19363   2.41586  -1.21794 
 1                     3.64001   3.40791  -1.35567 
 1                     3.77922   1.73353  -1.84401 
 1                     3.33492   2.12894  -0.17294 
 8                     1.70436   2.80953  -3.03189 
 1                     2.02973   3.72585  -3.09072 
 1                     0.00131   3.72912   1.08727 
 6                    -1.40832   1.52751   0.73583 
 6                    -2.10533   1.39009   1.87991 
 1                    -3.19029   1.34516   1.88617 
 1                    -1.61163   1.30384   2.84309 
 6                    -2.15072   1.62424  -0.567 
 1                    -1.88112   2.52993  -1.11227 
 1                    -3.23556   1.66433  -0.41451 
 1                    -1.95652   0.75372  -1.19647 
 6                    -1.30059  -4.82819   1.09351 
 1                    -1.28681  -5.47572   0.20831 
 1                    -0.68572  -5.33391   1.84798 
 6                    -2.72638  -4.68597   1.60383 
 1                    -3.14324  -5.6698    1.84129 
 1                    -3.37169  -4.2159    0.85394 
 1                    -2.76446  -4.07329   2.51097 
 
                          Input orientation:                          
 ---------------------------------------------------------------------
 Center     Atomic      Atomic             Coordinates (Angstroms)
 Number     Number       Type             X           Y           Z
 ---------------------------------------------------------------------
      1          6           0        1.718082    2.428540   -1.642062
      2          6           0        0.903875    3.446522   -0.843266
      3          1           0        1.409689    4.420886   -0.849615
      4          1           0       -0.051104    3.631171   -1.346619
      5          6           0        0.667368    3.007758    0.596810
      6          1           0        1.621202    3.079116    1.136350
      7          6           0        0.127047    1.568604    0.773180
      8          1           0        0.391926    1.334606    1.813622
      9          6           0        0.895971    0.515380   -0.110168
     10          1           0        1.927465    0.469535    0.269003
     11          6           0        1.039113    1.038797   -1.561265
     12          1           0        0.059825    1.117520   -2.043108
     13          6           0        0.381420   -0.918418    0.118138
     14          6           0       -0.692692   -3.492725    0.755940
     15          6           0        0.531960   -1.500958    1.394695
     16          6           0       -0.261766   -1.713721   -0.841083
     17          6           0       -0.815128   -2.959913   -0.527960
     18          6           0       -0.000335   -2.755655    1.717532
     19          1           0       -1.325605   -3.519410   -1.308742
     20          1           0        0.117587   -3.164948    2.716693
     21          8           0       -0.357870   -1.367146   -2.158702
     22          1           0        0.532320   -1.028111   -2.401507
     23          8           0        1.242507   -0.827645    2.356413
     24          1           0        1.270254   -1.371430    3.160147
     25          8           0        1.785564    0.116035   -2.382362
     26          1           0        2.016521    0.638817   -3.180741
     27          6           0        3.193627    2.415864   -1.217942
     28          1           0        3.640008    3.407914   -1.355667
     29          1           0        3.779221    1.733530   -1.844005
     30          1           0        3.334922    2.128936   -0.172935
     31          8           0        1.704357    2.809528   -3.031886
     32          1           0        2.029727    3.725851   -3.090719
     33          1           0        0.001314    3.729121    1.087265
     34          6           0       -1.408319    1.527508    0.735831
     35          6           0       -2.105335    1.390095    1.879914
     36          1           0       -3.190290    1.345160    1.886175
     37          1           0       -1.611631    1.303838    2.843087
     38          6           0       -2.150717    1.624239   -0.567003
     39          1           0       -1.881120    2.529934   -1.112273
     40          1           0       -3.235558    1.664332   -0.414513
     41          1           0       -1.956517    0.753723   -1.196474
     42          6           0       -1.300587   -4.828193    1.093507
     43          1           0       -1.286813   -5.475724    0.208307
     44          1           0       -0.685717   -5.333907    1.847982
     45          6           0       -2.726376   -4.685969    1.603828
     46          1           0       -3.143243   -5.669801    1.841287
     47          1           0       -3.371691   -4.215895    0.853944
     48          1           0       -2.764460   -4.073291    2.510968
 ---------------------------------------------------------------------
                    Distance matrix (angstroms):
                    1          2          3          4          5
     1  C    0.000000
     2  C    1.528822   0.000000
     3  H    2.166223   1.097850   0.000000
     4  H    2.159543   1.095191   1.733372   0.000000
     5  C    2.540087   1.523898   2.154093   2.163737   0.000000
     6  H    2.855207   2.137387   2.406064   3.044093   1.098178
     7  C    3.017329   2.596716   3.523372   2.963017   1.547327
     8  H    3.859681   3.432395   4.201643   3.931617   2.087089
     9  C    2.585101   3.021438   4.007950   3.483377   2.600774
    10  H    2.744760   3.338761   4.139151   4.064592   2.852696
    11  C    1.548842   2.516138   3.475960   2.820470   2.944875
    12  H    2.151610   2.752506   3.762815   2.610717   3.303221
    13  C    4.010872   4.499995   5.522866   4.799099   3.965571
    14  C    6.828150   7.297920   8.344043   7.455353   6.643145
    15  C    5.105853   5.442825   6.393401   5.847522   4.580773
    16  C    4.660438   5.290257   6.358241   5.372877   5.022269
    17  C    6.057540   6.640541   7.715534   6.685531   6.251080
    18  C    6.412153   6.770692   7.751203   7.084006   5.909211
    19  H    6.689786   7.328809   8.410762   7.263373   7.085689
    20  H    7.269624   7.550039   8.481330   7.919987   6.549692
    21  O    4.357031   5.147210   6.191873   5.073141   5.271029
    22  H    3.732456   4.752737   5.733212   4.812700   5.029551
    23  O    5.178485   5.349871   6.152531   5.938595   4.258792
    24  H    6.140157   6.274886   7.046173   6.861701   5.109937
    25  O    2.429048   3.773371   4.585012   4.099060   4.299754
    26  H    2.379014   3.819028   4.484020   4.073482   4.658539
    27  C    1.535341   2.538820   2.708914   3.467248   3.166331
    28  H    2.176004   2.783967   2.501304   3.697868   3.578949
    29  H    2.184516   3.493342   3.718249   4.303466   4.155101
    30  H    2.205054   2.845235   3.068787   3.885796   2.912161
    31  O    1.441163   2.415904   2.728665   2.568437   3.779164
    32  H    1.969453   2.529152   2.426945   2.716745   3.996191
    33  H    3.476784   2.149750   2.492702   2.436418   1.097515
    34  C    4.029965   3.394466   4.338945   3.256382   2.553222
    35  C    5.301056   4.549718   5.384368   4.433148   3.457032
    36  H    6.141195   5.350490   6.172879   5.052850   4.394112
    37  H    5.698114   4.950562   5.699159   5.040373   3.625320
    38  C    4.095151   3.567572   4.536254   3.007317   3.348162
    39  H    3.639397   2.944264   3.804486   2.148627   3.105490
    40  H    5.160372   4.527133   5.419061   3.857205   4.249753
    41  H    4.062787   3.944333   4.989964   3.454396   3.896321
    42  C    8.322011   8.779615   9.831926   8.892483   8.094547
    43  H    8.656249   9.247237  10.311800   9.320961   8.714312
    44  H    8.843881   9.320168  10.335557   9.538387   8.542813
    45  C    8.994733   9.236037  10.298602   9.221552   8.469062
    46  H   10.067240  10.329246  11.392634  10.306898   9.558740
    47  H    8.734091   8.937204  10.017869   8.800297   8.280174
    48  H    8.922704   9.014164  10.043311   9.033384   8.098315
                    6          7          8          9         10
     6  H    0.000000
     7  C    2.155468   0.000000
     8  H    2.239003   1.098834   0.000000
     9  C    2.941515   1.575065   2.150852   0.000000
    10  H    2.766948   2.168790   2.343518   1.099933   0.000000
    11  C    3.432034   2.561677   3.449089   1.549237   2.112607
    12  H    4.049038   2.852976   3.877085   2.190427   3.042009
    13  C    4.307447   2.584388   2.819733   1.540345   2.083130
    14  C    6.977673   5.127311   5.059468   4.397602   4.775127
    15  C    4.714899   3.157918   2.869762   2.542192   2.664106
    16  C    5.516076   3.678406   4.094761   2.616005   3.285061
    17  C    6.721272   4.805010   5.038142   3.896161   4.462968
    18  C    6.083725   4.428006   4.110151   3.852729   4.026972
    19  H    7.629069   5.686165   6.021672   4.759360   5.383625
    20  H    6.614127   5.117015   4.597476   4.705511   4.740919
    21  O    5.877359   4.177284   4.862203   3.051641   3.806561
    22  H    5.529143   4.121385   4.834197   2.786547   3.364669
    23  O    4.110322   3.081053   2.386093   2.829810   2.551299
    24  H    4.901661   3.955797   3.147573   3.794087   3.489956
    25  O    4.603064   3.849426   4.586221   2.472593   2.678588
    26  H    4.974798   4.479744   5.297839   3.270977   3.455043
    27  C    2.907768   3.753176   4.267205   3.180916   2.757239
    28  H    3.223947   4.500661   4.989293   4.177052   3.769141
    29  H    3.917929   4.496136   5.001115   3.578157   3.080825
    30  H    2.356673   3.391102   3.638489   2.925062   2.220328
    31  O    4.177773   4.301898   5.232287   3.801715   4.052309
    32  H    4.295726   4.817013   5.696754   4.525064   4.679933
    33  H    1.746125   2.186846   2.532563   3.544346   3.873565
    34  C    3.427230   1.536370   2.107066   2.655159   3.530537
    35  C    4.158456   2.498050   2.498756   3.705859   4.439137
    36  H    5.169071   3.506195   3.582965   4.622926   5.438141
    37  H    4.063961   2.716177   2.252772   3.953663   4.455016
    38  C    4.386964   2.643368   3.495182   3.274229   4.320164
    39  H    4.198114   2.917503   3.893123   3.574196   4.545160
    40  H    5.291022   3.567477   4.269888   4.299099   5.343364
    41  H    4.863085   2.980739   3.861773   3.061627   4.160974
    42  C    8.429960   6.561993   6.431427   5.901480   6.258278
    43  H    9.083123   7.206985   7.195540   6.384301   6.758800
    44  H    8.752557   7.032811   6.755113   6.367907   6.557578
    45  C    8.911594   6.924714   6.783446   6.566064   7.072426
    46  H    9.987013   8.014371   7.846012   7.640673   8.116379
    47  H    8.844542   6.760777   6.774500   6.444177   7.097638
    48  H    8.501797   6.573561   6.300351   6.428454   6.904914
                   11         12         13         14         15
    11  C    0.000000
    12  H    1.094246   0.000000
    13  C    2.661511   2.986545   0.000000
    14  C    5.376177   5.445670   2.861393   0.000000
    15  C    3.930046   4.347164   1.411246   2.423823   0.000000
    16  C    3.128466   3.092606   1.402248   2.429205   2.382010
    17  C    4.527207   4.436967   2.452931   1.395450   2.764018
    18  C    5.121408   5.398844   2.465611   1.395453   1.400652
    19  H    5.141294   4.894878   3.422729   2.159677   3.851398
    20  H    6.068080   6.403013   3.445140   2.146751   2.165235
    21  O    2.845532   2.522181   2.435551   3.622891   3.665561
    22  H    2.288003   2.226081   2.526542   4.188610   3.825538
    23  O    4.344326   4.953604   2.399914   3.661852   1.372271
    24  H    5.306067   5.893545   3.201416   3.759423   1.917987
    25  O    1.443218   2.023917   3.048641   5.386450   4.295620
    26  H    1.933395   2.313444   3.997642   6.317194   5.264711
    27  C    2.579945   3.491033   4.561913   7.342419   5.408497
    28  H    3.524151   4.305367   5.613167   8.417244   6.428179
    29  H    2.840913   3.775316   4.735809   7.353330   5.612112
    30  H    2.895963   3.904711   4.253735   6.977647   4.846669
    31  O    2.395989   2.558331   5.056718   7.733813   6.288834
    32  H    3.246660   3.432402   5.880723   8.620684   7.048530
    33  H    3.915301   4.077146   4.762700   7.262678   5.265912
    34  C    3.391962   3.169548   3.093100   5.071023   3.656555
    35  C    4.674684   4.489133   3.823223   5.205844   3.943216
    36  H    5.465029   5.104344   4.583323   5.560626   4.711378
    37  H    5.147330   5.167532   4.041784   5.311087   3.815718
    38  C    3.392096   2.705947   3.653251   5.482640   4.562004
    39  H    3.309508   2.574613   4.303967   6.416776   5.325030
    40  H    4.469804   3.716299   4.476253   5.867825   5.242756
    41  H    3.031194   2.216929   3.160729   4.841642   4.241493
    42  C    6.851538   6.858614   4.366558   1.505643   3.810437
    43  H    7.140049   7.095998   4.853882   2.141300   4.529262
    44  H    7.430300   7.570821   4.860831   2.140690   4.047184
    45  C    7.547824   7.398888   5.104910   2.505716   4.561225
    46  H    8.606668   8.450793   6.161829   3.452946   5.575465
    47  H    7.273253   6.972340   5.049812   2.776619   4.785581
    48  H    7.561990   7.460612   5.057215   2.776581   4.327742
                   16         17         18         19         20
    16  C    0.000000
    17  C    1.399018   0.000000
    18  C    2.774974   2.397466   0.000000
    19  H    2.147317   1.087770   3.390869   0.000000
    20  H    3.861054   3.382273   1.086163   4.290987   0.000000
    21  O    1.365822   2.324933   4.132914   2.508223   5.218010
    22  H    1.880307   3.009593   4.498290   3.294326   5.561838
    23  O    3.643068   4.135219   2.381186   5.222466   2.618822
    24  H    4.298149   4.524846   2.368885   5.596719   2.177613
    25  O    3.148826   4.434396   5.314619   4.903926   6.288669
    26  H    4.024801   5.292102   6.291521   5.653763   7.270097
    27  C    5.397706   6.741303   6.750038   7.460507   7.489248
    28  H    6.459085   7.815533   7.790137   8.523340   8.496710
    29  H    5.405457   6.698389   6.864574   7.344326   7.629064
    30  H    5.305525   6.576119   6.209431   7.410423   6.835671
    31  O    5.396761   6.775241   7.512270   7.225326   8.441467
    32  H    6.316703   7.704568   8.321679   8.180922   9.212242
    33  H    5.780334   6.929553   6.515333   7.748726   7.084966
    34  C    3.782434   4.699573   4.614287   5.445962   5.317081
    35  C    4.520646   5.136638   4.652379   5.905822   5.137120
    36  H    5.036957   5.477507   5.198166   6.111349   5.654457
    37  H    4.949839   5.493445   4.510280   6.370495   4.793351
    38  C    3.845157   4.774911   5.387645   5.261950   6.234114
    39  H    4.550215   5.622826   6.283518   6.077973   7.147552
    40  H    4.520691   5.220631   5.877803   5.596315   6.661079
    41  H    3.014426   3.942178   4.963246   4.320916   5.913609
    42  C    3.810738   2.520971   2.524970   2.735752   2.722560
    43  H    4.037897   2.663435   3.366238   2.475906   3.688364
    44  H    4.529520   3.361205   2.670982   3.696858   2.470696
    45  C    4.570136   3.343150   3.342205   3.435998   3.411759
    46  H    5.581092   4.286834   4.287823   4.225005   4.204003
    47  H    4.336545   3.165937   3.774139   3.057575   4.092601
    48  H    4.802843   3.778173   3.163241   4.119135   3.028796
                   21         22         23         24         25
    21  O    0.000000
    22  H    0.983023   0.000000
    23  O    4.820636   4.814806   0.000000
    24  H    5.562460   5.620890   0.970804   0.000000
    25  O    2.616134   1.697074   4.862245   5.761727   0.000000
    26  H    3.272030   2.364045   5.780111   6.693644   0.981861
    27  C    5.273454   4.510471   5.206076   6.100050   2.937299
    28  H    6.279259   5.516324   6.121071   6.989308   3.915294
    29  H    5.179647   4.298818   5.535164   6.401345   2.623125
    30  H    5.459173   4.773684   4.417825   5.255935   3.366578
    31  O    4.739180   4.061837   6.517369   7.483991   2.771890
    32  H    5.701568   5.031639   7.143198   8.101381   3.686753
    33  H    6.052872   5.923239   4.890339   5.650015   5.317541
    34  C    4.226203   4.487779   3.898707   4.632052   4.681482
    35  C    5.192921   5.579920   4.043942   4.545285   5.910103
    36  H    5.633848   6.154222   4.959021   5.375808   6.670103
    37  H    5.807234   6.127012   3.595299   3.944977   6.344850
    38  C    3.833562   4.195123   5.106081   5.879517   4.589610
    39  H    4.313066   4.488486   5.749971   6.588275   4.569968
    40  H    4.529144   5.039276   5.825895   6.503567   5.610822
    41  H    2.824826   3.289581   5.035622   5.823098   3.976952
    42  C    4.841945   5.478621   4.905776   4.778016   6.786117
    43  H    4.831779   5.468239   5.711082   5.665438   6.886134
    44  H    5.647672   6.171033   4.927772   4.609644   7.328363
    45  C    5.548066   6.327853   5.586150   5.420456   7.701074
    46  H    6.501620   7.283978   6.553368   6.300345   8.695300
    47  H    5.125868   6.000102   5.918486   5.912462   7.472387
    48  H    5.909376   6.653893   5.158866   4.899021   7.886562
                   26         27         28         29         30
    26  H    0.000000
    27  C    2.897595   0.000000
    28  H    3.692493   1.096534   0.000000
    29  H    2.468272   1.095653   1.749691   0.000000
    30  H    3.606318   1.092854   1.768535   1.773759   0.000000
    31  O    2.198087   2.379767   2.629548   2.621811   3.360885
    32  H    3.088374   2.564766   2.388408   2.929909   3.573112
    33  H    5.641535   4.150842   4.394449   5.181439   3.906614
    34  C    5.278147   5.077826   5.778918   5.797290   4.866817
    35  C    6.569957   6.223175   6.895617   6.972339   5.861439
    36  H    7.299550   7.178882   7.836929   7.914490   6.887135
    37  H    7.063444   6.388980   7.045309   7.156448   5.851971
    38  C    5.016828   5.441729   6.110318   6.066865   5.522884
    39  H    4.800676   5.077129   5.595797   5.762738   5.315096
    40  H    6.023955   6.522632   7.155366   7.159285   6.591314
    41  H    4.442471   5.411762   6.196061   5.854742   5.562209
    42  C    7.691593   8.832730   9.911679   8.802819   8.455381
    43  H    7.732095   9.186169  10.278065   9.047101   8.907112
    44  H    8.262178   9.192831  10.266192   9.138659   8.714566
    45  C    8.587229   9.666687  10.714494   9.768331   9.291886
    46  H    9.573014  10.718805  11.774460  10.784766  10.336538
    47  H    8.299382   9.559097  10.590976   9.685562   9.289242
    48  H    8.800983   9.566228  10.580005   9.772652   9.103484
                   31         32         33         34         35
    31  O    0.000000
    32  H    0.974153   0.000000
    33  H    4.551199   4.644353   0.000000
    34  C    5.052526   5.594224   2.637740   0.000000
    35  C    6.376074   6.874712   3.246122   1.346714   0.000000
    36  H    7.091493   7.595112   4.062987   2.128840   1.085903
    37  H    6.912177   7.371274   3.400956   2.128825   1.085766
    38  C    4.726750   5.316204   3.434876   1.502626   2.458512
    39  H    4.076608   4.543037   3.133620   2.154967   3.209780
    40  H    5.706565   6.255810   4.122625   2.163519   2.572354
    41  H    4.582256   5.320888   4.231024   2.152456   3.145041
    42  C    9.186040  10.088131   8.655785   6.366669   6.319269
    43  H    9.385700  10.322402   9.336007   7.024124   7.113629
    44  H    9.789846  10.669752   9.120810   6.988423   6.872302
    45  C    9.864264  10.743276   8.861200   6.410771   6.113956
    46  H   10.915405  11.805192   9.939644   7.485537   7.135887
    47  H    9.498553  10.383015   8.634517   6.070870   5.838099
    48  H    9.902866  10.732648   8.399648   6.029858   5.539067
                   36         37         38         39         40
    36  H    0.000000
    37  H    1.846497   0.000000
    38  C    2.678932   3.467273   0.000000
    39  H    3.479699   4.149797   1.091002   0.000000
    40  H    2.323162   3.657739   1.096239   1.752324   0.000000
    41  H    3.372643   4.091409   1.091672   1.779804   1.754029
    42  C    6.504582   6.384323   6.716688   7.703539   6.940541
    43  H    7.277563   7.280799   7.194228   8.135582   7.427376
    44  H    7.133322   6.775485   7.509606   8.487172   7.784338
    45  C    6.055530   6.217411   6.697956   7.756347   6.682760
    46  H    7.015263   7.209790   7.745191   8.806369   7.673765
    47  H    5.658953   6.125517   6.133273   7.182898   6.017025
    48  H    5.470952   5.509341   6.504801   7.583585   6.457608
                   41         42         43         44         45
    41  H    0.000000
    42  C    6.068941   0.000000
    43  H    6.420898   1.096843   0.000000
    44  H    6.924080   1.096834   1.752131   0.000000
    45  C    6.166410   1.521028   2.154885   2.154930   0.000000
    46  H    7.204025   2.159365   2.480044   2.480384   1.094574
    47  H    5.559140   2.172963   2.520065   3.074495   1.095320
    48  H    6.139867   2.173015   3.074493   2.519896   1.095321
                   46         47         48
    46  H    0.000000
    47  H    1.772252   0.000000
    48  H    1.772228   1.770535   0.000000
 Stoichiometry    C18H26O4
 Framework group  C1[X(C18H26O4)]
 Deg. of freedom   138
 Full point group                 C1      NOp   1
 Largest Abelian subgroup         C1      NOp   1
 Largest concise Abelian subgroup C1      NOp   1
                         Standard orientation:                         
 ---------------------------------------------------------------------
 Center     Atomic      Atomic             Coordinates (Angstroms)
 Number     Number       Type             X           Y           Z
 ---------------------------------------------------------------------
      1          6           0        3.284889   -0.622034    0.092375
      2          6           0        3.585428    0.848759   -0.197003
      3          1           0        4.616596    1.086494    0.095313
      4          1           0        3.560458    1.024315   -1.277743
      5          6           0        2.625982    1.794344    0.515458
      6          1           0        2.858897    1.772245    1.588425
      7          6           0        1.122960    1.467267    0.347638
      8          1           0        0.663991    1.985437    1.201033
      9          6           0        0.804065   -0.061217    0.554696
     10          1           0        1.019784   -0.294950    1.607637
     11          6           0        1.805430   -0.928863   -0.248170
     12          1           0        1.672686   -0.778469   -1.323872
     13          6           0       -0.702493   -0.359942    0.437608
     14          6           0       -3.541512   -0.658985    0.242391
     15          6           0       -1.585492    0.212298    1.378070
     16          6           0       -1.300094   -1.148660   -0.555919
     17          6           0       -2.688391   -1.274444   -0.674492
     18          6           0       -2.976584    0.079436    1.283005
     19          1           0       -3.094186   -1.879197   -1.482482
     20          1           0       -3.627435    0.550343    2.014024
     21          8           0       -0.586198   -1.893205   -1.451171
     22          1           0        0.121513   -2.323682   -0.921860
     23          8           0       -1.068795    0.910702    2.440324
     24          1           0       -1.802398    1.215208    2.998501
     25          8           0        1.569342   -2.336834   -0.036604
     26          1           0        2.379565   -2.770129   -0.382791
     27          6           0        3.679571   -1.016535    1.522713
     28          1           0        4.748765   -0.837802    1.687839
     29          1           0        3.524019   -2.087348    1.694805
     30          1           0        3.127270   -0.462761    2.286014
     31          8           0        4.083918   -1.441199   -0.783681
     32          1           0        5.015645   -1.185120   -0.660062
     33          1           0        2.831565    2.823556    0.194527
     34          6           0        0.527222    2.145642   -0.895477
     35          6           0       -0.242962    3.241944   -0.759173
     36          1           0       -0.688817    3.737280   -1.616518
     37          1           0       -0.462681    3.668565    0.214791
     38          6           0        0.779384    1.593987   -2.270241
     39          1           0        1.847598    1.516306   -2.478015
     40          1           0        0.356849    2.237969   -3.050300
     41          1           0        0.316638    0.612742   -2.391786
     42          6           0       -5.035512   -0.785272    0.104630
     43          1           0       -5.285807   -1.757577   -0.337005
     44          1           0       -5.500283   -0.775485    1.098077
     45          6           0       -5.619696    0.331437   -0.746968
     46          1           0       -6.704918    0.215572   -0.830385
     47          1           0       -5.198592    0.321780   -1.758059
     48          1           0       -5.416038    1.314018   -0.307894
 ---------------------------------------------------------------------
 Rotational constants (GHZ):      0.4943646      0.1857448      0.1697450
 Standard basis: 6-31+G(d,p) (6D, 7F)
 There are   548 symmetry adapted basis functions of A   symmetry.
 Integral buffers will be    131072 words long.
 Raffenetti 2 integral format.
 Two-electron integral symmetry is turned on.
   548 basis functions,   886 primitive gaussians,   548 cartesian basis functions
    83 alpha electrons       83 beta electrons
       nuclear repulsion energy      1985.3850867549 Hartrees.
 NAtoms=   48 NActive=   48 NUniq=   48 SFac= 1.00D+00 NAtFMM=   60 NAOKFM=F Big=F
 ------------------------------------------------------------------------------
 Polarizable Continuum Model (PCM)
 =================================
 Model                : PCM.
 Atomic radii         : UFF (Universal Force Field).
 Polarization charges : Total charges.
 Charge compensation  : None.
 Solution method      : Matrix inversion.
 Cavity type          : Scaled VdW (van der Waals Surface) (Alpha=1.100).
 Cavity algorithm     : GePol (No added spheres)
                        Default sphere list used, NSphG=   48.
                        Lebedev-Laikov grids with approx.  5.0 points / Ang**2.
                        Smoothing algorithm: Karplus/York (Gamma=1.0000).
                        Polarization charges: spherical gaussians, with
                                              point-specific exponents (IZeta= 3).
                        Self-potential: point-specific (ISelfS= 7).
                        Self-field    : sphere-specific E.n sum rule (ISelfD= 2).
 Solvent              : Water, Eps=  78.355300 Eps(inf)=   1.777849
 ------------------------------------------------------------------------------
 One-electron integrals computed using PRISM.
 NBasis=   548 RedAO= T  NBF=   548
 NBsUse=   545 1.00D-06 NBFU=   545
 Harris functional with IExCor=  908 diagonalized for initial guess.
 ExpMin= 4.38D-02 ExpMax= 5.48D+03 ExpMxC= 8.25D+02 IAcc=2 IRadAn=         4 AccDes= 0.00D+00
 HarFok:  IExCor=  908 AccDes= 0.00D+00 IRadAn=         4 IDoV= 1
 ScaDFX=  1.000000  1.000000  1.000000  1.000000
 FoFCou: FMM=F IPFlag=           0 FMFlag=      100000 FMFlg1=           0
         NFxFlg=           0 DoJE=T BraDBF=F KetDBF=T FulRan=T
         Omega=  0.000000  0.000000  1.000000  0.000000  0.000000 ICntrl=     500 IOpCl=  0
         NMat0=    1 NMatS0=    1 NMatT0=    0 NMatD0=    1 NMtDS0=    0 NMtDT0=    0
         I1Cent=           4 NGrid=           0.
 Petite list used in FoFCou.
 Initial guess orbital symmetries:
       Occupied  (A) (A) (A) (A) (A) (A) (A) (A) (A) (A) (A) (A)
                 (A) (A) (A) (A) (A) (A) (A) (A) (A) (A) (A) (A)
                 (A) (A) (A) (A) (A) (A) (A) (A) (A) (A) (A) (A)
                 (A) (A) (A) (A) (A) (A) (A) (A) (A) (A) (A) (A)
                 (A) (A) (A) (A) (A) (A) (A) (A) (A) (A) (A) (A)
                 (A) (A) (A) (A) (A) (A) (A) (A) (A) (A) (A) (A)
                 (A) (A) (A) (A) (A) (A) (A) (A) (A) (A) (A)
       Virtual   (A) (A) (A) (A) (A) (A) (A) (A) (A) (A) (A) (A)
                 (A) (A) (A) (A) (A) (A) (A) (A) (A) (A) (A) (A)
                 (A) (A) (A) (A) (A) (A) (A) (A) (A) (A) (A) (A)
                 (A) (A) (A) (A) (A) (A) (A) (A) (A) (A) (A) (A)
                 (A) (A) (A) (A) (A) (A) (A) (A) (A) (A) (A) (A)
                 (A) (A) (A) (A) (A) (A) (A) (A) (A) (A) (A) (A)
                 (A) (A) (A) (A) (A) (A) (A) (A) (A) (A) (A) (A)
                 (A) (A) (A) (A) (A) (A) (A) (A) (A) (A) (A) (A)
                 (A) (A) (A) (A) (A) (A) (A) (A) (A) (A) (A) (A)
                 (A) (A) (A) (A) (A) (A) (A) (A) (A) (A) (A) (A)
                 (A) (A) (A) (A) (A) (A) (A) (A) (A) (A) (A) (A)
                 (A) (A) (A) (A) (A) (A) (A) (A) (A) (A) (A) (A)
                 (A) (A) (A) (A) (A) (A) (A) (A) (A) (A) (A) (A)
                 (A) (A) (A) (A) (A) (A) (A) (A) (A) (A) (A) (A)
                 (A) (A) (A) (A) (A) (A) (A) (A) (A) (A) (A) (A)
                 (A) (A) (A) (A) (A) (A) (A) (A) (A) (A) (A) (A)
                 (A) (A) (A) (A) (A) (A) (A) (A) (A) (A) (A) (A)
                 (A) (A) (A) (A) (A) (A) (A) (A) (A) (A) (A) (A)
                 (A) (A) (A) (A) (A) (A) (A) (A) (A) (A) (A) (A)
                 (A) (A) (A) (A) (A) (A) (A) (A) (A) (A) (A) (A)
                 (A) (A) (A) (A) (A) (A) (A) (A) (A) (A) (A) (A)
                 (A) (A) (A) (A) (A) (A) (A) (A) (A) (A) (A) (A)
                 (A) (A) (A) (A) (A) (A) (A) (A) (A) (A) (A) (A)
                 (A) (A) (A) (A) (A) (A) (A) (A) (A) (A) (A) (A)
                 (A) (A) (A) (A) (A) (A) (A) (A) (A) (A) (A) (A)
                 (A) (A) (A) (A) (A) (A) (A) (A) (A) (A) (A) (A)
                 (A) (A) (A) (A) (A) (A) (A) (A) (A) (A) (A) (A)
                 (A) (A) (A) (A) (A) (A) (A) (A) (A) (A) (A) (A)
                 (A) (A) (A) (A) (A) (A) (A) (A) (A) (A) (A) (A)
                 (A) (A) (A) (A) (A) (A) (A) (A) (A) (A) (A) (A)
                 (A) (A) (A) (A) (A) (A) (A) (A) (A) (A) (A) (A)
                 (A) (A) (A) (A) (A) (A) (A) (A) (A) (A) (A) (A)
                 (A) (A) (A) (A) (A) (A) (A) (A) (A) (A) (A) (A)
                 (A) (A) (A) (A) (A) (A) (A) (A) (A) (A) (A) (A)
                 (A) (A) (A) (A) (A) (A) (A) (A) (A) (A) (A) (A)
                 (A) (A) (A) (A) (A) (A) (A) (A) (A) (A) (A) (A)
                 (A) (A) (A) (A) (A) (A) (A) (A) (A) (A) (A) (A)
                 (A) (A) (A) (A) (A) (A) (A) (A) (A) (A) (A) (A)
                 (A) (A) (A) (A) (A) (A)
 The electronic state of the initial guess is 1-A.
 Requested convergence on RMS density matrix=1.00D-08 within 128 cycles.
 Requested convergence on MAX density matrix=1.00D-06.
 Requested convergence on             energy=1.00D-06.
 No special actions if energy rises.
 CoulSu:  requested number of processors reduced to:   3 ShMem   1 Linda.
 CoulSu:  requested number of processors reduced to:   3 ShMem   1 Linda.
 Error on total polarization charges =  0.01905
 SCF Done:  E(RmPW1PW91) =  -1002.30151577     A.U. after   14 cycles
             Convg  =    0.5065D-08             -V/T =  2.0094
 Range of M.O.s used for correlation:     1   545
 NBasis=   548 NAE=    83 NBE=    83 NFC=     0 NFV=     0
 NROrb=    545 NOA=    83 NOB=    83 NVA=   462 NVB=   462

 **** Warning!!: The largest alpha MO coefficient is  0.95365816D+02

 NEqPCM:  Using equilibrium solvation (IEInf=0, Eps=  78.3553, EpsInf=   1.7778)
          Differentiating once with respect to magnetic field using GIAOs.
          Electric field/nuclear overlap derivatives assumed to be zero.
 FoFCou: FMM=F IPFlag=           0 FMFlag=    10101102 FMFlg1=           0
         NFxFlg=    40000000 DoJE=F BraDBF=F KetDBF=T FulRan=T
         Omega=  0.000000  0.000000  1.000000  0.000000  0.000000 ICntrl=    6100 IOpCl=  0
         NMat0=    1 NMatS0=    1 NMatT0=    0 NMatD0=    1 NMtDS0=    0 NMtDT0=    0
         I1Cent=           7 NGrid=        2978.
 Symmetry not used in FoFCou.
          There are     3 degrees of freedom in the 1st order CPHF.  IDoFFX=0.
      3 vectors produced by pass  0 Test12= 1.28D-12 3.33D-08 XBig12= 6.22D+02 4.29D+00.
 AX will form     3 AO Fock derivatives at one time.
      3 vectors produced by pass  1 Test12= 1.28D-12 3.33D-08 XBig12= 1.43D+00 2.74D-01.
      3 vectors produced by pass  2 Test12= 1.28D-12 3.33D-08 XBig12= 5.28D-03 2.79D-02.
      3 vectors produced by pass  3 Test12= 1.28D-12 3.33D-08 XBig12= 2.93D-05 1.71D-03.
      3 vectors produced by pass  4 Test12= 1.28D-12 3.33D-08 XBig12= 9.89D-08 5.18D-05.
      3 vectors produced by pass  5 Test12= 1.28D-12 3.33D-08 XBig12= 3.22D-10 4.64D-06.
      3 vectors produced by pass  6 Test12= 1.28D-12 3.33D-08 XBig12= 1.49D-12 3.46D-07.
 Inverted reduced A of dimension    21 with in-core refinement.
 Calculating GIAO nuclear magnetic shielding tensors.
 SCF GIAO Magnetic shielding tensor (ppm):
      1  C    Isotropic =   120.6011   Anisotropy =    44.2360
   XX=   119.5154   YX=    -9.0368   ZX=   -13.1326
   XY=   -15.7176   YY=   117.5966   ZY=    16.0298
   XZ=   -21.4801   YZ=    11.3791   ZZ=   124.6914
   Eigenvalues:   104.5486   107.1630   150.0918
      2  C    Isotropic =   156.8010   Anisotropy =    29.9625
   XX=   150.8047   YX=     2.4321   ZX=    -3.9208
   XY=    -3.2997   YY=   176.6212   ZY=    -4.0490
   XZ=    -2.3139   YZ=    -0.4970   ZZ=   142.9769
   Eigenvalues:   141.7370   151.8899   176.7760
      3  H    Isotropic =    30.0158   Anisotropy =     8.7919
   XX=    35.2445   YX=     1.6082   ZX=     0.4399
   XY=     2.4648   YY=    29.2059   ZY=     0.0794
   XZ=     0.1259   YZ=     0.2555   ZZ=    25.5970
   Eigenvalues:    25.5851    28.5853    35.8771
      4  H    Isotropic =    29.4998   Anisotropy =     5.9788
   XX=    28.8920   YX=    -1.1205   ZX=    -2.0584
   XY=     0.0625   YY=    28.0945   ZY=    -3.3238
   XZ=    -1.3273   YZ=    -2.4290   ZZ=    31.5129
   Eigenvalues:    25.8631    29.1507    33.4857
      5  C    Isotropic =   164.1603   Anisotropy =    26.2349
   XX=   181.3078   YX=     0.3793   ZX=     5.0207
   XY=     0.8474   YY=   163.8835   ZY=     1.8985
   XZ=     1.6195   YZ=    -1.7835   ZZ=   147.2895
   Eigenvalues:   146.9685   163.8621   181.6502
      6  H    Isotropic =    29.3521   Anisotropy =     7.7910
   XX=    29.2704   YX=    -0.2935   ZX=     3.1995
   XY=     0.0994   YY=    27.3692   ZY=     4.1522
   XZ=     2.3613   YZ=     2.8608   ZZ=    31.4167
   Eigenvalues:    24.7795    28.7308    34.5461
      7  C    Isotropic =   148.5625   Anisotropy =    26.5377
   XX=   149.4685   YX=    -5.9711   ZX=    10.7421
   XY=    -1.5703   YY=   151.5121   ZY=   -10.7684
   XZ=     8.3134   YZ=   -14.9016   ZZ=   144.7069
   Eigenvalues:   132.8480   146.5851   166.2543
      8  H    Isotropic =    27.6914   Anisotropy =     6.9717
   XX=    29.0614   YX=    -0.9913   ZX=    -3.2719
   XY=    -0.0865   YY=    27.7136   ZY=     2.0573
   XZ=    -4.0726   YZ=     2.6470   ZZ=    26.2991
   Eigenvalues:    23.1281    27.6069    32.3392
      9  C    Isotropic =   153.0725   Anisotropy =    25.1108
   XX=   151.0442   YX=    -3.4577   ZX=    -5.0527
   XY=     1.3689   YY=   169.6341   ZY=     1.4961
   XZ=    -0.6436   YZ=     2.0490   ZZ=   138.5393
   Eigenvalues:   137.8490   151.5554   169.8131
     10  H    Isotropic =    28.1180   Anisotropy =     4.7109
   XX=    30.8177   YX=    -0.8486   ZX=    -0.8794
   XY=    -2.6065   YY=    23.3941   ZY=    -0.5334
   XZ=     0.2158   YZ=    -0.1173   ZZ=    30.1422
   Eigenvalues:    22.9905    30.1048    31.2586
     11  C    Isotropic =   119.2541   Anisotropy =    39.6370
   XX=   115.1655   YX=     7.1606   ZX=    -2.3865
   XY=    14.4510   YY=   140.6830   ZY=    -6.8972
   XZ=    -4.4841   YZ=    -4.9123   ZZ=   101.9139
   Eigenvalues:   100.7471   111.3365   145.6788
     12  H    Isotropic =    26.3907   Anisotropy =     3.1800
   XX=    25.3562   YX=     0.7078   ZX=     1.2645
   XY=     0.4725   YY=    27.3274   ZY=    -2.1381
   XZ=     1.2613   YZ=    -0.8856   ZZ=    26.4883
   Eigenvalues:    23.9754    26.6859    28.5106
     13  C    Isotropic =    88.8172   Anisotropy =   115.2358
   XX=    43.7068   YX=    -8.5806   ZX=     8.0497
   XY=    -2.5920   YY=   131.6474   ZY=   -49.2509
   XZ=     4.1647   YZ=   -50.2817   ZZ=    91.0974
   Eigenvalues:    42.9187    57.8919   165.6411
     14  C    Isotropic =    51.1737   Anisotropy =   189.8504
   XX=   -29.6447   YX=   -13.5464   ZX=     0.5950
   XY=   -15.1000   YY=   119.4281   ZY=   -82.8733
   XZ=     3.0868   YZ=   -78.5398   ZZ=    63.7377
   Eigenvalues:   -31.6486     7.4290   177.7406
     15  C    Isotropic =    43.2587   Anisotropy =   124.8934
   XX=    32.9083   YX=   -15.8413   ZX=   -20.0543
   XY=   -15.2509   YY=    77.9334   ZY=   -76.4367
   XZ=    -8.9743   YZ=   -67.6117   ZZ=    18.9345
   Eigenvalues:   -35.6677    38.9229   126.5210
     16  C    Isotropic =    42.7585   Anisotropy =   123.0309
   XX=    17.9108   YX=    27.7261   ZX=    27.0500
   XY=    15.7973   YY=    74.7504   ZY=   -57.8492
   XZ=    20.1924   YZ=   -75.5062   ZZ=    35.6142
   Eigenvalues:   -33.9993    37.4957   124.7791
     17  C    Isotropic =    82.9401   Anisotropy =   110.1153
   XX=    76.8981   YX=   -14.9478   ZX=   -22.1664
   XY=   -19.1227   YY=   102.2586   ZY=   -76.9187
   XZ=   -22.8105   YZ=   -60.0250   ZZ=    69.6637
   Eigenvalues:     4.5754    87.8947   156.3503
     18  C    Isotropic =    90.2719   Anisotropy =    97.3828
   XX=    69.5121   YX=    20.2235   ZX=    29.9459
   XY=    24.7833   YY=   121.6288   ZY=   -48.2739
   XZ=    27.4041   YZ=   -52.1831   ZZ=    79.6749
   Eigenvalues:    19.6838    95.9382   155.1937
     19  H    Isotropic =    24.8498   Anisotropy =     7.4723
   XX=    29.3458   YX=    -0.8248   ZX=    -1.3977
   XY=    -0.6250   YY=    22.7630   ZY=     1.8983
   XZ=    -1.5906   YZ=     1.8162   ZZ=    22.4405
   Eigenvalues:    20.6910    24.0271    29.8313
     20  H    Isotropic =    25.2101   Anisotropy =     7.1172
   XX=    28.3305   YX=     1.8248   ZX=     1.8468
   XY=     1.6221   YY=    22.1329   ZY=     1.7318
   XZ=     1.9650   YZ=     2.0458   ZZ=    25.1670
   Eigenvalues:    21.1380    24.5375    29.9550
     21  O    Isotropic =   237.7495   Anisotropy =    58.2177
   XX=   211.0811   YX=   -13.1532   ZX=   -27.0474
   XY=   -14.9898   YY=   258.5163   ZY=   -41.2854
   XZ=   -20.1227   YZ=    -7.1522   ZZ=   243.6512
   Eigenvalues:   190.0647   246.6225   276.5613
     22  H    Isotropic =    22.6766   Anisotropy =    26.8693
   XX=    32.0261   YX=    -4.8869   ZX=    11.9467
   XY=    -8.9004   YY=    18.2104   ZY=    -0.3431
   XZ=    12.1241   YZ=    -0.1766   ZZ=    17.7932
   Eigenvalues:     9.5499    17.8904    40.5895
     23  O    Isotropic =   224.2287   Anisotropy =    47.7261
   XX=   188.7845   YX=     5.0933   ZX=    14.7948
   XY=    27.0981   YY=   235.3067   ZY=    -5.0986
   XZ=    27.1304   YZ=     2.9407   ZZ=   248.5950
   Eigenvalues:   177.8772   238.7629   256.0462
     24  H    Isotropic =    26.4452   Anisotropy =    15.2871
   XX=    29.9045   YX=    -1.5065   ZX=    -4.8421
   XY=    -2.3715   YY=    20.8066   ZY=     5.3441
   XZ=    -6.2434   YZ=     5.9772   ZZ=    28.6245
   Eigenvalues:    17.7605    24.9386    36.6366
     25  O    Isotropic =   293.3400   Anisotropy =    63.5592
   XX=   299.9748   YX=   -31.2250   ZX=     8.1824
   XY=   -33.6328   YY=   306.0029   ZY=    10.8234
   XZ=     2.6298   YZ=    -9.3220   ZZ=   274.0422
   Eigenvalues:   267.3350   276.9721   335.7128
     26  H    Isotropic =    27.5599   Anisotropy =    17.9034
   XX=    33.5312   YX=    -3.9695   ZX=    -5.1392
   XY=    -6.3612   YY=    31.4132   ZY=     4.3513
   XZ=    -3.5969   YZ=     4.4519   ZZ=    17.7354
   Eigenvalues:    15.9526    27.2316    39.4955
     27  C    Isotropic =   174.6470   Anisotropy =    31.3106
   XX=   170.9139   YX=    -1.3560   ZX=    10.4006
   XY=    -0.5789   YY=   161.0195   ZY=    -8.3371
   XZ=     2.3067   YZ=    -7.2302   ZZ=   192.0075
   Eigenvalues:   159.1483   169.2720   195.5207
     28  H    Isotropic =    30.8677   Anisotropy =     9.9009
   XX=    35.4820   YX=    -0.0326   ZX=     3.4921
   XY=    -0.1663   YY=    27.3971   ZY=    -0.6216
   XZ=     4.3263   YZ=    -0.4142   ZZ=    29.7241
   Eigenvalues:    27.1129    28.0220    37.4683
     29  H    Isotropic =    30.0144   Anisotropy =     7.8776
   XX=    28.1978   YX=     0.3002   ZX=     2.2497
   XY=    -0.1488   YY=    32.7817   ZY=    -3.0326
   XZ=     2.4382   YZ=    -4.3589   ZZ=    29.0636
   Eigenvalues:    25.2899    29.4871    35.2661
     30  H    Isotropic =    29.8484   Anisotropy =     7.7491
   XX=    28.5259   YX=    -2.6210   ZX=    -0.1302
   XY=    -2.6619   YY=    26.5432   ZY=     1.1989
   XZ=    -0.8778   YZ=     2.2334   ZZ=    34.4762
   Eigenvalues:    24.5811    29.9497    35.0144
     31  O    Isotropic =   247.5520   Anisotropy =    68.1118
   XX=   262.5835   YX=   -22.0511   ZX=   -21.0197
   XY=   -12.9110   YY=   221.1996   ZY=    18.1259
   XZ=   -21.5065   YZ=    26.2438   ZZ=   258.8729
   Eigenvalues:   209.7567   239.9394   292.9599
     32  H    Isotropic =    29.9674   Anisotropy =    16.8987
   XX=    40.9409   YX=     0.2568   ZX=    -1.6116
   XY=    -0.6311   YY=    24.2400   ZY=     2.0368
   XZ=    -2.6815   YZ=     2.3083   ZZ=    24.7212
   Eigenvalues:    22.2023    26.4666    41.2332
     33  H    Isotropic =    29.9573   Anisotropy =     9.1312
   XX=    29.4759   YX=     1.7033   ZX=     0.1771
   XY=     2.1096   YY=    35.4884   ZY=    -0.2126
   XZ=     0.0318   YZ=    -0.2192   ZZ=    24.9077
   Eigenvalues:    24.8984    28.9288    36.0448
     34  C    Isotropic =    42.2761   Anisotropy =   184.5643
   XX=   118.6140   YX=    62.9092   ZX=   -15.8824
   XY=    60.3528   YY=    81.3694   ZY=    -7.2545
   XZ=   -14.0204   YZ=    -2.7961   ZZ=   -73.1551
   Eigenvalues:   -74.3142    35.8236   165.3190
     35  C    Isotropic =    85.9179   Anisotropy =    94.3963
   XX=   131.5637   YX=    19.5211   ZX=   -20.0856
   XY=    16.4584   YY=   128.0661   ZY=     6.0917
   XZ=   -18.6418   YZ=     1.6125   ZZ=    -1.8763
   Eigenvalues:    -4.9371   113.8419   148.8487
     36  H    Isotropic =    26.7165   Anisotropy =     6.6774
   XX=    26.6897   YX=    -2.2520   ZX=     0.4294
   XY=    -2.2268   YY=    29.9001   ZY=    -2.3075
   XZ=    -1.4376   YZ=    -0.3122   ZZ=    23.5596
   Eigenvalues:    23.0165    25.9649    31.1681
     37  H    Isotropic =    26.7493   Anisotropy =     7.7354
   XX=    27.1109   YX=    -2.7135   ZX=    -2.1048
   XY=    -1.8326   YY=    30.7452   ZY=     1.6570
   XZ=    -0.6863   YZ=    -1.2345   ZZ=    22.3919
   Eigenvalues:    21.9901    26.3516    31.9063
     38  C    Isotropic =   170.9821   Anisotropy =    26.7867
   XX=   161.7707   YX=    -6.3162   ZX=    -0.8209
   XY=    -6.8880   YY=   164.0878   ZY=     4.1431
   XZ=    -4.1987   YZ=     6.4918   ZZ=   187.0878
   Eigenvalues:   156.1477   167.9588   188.8399
     39  H    Isotropic =    29.5406   Anisotropy =     6.0225
   XX=    32.4584   YX=    -1.4817   ZX=    -0.9999
   XY=    -1.2497   YY=    25.5453   ZY=    -2.3135
   XZ=    -2.5650   YZ=    -1.0945   ZZ=    30.6183
   Eigenvalues:    24.5879    30.4783    33.5557
     40  H    Isotropic =    29.7297   Anisotropy =     8.9232
   XX=    27.0057   YX=    -2.2015   ZX=     1.1930
   XY=    -1.5809   YY=    29.1315   ZY=    -2.9527
   XZ=     1.6429   YZ=    -4.0944   ZZ=    33.0521
   Eigenvalues:    25.8226    27.6881    35.6785
     41  H    Isotropic =    29.3075   Anisotropy =     5.4619
   XX=    26.2247   YX=     2.5705   ZX=     1.6806
   XY=     3.1990   YY=    31.6894   ZY=    -1.2351
   XZ=     0.6681   YZ=     0.7160   ZZ=    30.0085
   Eigenvalues:    24.7195    30.2542    32.9488
     42  C    Isotropic =   163.6955   Anisotropy =    29.4480
   XX=   183.0118   YX=     6.9856   ZX=    -1.1943
   XY=    -3.7911   YY=   152.3307   ZY=     2.7430
   XZ=     5.8379   YZ=     4.8010   ZZ=   155.7441
   Eigenvalues:   149.8970   157.8620   183.3275
     43  H    Isotropic =    29.1285   Anisotropy =     7.3220
   XX=    29.8384   YX=     2.0647   ZX=     1.4354
   XY=     1.9059   YY=    32.4184   ZY=     2.3979
   XZ=    -0.2429   YZ=     1.8043   ZZ=    25.1286
   Eigenvalues:    24.5656    28.8100    34.0099
     44  H    Isotropic =    29.2493   Anisotropy =     7.4500
   XX=    30.6232   YX=     0.3170   ZX=    -2.8078
   XY=     1.8679   YY=    25.0639   ZY=    -1.3561
   XZ=    -2.1997   YZ=    -0.9262   ZZ=    32.0609
   Eigenvalues:    24.7865    28.7455    34.2160
     45  C    Isotropic =   177.4424   Anisotropy =    30.3980
   XX=   181.6962   YX=    -4.8573   ZX=     5.7165
   XY=   -15.9726   YY=   177.2346   ZY=   -10.5315
   XZ=    13.8894   YZ=    -8.3897   ZZ=   173.3963
   Eigenvalues:   165.4893   169.1301   197.7077
     46  H    Isotropic =    30.2912   Anisotropy =    12.0784
   XX=    37.3783   YX=    -0.6556   ZX=     2.1333
   XY=    -2.6367   YY=    26.6793   ZY=    -0.8142
   XZ=     3.4725   YZ=    -0.5814   ZZ=    26.8160
   Eigenvalues:    25.9521    26.5780    38.3435
     47  H    Isotropic =    30.6352   Anisotropy =     7.1345
   XX=    29.5386   YX=    -1.1859   ZX=    -0.2591
   XY=    -1.9949   YY=    27.2950   ZY=    -2.3695
   XZ=     0.0755   YZ=    -0.8028   ZZ=    35.0722
   Eigenvalues:    26.2299    30.2842    35.3916
     48  H    Isotropic =    30.6474   Anisotropy =     7.0458
   XX=    29.1347   YX=    -1.1056   ZX=     1.2798
   XY=    -1.9334   YY=    34.8218   ZY=     2.0354
   XZ=     1.9947   YZ=     0.8112   ZZ=    27.9856
   Eigenvalues:    26.3323    30.2652    35.3446
 End of Minotr Frequency-dependent properties file   721 does not exist.
 End of Minotr Frequency-dependent properties file   722 does not exist.

 **********************************************************************

            Population analysis using the SCF density.

 **********************************************************************

 Orbital symmetries:
       Occupied  (A) (A) (A) (A) (A) (A) (A) (A) (A) (A) (A) (A)
                 (A) (A) (A) (A) (A) (A) (A) (A) (A) (A) (A) (A)
                 (A) (A) (A) (A) (A) (A) (A) (A) (A) (A) (A) (A)
                 (A) (A) (A) (A) (A) (A) (A) (A) (A) (A) (A) (A)
                 (A) (A) (A) (A) (A) (A) (A) (A) (A) (A) (A) (A)
                 (A) (A) (A) (A) (A) (A) (A) (A) (A) (A) (A) (A)
                 (A) (A) (A) (A) (A) (A) (A) (A) (A) (A) (A)
       Virtual   (A) (A) (A) (A) (A) (A) (A) (A) (A) (A) (A) (A)
                 (A) (A) (A) (A) (A) (A) (A) (A) (A) (A) (A) (A)
                 (A) (A) (A) (A) (A) (A) (A) (A) (A) (A) (A) (A)
                 (A) (A) (A) (A) (A) (A) (A) (A) (A) (A) (A) (A)
                 (A) (A) (A) (A) (A) (A) (A) (A) (A) (A) (A) (A)
                 (A) (A) (A) (A) (A) (A) (A) (A) (A) (A) (A) (A)
                 (A) (A) (A) (A) (A) (A) (A) (A) (A) (A) (A) (A)
                 (A) (A) (A) (A) (A) (A) (A) (A) (A) (A) (A) (A)
                 (A) (A) (A) (A) (A) (A) (A) (A) (A) (A) (A) (A)
                 (A) (A) (A) (A) (A) (A) (A) (A) (A) (A) (A) (A)
                 (A) (A) (A) (A) (A) (A) (A) (A) (A) (A) (A) (A)
                 (A) (A) (A) (A) (A) (A) (A) (A) (A) (A) (A) (A)
                 (A) (A) (A) (A) (A) (A) (A) (A) (A) (A) (A) (A)
                 (A) (A) (A) (A) (A) (A) (A) (A) (A) (A) (A) (A)
                 (A) (A) (A) (A) (A) (A) (A) (A) (A) (A) (A) (A)
                 (A) (A) (A) (A) (A) (A) (A) (A) (A) (A) (A) (A)
                 (A) (A) (A) (A) (A) (A) (A) (A) (A) (A) (A) (A)
                 (A) (A) (A) (A) (A) (A) (A) (A) (A) (A) (A) (A)
                 (A) (A) (A) (A) (A) (A) (A) (A) (A) (A) (A) (A)
                 (A) (A) (A) (A) (A) (A) (A) (A) (A) (A) (A) (A)
                 (A) (A) (A) (A) (A) (A) (A) (A) (A) (A) (A) (A)
                 (A) (A) (A) (A) (A) (A) (A) (A) (A) (A) (A) (A)
                 (A) (A) (A) (A) (A) (A) (A) (A) (A) (A) (A) (A)
                 (A) (A) (A) (A) (A) (A) (A) (A) (A) (A) (A) (A)
                 (A) (A) (A) (A) (A) (A) (A) (A) (A) (A) (A) (A)
                 (A) (A) (A) (A) (A) (A) (A) (A) (A) (A) (A) (A)
                 (A) (A) (A) (A) (A) (A) (A) (A) (A) (A) (A) (A)
                 (A) (A) (A) (A) (A) (A) (A) (A) (A) (A) (A) (A)
                 (A) (A) (A) (A) (A) (A) (A) (A) (A) (A) (A) (A)
                 (A) (A) (A) (A) (A) (A) (A) (A) (A) (A) (A) (A)
                 (A) (A) (A) (A) (A) (A) (A) (A) (A) (A) (A) (A)
                 (A) (A) (A) (A) (A) (A) (A) (A) (A) (A) (A) (A)
                 (A) (A) (A) (A) (A) (A) (A) (A) (A) (A) (A) (A)
                 (A) (A) (A) (A) (A) (A) (A) (A) (A) (A) (A) (A)
                 (A) (A) (A) (A) (A) (A) (A) (A) (A) (A) (A) (A)
                 (A) (A) (A) (A) (A) (A) (A) (A) (A) (A) (A) (A)
                 (A) (A) (A) (A) (A) (A) (A) (A) (A) (A) (A) (A)
                 (A) (A) (A) (A) (A) (A) (A) (A) (A) (A) (A) (A)
                 (A) (A) (A) (A) (A) (A)
 The electronic state is 1-A.
 Alpha  occ. eigenvalues --  -19.28378 -19.27373 -19.26058 -19.25729 -10.32269
 Alpha  occ. eigenvalues --  -10.31962 -10.31484 -10.31376 -10.27904 -10.26655
 Alpha  occ. eigenvalues --  -10.26615 -10.26470 -10.26409 -10.24987 -10.24891
 Alpha  occ. eigenvalues --  -10.24805 -10.24791 -10.24109 -10.24063 -10.23907
 Alpha  occ. eigenvalues --  -10.23686 -10.23628  -1.09906  -1.09204  -1.07619
 Alpha  occ. eigenvalues --   -1.05641  -0.88779  -0.87113  -0.82279  -0.82161
 Alpha  occ. eigenvalues --   -0.78481  -0.76897  -0.75759  -0.74086  -0.72131
 Alpha  occ. eigenvalues --   -0.70168  -0.67123  -0.64848  -0.63696  -0.63244
 Alpha  occ. eigenvalues --   -0.60941  -0.59244  -0.56014  -0.54121  -0.53766
 Alpha  occ. eigenvalues --   -0.53036  -0.51983  -0.50853  -0.49797  -0.48441
 Alpha  occ. eigenvalues --   -0.47651  -0.47095  -0.46183  -0.45231  -0.45045
 Alpha  occ. eigenvalues --   -0.44251  -0.44119  -0.43232  -0.42748  -0.42160
 Alpha  occ. eigenvalues --   -0.41969  -0.41088  -0.40632  -0.40358  -0.39702
 Alpha  occ. eigenvalues --   -0.38892  -0.38804  -0.38309  -0.37747  -0.37100
 Alpha  occ. eigenvalues --   -0.35994  -0.35859  -0.34952  -0.34748  -0.33720
 Alpha  occ. eigenvalues --   -0.33014  -0.32263  -0.31616  -0.30558  -0.29947
 Alpha  occ. eigenvalues --   -0.25987  -0.24327  -0.23320
 Alpha virt. eigenvalues --   -0.00562  -0.00022   0.00272   0.00484   0.01260
 Alpha virt. eigenvalues --    0.01585   0.01787   0.02732   0.03037   0.03201
 Alpha virt. eigenvalues --    0.04191   0.04337   0.04547   0.04875   0.05132
 Alpha virt. eigenvalues --    0.05764   0.06300   0.06739   0.07226   0.07391
 Alpha virt. eigenvalues --    0.07928   0.08213   0.08619   0.08939   0.09407
 Alpha virt. eigenvalues --    0.09615   0.09948   0.10319   0.10794   0.11038
 Alpha virt. eigenvalues --    0.11244   0.11771   0.12299   0.12630   0.12933
 Alpha virt. eigenvalues --    0.13258   0.13547   0.13790   0.14093   0.14649
 Alpha virt. eigenvalues --    0.14928   0.15107   0.15349   0.15667   0.15976
 Alpha virt. eigenvalues --    0.16494   0.16812   0.17081   0.17439   0.18002
 Alpha virt. eigenvalues --    0.18143   0.18269   0.18678   0.18804   0.19429
 Alpha virt. eigenvalues --    0.19768   0.20168   0.20473   0.20731   0.20975
 Alpha virt. eigenvalues --    0.21075   0.21322   0.21579   0.21791   0.22010
 Alpha virt. eigenvalues --    0.22442   0.22531   0.22882   0.23129   0.23392
 Alpha virt. eigenvalues --    0.23771   0.24376   0.24764   0.25114   0.25312
 Alpha virt. eigenvalues --    0.25449   0.25554   0.25780   0.26317   0.26694
 Alpha virt. eigenvalues --    0.26855   0.27119   0.27643   0.27930   0.28219
 Alpha virt. eigenvalues --    0.28667   0.29082   0.29233   0.29389   0.29486
 Alpha virt. eigenvalues --    0.30006   0.30370   0.30845   0.31285   0.31486
 Alpha virt. eigenvalues --    0.31810   0.32128   0.32584   0.32990   0.33750
 Alpha virt. eigenvalues --    0.34127   0.34687   0.34902   0.35115   0.35453
 Alpha virt. eigenvalues --    0.35582   0.36179   0.36545   0.36982   0.37336
 Alpha virt. eigenvalues --    0.37522   0.38630   0.38869   0.39473   0.39890
 Alpha virt. eigenvalues --    0.39984   0.41071   0.41354   0.42448   0.42709
 Alpha virt. eigenvalues --    0.42911   0.44096   0.44500   0.44614   0.45609
 Alpha virt. eigenvalues --    0.45933   0.46823   0.47063   0.47466   0.47788
 Alpha virt. eigenvalues --    0.49020   0.49734   0.50311   0.50614   0.52147
 Alpha virt. eigenvalues --    0.53512   0.60428   0.63337   0.65618   0.66844
 Alpha virt. eigenvalues --    0.68164   0.69114   0.69587   0.70271   0.71319
 Alpha virt. eigenvalues --    0.71813   0.72383   0.73522   0.73676   0.74543
 Alpha virt. eigenvalues --    0.74866   0.75249   0.75859   0.76800   0.77316
 Alpha virt. eigenvalues --    0.77433   0.78445   0.79019   0.79440   0.80389
 Alpha virt. eigenvalues --    0.80715   0.81777   0.82413   0.82765   0.84038
 Alpha virt. eigenvalues --    0.85215   0.85372   0.86337   0.87602   0.87995
 Alpha virt. eigenvalues --    0.88592   0.89068   0.89741   0.90255   0.91152
 Alpha virt. eigenvalues --    0.91934   0.92783   0.94255   0.94874   0.95324
 Alpha virt. eigenvalues --    0.95654   0.97069   0.98206   0.98979   1.00078
 Alpha virt. eigenvalues --    1.00701   1.01458   1.02083   1.02728   1.04336
 Alpha virt. eigenvalues --    1.05166   1.06599   1.07459   1.08260   1.09049
 Alpha virt. eigenvalues --    1.09687   1.10160   1.11335   1.11686   1.12165
 Alpha virt. eigenvalues --    1.12783   1.13455   1.13771   1.14952   1.15280
 Alpha virt. eigenvalues --    1.16011   1.16644   1.18100   1.18563   1.18698
 Alpha virt. eigenvalues --    1.19725   1.20432   1.21192   1.22140   1.22986
 Alpha virt. eigenvalues --    1.23630   1.24343   1.25090   1.25881   1.26290
 Alpha virt. eigenvalues --    1.28125   1.29855   1.30016   1.30813   1.31353
 Alpha virt. eigenvalues --    1.32546   1.33102   1.33217   1.34542   1.35022
 Alpha virt. eigenvalues --    1.36088   1.37484   1.37696   1.38163   1.39073
 Alpha virt. eigenvalues --    1.39553   1.39702   1.41443   1.42703   1.43754
 Alpha virt. eigenvalues --    1.44124   1.46011   1.47322   1.48488   1.49506
 Alpha virt. eigenvalues --    1.50432   1.51548   1.52990   1.53351   1.54824
 Alpha virt. eigenvalues --    1.55456   1.55920   1.58012   1.59367   1.60072
 Alpha virt. eigenvalues --    1.61032   1.61868   1.63262   1.64191   1.66580
 Alpha virt. eigenvalues --    1.67966   1.69620   1.69826   1.71998   1.73597
 Alpha virt. eigenvalues --    1.75167   1.76494   1.77673   1.78805   1.80085
 Alpha virt. eigenvalues --    1.81332   1.81916   1.83737   1.84143   1.84340
 Alpha virt. eigenvalues --    1.85074   1.85823   1.86802   1.87382   1.88726
 Alpha virt. eigenvalues --    1.89895   1.90159   1.90561   1.91952   1.92419
 Alpha virt. eigenvalues --    1.93479   1.94411   1.94854   1.95465   1.96425
 Alpha virt. eigenvalues --    1.96891   1.97790   1.98108   1.98953   1.99511
 Alpha virt. eigenvalues --    2.01468   2.01844   2.03748   2.05569   2.06593
 Alpha virt. eigenvalues --    2.06916   2.07220   2.07580   2.08175   2.09490
 Alpha virt. eigenvalues --    2.10538   2.12228   2.12412   2.13354   2.13736
 Alpha virt. eigenvalues --    2.14204   2.15153   2.16220   2.16955   2.17633
 Alpha virt. eigenvalues --    2.18314   2.18908   2.19126   2.19573   2.21142
 Alpha virt. eigenvalues --    2.22422   2.23813   2.25188   2.25253   2.25676
 Alpha virt. eigenvalues --    2.26732   2.28542   2.29144   2.29525   2.30454
 Alpha virt. eigenvalues --    2.31797   2.32457   2.33187   2.34749   2.36158
 Alpha virt. eigenvalues --    2.36870   2.37472   2.37683   2.39872   2.40935
 Alpha virt. eigenvalues --    2.41063   2.42140   2.43153   2.44871   2.47138
 Alpha virt. eigenvalues --    2.49612   2.50870   2.51157   2.51877   2.52436
 Alpha virt. eigenvalues --    2.52606   2.54015   2.54690   2.55447   2.56340
 Alpha virt. eigenvalues --    2.57863   2.58896   2.59194   2.59751   2.60303
 Alpha virt. eigenvalues --    2.61303   2.62091   2.63377   2.63746   2.64643
 Alpha virt. eigenvalues --    2.66064   2.66939   2.67698   2.69411   2.70544
 Alpha virt. eigenvalues --    2.71114   2.71395   2.71577   2.72987   2.73678
 Alpha virt. eigenvalues --    2.74330   2.75071   2.76759   2.78121   2.79338
 Alpha virt. eigenvalues --    2.80143   2.80842   2.82002   2.82344   2.83859
 Alpha virt. eigenvalues --    2.84831   2.85841   2.86516   2.87537   2.88065
 Alpha virt. eigenvalues --    2.88912   2.89011   2.90525   2.90951   2.91461
 Alpha virt. eigenvalues --    2.93201   2.94166   2.94937   2.95674   2.96414
 Alpha virt. eigenvalues --    2.98167   3.00260   3.01832   3.02418   3.07521
 Alpha virt. eigenvalues --    3.09136   3.10071   3.10584   3.15142   3.18095
 Alpha virt. eigenvalues --    3.20395   3.27717   3.29126   3.30042   3.31200
 Alpha virt. eigenvalues --    3.32788   3.35721   3.37095   3.38515   3.40820
 Alpha virt. eigenvalues --    3.42358   3.45373   3.46097   3.47494   3.50591
 Alpha virt. eigenvalues --    3.51153   3.51417   3.51883   3.53930   3.54384
 Alpha virt. eigenvalues --    3.55878   3.57297   3.57738   3.58902   3.59796
 Alpha virt. eigenvalues --    3.61732   3.61973   3.65132   3.70907   3.77117
 Alpha virt. eigenvalues --    4.35645   4.38483   4.41144   4.47277   4.47943
 Alpha virt. eigenvalues --    4.49513   4.52101   4.53655   4.54952   4.58739
 Alpha virt. eigenvalues --    4.59981   4.65245   4.70249   4.71248   4.73187
 Alpha virt. eigenvalues --    4.75024   4.78627   4.80726   4.87228   4.94161
 Alpha virt. eigenvalues --    4.97956   5.00418
          Condensed to atoms (all electrons):
              1          2          3          4          5          6
     1  C   12.211593  -1.688452  -0.078357   0.002051  -0.038215   0.049330
     2  C   -1.688452   7.253125   0.423020   0.365565  -0.065824  -0.080061
     3  H   -0.078357   0.423020   0.532192  -0.030187  -0.074837  -0.005385
     4  H    0.002051   0.365565  -0.030187   0.530447  -0.076275   0.004628
     5  C   -0.038215  -0.065824  -0.074837  -0.076275   8.367682   0.356771
     6  H    0.049330  -0.080061  -0.005385   0.004628   0.356771   0.531514
     7  C    0.770519  -0.219755   0.050582   0.098823  -2.663950   0.039872
     8  H    0.000489   0.016679  -0.000150  -0.000122   0.022818  -0.009807
     9  C   -0.633634   0.687644  -0.016398  -0.008612  -0.014907  -0.012510
    10  H    0.041881  -0.012175  -0.000045   0.000071  -0.059633   0.001527
    11  C   -3.548399  -0.050413   0.033959  -0.067274   0.720484  -0.059010
    12  H    0.081827  -0.031064  -0.000118   0.001845  -0.052047   0.000020
    13  C   -0.283347   0.001319  -0.002264  -0.002263  -0.062884  -0.012004
    14  C   -0.073767  -0.008450  -0.000005  -0.000023   0.010565  -0.000039
    15  C   -0.116082   0.129557  -0.001203   0.005312  -0.340498   0.026315
    16  C   -0.398685  -0.287611  -0.000301   0.005368  -0.016764  -0.003888
    17  C    0.050397  -0.075444  -0.000033   0.000403  -0.008782  -0.000242
    18  C    0.010693   0.045452  -0.000083   0.000465  -0.060555   0.004884
    19  H   -0.000315   0.000009   0.000000   0.000000   0.000001   0.000000
    20  H    0.000000   0.000022   0.000000   0.000000   0.000092   0.000000
    21  O   -0.014038   0.018978   0.000001  -0.000172   0.021110  -0.000034
    22  H    0.033746  -0.007500   0.000001   0.000001  -0.004924   0.000000
    23  O   -0.007915   0.005039   0.000000  -0.000009  -0.020320   0.000031
    24  H    0.000832  -0.000211   0.000000   0.000000   0.000147  -0.000001
    25  O    0.174685  -0.007911  -0.000485  -0.000130   0.028083  -0.000199
    26  H   -0.058498   0.028154  -0.000016  -0.000001  -0.000780   0.000001
    27  C   -0.133791  -0.018986  -0.003064   0.010061   0.119797  -0.000972
    28  H   -0.075796  -0.028998   0.003100   0.000072   0.025634   0.000127
    29  H   -0.077187   0.036837   0.000058  -0.000136  -0.003691  -0.000030
    30  H   -0.155125   0.032655   0.000343  -0.000065  -0.024708  -0.000502
    31  O    0.105874  -0.056054  -0.006600  -0.006286   0.023159  -0.000527
    32  H    0.113547  -0.068226   0.003778  -0.000768   0.007014  -0.000001
    33  H    0.001153  -0.000847  -0.001440  -0.004671   0.421304  -0.025136
    34  C   -0.256945   0.018443  -0.002868   0.010214  -0.250237   0.003689
    35  C    0.251823  -0.223996  -0.004039   0.020176   0.113943   0.013502
    36  H    0.001199  -0.001690   0.000000   0.000001   0.002460   0.000004
    37  H    0.002236  -0.002174   0.000000  -0.000001  -0.004122  -0.000052
    38  C   -0.191224   0.145282   0.004864  -0.038364  -0.052282  -0.000254
    39  H   -0.015391  -0.023147   0.000120   0.001455   0.080565  -0.000039
    40  H   -0.001903   0.001279  -0.000002   0.000084  -0.001282   0.000003
    41  H    0.002111   0.014157  -0.000001   0.000058  -0.034608   0.000002
    42  C   -0.007894   0.000375   0.000000  -0.000001   0.000549  -0.000001
    43  H   -0.000001   0.000000   0.000000   0.000000   0.000001   0.000000
    44  H   -0.000011   0.000000   0.000000   0.000000  -0.000017   0.000000
    45  C   -0.000242  -0.000015   0.000000   0.000000  -0.000368   0.000000
    46  H    0.000000   0.000000   0.000000   0.000000  -0.000001   0.000000
    47  H   -0.000007   0.000000   0.000000   0.000000  -0.000014   0.000000
    48  H    0.000001   0.000000   0.000000   0.000000   0.000001   0.000000
              7          8          9         10         11         12
     1  C    0.770519   0.000489  -0.633634   0.041881  -3.548399   0.081827
     2  C   -0.219755   0.016679   0.687644  -0.012175  -0.050413  -0.031064
     3  H    0.050582  -0.000150  -0.016398  -0.000045   0.033959  -0.000118
     4  H    0.098823  -0.000122  -0.008612   0.000071  -0.067274   0.001845
     5  C   -2.663950   0.022818  -0.014907  -0.059633   0.720484  -0.052047
     6  H    0.039872  -0.009807  -0.012510   0.001527  -0.059010   0.000020
     7  C   14.199231   0.207444  -1.829840   0.199573  -2.485159   0.140984
     8  H    0.207444   0.559146   0.038786  -0.007880   0.000869  -0.000159
     9  C   -1.829840   0.038786  15.411107   0.292006  -3.828005   0.027106
    10  H    0.199573  -0.007880   0.292006   0.537198  -0.343212   0.004280
    11  C   -2.485159   0.000869  -3.828005  -0.343212  19.819575   0.028815
    12  H    0.140984  -0.000159   0.027106   0.004280   0.028815   0.550654
    13  C   -0.833614   0.009505   3.887040  -0.173664  -0.632235   0.026555
    14  C   -0.132510  -0.001852  -0.750600   0.006061  -0.367059   0.007826
    15  C    0.347749   0.030147  -1.093814   0.242462  -2.462044   0.057785
    16  C   -0.533041  -0.014126  -3.799142  -0.031923   1.268371   0.024432
    17  C   -0.256535  -0.000123  -1.598044  -0.005968   0.019927   0.015915
    18  C    0.415384   0.008071  -1.115947   0.086230  -0.604418   0.008931
    19  H    0.001400   0.000000   0.005983   0.000002  -0.002612   0.000003
    20  H    0.001631   0.000003  -0.008511  -0.000002  -0.000728   0.000000
    21  O   -0.004236  -0.000049  -0.009344  -0.001949   0.097429  -0.012133
    22  H   -0.003411   0.000002  -0.073245   0.000135   0.015686   0.000416
    23  O   -0.109888  -0.008445   0.104997   0.011061  -0.021175  -0.000051
    24  H   -0.004856   0.000104   0.049208   0.000013   0.000286   0.000000
    25  O    0.044334  -0.000438  -0.112564  -0.006037   0.049850  -0.066696
    26  H   -0.018948   0.000004   0.021464  -0.000214   0.025485  -0.004470
    27  C   -0.390760  -0.000832   0.226881   0.000487  -0.926133   0.013800
    28  H   -0.019092   0.000001  -0.017202  -0.000034   0.061521  -0.000094
    29  H   -0.006100   0.000001   0.010060  -0.000027  -0.070791   0.000017
    30  H    0.039247  -0.000092  -0.007326  -0.001066   0.122284  -0.000178
    31  O    0.012968   0.000111  -0.046785  -0.000208   0.191981  -0.002626
    32  H    0.001063   0.000000  -0.000119  -0.000001  -0.010421  -0.000120
    33  H   -0.205689  -0.001216   0.048495  -0.000108   0.040559  -0.000028
    34  C   -1.112274  -0.112365  -0.021269   0.023146  -0.335081  -0.008241
    35  C    0.330227   0.107061  -0.390055   0.007302  -0.396736   0.008170
    36  H    0.029814   0.000417  -0.008494   0.000002  -0.002628   0.000000
    37  H    0.003023   0.005202   0.000276  -0.000008  -0.007984  -0.000001
    38  C    0.206236  -0.024794   0.267221   0.002701  -0.107429  -0.006986
    39  H   -0.041888  -0.000088  -0.043855  -0.000008   0.062380  -0.000976
    40  H    0.026726  -0.000100  -0.017358   0.000003   0.002465   0.000167
    41  H   -0.024161  -0.000085   0.080771  -0.000060  -0.009170  -0.001536
    42  C   -0.071031  -0.000320  -0.104237  -0.000698  -0.028508   0.000476
    43  H    0.000019   0.000000   0.000561   0.000000   0.000043   0.000000
    44  H   -0.000353   0.000000  -0.000544   0.000000  -0.000388   0.000000
    45  C   -0.000736   0.000017  -0.004399   0.000013  -0.002862   0.000006
    46  H   -0.000048   0.000000   0.000125   0.000000   0.000009   0.000000
    47  H   -0.000236   0.000000  -0.000483   0.000000  -0.000251   0.000000
    48  H    0.000154   0.000000   0.000042   0.000000   0.000025   0.000000
             13         14         15         16         17         18
     1  C   -0.283347  -0.073767  -0.116082  -0.398685   0.050397   0.010693
     2  C    0.001319  -0.008450   0.129557  -0.287611  -0.075444   0.045452
     3  H   -0.002264  -0.000005  -0.001203  -0.000301  -0.000033  -0.000083
     4  H   -0.002263  -0.000023   0.005312   0.005368   0.000403   0.000465
     5  C   -0.062884   0.010565  -0.340498  -0.016764  -0.008782  -0.060555
     6  H   -0.012004  -0.000039   0.026315  -0.003888  -0.000242   0.004884
     7  C   -0.833614  -0.132510   0.347749  -0.533041  -0.256535   0.415384
     8  H    0.009505  -0.001852   0.030147  -0.014126  -0.000123   0.008071
     9  C    3.887040  -0.750600  -1.093814  -3.799142  -1.598044  -1.115947
    10  H   -0.173664   0.006061   0.242462  -0.031923  -0.005968   0.086230
    11  C   -0.632235  -0.367059  -2.462044   1.268371   0.019927  -0.604418
    12  H    0.026555   0.007826   0.057785   0.024432   0.015915   0.008931
    13  C   17.092736  -1.664534  -0.927338  -2.684781  -4.738246  -2.797884
    14  C   -1.664534   9.647671  -0.762037  -0.721594   1.637193   0.359779
    15  C   -0.927338  -0.762037  11.323990  -1.600882  -0.487570   0.664776
    16  C   -2.684781  -0.721594  -1.600882  13.950577   3.301525  -2.437601
    17  C   -4.738246   1.637193  -0.487570   3.301525  10.656105  -2.104696
    18  C   -2.797884   0.359779   0.664776  -2.437601  -2.104696  13.607972
    19  H    0.096342   0.006574  -0.010337  -0.042908   0.258668   0.033233
    20  H    0.069552   0.053451  -0.049463  -0.007776  -0.001610   0.281668
    21  O   -0.236864   0.096193  -0.016541   0.156235  -0.024925  -0.015116
    22  H   -0.210701   0.003902  -0.026964   0.180508   0.117416  -0.018340
    23  O   -0.222630   0.048917   0.213845   0.028641   0.002181   0.003217
    24  H    0.153364   0.003553   0.048395  -0.002347  -0.002711  -0.237938
    25  O   -0.093135  -0.009833  -0.138047   0.119854   0.037023  -0.034275
    26  H    0.019455   0.000617   0.005300  -0.011388  -0.003521   0.000394
    27  C    0.135719   0.008764   0.155416   0.012678   0.001701   0.034906
    28  H   -0.000856  -0.000013  -0.001558  -0.000453  -0.000040  -0.000078
    29  H    0.000450   0.000018  -0.004993   0.005376   0.000615  -0.000727
    30  H   -0.018793  -0.000195   0.015384  -0.012988  -0.001485   0.003008
    31  O    0.010365  -0.000780   0.015882  -0.026281  -0.005324   0.002540
    32  H   -0.000642  -0.000021   0.000289  -0.002495  -0.000153   0.000027
    33  H    0.011544   0.000235  -0.012222   0.002590   0.000102  -0.001537
    34  C    0.186036   0.071652   0.170295   0.208469   0.131677  -0.199348
    35  C   -0.221768   0.108817   0.140807   0.311686   0.192510   0.056322
    36  H   -0.001128  -0.000117   0.006415  -0.002319  -0.000505   0.006762
    37  H    0.008021  -0.001192   0.015393   0.005299   0.001174  -0.001961
    38  C    0.429335  -0.065956   0.020360  -0.594556  -0.318521   0.096160
    39  H   -0.027056   0.000067  -0.004246   0.011622   0.001072  -0.001046
    40  H   -0.008082   0.000934   0.000459   0.014559   0.004426   0.000129
    41  H    0.080167  -0.010313  -0.000004  -0.073118  -0.043878   0.004900
    42  C   -0.905754  -1.171354   0.293733  -0.026838   0.098584  -0.006413
    43  H    0.002540  -0.192336  -0.018888   0.041545   0.138695  -0.091167
    44  H   -0.014083  -0.242929   0.064228  -0.036555  -0.102704   0.144698
    45  C   -0.008502  -0.078948   0.007078   0.012571   0.036221   0.033567
    46  H    0.002302   0.029492   0.002631   0.001404   0.008076   0.006574
    47  H   -0.007360  -0.035886   0.003497  -0.015028  -0.014957   0.017878
    48  H   -0.000942  -0.029412   0.001594   0.000340   0.011662  -0.016833
             19         20         21         22         23         24
     1  C   -0.000315   0.000000  -0.014038   0.033746  -0.007915   0.000832
     2  C    0.000009   0.000022   0.018978  -0.007500   0.005039  -0.000211
     3  H    0.000000   0.000000   0.000001   0.000001   0.000000   0.000000
     4  H    0.000000   0.000000  -0.000172   0.000001  -0.000009   0.000000
     5  C    0.000001   0.000092   0.021110  -0.004924  -0.020320   0.000147
     6  H    0.000000   0.000000  -0.000034   0.000000   0.000031  -0.000001
     7  C    0.001400   0.001631  -0.004236  -0.003411  -0.109888  -0.004856
     8  H    0.000000   0.000003  -0.000049   0.000002  -0.008445   0.000104
     9  C    0.005983  -0.008511  -0.009344  -0.073245   0.104997   0.049208
    10  H    0.000002  -0.000002  -0.001949   0.000135   0.011061   0.000013
    11  C   -0.002612  -0.000728   0.097429   0.015686  -0.021175   0.000286
    12  H    0.000003   0.000000  -0.012133   0.000416  -0.000051   0.000000
    13  C    0.096342   0.069552  -0.236864  -0.210701  -0.222630   0.153364
    14  C    0.006574   0.053451   0.096193   0.003902   0.048917   0.003553
    15  C   -0.010337  -0.049463  -0.016541  -0.026964   0.213845   0.048395
    16  C   -0.042908  -0.007776   0.156235   0.180508   0.028641  -0.002347
    17  C    0.258668  -0.001610  -0.024925   0.117416   0.002181  -0.002711
    18  C    0.033233   0.281668  -0.015116  -0.018340   0.003217  -0.237938
    19  H    0.514409  -0.000138  -0.006696   0.000172   0.000122   0.000000
    20  H   -0.000138   0.520118   0.000091   0.000000  -0.017727   0.008462
    21  O   -0.006696   0.000091   8.346694   0.204728  -0.002057   0.000038
    22  H    0.000172   0.000000   0.204728   0.327442  -0.000148   0.000000
    23  O    0.000122  -0.017727  -0.002057  -0.000148   8.331169   0.202476
    24  H    0.000000   0.008462   0.000038   0.000000   0.202476   0.362489
    25  O   -0.000058   0.000001  -0.027344   0.036882  -0.001254  -0.000016
    26  H    0.000000   0.000000   0.004597  -0.003157  -0.000020   0.000000
    27  C    0.000003   0.000010  -0.003938  -0.004183   0.001116  -0.000344
    28  H    0.000000   0.000000   0.000005   0.000000   0.000004   0.000000
    29  H    0.000000   0.000000  -0.000034   0.000000   0.000000   0.000000
    30  H    0.000000   0.000000   0.000062  -0.000006  -0.000071   0.000001
    31  O    0.000000   0.000000   0.001340  -0.001300   0.000135   0.000000
    32  H    0.000000   0.000000   0.000013   0.000001   0.000000   0.000000
    33  H    0.000000   0.000000   0.000004   0.000000   0.000024   0.000000
    34  C   -0.001728   0.000298  -0.020989   0.006332   0.012292   0.002975
    35  C   -0.000236   0.000646  -0.011880   0.001133  -0.014097  -0.000284
    36  H    0.000000   0.000000  -0.000058   0.000000  -0.000060   0.000000
    37  H    0.000000  -0.000003  -0.000017   0.000000   0.001023  -0.000022
    38  C    0.001229   0.000298  -0.001426  -0.005466  -0.005544   0.000056
    39  H    0.000000   0.000000   0.000758  -0.000009  -0.000029   0.000000
    40  H    0.000000   0.000000  -0.000231  -0.000001  -0.000015   0.000000
    41  H   -0.000009   0.000000   0.002231   0.000074   0.000096   0.000000
    42  C   -0.029061  -0.024217   0.003641  -0.002079  -0.002985   0.000451
    43  H    0.001950   0.000071  -0.000024   0.000000   0.000039   0.000000
    44  H    0.000077   0.002370   0.000031   0.000000  -0.000114   0.000006
    45  C    0.005355   0.006609  -0.000220  -0.000030  -0.000118   0.000166
    46  H   -0.000027  -0.000027   0.000000   0.000000  -0.000002   0.000000
    47  H    0.000142   0.000013   0.000001   0.000000  -0.000001   0.000000
    48  H    0.000006   0.000201   0.000003   0.000000   0.000032   0.000000
             25         26         27         28         29         30
     1  C    0.174685  -0.058498  -0.133791  -0.075796  -0.077187  -0.155125
     2  C   -0.007911   0.028154  -0.018986  -0.028998   0.036837   0.032655
     3  H   -0.000485  -0.000016  -0.003064   0.003100   0.000058   0.000343
     4  H   -0.000130  -0.000001   0.010061   0.000072  -0.000136  -0.000065
     5  C    0.028083  -0.000780   0.119797   0.025634  -0.003691  -0.024708
     6  H   -0.000199   0.000001  -0.000972   0.000127  -0.000030  -0.000502
     7  C    0.044334  -0.018948  -0.390760  -0.019092  -0.006100   0.039247
     8  H   -0.000438   0.000004  -0.000832   0.000001   0.000001  -0.000092
     9  C   -0.112564   0.021464   0.226881  -0.017202   0.010060  -0.007326
    10  H   -0.006037  -0.000214   0.000487  -0.000034  -0.000027  -0.001066
    11  C    0.049850   0.025485  -0.926133   0.061521  -0.070791   0.122284
[...]
    15  C   -0.152904   0.007490   0.104840  -0.001114  -0.005147   0.009974
    16  C    0.146924  -0.023111   0.054519  -0.001497   0.005322  -0.003291
    17  C    0.042648  -0.005625   0.003164  -0.000083   0.000434  -0.000715
    18  C   -0.036632   0.000870   0.022211  -0.000013  -0.000783   0.001910
    19  H   -0.000041   0.000000   0.000013   0.000000   0.000000   0.000000
    20  H   -0.000001   0.000000   0.000002   0.000000   0.000000   0.000000
    21  O   -0.033186   0.004407  -0.004275   0.000002  -0.000012   0.000023
    22  H    0.039057  -0.002620  -0.003600   0.000000  -0.000001  -0.000005
    23  O   -0.001541  -0.000018   0.001020  -0.000004   0.000012   0.000034
    24  H   -0.000013   0.000000  -0.000278   0.000000   0.000000   0.000001
    25  O    8.506384   0.230024   0.000387  -0.001921   0.010617  -0.005629
    26  H    0.230024   0.327191  -0.016163   0.000055   0.000110   0.000195
    27  C    0.000387  -0.016163   6.050314   0.435970   0.459613   0.383366
    28  H   -0.001921   0.000055   0.435970   0.531693  -0.028824  -0.026087
    29  H    0.010617   0.000110   0.459613  -0.028824   0.537018  -0.026234
    30  H   -0.005629   0.000195   0.383366  -0.026087  -0.026234   0.526266
    31  O   -0.026793   0.025126  -0.149356  -0.013373   0.004309   0.007837
    32  H    0.000997  -0.000682  -0.019922   0.003404  -0.000582   0.000057
    33  H    0.000025   0.000000  -0.001946  -0.000020   0.000002   0.000039
    34  C   -0.026318   0.000740  -0.012667   0.000626   0.000331   0.000579
    35  C    0.001866  -0.000042   0.029063   0.000083  -0.000207  -0.002202
    36  H   -0.000001   0.000000  -0.000002   0.000000   0.000000   0.000000
    37  H    0.000006   0.000000   0.000301   0.000000   0.000000   0.000000
    38  C   -0.001203   0.002392  -0.053284   0.000062   0.000306  -0.000058
    39  H   -0.000146   0.000003  -0.001693   0.000000   0.000000   0.000000
    40  H    0.000028   0.000000   0.000054   0.000000   0.000000   0.000000
    41  H   -0.000186  -0.000010  -0.000554   0.000000   0.000000   0.000000
    42  C   -0.000886   0.000060   0.001017   0.000000  -0.000004  -0.000002
    43  H    0.000001   0.000000   0.000000   0.000000   0.000000   0.000000
    44  H    0.000000   0.000000   0.000000   0.000000   0.000000   0.000000
    45  C    0.000026   0.000000  -0.000031   0.000000   0.000000   0.000000
    46  H    0.000000   0.000000   0.000000   0.000000   0.000000   0.000000
    47  H    0.000000   0.000000   0.000000   0.000000   0.000000   0.000000
    48  H    0.000000   0.000000   0.000000   0.000000   0.000000   0.000000
             31         32         33         34         35         36
     1  C    0.107397   0.033794  -0.002111  -0.374363   0.299648   0.001287
     2  C   -0.053416  -0.047731  -0.032373   0.109583  -0.285536  -0.002382
     3  H   -0.007171   0.003966  -0.001113  -0.000158  -0.007188   0.000000
     4  H    0.002406  -0.001151  -0.005102  -0.008259   0.011437   0.000001
     5  C    0.002564   0.007183   0.495356  -0.652626   0.422660   0.002375
     6  H    0.000120  -0.000011  -0.030285  -0.012348  -0.001956   0.000004
     7  C    0.029320  -0.000018  -0.207621  -0.369521  -0.198720   0.026044
     8  H    0.000085   0.000000  -0.001693  -0.142600   0.130180   0.000458
     9  C   -0.050191  -0.004137   0.044588  -0.322107  -0.334424  -0.008303
    10  H   -0.000258  -0.000001  -0.000100   0.018048   0.008395   0.000002
    11  C    0.143352   0.031808   0.058790  -0.195202  -0.378956  -0.003109
    12  H    0.001204  -0.000077  -0.000013  -0.022246   0.006598   0.000000
    13  C    0.007942  -0.000372   0.004346   0.059643  -0.240017  -0.000603
    14  C   -0.000561  -0.000007   0.000079   0.047915   0.120488   0.000308
    15  C    0.015051   0.000030  -0.015456   0.235376   0.135104   0.005420
    16  C   -0.018936  -0.000525   0.000151   0.344275   0.345241  -0.002868
    17  C   -0.002908  -0.000050  -0.000123   0.205342   0.220290  -0.000538
    18  C    0.002110   0.000007  -0.001728  -0.166731   0.065220   0.007313
    19  H    0.000000   0.000000   0.000000  -0.000854  -0.000245   0.000000
    20  H    0.000000   0.000000   0.000000  -0.000031   0.000418   0.000000
    21  O    0.000261  -0.000006   0.000015  -0.031514  -0.018247  -0.000058
    22  H   -0.000996   0.000001   0.000000   0.007614   0.001757   0.000000
    23  O    0.000136   0.000000   0.000050  -0.009946  -0.005033  -0.000027
    24  H    0.000000   0.000000   0.000000   0.000252  -0.000141   0.000000
    25  O   -0.026793   0.000997   0.000025  -0.026318   0.001866  -0.000001
    26  H    0.025126  -0.000682   0.000000   0.000740  -0.000042   0.000000
    27  C   -0.149356  -0.019922  -0.001946  -0.012667   0.029063  -0.000002
    28  H   -0.013373   0.003404  -0.000020   0.000626   0.000083   0.000000
    29  H    0.004309  -0.000582   0.000002   0.000331  -0.000207   0.000000
    30  H    0.007837   0.000057   0.000039   0.000579  -0.002202   0.000000
    31  O    8.333953   0.245623  -0.000447   0.011035   0.002096   0.000000
    32  H    0.245623   0.334279  -0.000011  -0.001056  -0.000204   0.000000
    33  H   -0.000447  -0.000011   0.562519   0.012883  -0.033918  -0.000108
    34  C    0.011035  -0.001056   0.012883  10.678675  -3.041322  -0.221986
    35  C    0.002096  -0.000204  -0.033918  -3.041322   9.327659   0.564370
    36  H    0.000000   0.000000  -0.000108  -0.221986   0.564370   0.536493
    37  H    0.000001   0.000000   0.000017  -0.249144   0.634449  -0.035930
    38  C   -0.000667   0.000289   0.001588  -0.038285  -1.108702  -0.018741
    39  H   -0.000625   0.000007   0.000228  -0.073035   0.004050   0.000150
    40  H   -0.000013   0.000000  -0.000040  -0.135477  -0.025353   0.003102
    41  H    0.000095   0.000000   0.000037  -0.083155  -0.085184   0.000197
    42  C   -0.000020   0.000000   0.000009   0.000919   0.021902  -0.000024
    43  H    0.000000   0.000000   0.000000   0.000022  -0.000070   0.000000
    44  H    0.000000   0.000000   0.000000   0.000187  -0.000035   0.000000
    45  C    0.000000   0.000000   0.000000  -0.000846  -0.003585   0.000044
    46  H    0.000000   0.000000   0.000000   0.000041  -0.000013   0.000000
    47  H    0.000000   0.000000   0.000000   0.000313  -0.000223   0.000000
    48  H    0.000000   0.000000   0.000000  -0.000083  -0.000006   0.000000
             37         38         39         40         41         42
     1  C    0.001993  -0.040263   0.007742   0.001259  -0.011410  -0.011574
     2  C   -0.002592   0.089386  -0.020368  -0.002248   0.014261   0.000329
     3  H    0.000000   0.006800   0.000118  -0.000002   0.000000   0.000000
     4  H   -0.000001  -0.026137   0.001131   0.000104   0.000050  -0.000001
     5  C   -0.007392  -0.067532   0.092332   0.003159  -0.045934  -0.000703
     6  H   -0.000067   0.008925  -0.000030   0.000004   0.000002   0.000005
     7  C   -0.027011   0.207920  -0.052953   0.017165  -0.010171  -0.078773
     8  H    0.005766  -0.035358  -0.000106  -0.000114  -0.000092  -0.000220
     9  C   -0.013763   0.245660  -0.036516  -0.013624   0.057944  -0.088472
    10  H   -0.000005   0.003869  -0.000010   0.000003  -0.000056  -0.001030
    11  C   -0.010202  -0.242842   0.047261   0.000639  -0.016703  -0.036342
    12  H   -0.000001  -0.000990  -0.001045   0.000190  -0.001677   0.000241
    13  C    0.006045   0.431336  -0.026057  -0.005149   0.058496  -0.917579
    14  C   -0.001011  -0.070204  -0.001109   0.000875  -0.004030  -1.003338
    15  C    0.016258   0.084985  -0.004629  -0.000601   0.000446   0.244001
    16  C    0.007324  -0.765941  -0.008199   0.010376  -0.040370  -0.056635
    17  C    0.001571  -0.399354  -0.002588   0.003193  -0.027901   0.021021
    18  C   -0.001673   0.149716  -0.000804  -0.000073   0.004225  -0.000295
    19  H    0.000000   0.000886   0.000000   0.000000  -0.000006  -0.044768
    20  H   -0.000003   0.000144   0.000000   0.000000   0.000000  -0.031256
    21  O   -0.000023   0.013365   0.000981   0.000017  -0.000142   0.003876
    22  H    0.000000  -0.007365  -0.000008  -0.000002   0.000150  -0.001779
    23  O    0.001267  -0.006750  -0.000045  -0.000018   0.000173   0.003176
    24  H   -0.000027   0.000010   0.000000   0.000000   0.000000  -0.000505
    25  O    0.000006  -0.001203  -0.000146   0.000028  -0.000186  -0.000886
    26  H    0.000000   0.002392   0.000003   0.000000  -0.000010   0.000060
    27  C    0.000301  -0.053284  -0.001693   0.000054  -0.000554   0.001017
    28  H    0.000000   0.000062   0.000000   0.000000   0.000000   0.000000
    29  H    0.000000   0.000306   0.000000   0.000000   0.000000  -0.000004
    30  H    0.000000  -0.000058   0.000000   0.000000   0.000000  -0.000002
    31  O    0.000001  -0.000667  -0.000625  -0.000013   0.000095  -0.000020
    32  H    0.000000   0.000289   0.000007   0.000000   0.000000   0.000000
    33  H    0.000017   0.001588   0.000228  -0.000040   0.000037   0.000009
    34  C   -0.249144  -0.038285  -0.073035  -0.135477  -0.083155   0.000919
    35  C    0.634449  -1.108702   0.004050  -0.025353  -0.085184   0.021902
    36  H   -0.035930  -0.018741   0.000150   0.003102   0.000197  -0.000024
    37  H    0.546003  -0.013687  -0.000203   0.000239  -0.000208   0.000293
    38  C   -0.013687   6.932702   0.422923   0.497079   0.532828  -0.010688
    39  H   -0.000203   0.422923   0.539891  -0.028193  -0.027933  -0.000098
    40  H    0.000239   0.497079  -0.028193   0.547609  -0.027361   0.000025
    41  H   -0.000208   0.532828  -0.027933  -0.027361   0.534456   0.001031
    42  C    0.000293  -0.010688  -0.000098   0.000025   0.001031   6.944139
    43  H    0.000000   0.000049   0.000000   0.000000   0.000000   0.475256
    44  H    0.000000   0.000002   0.000000   0.000000   0.000000   0.528990
    45  C   -0.000008   0.002089  -0.000005   0.000018   0.000090   0.228833
    46  H    0.000000   0.000006   0.000000   0.000000   0.000000  -0.080241
    47  H    0.000000   0.000040   0.000000   0.000000   0.000000  -0.021918
    48  H    0.000000  -0.000023   0.000000   0.000000   0.000000  -0.052517
             43         44         45         46         47         48
     1  C   -0.000006  -0.000012  -0.000422   0.000000  -0.000010  -0.000001
     2  C    0.000001   0.000000   0.000010   0.000000   0.000001   0.000000
     3  H    0.000000   0.000000   0.000000   0.000000   0.000000   0.000000
     4  H    0.000000   0.000000   0.000000   0.000000   0.000000   0.000000
     5  C   -0.000002  -0.000019  -0.000993  -0.000002  -0.000012   0.000009
     6  H    0.000000   0.000000   0.000001   0.000000   0.000000   0.000000
     7  C    0.000003  -0.000325  -0.001124  -0.000073  -0.000142   0.000198
     8  H    0.000000   0.000000   0.000017   0.000000   0.000000   0.000000
     9  C   -0.000105  -0.001362  -0.004763   0.000030  -0.000799  -0.000214
    10  H    0.000000   0.000000   0.000002   0.000000   0.000000   0.000000
    11  C   -0.000164  -0.000391  -0.003409   0.000009  -0.000314   0.000000
    12  H    0.000000   0.000000   0.000005   0.000000   0.000000   0.000000
    13  C   -0.006049  -0.019253  -0.017024   0.000370  -0.010842   0.000092
    14  C   -0.146844  -0.186224  -0.012591   0.000610   0.017756   0.026259
    15  C   -0.015496   0.046077   0.001147   0.001025   0.013776  -0.018518
    16  C    0.020145  -0.031391  -0.000515   0.001558  -0.039484   0.005829
    17  C    0.078043  -0.079194   0.015976   0.006120  -0.064129   0.039309
    18  C   -0.065571   0.080987  -0.005682   0.004938   0.043688  -0.063297
    19  H    0.002323   0.000106   0.003259  -0.000033   0.000165   0.000009
    20  H    0.000106   0.002616   0.003515  -0.000032   0.000017   0.000211
    21  O   -0.000035   0.000016  -0.000277  -0.000002   0.000011   0.000007
    22  H    0.000000   0.000000  -0.000030   0.000000   0.000000   0.000000
    23  O    0.000023  -0.000085  -0.000118  -0.000004   0.000000   0.000052
    24  H    0.000000   0.000003   0.000150   0.000000   0.000000  -0.000001
    25  O    0.000001   0.000000   0.000026   0.000000   0.000000   0.000000
    26  H    0.000000   0.000000   0.000000   0.000000   0.000000   0.000000
    27  C    0.000000   0.000000  -0.000031   0.000000   0.000000   0.000000
    28  H    0.000000   0.000000   0.000000   0.000000   0.000000   0.000000
    29  H    0.000000   0.000000   0.000000   0.000000   0.000000   0.000000
    30  H    0.000000   0.000000   0.000000   0.000000   0.000000   0.000000
    31  O    0.000000   0.000000   0.000000   0.000000   0.000000   0.000000
    32  H    0.000000   0.000000   0.000000   0.000000   0.000000   0.000000
    33  H    0.000000   0.000000   0.000000   0.000000   0.000000   0.000000
    34  C    0.000022   0.000187  -0.000846   0.000041   0.000313  -0.000083
    35  C   -0.000070  -0.000035  -0.003585  -0.000013  -0.000223  -0.000006
    36  H    0.000000   0.000000   0.000044   0.000000   0.000000   0.000000
    37  H    0.000000   0.000000  -0.000008   0.000000   0.000000   0.000000
    38  C    0.000049   0.000002   0.002089   0.000006   0.000040  -0.000023
    39  H    0.000000   0.000000  -0.000005   0.000000   0.000000   0.000000
    40  H    0.000000   0.000000   0.000018   0.000000   0.000000   0.000000
    41  H    0.000000   0.000000   0.000090   0.000000   0.000000   0.000000
    42  C    0.475256   0.528990   0.228833  -0.080241  -0.021918  -0.052517
    43  H    0.565171  -0.033555  -0.021495  -0.003328  -0.005035   0.004837
    44  H   -0.033555   0.567788  -0.022359  -0.003431   0.004895  -0.004953
    45  C   -0.021495  -0.022359   5.185563   0.425210   0.418175   0.418845
    46  H   -0.003328  -0.003431   0.425210   0.549164  -0.027237  -0.027121
    47  H   -0.005035   0.004895   0.418175  -0.027237   0.542195  -0.028552
    48  H    0.004837  -0.004953   0.418845  -0.027121  -0.028552   0.541729
 Mulliken atomic charges:
              1
     1  C    0.228612
     2  C   -0.352702
     3  H    0.157781
     4  H    0.161429
     5  C   -0.350466
     6  H    0.162294
     7  C   -0.239490
     8  H    0.148107
     9  C    0.440808
    10  H    0.169872
    11  C   -0.196465
    12  H    0.170339
    13  C    0.429373
    14  C   -0.067141
    15  C    0.353791
    16  C   -0.216729
    17  C   -0.841379
    18  C   -0.071654
    19  H    0.147689
    20  H    0.150396
    21  O   -0.621559
    22  H    0.448573
    23  O   -0.605206
    24  H    0.446248
    25  O   -0.674552
    26  H    0.432240
    27  C   -0.329836
    28  H    0.165908
    29  H    0.162702
    30  H    0.172588
    31  O   -0.616295
    32  H    0.415099
    33  H    0.153488
    34  C    0.457482
    35  C   -0.581448
    36  H    0.147113
    37  H    0.141420
    38  C   -0.727281
    39  H    0.169580
    40  H    0.153129
    41  H    0.178600
    42  C   -0.035457
    43  H    0.151776
    44  H    0.150922
    45  C   -0.607695
    46  H    0.152433
    47  H    0.157667
    48  H    0.157897
 Sum of Mulliken atomic charges =   0.00000
 Mulliken charges with hydrogens summed into heavy atoms:
              1
     1  C    0.228612
     2  C   -0.033492
     5  C   -0.034684
     7  C   -0.091383
     9  C    0.610680
    11  C   -0.026126
    13  C    0.429373
    14  C   -0.067141
    15  C    0.353791
    16  C   -0.216729
    17  C   -0.693690
    18  C    0.078742
    21  O   -0.172986
    23  O   -0.158958
    25  O   -0.242312
    27  C    0.171362
    31  O   -0.201196
    34  C    0.457482
    35  C   -0.292916
    38  C   -0.225972
    42  C    0.267241
    45  C   -0.139698
 Sum of Mulliken charges with hydrogens summed into heavy atoms =   0.00000
 Electronic spatial extent (au):  <R**2>=           7112.7666
 Charge=              0.0000 electrons
 Dipole moment (field-independent basis, Debye):
    X=              2.8612    Y=              2.6284    Z=              3.3638  Tot=              5.1391
 Quadrupole moment (field-independent basis, Debye-Ang):
   XX=           -101.0392   YY=           -141.2732   ZZ=           -133.1928
   XY=             -2.7325   XZ=             -5.0776   YZ=              1.4808
 Traceless Quadrupole moment (field-independent basis, Debye-Ang):
   XX=             24.1292   YY=            -16.1047   ZZ=             -8.0244
   XY=             -2.7325   XZ=             -5.0776   YZ=              1.4808
 Octapole moment (field-independent basis, Debye-Ang**2):
  XXX=             84.9638  YYY=            -22.5354  ZZZ=             30.4111  XYY=              8.9716
  XXY=             -8.1601  XXZ=             32.8294  XZZ=            -14.8707  YZZ=             20.5574
  YYZ=              7.5471  XYZ=            -15.1094
 Hexadecapole moment (field-independent basis, Debye-Ang**3):
 XXXX=          -5623.4780 YYYY=          -1910.3260 ZZZZ=          -1136.8667 XXXY=            -41.9173
 XXXZ=            -57.8655 YYYX=           -101.2163 YYYZ=             48.1675 ZZZX=            -89.8422
 ZZZY=             41.4964 XXYY=          -1411.4140 XXZZ=          -1252.1188 YYZZ=           -506.6957
 XXYZ=             41.9277 YYXZ=            -12.2003 ZZXY=            -44.4669
 N-N= 1.985398130647D+03 E-N=-6.303752832932D+03  KE= 9.931593014138D+02

 Test job not archived.
 1\1\GINC-COMPUTE-9-5\SP\RB3LYP\6-31+G(d,p)\C18H26O4\LPASSAGLIA.IQUIR\2
 3-Dec-2022\0\\# B3LYP/6-31+G** geom=allcheck test scrf=(pcm,solvent=wa
 ter,smd,dovacuum)\\comment\\0,1\C,0,1.718082224,2.428539649,-1.6420618
 25\C,0,0.903874679,3.446521552,-0.843265668\H,0,1.40968905,4.420885886
 ,-0.849615304\H,0,-0.051103526,3.631170995,-1.34661888\C,0,0.667368044
 ,3.0077583,0.596809696\H,0,1.621202105,3.079116274,1.136350005\C,0,0.1
 27046644,1.568603574,0.773179791\H,0,0.391925617,1.334606033,1.8136224
 8\C,0,0.89597104,0.515379858,-0.110168061\H,0,1.927464839,0.469535305,
 0.269002791\C,0,1.039112863,1.038796757,-1.561264691\H,0,0.059825156,1
 .11752047,-2.043107835\C,0,0.381419965,-0.918417943,0.11813793\C,0,-0.
 692691961,-3.492725384,0.75594048\C,0,0.53196,-1.500958353,1.394695344
 \C,0,-0.26176575,-1.713720705,-0.841083036\C,0,-0.815128421,-2.9599125
 62,-0.527959859\C,0,-0.000335271,-2.755655021,1.717531812\H,0,-1.32560
 4512,-3.51940964,-1.308741652\H,0,0.117587282,-3.164947987,2.716692879
 \O,0,-0.357869506,-1.367145975,-2.158702437\H,0,0.532319515,-1.0281113
 87,-2.40150714\O,0,1.242507143,-0.827645114,2.356412804\H,0,1.2702543,
 -1.37142973,3.160146506\O,0,1.785563953,0.116035444,-2.382361862\H,0,2
 .016520881,0.638817309,-3.180741263\C,0,3.193627406,2.415863604,-1.217
 942071\H,0,3.640008023,3.407914087,-1.355666761\H,0,3.779220797,1.7335
 29649,-1.844005354\H,0,3.334921924,2.128936185,-0.17293541\O,0,1.70435
 7445,2.809527512,-3.031886288\H,0,2.02972668,3.72585056,-3.090718514\H
 ,0,0.001314476,3.729121241,1.087265042\C,0,-1.408319187,1.527508392,0.
 735830553\C,0,-2.105334575,1.390094988,1.879913785\H,0,-3.190289616,1.
 345160083,1.88617487\H,0,-1.611630917,1.303837696,2.843087246\C,0,-2.1
 50717404,1.624239337,-0.567002574\H,0,-1.881119812,2.52993428,-1.11227
 2931\H,0,-3.235558156,1.664332103,-0.414512838\H,0,-1.956517226,0.7537
 2278,-1.196474442\C,0,-1.300587259,-4.828192697,1.093506952\H,0,-1.286
 813426,-5.475724333,0.208307425\H,0,-0.685716546,-5.333906699,1.847982
 273\C,0,-2.726375581,-4.685968555,1.603827587\H,0,-3.143242733,-5.6698
 01159,1.841286676\H,0,-3.371690635,-4.21589522,0.853943522\H,0,-2.7644
 60033,-4.073291438,2.510968251\\Version=EM64L-G09RevC.01\State=1-A\HF=
 -1002.5418983\RMSD=4.081e-09\Dipole=0.9876062,1.3354815,1.1528763\Quad
 rupole=-6.3418325,9.2098977,-2.8680652,7.6005039,-1.3336036,-11.991722
 \PG=C01 [X(C18H26O4)]\\@


 TELEVISION IS CALLED A MEDIUM BECAUSE IT ISN'T
 RARE, AND IT ISN'T WELL DONE.
 Job cpu time:  0 days  0 hours 30 minutes 36.8 seconds.
 File lengths (MBytes):  RWF=    239 Int=      0 D2E=      0 Chk=     19 Scr=      1
 Normal termination of Gaussian 09 at Fri Dec 23 14:10:18 2022.
