 Entering Gaussian System, Link 0=g09
 Input=/home/lpassaglia.iquir/Link1/02_RSSS_THC_001.gjc
 Output=/home/lpassaglia.iquir/Link1/02_RSSS_THC_001.log
 Initial command:
 /share/apps/Gaussian09/EM64T.SSE4.2-enabled/g09/l1.exe /tmp/Gau-18724.inp -scrdir=/tmp/
 Entering Link 1 = /share/apps/Gaussian09/EM64T.SSE4.2-enabled/g09/l1.exe PID=     18731.
  
 Copyright (c) 1988,1990,1992,1993,1995,1998,2003,2009,2011,
            Gaussian, Inc.  All Rights Reserved.
  
 This is part of the Gaussian(R) 09 program.  It is based on
 the Gaussian(R) 03 system (copyright 2003, Gaussian, Inc.),
 the Gaussian(R) 98 system (copyright 1998, Gaussian, Inc.),
 the Gaussian(R) 94 system (copyright 1995, Gaussian, Inc.),
 the Gaussian 92(TM) system (copyright 1992, Gaussian, Inc.),
 the Gaussian 90(TM) system (copyright 1990, Gaussian, Inc.),
 the Gaussian 88(TM) system (copyright 1988, Gaussian, Inc.),
 the Gaussian 86(TM) system (copyright 1986, Carnegie Mellon
 University), and the Gaussian 82(TM) system (copyright 1983,
 Carnegie Mellon University). Gaussian is a federally registered
 trademark of Gaussian, Inc.
  
 This software contains proprietary and confidential information,
 including trade secrets, belonging to Gaussian, Inc.
  
 This software is provided under written license and may be
 used, copied, transmitted, or stored only in accord with that
 written license.
  
 The following legend is applicable only to US Government
 contracts under FAR:
  
                    RESTRICTED RIGHTS LEGEND
  
 Use, reproduction and disclosure by the US Government is
 subject to restrictions as set forth in subparagraphs (a)
 and (c) of the Commercial Computer Software - Restricted
 Rights clause in FAR 52.227-19.
  
 Gaussian, Inc.
 340 Quinnipiac St., Bldg. 40, Wallingford CT 06492
  
  
 ---------------------------------------------------------------
 Warning -- This program may not be used in any manner that
 competes with the business of Gaussian, Inc. or will provide
 assistance to any competitor of Gaussian, Inc.  The licensee
 of this program is prohibited from giving any competitor of
 Gaussian, Inc. access to this program.  By using this program,
 the user acknowledges that Gaussian, Inc. is engaged in the
 business of creating and licensing software in the field of
 computational chemistry and represents and warrants to the
 licensee that it is not a competitor of Gaussian, Inc. and that
 it will not use this program in any manner prohibited above.
 ---------------------------------------------------------------
  

 Cite this work as:
 Gaussian 09, Revision C.01,
 M. J. Frisch, G. W. Trucks, H. B. Schlegel, G. E. Scuseria, 
 M. A. Robb, J. R. Cheeseman, G. Scalmani, V. Barone, B. Mennucci, 
 G. A. Petersson, H. Nakatsuji, M. Caricato, X. Li, H. P. Hratchian, 
 A. F. Izmaylov, J. Bloino, G. Zheng, J. L. Sonnenberg, M. Hada, 
 M. Ehara, K. Toyota, R. Fukuda, J. Hasegawa, M. Ishida, T. Nakajima, 
 Y. Honda, O. Kitao, H. Nakai, T. Vreven, J. A. Montgomery, Jr., 
 J. E. Peralta, F. Ogliaro, M. Bearpark, J. J. Heyd, E. Brothers, 
 K. N. Kudin, V. N. Staroverov, T. Keith, R. Kobayashi, J. Normand, 
 K. Raghavachari, A. Rendell, J. C. Burant, S. S. Iyengar, J. Tomasi, 
 M. Cossi, N. Rega, J. M. Millam, M. Klene, J. E. Knox, J. B. Cross, 
 V. Bakken, C. Adamo, J. Jaramillo, R. Gomperts, R. E. Stratmann, 
 O. Yazyev, A. J. Austin, R. Cammi, C. Pomelli, J. W. Ochterski, 
 R. L. Martin, K. Morokuma, V. G. Zakrzewski, G. A. Voth, 
 P. Salvador, J. J. Dannenberg, S. Dapprich, A. D. Daniels, 
 O. Farkas, J. B. Foresman, J. V. Ortiz, J. Cioslowski, 
 and D. J. Fox, Gaussian, Inc., Wallingford CT, 2010.
 
 ******************************************
 Gaussian 09:  EM64L-G09RevC.01 23-Sep-2011
                23-Dec-2022 
 ******************************************
 %chk=02_RSSS_THC_001_optB_NMR
 %nprocshared=4
 Will use up to    4 processors via shared memory.
 ------------------------------------------------
 # mPW1PW91/6-31+G** scrf=(PCM,solvent=water) nmr
 ------------------------------------------------
 1/38=1/1;
 2/12=2,17=6,18=5,40=1/2;
 3/5=1,6=6,7=111,11=2,16=1,25=1,30=1,70=2201,72=1,74=-7/1,2,8,3;
 4//1;
 5/5=2,38=5,53=1/2;
 8/6=1,10=90,11=11/1;
 10/13=100,45=16/2;
 6/7=2,8=2,9=2,10=2,28=1/1;
 99/9=1/99;
 -------
 comment
 -------
 Charge =  0 Multiplicity = 1
 Symbolic Z-Matrix:
 6                     1.82561   2.52473  -1.6145 
 6                     1.02738   3.5502   -0.80442 
 1                     1.57506   4.50091  -0.76089 
 1                     0.10014   3.79824  -1.3325 
 6                     0.71689   3.08078   0.61464 
 1                     1.6514    3.09012   1.19106 
 6                     0.10588   1.66454   0.7169 
 1                     0.27652   1.37982   1.76608 
 6                     0.89348   0.62504  -0.14795 
 1                     1.90866   0.57041   0.27073 
 6                     1.12027   1.14262  -1.58938 
 1                     0.17946   1.24888  -2.136 
 6                     0.35143  -0.80043   0.03954 
 6                    -0.64636  -3.42069   0.55497 
 6                     0.67009  -1.49998   1.22063 
 6                    -0.48419  -1.45964  -0.87195 
 6                    -0.97945  -2.74589  -0.62318 
 6                     0.1829   -2.78439   1.48113 
 1                    -1.62116  -3.23599  -1.35107 
 1                     0.44095  -3.29481   2.40492 
 8                    -0.81895  -0.86012  -2.05261 
 1                    -1.5936   -1.31332  -2.42628 
 8                     1.48015  -0.89992   2.14958 
 1                     1.6469   -1.52371   2.87466 
 8                     1.92018   0.22817  -2.3621 
 1                     1.37188  -0.57642  -2.4414 
 6                     3.292     2.47543  -1.15901 
 1                     3.75843   3.46203  -1.26672 
 1                     3.88069   1.7968   -1.78625 
 1                     3.40396   2.1635   -0.11754 
 8                     1.85272   2.97517  -2.9821 
 1                     2.17873   2.20474  -3.48949 
 1                     0.06296   3.81419   1.10334 
 6                    -1.42012   1.66646   0.55209 
 6                    -2.08727   2.06309  -0.54458 
 1                    -3.17266   2.03993  -0.58306 
 1                    -1.59429   2.41633  -1.44097 
 6                    -2.18984   1.18429   1.75765 
 1                    -1.91587   0.15342   2.00188 
 1                    -3.27277   1.20751   1.59549 
 1                    -1.97194   1.81841   2.62334 
 6                    -1.19335  -4.79724   0.83231 
 1                    -1.31178  -5.34453  -0.11082 
 1                    -0.4699   -5.36969   1.42559 
 6                    -2.52579  -4.73838   1.56355 
 1                    -2.89906  -5.74995   1.75193 
 1                    -3.27865  -4.20291   0.97518 
 1                    -2.42771  -4.22777   2.52759 
 
                          Input orientation:                          
 ---------------------------------------------------------------------
 Center     Atomic      Atomic             Coordinates (Angstroms)
 Number     Number       Type             X           Y           Z
 ---------------------------------------------------------------------
      1          6           0        1.825607    2.524726   -1.614498
      2          6           0        1.027383    3.550197   -0.804420
      3          1           0        1.575062    4.500908   -0.760894
      4          1           0        0.100141    3.798238   -1.332500
      5          6           0        0.716894    3.080775    0.614643
      6          1           0        1.651401    3.090120    1.191064
      7          6           0        0.105885    1.664545    0.716902
      8          1           0        0.276519    1.379817    1.766080
      9          6           0        0.893481    0.625037   -0.147949
     10          1           0        1.908655    0.570413    0.270731
     11          6           0        1.120273    1.142622   -1.589383
     12          1           0        0.179464    1.248878   -2.135998
     13          6           0        0.351428   -0.800425    0.039535
     14          6           0       -0.646359   -3.420685    0.554973
     15          6           0        0.670086   -1.499976    1.220627
     16          6           0       -0.484191   -1.459640   -0.871954
     17          6           0       -0.979455   -2.745894   -0.623179
     18          6           0        0.182899   -2.784394    1.481133
     19          1           0       -1.621159   -3.235992   -1.351066
     20          1           0        0.440954   -3.294806    2.404923
     21          8           0       -0.818951   -0.860121   -2.052609
     22          1           0       -1.593605   -1.313320   -2.426280
     23          8           0        1.480150   -0.899916    2.149576
     24          1           0        1.646902   -1.523713    2.874662
     25          8           0        1.920179    0.228171   -2.362097
     26          1           0        1.371875   -0.576422   -2.441401
     27          6           0        3.292003    2.475429   -1.159013
     28          1           0        3.758429    3.462033   -1.266720
     29          1           0        3.880687    1.796801   -1.786254
     30          1           0        3.403964    2.163498   -0.117543
     31          8           0        1.852717    2.975170   -2.982101
     32          1           0        2.178726    2.204743   -3.489493
     33          1           0        0.062957    3.814192    1.103341
     34          6           0       -1.420117    1.666460    0.552093
     35          6           0       -2.087270    2.063095   -0.544578
     36          1           0       -3.172664    2.039933   -0.583057
     37          1           0       -1.594293    2.416326   -1.440972
     38          6           0       -2.189842    1.184292    1.757646
     39          1           0       -1.915867    0.153422    2.001879
     40          1           0       -3.272768    1.207509    1.595488
     41          1           0       -1.971937    1.818413    2.623340
     42          6           0       -1.193355   -4.797241    0.832308
     43          1           0       -1.311782   -5.344529   -0.110820
     44          1           0       -0.469903   -5.369685    1.425588
     45          6           0       -2.525788   -4.738380    1.563550
     46          1           0       -2.899062   -5.749945    1.751932
     47          1           0       -3.278649   -4.202911    0.975182
     48          1           0       -2.427708   -4.227767    2.527586
 ---------------------------------------------------------------------
                    Distance matrix (angstroms):
                    1          2          3          4          5
     1  C    0.000000
     2  C    1.531332   0.000000
     3  H    2.167189   1.098042   0.000000
     4  H    2.163004   1.095523   1.730858   0.000000
     5  C    2.550981   1.526598   2.155303   2.164833   0.000000
     6  H    2.867263   2.140800   2.409624   3.045687   1.098021
     7  C    3.022049   2.592155   3.519562   2.958500   1.545800
     8  H    3.890861   3.447001   4.220547   3.934598   2.100713
     9  C    2.574576   3.000908   3.982791   3.478757   2.577475
    10  H    2.716676   3.288116   4.077294   4.032360   2.800087
    11  C    1.551882   2.534011   3.488741   2.856388   2.962580
    12  H    2.146983   2.790724   3.796618   2.674161   3.348239
    13  C    3.995705   4.482978   5.499282   4.805551   3.940562
    14  C    6.794493   7.296750   8.331738   7.498844   6.643117
    15  C    5.056816   5.452772   6.384043   5.908837   4.620897
    16  C    4.664945   5.233344   6.307217   5.310256   4.926251
    17  C    6.052315   6.610674   7.685093   6.670407   6.193535
    18  C    6.361460   6.787043   7.748576   7.159219   5.952828
    19  H    6.718294   7.305202   8.391887   7.241796   7.016556
    20  H    7.206938   7.582734   8.490097   8.024696   6.627916
    21  O    4.317732   4.941440   6.011693   4.802457   5.000372
    22  H    5.203902   5.757935   6.827826   5.494830   5.821829
    23  O    5.100565   5.360467   6.135857   6.008488   4.334107
    24  H    6.047673   6.297937   7.036937   6.958149   5.212860
    25  O    2.417025   3.776149   4.575941   4.137388   4.294907
    26  H    3.241413   4.452793   5.352071   4.688775   4.810768
    27  C    1.536299   2.531673   2.684949   3.459466   3.184884
    28  H    2.176074   2.771300   2.470266   3.674293   3.596640
    29  H    2.186945   3.489948   3.698576   4.301647   4.174025
    30  H    2.205124   2.835995   3.036819   3.881203   2.932207
    31  O    1.440129   2.398776   2.709009   2.543649   3.773302
    32  H    1.934603   3.216436   3.616910   3.392988   4.443908
    33  H    3.486589   2.153918   2.496680   2.436176   1.097433
    34  C    3.995680   3.373256   4.327716   3.226043   2.563399
    35  C    4.082699   3.461222   4.404815   2.901087   3.200438
    36  H    5.126559   4.468814   5.350600   3.790060   4.200774
    37  H    3.426014   2.926439   3.853932   2.189190   3.163642
    38  C    5.412203   4.744705   5.614043   4.650348   3.654069
    39  H    5.718382   5.298691   6.222550   5.335452   4.174357
    40  H    6.167049   5.453352   6.316681   5.163477   4.515372
    41  H    5.734064   4.872837   5.588383   4.884862   3.585839
    42  C    8.289281   8.791489   9.831480   8.957777   8.109227
    43  H    8.604036   9.223282  10.280520   9.331463   8.696412
    44  H    8.765456   9.315531  10.314611   9.590767   8.571838
    45  C    9.043635   9.323777  10.372292   9.389167   8.517899
    46  H   10.105718  10.413672  11.463510  10.472666   9.609901
    47  H    8.832948   9.045419  10.115777   8.986657   8.315434
    48  H    8.991313   9.139839  10.150174   9.257809   8.183072
                    6          7          8          9         10
     6  H    0.000000
     7  C    2.155392   0.000000
     8  H    2.268497   1.100437   0.000000
     9  C    2.905861   1.564880   2.147985   0.000000
    10  H    2.694831   2.155498   2.356920   1.099480   0.000000
    11  C    3.435947   2.573001   3.468042   1.548245   2.099761
    12  H    4.077513   2.883961   3.905481   2.202575   3.040191
    13  C    4.260550   2.568111   2.782090   1.536527   2.087488
    14  C    6.933606   5.143117   5.036200   4.385553   4.747394
    15  C    4.693914   3.253652   2.957300   2.537437   2.592848
    16  C    5.432965   3.554318   3.949737   2.601546   3.339545
    17  C    6.653716   4.735583   4.930266   3.885474   4.487555
    18  C    6.062223   4.514757   4.174999   3.844874   3.962074
    19  H    7.562524   5.592355   5.884173   4.762190   5.438616
    20  H    6.611045   5.249461   4.720938   4.699692   4.652831
    21  O    5.677011   3.859980   4.560676   2.960717   3.858001
    22  H    6.557860   4.651401   5.322240   3.890195   4.805012
    23  O    4.107123   3.243088   2.606335   2.819270   2.423951
    24  H    4.911413   4.146764   3.396674   3.784303   3.351765
    25  O    4.570333   3.851632   4.590180   2.472663   2.655004
    26  H    5.168797   4.074253   4.767554   2.632924   2.993163
    27  C    2.931260   3.785227   4.341621   3.193604   2.754434
    28  H    3.258618   4.528444   5.065294   4.184271   3.761235
    29  H    3.937869   4.531271   5.077695   3.602843   3.102278
    30  H    2.375407   3.438398   3.734046   2.944539   2.219150
    31  O    4.179599   4.295554   5.251168   3.804691   4.045603
    32  H    4.792659   4.720407   5.649774   3.913214   4.108925
    33  H    1.747892   2.184528   2.531998   3.525082   3.823865
    34  C    3.445187   1.534877   2.105826   2.631987   3.515851
    35  C    4.247927   2.561269   3.375426   3.333196   4.342838
    36  H    5.246141   3.546785   4.225051   4.327214   5.358007
    37  H    4.232745   2.848192   3.854798   3.327107   4.313695
    38  C    4.325314   2.565960   2.474113   3.667552   4.402890
    39  H    4.691164   2.832338   2.523134   3.568840   4.218735
    40  H    5.287269   3.520808   3.557560   4.553732   5.385909
    41  H    4.098443   2.824098   2.445980   4.161107   4.706514
    42  C    8.392365   6.592117   6.417827   5.892104   6.224913
    43  H    9.034304   7.198751   7.159769   6.363983   6.745616
    44  H    8.724863   7.093247   6.799181   6.345986   6.501999
    45  C    8.881051   6.974235   6.732480   6.586871   7.036970
    46  H    9.958315   8.066948   7.805000   7.657241   8.078058
    47  H    8.805697   6.778556   6.665703   6.478980   7.084419
    48  H    8.483919   6.664608   6.271980   6.460533   6.849815
                   11         12         13         14         15
    11  C    0.000000
    12  H    1.093252   0.000000
    13  C    2.649515   2.993686   0.000000
    14  C    5.342567   5.452350   2.850792   0.000000
    15  C    3.883574   4.366216   1.409217   2.421827   0.000000
    16  C    3.140187   3.061750   1.401298   2.430662   2.390163
    17  C    4.523601   4.426050   2.448528   1.397977   2.770004
    18  C    5.072297   5.417650   2.458198   1.396534   1.398193
    19  H    5.171510   4.896164   3.428828   2.148799   3.857093
    20  H    6.008887   6.429106   3.438751   2.149514   2.162515
    21  O    2.825977   2.334879   2.398003   3.658656   3.652495
    22  H    3.754621   3.129360   3.182209   3.771754   4.296402
    23  O    4.275662   4.967418   2.395033   3.663205   1.370846
    24  H    5.226316   5.911628   3.199897   3.773394   1.921084
    25  O    1.439846   2.030530   3.047430   5.330156   4.169549
    26  H    1.935032   2.201553   2.691939   4.597973   3.841342
    27  C    2.584184   3.485230   4.562315   7.294697   5.323624
    28  H    3.527556   4.296824   5.610928   8.372129   6.351873
    29  H    2.843694   3.757871   4.747079   7.293672   5.497093
    30  H    2.902369   3.912555   4.257639   6.931124   4.762964
    31  O    2.415443   2.548676   5.063523   7.724198   6.252077
    32  H    2.420505   2.596667   4.982378   7.482262   6.179496
    33  H    3.937761   4.133730   4.744427   7.290218   5.350022
    34  C    3.363615   3.155768   3.080034   5.145654   3.852558
    35  C    3.496744   2.886806   3.806334   5.775559   4.838846
    36  H    4.499685   3.778115   4.568859   6.123371   5.527292
    37  H    3.002202   2.234326   4.040448   6.241240   5.248709
    38  C    4.707568   4.558316   3.653636   5.003456   3.958897
    39  H    4.805603   4.765759   3.146624   4.059486   3.167212
    40  H    5.426456   5.083660   4.425786   5.422258   4.797613
    41  H    5.269297   5.253970   4.351137   5.786489   4.467616
    42  C    6.819049   6.873938   4.357680   1.506992   3.807251
    43  H    7.084079   7.056782   4.841255   2.141785   4.525610
    44  H    7.350433   7.544001   4.844983   2.141894   4.039336
    45  C    7.604008   7.540046   5.109646   2.507150   4.562726
    46  H    8.650256   8.577695   6.164068   3.454394   5.575244
    47  H    7.382563   7.166588   5.062589   2.778022   4.791515
    48  H    7.640594   7.651144   5.065636   2.777731   4.329586
                   16         17         18         19         20
    16  C    0.000000
    17  C    1.400580   0.000000
    18  C    2.781546   2.404304   0.000000
    19  H    2.162793   1.087107   3.388203   0.000000
    20  H    3.868029   3.389435   1.086509   4.285234   0.000000
    21  O    1.365809   2.371745   4.146548   2.603933   5.233034
    22  H    1.915238   2.383405   4.537389   2.203069   5.604126
    23  O    3.647132   4.140708   2.383471   5.227798   2.623095
    24  H    4.310777   4.541626   2.382130   5.609715   2.193567
    25  O    3.293969   4.502974   5.183059   5.056055   6.109333
    26  H    2.586160   3.679850   4.655650   4.149747   5.634100
    27  C    5.461393   6.767177   6.656022   7.536338   7.357019
    28  H    6.509880   7.835819   7.704088   8.591312   8.375051
    29  H    5.522003   6.753503   6.733261   7.469185   7.437889
    30  H    5.367868   6.600921   6.116588   7.478498   6.703383
    31  O    5.438878   6.805606   7.475381   7.301139   8.386041
    32  H    5.231667   6.534422   7.319968   6.972345   8.246759
    33  H    5.658132   6.863106   6.610480   7.652808   7.237047
    34  C    3.560389   4.587409   4.821087   5.262744   5.613441
    35  C    3.884159   4.935565   5.723226   5.380335   6.618048
    36  H    4.422483   5.264591   6.228548   5.552692   7.102513
    37  H    4.071759   5.262635   6.224516   5.653098   7.179844
    38  C    4.100538   4.751813   4.632151   5.433820   5.234727
    39  H    3.593129   4.021670   3.647843   4.776737   4.196108
    40  H    4.580187   5.080469   5.281099   5.581640   5.892177
    41  H    5.017579   5.688393   5.209011   6.439407   5.658159
    42  C    3.814053   2.524325   2.523212   2.718021   2.720550
    43  H    4.044329   2.669430   3.364918   2.465736   3.688144
    44  H    4.535125   3.367695   2.667015   3.686169   2.468579
    45  C    4.566173   3.338103   3.340934   3.401546   3.404904
    46  H    5.578808   4.283733   4.285594   4.193041   4.196405
    47  H    4.329716   3.156573   3.774983   3.015566   4.087085
    48  H    4.795483   3.771035   3.161275   4.083881   3.019054
                   21         22         23         24         25
    21  O    0.000000
    22  H    0.972167   0.000000
    23  O    4.790178   5.527868   0.000000
    24  H    5.549665   6.216521   0.970916   0.000000
    25  O    2.963611   3.837576   4.671338   5.528781   0.000000
    26  H    2.243070   3.055703   4.603633   5.406803   0.976881
    27  C    5.368831   6.311081   5.061870   5.913546   2.894733
    28  H    6.344371   7.265869   5.990679   6.816690   3.877742
    29  H    5.405254   6.328536   5.340938   6.143269   2.576002
    30  H    5.542540   6.511084   4.269121   5.063208   3.314382
    31  O    4.765629   5.529667   6.441211   7.388097   2.816905
    32  H    4.521514   5.266657   6.475030   7.395045   2.290132
    33  H    5.708501   6.441568   5.032481   5.842918   5.321473
    34  C    3.678245   4.216622   4.189247   4.997813   4.660339
    35  C    3.525334   3.896753   5.363244   6.204871   4.767595
    36  H    4.013709   4.139469   6.144809   6.919798   5.690739
    37  H    3.422041   3.857603   5.774227   6.682361   4.241227
    38  C    4.536189   4.909053   4.238676   4.827175   5.897348
    39  H    4.320806   4.675871   3.558689   4.033343   5.810776
    40  H    4.858490   5.034758   5.228622   5.770530   6.602142
    41  H    5.510755   5.953952   4.419353   4.932441   6.521658
    42  C    4.895287   4.787097   4.906318   4.791060   6.719604
    43  H    4.911552   4.657405   5.714792   5.680277   6.824134
    44  H    5.705774   5.705584   4.930081   4.623006   7.169034
    45  C    5.570529   5.340294   5.578958   5.428116   7.735888
    46  H    6.535425   6.232601   6.546633   6.307722   8.711383
    47  H    5.137303   4.770645   5.910596   5.920066   7.602614
    48  H    5.908243   5.807798   5.146731   4.902532   7.916344
                   26         27         28         29         30
    26  H    0.000000
    27  C    3.826905   0.000000
    28  H    4.835766   1.096605   0.000000
    29  H    3.515045   1.095681   1.748674   0.000000
    30  H    4.127573   1.092930   1.769872   1.773789   0.000000
    31  O    3.624550   2.375907   2.609847   2.632729   3.357211
    32  H    3.079672   2.596882   3.002826   2.442153   3.587890
    33  H    5.792749   4.163804   4.404284   5.195641   3.921437
    34  C    4.667628   5.078030   5.774903   5.795117   4.895632
    35  C    4.746648   5.429928   6.053983   6.101572   5.508728
    36  H    5.563415   6.504867   7.108433   7.159369   6.594240
    37  H    4.330768   4.894781   5.456693   5.520728   5.176674
    38  C    5.780825   6.342283   7.051016   7.055899   5.980455
    39  H    5.575361   6.519576   7.336777   7.116930   6.069016
    40  H    6.407151   7.231259   7.919144   7.934442   6.958961
    41  H    6.524409   6.515131   7.118368   7.327906   6.044157
    42  C    5.925613   8.773569   9.856049   8.722624   8.395799
    43  H    5.947140   9.134839  10.227350   8.987069   8.866159
    44  H    6.428151   9.076228  10.155125   8.977867   8.610281
    45  C    6.968020   9.659093  10.712077   9.745394   9.253321
    46  H    7.911403  10.698583  11.759890  10.744168  10.288132
    47  H    6.815559   9.608771  10.644152   9.740543   9.294220
    48  H    7.242927   9.551908  10.573461   9.731418   9.047285
                   31         32         33         34         35
    31  O    0.000000
    32  H    0.978410   0.000000
    33  H    4.538505   5.306687   0.000000
    34  C    4.991462   5.438368   2.667608   0.000000
    35  C    4.721959   5.185683   3.225748   1.343540   0.000000
    36  H    5.646639   6.091955   4.057237   2.121195   1.086323
    37  H    3.816970   4.298474   3.342758   2.136573   1.082276
    38  C    6.481877   6.903490   3.524144   1.509410   2.466384
    39  H    6.855986   7.150439   4.257271   2.153353   3.187581
    40  H    7.095741   7.521323   4.261932   2.175229   2.591778
    41  H    6.883824   7.398918   3.230221   2.148874   3.179445
    42  C    9.178160   8.892506   8.706811   6.473745   7.054013
    43  H    9.352844   8.977226   9.340571   7.043093   7.460725
    44  H    9.718996   9.409847   9.204965   7.153547   7.857712
    45  C    9.966599   9.791458   8.947619   6.577806   7.134183
    46  H   11.005367  10.795070  10.033292   7.657020   8.183921
    47  H    9.670360   9.527555   8.686582   6.171116   6.556820
    48  H   10.028010   9.939903   8.538442   6.297597   7.009210
                   36         37         38         39         40
    36  H    0.000000
    37  H    1.835469   0.000000
    38  C    2.678983   3.479043   0.000000
    39  H    3.438074   4.132477   1.094260   0.000000
    40  H    2.334310   3.674045   1.095246   1.765626   0.000000
    41  H    3.431005   4.125378   1.094997   1.778076   1.766874
    42  C    7.257263   7.573909   6.134164   5.137993   6.400267
    43  H    7.629952   7.879086   6.847456   5.920800   7.048841
    44  H    8.138919   8.372777   6.784030   5.738260   7.151532
    45  C    7.139460   7.815668   5.935366   4.949127   5.992712
    46  H    8.136905   8.864821   6.970414   5.989899   6.969240
    47  H    6.435250   7.244941   5.551550   4.678559   5.445867
    48  H    7.036698   7.783830   5.471724   4.442202   5.578992
                   41         42         43         44         45
    41  H    0.000000
    42  C    6.897888   0.000000
    43  H    7.695400   1.096832   0.000000
    44  H    7.440395   1.096839   1.752124   0.000000
    45  C    6.664941   1.521038   2.155166   2.155050   0.000000
    46  H    7.674566   2.159350   2.480658   2.480305   1.094571
    47  H    6.378109   2.173038   2.520170   3.074619   1.095310
    48  H    6.064090   2.172993   3.074676   2.520194   1.095313
                   46         47         48
    46  H    0.000000
    47  H    1.772214   0.000000
    48  H    1.772242   1.770502   0.000000
 Stoichiometry    C18H26O4
 Framework group  C1[X(C18H26O4)]
 Deg. of freedom   138
 Full point group                 C1      NOp   1
 Largest Abelian subgroup         C1      NOp   1
 Largest concise Abelian subgroup C1      NOp   1
                         Standard orientation:                         
 ---------------------------------------------------------------------
 Center     Atomic      Atomic             Coordinates (Angstroms)
 Number     Number       Type             X           Y           Z
 ---------------------------------------------------------------------
      1          6           0        3.294271   -0.699464    0.020113
      2          6           0        3.635453    0.793352    0.011572
      3          1           0        4.656312    0.946027    0.386051
      4          1           0        3.670375    1.159096   -1.020504
      5          6           0        2.663943    1.633723    0.836462
      6          1           0        2.841098    1.418837    1.898578
      7          6           0        1.167464    1.383393    0.540857
      8          1           0        0.653467    1.788437    1.425565
      9          6           0        0.827259   -0.143593    0.503123
     10          1           0        1.028367   -0.536945    1.509942
     11          6           0        1.816460   -0.922743   -0.397691
     12          1           0        1.728431   -0.629199   -1.447111
     13          6           0       -0.678213   -0.388207    0.317018
     14          6           0       -3.499712   -0.731339    0.096979
     15          6           0       -1.540079   -0.194962    1.415077
     16          6           0       -1.280025   -0.758233   -0.893164
     17          6           0       -2.665777   -0.925934   -1.008020
     18          6           0       -2.924888   -0.359489    1.314194
     19          1           0       -3.105084   -1.219496   -1.958090
     20          1           0       -3.563642   -0.195872    2.177747
     21          8           0       -0.511592   -0.990033   -1.998249
     22          1           0       -1.079760   -0.964567   -2.786694
     23          8           0       -1.004929    0.172786    2.622387
     24          1           0       -1.714388    0.214514    3.283903
     25          8           0        1.561025   -2.339381   -0.365304
     26          1           0        0.678640   -2.442592   -0.771553
     27          6           0        3.657483   -1.345568    1.365788
     28          1           0        4.726719   -1.218866    1.573693
     29          1           0        3.482969   -2.427109    1.347654
     30          1           0        3.100198   -0.922386    2.205339
     31          8           0        4.126916   -1.342592   -0.963280
     32          1           0        3.736284   -2.232836   -1.073544
     33          1           0        2.905326    2.696488    0.707524
     34          6           0        0.649295    2.222944   -0.634941
     35          6           0        1.089851    2.149091   -1.902047
     36          1           0        0.675169    2.782991   -2.680704
     37          1           0        1.864197    1.462918   -2.219656
     38          6           0       -0.438294    3.208088   -0.281446
     39          1           0       -1.311690    2.687912    0.123525
     40          1           0       -0.772747    3.786567   -1.149240
     41          1           0       -0.075370    3.918291    0.468832
     42          6           0       -4.992589   -0.893495   -0.029700
     43          1           0       -5.218180   -1.670591   -0.770153
     44          1           0       -5.407328   -1.251397    0.920539
     45          6           0       -5.670002    0.408755   -0.428217
     46          1           0       -6.751458    0.262376   -0.512541
     47          1           0       -5.300079    0.769801   -1.393881
     48          1           0       -5.490594    1.193451    0.314598
 ---------------------------------------------------------------------
 Rotational constants (GHZ):      0.4964744      0.1836180      0.1720807
 Standard basis: 6-31+G(d,p) (6D, 7F)
 There are   548 symmetry adapted basis functions of A   symmetry.
 Integral buffers will be    131072 words long.
 Raffenetti 2 integral format.
 Two-electron integral symmetry is turned on.
   548 basis functions,   886 primitive gaussians,   548 cartesian basis functions
    83 alpha electrons       83 beta electrons
       nuclear repulsion energy      1984.9618584052 Hartrees.
 NAtoms=   48 NActive=   48 NUniq=   48 SFac= 1.00D+00 NAtFMM=   60 NAOKFM=F Big=F
 ------------------------------------------------------------------------------
 Polarizable Continuum Model (PCM)
 =================================
 Model                : PCM.
 Atomic radii         : UFF (Universal Force Field).
 Polarization charges : Total charges.
 Charge compensation  : None.
 Solution method      : Matrix inversion.
 Cavity type          : Scaled VdW (van der Waals Surface) (Alpha=1.100).
 Cavity algorithm     : GePol (No added spheres)
                        Default sphere list used, NSphG=   48.
                        Lebedev-Laikov grids with approx.  5.0 points / Ang**2.
                        Smoothing algorithm: Karplus/York (Gamma=1.0000).
                        Polarization charges: spherical gaussians, with
                                              point-specific exponents (IZeta= 3).
                        Self-potential: point-specific (ISelfS= 7).
                        Self-field    : sphere-specific E.n sum rule (ISelfD= 2).
 Solvent              : Water, Eps=  78.355300 Eps(inf)=   1.777849
 ------------------------------------------------------------------------------
 One-electron integrals computed using PRISM.
 NBasis=   548 RedAO= T  NBF=   548
 NBsUse=   545 1.00D-06 NBFU=   545
 Harris functional with IExCor=  908 diagonalized for initial guess.
 ExpMin= 4.38D-02 ExpMax= 5.48D+03 ExpMxC= 8.25D+02 IAcc=2 IRadAn=         4 AccDes= 0.00D+00
 HarFok:  IExCor=  908 AccDes= 0.00D+00 IRadAn=         4 IDoV= 1
 ScaDFX=  1.000000  1.000000  1.000000  1.000000
 FoFCou: FMM=F IPFlag=           0 FMFlag=      100000 FMFlg1=           0
         NFxFlg=           0 DoJE=T BraDBF=F KetDBF=T FulRan=T
         Omega=  0.000000  0.000000  1.000000  0.000000  0.000000 ICntrl=     500 IOpCl=  0
         NMat0=    1 NMatS0=    1 NMatT0=    0 NMatD0=    1 NMtDS0=    0 NMtDT0=    0
         I1Cent=           4 NGrid=           0.
 Petite list used in FoFCou.
 Initial guess orbital symmetries:
       Occupied  (A) (A) (A) (A) (A) (A) (A) (A) (A) (A) (A) (A)
                 (A) (A) (A) (A) (A) (A) (A) (A) (A) (A) (A) (A)
                 (A) (A) (A) (A) (A) (A) (A) (A) (A) (A) (A) (A)
                 (A) (A) (A) (A) (A) (A) (A) (A) (A) (A) (A) (A)
                 (A) (A) (A) (A) (A) (A) (A) (A) (A) (A) (A) (A)
                 (A) (A) (A) (A) (A) (A) (A) (A) (A) (A) (A) (A)
                 (A) (A) (A) (A) (A) (A) (A) (A) (A) (A) (A)
       Virtual   (A) (A) (A) (A) (A) (A) (A) (A) (A) (A) (A) (A)
                 (A) (A) (A) (A) (A) (A) (A) (A) (A) (A) (A) (A)
                 (A) (A) (A) (A) (A) (A) (A) (A) (A) (A) (A) (A)
                 (A) (A) (A) (A) (A) (A) (A) (A) (A) (A) (A) (A)
                 (A) (A) (A) (A) (A) (A) (A) (A) (A) (A) (A) (A)
                 (A) (A) (A) (A) (A) (A) (A) (A) (A) (A) (A) (A)
                 (A) (A) (A) (A) (A) (A) (A) (A) (A) (A) (A) (A)
                 (A) (A) (A) (A) (A) (A) (A) (A) (A) (A) (A) (A)
                 (A) (A) (A) (A) (A) (A) (A) (A) (A) (A) (A) (A)
                 (A) (A) (A) (A) (A) (A) (A) (A) (A) (A) (A) (A)
                 (A) (A) (A) (A) (A) (A) (A) (A) (A) (A) (A) (A)
                 (A) (A) (A) (A) (A) (A) (A) (A) (A) (A) (A) (A)
                 (A) (A) (A) (A) (A) (A) (A) (A) (A) (A) (A) (A)
                 (A) (A) (A) (A) (A) (A) (A) (A) (A) (A) (A) (A)
                 (A) (A) (A) (A) (A) (A) (A) (A) (A) (A) (A) (A)
                 (A) (A) (A) (A) (A) (A) (A) (A) (A) (A) (A) (A)
                 (A) (A) (A) (A) (A) (A) (A) (A) (A) (A) (A) (A)
                 (A) (A) (A) (A) (A) (A) (A) (A) (A) (A) (A) (A)
                 (A) (A) (A) (A) (A) (A) (A) (A) (A) (A) (A) (A)
                 (A) (A) (A) (A) (A) (A) (A) (A) (A) (A) (A) (A)
                 (A) (A) (A) (A) (A) (A) (A) (A) (A) (A) (A) (A)
                 (A) (A) (A) (A) (A) (A) (A) (A) (A) (A) (A) (A)
                 (A) (A) (A) (A) (A) (A) (A) (A) (A) (A) (A) (A)
                 (A) (A) (A) (A) (A) (A) (A) (A) (A) (A) (A) (A)
                 (A) (A) (A) (A) (A) (A) (A) (A) (A) (A) (A) (A)
                 (A) (A) (A) (A) (A) (A) (A) (A) (A) (A) (A) (A)
                 (A) (A) (A) (A) (A) (A) (A) (A) (A) (A) (A) (A)
                 (A) (A) (A) (A) (A) (A) (A) (A) (A) (A) (A) (A)
                 (A) (A) (A) (A) (A) (A) (A) (A) (A) (A) (A) (A)
                 (A) (A) (A) (A) (A) (A) (A) (A) (A) (A) (A) (A)
                 (A) (A) (A) (A) (A) (A) (A) (A) (A) (A) (A) (A)
                 (A) (A) (A) (A) (A) (A) (A) (A) (A) (A) (A) (A)
                 (A) (A) (A) (A) (A) (A) (A) (A) (A) (A) (A) (A)
                 (A) (A) (A) (A) (A) (A) (A) (A) (A) (A) (A) (A)
                 (A) (A) (A) (A) (A) (A) (A) (A) (A) (A) (A) (A)
                 (A) (A) (A) (A) (A) (A) (A) (A) (A) (A) (A) (A)
                 (A) (A) (A) (A) (A) (A) (A) (A) (A) (A) (A) (A)
                 (A) (A) (A) (A) (A) (A) (A) (A) (A) (A) (A) (A)
                 (A) (A) (A) (A) (A) (A)
 The electronic state of the initial guess is 1-A.
 Requested convergence on RMS density matrix=1.00D-08 within 128 cycles.
 Requested convergence on MAX density matrix=1.00D-06.
 Requested convergence on             energy=1.00D-06.
 No special actions if energy rises.
 CoulSu:  requested number of processors reduced to:   2 ShMem   1 Linda.
 CoulSu:  requested number of processors reduced to:   2 ShMem   1 Linda.
 Error on total polarization charges =  0.01932
 SCF Done:  E(RmPW1PW91) =  -1002.30276206     A.U. after   14 cycles
             Convg  =    0.5144D-08             -V/T =  2.0094
 Range of M.O.s used for correlation:     1   545
 NBasis=   548 NAE=    83 NBE=    83 NFC=     0 NFV=     0
 NROrb=    545 NOA=    83 NOB=    83 NVA=   462 NVB=   462

 **** Warning!!: The largest alpha MO coefficient is  0.11458668D+03

 NEqPCM:  Using equilibrium solvation (IEInf=0, Eps=  78.3553, EpsInf=   1.7778)
          Differentiating once with respect to magnetic field using GIAOs.
          Electric field/nuclear overlap derivatives assumed to be zero.
 FoFCou: FMM=F IPFlag=           0 FMFlag=    10101102 FMFlg1=           0
         NFxFlg=    40000000 DoJE=F BraDBF=F KetDBF=T FulRan=T
         Omega=  0.000000  0.000000  1.000000  0.000000  0.000000 ICntrl=    6100 IOpCl=  0
         NMat0=    1 NMatS0=    1 NMatT0=    0 NMatD0=    1 NMtDS0=    0 NMtDT0=    0
         I1Cent=           7 NGrid=        3032.
 Symmetry not used in FoFCou.
          There are     3 degrees of freedom in the 1st order CPHF.  IDoFFX=0.
      3 vectors produced by pass  0 Test12= 1.28D-12 3.33D-08 XBig12= 7.38D+02 4.78D+00.
 AX will form     3 AO Fock derivatives at one time.
      3 vectors produced by pass  1 Test12= 1.28D-12 3.33D-08 XBig12= 1.51D+00 3.52D-01.
      3 vectors produced by pass  2 Test12= 1.28D-12 3.33D-08 XBig12= 6.30D-03 3.87D-02.
      3 vectors produced by pass  3 Test12= 1.28D-12 3.33D-08 XBig12= 3.41D-05 2.14D-03.
      3 vectors produced by pass  4 Test12= 1.28D-12 3.33D-08 XBig12= 1.03D-07 5.24D-05.
      3 vectors produced by pass  5 Test12= 1.28D-12 3.33D-08 XBig12= 2.80D-10 3.16D-06.
      3 vectors produced by pass  6 Test12= 1.28D-12 3.33D-08 XBig12= 1.26D-12 2.52D-07.
 Inverted reduced A of dimension    21 with in-core refinement.
 Calculating GIAO nuclear magnetic shielding tensors.
 SCF GIAO Magnetic shielding tensor (ppm):
      1  C    Isotropic =   121.1934   Anisotropy =    45.3996
   XX=   122.7309   YX=    -9.1371   ZX=   -15.4787
   XY=   -12.9286   YY=   111.8727   ZY=    11.9140
   XZ=   -22.3750   YZ=    11.1785   ZZ=   128.9767
   Eigenvalues:   104.9956   107.1248   151.4598
      2  C    Isotropic =   161.0723   Anisotropy =    28.3943
   XX=   156.4014   YX=     4.0042   ZX=    -2.7040
   XY=     1.3065   YY=   179.6587   ZY=     0.3397
   XZ=    -0.4111   YZ=     2.4211   ZZ=   147.1568
   Eigenvalues:   146.8019   156.4131   180.0018
      3  H    Isotropic =    29.9813   Anisotropy =     9.4199
   XX=    35.5373   YX=     1.4510   ZX=     1.3423
   XY=     2.6472   YY=    28.5588   ZY=     0.7374
   XZ=     1.0052   YZ=     0.6657   ZZ=    25.8477
   Eigenvalues:    25.6248    28.0578    36.2612
      4  H    Isotropic =    29.4322   Anisotropy =     6.6664
   XX=    28.5965   YX=    -0.4038   ZX=    -2.4665
   XY=     0.9454   YY=    28.9681   ZY=    -3.5493
   XZ=    -1.6500   YZ=    -3.0111   ZZ=    30.7321
   Eigenvalues:    25.9621    28.4580    33.8765
      5  C    Isotropic =   165.6065   Anisotropy =    22.4947
   XX=   179.1763   YX=     2.3283   ZX=     8.3787
   XY=     2.9314   YY=   158.9295   ZY=    -1.5260
   XZ=     1.7157   YZ=    -0.6032   ZZ=   158.7137
   Eigenvalues:   156.3854   159.8311   180.6030
      6  H    Isotropic =    29.5409   Anisotropy =     8.0723
   XX=    28.9899   YX=    -1.0871   ZX=     2.9394
   XY=    -0.4120   YY=    26.1744   ZY=     2.4977
   XZ=     2.2082   YZ=     1.6207   ZZ=    33.4583
   Eigenvalues:    25.0621    28.6382    34.9224
      7  C    Isotropic =   151.5735   Anisotropy =    19.0243
   XX=   151.8788   YX=    -4.1541   ZX=    10.2645
   XY=     0.6909   YY=   156.6829   ZY=    -6.0507
   XZ=     8.0093   YZ=    -9.6389   ZZ=   146.1586
   Eigenvalues:   137.8063   152.6578   164.2563
      8  H    Isotropic =    28.3562   Anisotropy =     5.7881
   XX=    29.4902   YX=    -1.7618   ZX=    -2.0106
   XY=    -0.2855   YY=    28.2148   ZY=     1.8803
   XZ=    -3.3261   YZ=     1.8041   ZZ=    27.3635
   Eigenvalues:    25.1858    27.6678    32.2149
      9  C    Isotropic =   148.7453   Anisotropy =    25.4458
   XX=   146.0888   YX=    -5.2409   ZX=    -4.4175
   XY=     2.0745   YY=   164.3078   ZY=     3.4065
   XZ=    -1.6784   YZ=     8.3390   ZZ=   135.8393
   Eigenvalues:   134.0695   146.4572   165.7092
     10  H    Isotropic =    28.2881   Anisotropy =     5.9535
   XX=    31.6387   YX=    -0.6814   ZX=    -1.3525
   XY=    -2.5775   YY=    23.7136   ZY=    -1.8605
   XZ=    -0.9885   YZ=    -1.3099   ZZ=    29.5118
   Eigenvalues:    22.9052    29.7019    32.2570
     11  C    Isotropic =   119.2398   Anisotropy =    30.4094
   XX=   120.2874   YX=     3.7390   ZX=    -4.1519
   XY=    13.4986   YY=   135.2623   ZY=    -4.7232
   XZ=    -2.4385   YZ=     0.1365   ZZ=   102.1697
   Eigenvalues:   101.5693   116.6374   139.5127
     12  H    Isotropic =    26.3524   Anisotropy =     2.8319
   XX=    26.2624   YX=     0.7315   ZX=     1.1326
   XY=    -0.3916   YY=    26.5851   ZY=    -2.2158
   XZ=     1.5247   YZ=    -0.7455   ZZ=    26.2096
   Eigenvalues:    24.2445    26.5723    28.2403
     13  C    Isotropic =    90.9586   Anisotropy =   120.8064
   XX=    49.7152   YX=   -11.0124   ZX=     5.2121
   XY=   -18.8008   YY=   161.4039   ZY=   -30.1378
   XZ=     5.5027   YZ=   -28.7281   ZZ=    61.7565
   Eigenvalues:    47.4276    53.9519   171.4961
     14  C    Isotropic =    49.8984   Anisotropy =   189.3777
   XX=   -29.0641   YX=   -24.1057   ZX=     1.1157
   XY=   -25.9369   YY=   162.4099   ZY=   -42.1349
   XZ=     1.0092   YZ=   -40.2652   ZZ=    16.3493
   Eigenvalues:   -32.7140     6.2589   176.1502
     15  C    Isotropic =    41.8302   Anisotropy =   127.2737
   XX=    30.8025   YX=   -14.9624   ZX=   -23.6652
   XY=   -15.0912   YY=   114.2302   ZY=   -42.7609
   XZ=   -12.8389   YZ=   -38.8781   ZZ=   -19.5423
   Eigenvalues:   -37.8854    36.6966   126.6793
     16  C    Isotropic =    43.6064   Anisotropy =   120.5830
   XX=    22.8973   YX=     0.6096   ZX=    37.9483
   XY=     2.4081   YY=   117.8094   ZY=   -25.1462
   XZ=    31.4113   YZ=   -30.7274   ZZ=    -9.8876
   Eigenvalues:   -35.7920    42.6161   123.9951
     17  C    Isotropic =    91.7303   Anisotropy =    97.4806
   XX=    82.1612   YX=   -11.3439   ZX=   -25.8903
   XY=    -4.8008   YY=   148.1788   ZY=   -32.2326
   XZ=   -25.5663   YZ=   -29.5294   ZZ=    44.8507
   Eigenvalues:    23.8657    94.6077   156.7173
     18  C    Isotropic =    90.7111   Anisotropy =   101.0370
   XX=    69.4359   YX=     3.0197   ZX=    35.6549
   XY=     7.1398   YY=   152.4654   ZY=   -22.7541
   XZ=    35.2482   YZ=   -25.9217   ZZ=    50.2322
   Eigenvalues:    19.2894    94.7749   158.0691
     19  H    Isotropic =    25.1587   Anisotropy =     7.8196
   XX=    29.6997   YX=     0.1926   ZX=    -1.9673
   XY=     0.2468   YY=    21.6929   ZY=     1.2015
   XZ=    -2.1387   YZ=     0.8905   ZZ=    24.0835
   Eigenvalues:    21.1847    23.9196    30.3718
     20  H    Isotropic =    25.0604   Anisotropy =     6.9972
   XX=    28.1637   YX=     1.2718   ZX=     2.2019
   XY=     1.2826   YY=    21.2277   ZY=     0.1064
   XZ=     2.2537   YZ=     0.9993   ZZ=    25.7897
   Eigenvalues:    20.9943    24.4617    29.7252
     21  O    Isotropic =   232.0176   Anisotropy =    56.3701
   XX=   212.3953   YX=    -1.0004   ZX=   -27.8436
   XY=   -34.0634   YY=   246.3484   ZY=    16.3511
   XZ=   -33.1515   YZ=    -1.1912   ZZ=   237.3091
   Eigenvalues:   189.8838   236.5714   269.5976
     22  H    Isotropic =    26.5612   Anisotropy =    15.7069
   XX=    27.7913   YX=     0.3427   ZX=     4.6657
   XY=     0.8407   YY=    18.0532   ZY=     0.0468
   XZ=     6.0883   YZ=     1.4800   ZZ=    33.8392
   Eigenvalues:    18.0025    24.6486    37.0325
     23  O    Isotropic =   225.2360   Anisotropy =    48.1471
   XX=   191.0437   YX=    -4.7258   ZX=    19.6726
   XY=     8.9430   YY=   240.9438   ZY=   -12.7704
   XZ=    37.7694   YZ=     2.2033   ZZ=   243.7204
   Eigenvalues:   178.1498   240.2241   257.3340
     24  H    Isotropic =    26.3859   Anisotropy =    15.0718
   XX=    29.1380   YX=     0.7209   ZX=    -4.8474
   XY=     0.2779   YY=    18.1143   ZY=     1.2452
   XZ=    -6.5595   YZ=     1.7947   ZZ=    31.9054
   Eigenvalues:    17.8126    24.9113    36.4338
     25  O    Isotropic =   298.7242   Anisotropy =    41.6752
   XX=   310.9712   YX=    10.6885   ZX=    27.0119
   XY=    -3.0745   YY=   301.1209   ZY=     4.5610
   XZ=    23.6058   YZ=    -6.1343   ZZ=   284.0806
   Eigenvalues:   268.6524   301.0126   326.5077
     26  H    Isotropic =    29.1340   Anisotropy =    19.3238
   XX=    37.6695   YX=     1.9982   ZX=     8.9446
   XY=     0.2508   YY=    27.7377   ZY=     2.8152
   XZ=     8.9816   YZ=     1.8328   ZZ=    21.9950
   Eigenvalues:    17.6511    27.7344    42.0165
     27  C    Isotropic =   174.7969   Anisotropy =    32.5380
   XX=   169.7507   YX=    -2.6137   ZX=     8.4968
   XY=    -2.3764   YY=   165.5305   ZY=   -14.1645
   XZ=     1.7590   YZ=   -12.9158   ZZ=   189.1093
   Eigenvalues:   159.3642   168.5375   196.4889
     28  H    Isotropic =    30.7378   Anisotropy =     9.9461
   XX=    35.2412   YX=    -0.7544   ZX=     3.4421
   XY=    -1.1721   YY=    27.6708   ZY=    -1.0181
   XZ=     4.4063   YZ=    -0.9682   ZZ=    29.3014
   Eigenvalues:    26.9604    27.8844    37.3685
     29  H    Isotropic =    30.1684   Anisotropy =     8.0942
   XX=    28.2744   YX=     0.0159   ZX=     2.1038
   XY=    -0.6998   YY=    33.9929   ZY=    -2.3390
   XZ=     2.4366   YZ=    -3.8660   ZZ=    28.2379
   Eigenvalues:    25.4634    29.4773    35.5645
     30  H    Isotropic =    29.9197   Anisotropy =     7.6415
   XX=    28.5866   YX=    -2.5490   ZX=    -0.7498
   XY=    -2.4546   YY=    26.3702   ZY=    -0.5187
   XZ=    -1.3993   YZ=     0.6767   ZZ=    34.8021
   Eigenvalues:    24.7150    30.0300    35.0140
     31  O    Isotropic =   255.2982   Anisotropy =    76.3162
   XX=   227.0253   YX=   -18.4685   ZX=   -10.0208
   XY=   -15.1841   YY=   244.1273   ZY=    14.6667
   XZ=   -24.3540   YZ=    20.4667   ZZ=   294.7420
   Eigenvalues:   216.2317   243.4873   306.1757
     32  H    Isotropic =    28.3681   Anisotropy =    14.2780
   XX=    27.3687   YX=     1.6538   ZX=    -3.4015
   XY=     2.0694   YY=    35.5189   ZY=     5.7367
   XZ=    -1.7659   YZ=     6.2498   ZZ=    22.2166
   Eigenvalues:    18.8032    28.4143    37.8867
     33  H    Isotropic =    29.9271   Anisotropy =     9.5375
   XX=    29.5012   YX=     2.0224   ZX=     0.6573
   XY=     2.3629   YY=    35.1928   ZY=     2.1264
   XZ=     0.7987   YZ=     1.5354   ZZ=    25.0872
   Eigenvalues:    24.7390    28.7568    36.2854
     34  C    Isotropic =    42.1291   Anisotropy =   182.0573
   XX=    52.5251   YX=   112.7928   ZX=     5.5667
   XY=   112.2452   YY=    39.3581   ZY=    28.9855
   XZ=     6.5649   YZ=    30.6634   ZZ=    34.5039
   Eigenvalues:   -69.7962    32.6828   163.5006
     35  C    Isotropic =    85.9900   Anisotropy =   112.4084
   XX=    87.4621   YX=    75.1400   ZX=   -13.1597
   XY=    79.8343   YY=    76.8790   ZY=    21.7263
   XZ=   -18.1083   YZ=    35.6315   ZZ=    93.6290
   Eigenvalues:    -5.6185   102.6597   160.9290
     36  H    Isotropic =    26.2985   Anisotropy =     5.0653
   XX=    24.5861   YX=     0.9450   ZX=    -2.0115
   XY=     0.8349   YY=    25.5966   ZY=    -0.9241
   XZ=    -0.8704   YZ=    -1.5222   ZZ=    28.7127
   Eigenvalues:    23.9478    25.2723    29.6754
     37  H    Isotropic =    26.1034   Anisotropy =     5.9857
   XX=    24.7332   YX=     0.2440   ZX=     0.3903
   XY=     1.5964   YY=    24.0813   ZY=    -2.4512
   XZ=    -2.4208   YZ=    -0.2835   ZZ=    29.4956
   Eigenvalues:    23.3726    24.8437    30.0939
     38  C    Isotropic =   166.3922   Anisotropy =    43.5622
   XX=   168.1933   YX=   -26.8440   ZX=    -2.9846
   XY=   -24.8476   YY=   170.7864   ZY=    -3.0785
   XZ=    -7.0039   YZ=    -2.2627   ZZ=   160.1969
   Eigenvalues:   141.9723   161.7707   195.4337
     39  H    Isotropic =    30.5005   Anisotropy =     6.0557
   XX=    32.7634   YX=     0.1771   ZX=    -2.6760
   XY=     1.2172   YY=    32.6644   ZY=    -0.8985
   XZ=    -2.3403   YZ=    -2.7396   ZZ=    26.0737
   Eigenvalues:    24.9377    32.0262    34.5376
     40  H    Isotropic =    30.1719   Anisotropy =     8.6512
   XX=    28.5246   YX=    -3.5382   ZX=     2.3471
   XY=    -2.2561   YY=    31.9669   ZY=    -4.3906
   XZ=     0.4091   YZ=    -2.5511   ZZ=    30.0241
   Eigenvalues:    26.6797    27.8966    35.9393
     41  H    Isotropic =    29.8858   Anisotropy =     8.3423
   XX=    27.2662   YX=    -1.0433   ZX=     0.0380
   XY=    -0.1716   YY=    33.8291   ZY=     3.8866
   XZ=     0.8240   YZ=     2.7489   ZZ=    28.5622
   Eigenvalues:    26.4374    27.7727    35.4474
     42  C    Isotropic =   164.2307   Anisotropy =    30.2212
   XX=   183.7654   YX=     8.5590   ZX=     0.8767
   XY=    -1.4271   YY=   152.4449   ZY=     0.7853
   XZ=     3.6799   YZ=     2.1787   ZZ=   156.4819
   Eigenvalues:   151.7200   156.5940   184.3782
     43  H    Isotropic =    29.2879   Anisotropy =     7.6693
   XX=    29.7143   YX=     1.5333   ZX=     1.6670
   XY=     2.0458   YY=    30.6294   ZY=     4.6275
   XZ=     0.3122   YZ=     3.6947   ZZ=    27.5201
   Eigenvalues:    24.6234    28.8396    34.4008
     44  H    Isotropic =    29.2153   Anisotropy =     7.5987
   XX=    30.2527   YX=     1.3259   ZX=    -2.4173
   XY=     2.7860   YY=    26.6481   ZY=    -3.6697
   XZ=    -1.2891   YZ=    -2.8452   ZZ=    30.7451
   Eigenvalues:    24.6752    28.6896    34.2811
     45  C    Isotropic =   176.2229   Anisotropy =    31.0893
   XX=   183.0277   YX=    -7.2714   ZX=     3.6580
   XY=   -21.3438   YY=   178.5982   ZY=    -5.5084
   XZ=     6.6880   YZ=    -4.0622   ZZ=   167.0430
   Eigenvalues:   165.3185   166.4012   196.9492
     46  H    Isotropic =    30.3012   Anisotropy =    12.0266
   XX=    37.7370   YX=    -0.7567   ZX=     1.4556
   XY=    -2.9966   YY=    26.9521   ZY=    -0.5791
   XZ=     2.0199   YZ=    -0.3362   ZZ=    26.2144
   Eigenvalues:    25.9143    26.6703    38.3189
     47  H    Isotropic =    30.6247   Anisotropy =     7.1515
   XX=    29.6374   YX=    -1.1595   ZX=    -0.3897
   XY=    -1.9442   YY=    29.0730   ZY=    -4.3657
   XZ=    -0.3807   YZ=    -3.0528   ZZ=    33.1638
   Eigenvalues:    26.1959    30.2858    35.3924
     48  H    Isotropic =    30.5908   Anisotropy =     7.1633
   XX=    29.3701   YX=    -1.6833   ZX=     0.5245
   XY=    -2.6976   YY=    32.7787   ZY=     4.0553
   XZ=     1.1575   YZ=     2.9008   ZZ=    29.6234
   Eigenvalues:    26.1771    30.2288    35.3663
 End of Minotr Frequency-dependent properties file   721 does not exist.
 End of Minotr Frequency-dependent properties file   722 does not exist.

 **********************************************************************

            Population analysis using the SCF density.

 **********************************************************************

 Orbital symmetries:
       Occupied  (A) (A) (A) (A) (A) (A) (A) (A) (A) (A) (A) (A)
                 (A) (A) (A) (A) (A) (A) (A) (A) (A) (A) (A) (A)
                 (A) (A) (A) (A) (A) (A) (A) (A) (A) (A) (A) (A)
                 (A) (A) (A) (A) (A) (A) (A) (A) (A) (A) (A) (A)
                 (A) (A) (A) (A) (A) (A) (A) (A) (A) (A) (A) (A)
                 (A) (A) (A) (A) (A) (A) (A) (A) (A) (A) (A) (A)
                 (A) (A) (A) (A) (A) (A) (A) (A) (A) (A) (A)
       Virtual   (A) (A) (A) (A) (A) (A) (A) (A) (A) (A) (A) (A)
                 (A) (A) (A) (A) (A) (A) (A) (A) (A) (A) (A) (A)
                 (A) (A) (A) (A) (A) (A) (A) (A) (A) (A) (A) (A)
                 (A) (A) (A) (A) (A) (A) (A) (A) (A) (A) (A) (A)
                 (A) (A) (A) (A) (A) (A) (A) (A) (A) (A) (A) (A)
                 (A) (A) (A) (A) (A) (A) (A) (A) (A) (A) (A) (A)
                 (A) (A) (A) (A) (A) (A) (A) (A) (A) (A) (A) (A)
                 (A) (A) (A) (A) (A) (A) (A) (A) (A) (A) (A) (A)
                 (A) (A) (A) (A) (A) (A) (A) (A) (A) (A) (A) (A)
                 (A) (A) (A) (A) (A) (A) (A) (A) (A) (A) (A) (A)
                 (A) (A) (A) (A) (A) (A) (A) (A) (A) (A) (A) (A)
                 (A) (A) (A) (A) (A) (A) (A) (A) (A) (A) (A) (A)
                 (A) (A) (A) (A) (A) (A) (A) (A) (A) (A) (A) (A)
                 (A) (A) (A) (A) (A) (A) (A) (A) (A) (A) (A) (A)
                 (A) (A) (A) (A) (A) (A) (A) (A) (A) (A) (A) (A)
                 (A) (A) (A) (A) (A) (A) (A) (A) (A) (A) (A) (A)
                 (A) (A) (A) (A) (A) (A) (A) (A) (A) (A) (A) (A)
                 (A) (A) (A) (A) (A) (A) (A) (A) (A) (A) (A) (A)
                 (A) (A) (A) (A) (A) (A) (A) (A) (A) (A) (A) (A)
                 (A) (A) (A) (A) (A) (A) (A) (A) (A) (A) (A) (A)
                 (A) (A) (A) (A) (A) (A) (A) (A) (A) (A) (A) (A)
                 (A) (A) (A) (A) (A) (A) (A) (A) (A) (A) (A) (A)
                 (A) (A) (A) (A) (A) (A) (A) (A) (A) (A) (A) (A)
                 (A) (A) (A) (A) (A) (A) (A) (A) (A) (A) (A) (A)
                 (A) (A) (A) (A) (A) (A) (A) (A) (A) (A) (A) (A)
                 (A) (A) (A) (A) (A) (A) (A) (A) (A) (A) (A) (A)
                 (A) (A) (A) (A) (A) (A) (A) (A) (A) (A) (A) (A)
                 (A) (A) (A) (A) (A) (A) (A) (A) (A) (A) (A) (A)
                 (A) (A) (A) (A) (A) (A) (A) (A) (A) (A) (A) (A)
                 (A) (A) (A) (A) (A) (A) (A) (A) (A) (A) (A) (A)
                 (A) (A) (A) (A) (A) (A) (A) (A) (A) (A) (A) (A)
                 (A) (A) (A) (A) (A) (A) (A) (A) (A) (A) (A) (A)
                 (A) (A) (A) (A) (A) (A) (A) (A) (A) (A) (A) (A)
                 (A) (A) (A) (A) (A) (A) (A) (A) (A) (A) (A) (A)
                 (A) (A) (A) (A) (A) (A) (A) (A) (A) (A) (A) (A)
                 (A) (A) (A) (A) (A) (A) (A) (A) (A) (A) (A) (A)
                 (A) (A) (A) (A) (A) (A) (A) (A) (A) (A) (A) (A)
                 (A) (A) (A) (A) (A) (A) (A) (A) (A) (A) (A) (A)
                 (A) (A) (A) (A) (A) (A)
 The electronic state is 1-A.
 Alpha  occ. eigenvalues --  -19.28667 -19.28568 -19.25451 -19.24682 -10.32517
 Alpha  occ. eigenvalues --  -10.32471 -10.31001 -10.29989 -10.26985 -10.26877
 Alpha  occ. eigenvalues --  -10.26733 -10.26293 -10.26054 -10.25098 -10.25044
 Alpha  occ. eigenvalues --  -10.24983 -10.24748 -10.24355 -10.23833 -10.23791
 Alpha  occ. eigenvalues --  -10.23371 -10.23365  -1.10553  -1.10060  -1.06716
 Alpha  occ. eigenvalues --   -1.04247  -0.89107  -0.86786  -0.82384  -0.81732
 Alpha  occ. eigenvalues --   -0.78214  -0.76308  -0.76198  -0.74054  -0.70969
 Alpha  occ. eigenvalues --   -0.70191  -0.66988  -0.66463  -0.63613  -0.62971
 Alpha  occ. eigenvalues --   -0.60031  -0.57874  -0.56989  -0.54931  -0.53399
 Alpha  occ. eigenvalues --   -0.52674  -0.52193  -0.50055  -0.48993  -0.48386
 Alpha  occ. eigenvalues --   -0.46946  -0.46570  -0.46397  -0.45274  -0.44990
 Alpha  occ. eigenvalues --   -0.44411  -0.43689  -0.43203  -0.42662  -0.41796
 Alpha  occ. eigenvalues --   -0.41154  -0.40974  -0.40223  -0.39947  -0.39633
 Alpha  occ. eigenvalues --   -0.39315  -0.38767  -0.38281  -0.37151  -0.37015
 Alpha  occ. eigenvalues --   -0.36131  -0.35840  -0.34999  -0.34788  -0.33887
 Alpha  occ. eigenvalues --   -0.32673  -0.32042  -0.31681  -0.29177  -0.28712
 Alpha  occ. eigenvalues --   -0.25897  -0.24505  -0.23800
 Alpha virt. eigenvalues --   -0.00751  -0.00306   0.00026   0.00739   0.01160
 Alpha virt. eigenvalues --    0.01609   0.01765   0.02693   0.02862   0.03192
 Alpha virt. eigenvalues --    0.03797   0.04414   0.04674   0.04917   0.05100
 Alpha virt. eigenvalues --    0.06004   0.06190   0.06711   0.07229   0.07321
 Alpha virt. eigenvalues --    0.07675   0.08172   0.08496   0.08893   0.09177
 Alpha virt. eigenvalues --    0.09859   0.10219   0.10523   0.10814   0.10952
 Alpha virt. eigenvalues --    0.11344   0.11686   0.12169   0.12864   0.12924
 Alpha virt. eigenvalues --    0.12978   0.13294   0.14210   0.14585   0.14644
 Alpha virt. eigenvalues --    0.14763   0.14992   0.15355   0.15856   0.16201
 Alpha virt. eigenvalues --    0.16639   0.16776   0.17298   0.17542   0.17892
 Alpha virt. eigenvalues --    0.18139   0.18402   0.18476   0.18842   0.19197
 Alpha virt. eigenvalues --    0.19555   0.20169   0.20399   0.20637   0.21006
 Alpha virt. eigenvalues --    0.21253   0.21548   0.21789   0.21965   0.22171
 Alpha virt. eigenvalues --    0.22342   0.22530   0.23054   0.23228   0.23554
 Alpha virt. eigenvalues --    0.23807   0.24110   0.24615   0.24865   0.25035
 Alpha virt. eigenvalues --    0.25471   0.25757   0.26024   0.26302   0.26435
 Alpha virt. eigenvalues --    0.26891   0.27016   0.27524   0.28011   0.28318
 Alpha virt. eigenvalues --    0.28602   0.29071   0.29369   0.29544   0.30029
 Alpha virt. eigenvalues --    0.30172   0.30402   0.31218   0.31598   0.31774
 Alpha virt. eigenvalues --    0.32116   0.32376   0.32732   0.33100   0.33618
 Alpha virt. eigenvalues --    0.33951   0.34334   0.34718   0.34856   0.35278
 Alpha virt. eigenvalues --    0.35594   0.36369   0.36446   0.36746   0.37085
 Alpha virt. eigenvalues --    0.37826   0.38853   0.39020   0.39673   0.40279
 Alpha virt. eigenvalues --    0.40902   0.41388   0.41630   0.42439   0.43141
 Alpha virt. eigenvalues --    0.43504   0.43741   0.44050   0.44698   0.45704
 Alpha virt. eigenvalues --    0.45820   0.47005   0.47315   0.47837   0.48805
 Alpha virt. eigenvalues --    0.49150   0.49773   0.51199   0.52042   0.52553
 Alpha virt. eigenvalues --    0.54404   0.59688   0.63658   0.65382   0.68356
 Alpha virt. eigenvalues --    0.68686   0.69135   0.69980   0.70427   0.71370
 Alpha virt. eigenvalues --    0.72325   0.72724   0.73233   0.73335   0.74037
 Alpha virt. eigenvalues --    0.74559   0.75241   0.75877   0.76969   0.77335
 Alpha virt. eigenvalues --    0.77610   0.78303   0.78853   0.79397   0.80717
 Alpha virt. eigenvalues --    0.81191   0.82103   0.82673   0.83719   0.84737
 Alpha virt. eigenvalues --    0.85027   0.86232   0.87074   0.87348   0.88454
 Alpha virt. eigenvalues --    0.89251   0.90188   0.90617   0.91073   0.91579
 Alpha virt. eigenvalues --    0.92694   0.93511   0.94046   0.94744   0.95355
 Alpha virt. eigenvalues --    0.96173   0.96595   0.98263   0.98739   1.00013
 Alpha virt. eigenvalues --    1.00498   1.01578   1.02402   1.03060   1.04692
 Alpha virt. eigenvalues --    1.05666   1.05988   1.06979   1.07516   1.08140
 Alpha virt. eigenvalues --    1.09222   1.10198   1.10407   1.12480   1.12504
 Alpha virt. eigenvalues --    1.12658   1.13486   1.14989   1.15746   1.16059
 Alpha virt. eigenvalues --    1.16694   1.17455   1.17596   1.18220   1.18838
 Alpha virt. eigenvalues --    1.19699   1.20020   1.20553   1.22026   1.22888
 Alpha virt. eigenvalues --    1.23125   1.23395   1.24990   1.26566   1.27273
 Alpha virt. eigenvalues --    1.28272   1.29353   1.29499   1.30309   1.31417
 Alpha virt. eigenvalues --    1.32051   1.32670   1.33956   1.34376   1.34738
 Alpha virt. eigenvalues --    1.35633   1.36651   1.37332   1.38271   1.38668
 Alpha virt. eigenvalues --    1.39561   1.40185   1.41934   1.42701   1.43594
 Alpha virt. eigenvalues --    1.45045   1.45335   1.45959   1.48011   1.48994
 Alpha virt. eigenvalues --    1.49672   1.52919   1.53635   1.54565   1.55284
 Alpha virt. eigenvalues --    1.55412   1.57454   1.58711   1.59594   1.60295
 Alpha virt. eigenvalues --    1.61370   1.63275   1.63722   1.64701   1.68167
 Alpha virt. eigenvalues --    1.68642   1.69906   1.71023   1.73128   1.73953
 Alpha virt. eigenvalues --    1.75500   1.76855   1.78169   1.78373   1.80008
 Alpha virt. eigenvalues --    1.81440   1.81723   1.82027   1.83640   1.85066
 Alpha virt. eigenvalues --    1.85887   1.86481   1.86869   1.88373   1.88936
 Alpha virt. eigenvalues --    1.89537   1.90384   1.90771   1.92333   1.92833
 Alpha virt. eigenvalues --    1.93334   1.94774   1.95195   1.95496   1.96634
 Alpha virt. eigenvalues --    1.96925   1.97551   1.98250   1.99222   2.00008
 Alpha virt. eigenvalues --    2.02793   2.03613   2.05311   2.05925   2.06223
 Alpha virt. eigenvalues --    2.06589   2.06947   2.07381   2.08326   2.08597
 Alpha virt. eigenvalues --    2.10513   2.12298   2.13150   2.13343   2.14491
 Alpha virt. eigenvalues --    2.15084   2.15495   2.16320   2.17027   2.17728
 Alpha virt. eigenvalues --    2.18390   2.19051   2.19479   2.19631   2.20887
 Alpha virt. eigenvalues --    2.22149   2.23633   2.23789   2.24828   2.26065
 Alpha virt. eigenvalues --    2.26451   2.27644   2.29202   2.30083   2.31029
 Alpha virt. eigenvalues --    2.32386   2.32902   2.33691   2.34778   2.36243
 Alpha virt. eigenvalues --    2.37064   2.38140   2.39278   2.40214   2.40643
 Alpha virt. eigenvalues --    2.42477   2.43988   2.45233   2.45616   2.47713
 Alpha virt. eigenvalues --    2.48829   2.49424   2.50458   2.51291   2.52352
 Alpha virt. eigenvalues --    2.53019   2.53381   2.55176   2.55971   2.56738
 Alpha virt. eigenvalues --    2.57832   2.58160   2.58996   2.59442   2.59865
 Alpha virt. eigenvalues --    2.60635   2.61831   2.63126   2.63458   2.64414
 Alpha virt. eigenvalues --    2.65972   2.66556   2.67373   2.68753   2.69551
 Alpha virt. eigenvalues --    2.69789   2.71660   2.72507   2.72736   2.73603
 Alpha virt. eigenvalues --    2.74175   2.75725   2.76290   2.77199   2.77878
 Alpha virt. eigenvalues --    2.79259   2.79966   2.80358   2.82022   2.83698
 Alpha virt. eigenvalues --    2.83721   2.84056   2.85577   2.86596   2.87228
 Alpha virt. eigenvalues --    2.88837   2.89468   2.90035   2.90733   2.91709
 Alpha virt. eigenvalues --    2.91976   2.92972   2.94328   2.95220   2.96347
 Alpha virt. eigenvalues --    3.00846   3.02585   3.03186   3.05260   3.08302
 Alpha virt. eigenvalues --    3.09342   3.10540   3.11228   3.16539   3.18449
 Alpha virt. eigenvalues --    3.21020   3.27379   3.29181   3.30073   3.31015
 Alpha virt. eigenvalues --    3.33132   3.35840   3.36263   3.39284   3.41664
 Alpha virt. eigenvalues --    3.43004   3.45210   3.47162   3.48085   3.50164
 Alpha virt. eigenvalues --    3.51402   3.51829   3.52411   3.53087   3.54466
 Alpha virt. eigenvalues --    3.56282   3.57025   3.59554   3.59722   3.60362
 Alpha virt. eigenvalues --    3.61140   3.61918   3.66317   3.67833   3.76519
 Alpha virt. eigenvalues --    4.36806   4.37388   4.41588   4.46340   4.48700
 Alpha virt. eigenvalues --    4.49641   4.51673   4.54722   4.55148   4.56860
 Alpha virt. eigenvalues --    4.61711   4.64365   4.69989   4.71337   4.73507
 Alpha virt. eigenvalues --    4.76815   4.79644   4.86249   4.88271   4.94991
 Alpha virt. eigenvalues --    5.01137   5.03468
          Condensed to atoms (all electrons):
              1          2          3          4          5          6
     1  C   12.858531  -2.312760  -0.147260   0.081233  -0.243237   0.070775
     2  C   -2.312760   8.855735   0.435278   0.308633  -0.013596  -0.098609
     3  H   -0.147260   0.435278   0.535910  -0.029564  -0.062959  -0.005540
     4  H    0.081233   0.308633  -0.029564   0.530109  -0.064371   0.004701
     5  C   -0.243237  -0.013596  -0.062959  -0.064371   6.901234   0.391608
     6  H    0.070775  -0.098609  -0.005540   0.004701   0.391608   0.541152
     7  C    1.009652  -0.603994   0.042722   0.089040  -1.265963   0.028188
     8  H   -0.007339   0.035852  -0.000156  -0.000125   0.011055  -0.008953
     9  C   -1.294508   0.988300  -0.010333  -0.007013   0.398172  -0.027479
    10  H    0.038621  -0.020650  -0.000057   0.000078  -0.047268   0.001740
    11  C   -1.107047  -1.524092   0.046655  -0.071251   0.630069  -0.033008
    12  H    0.023961  -0.035986  -0.000067   0.001585  -0.026343   0.000004
    13  C   -0.369055   0.018448  -0.000621  -0.002797   0.234922  -0.016863
    14  C   -0.067564  -0.005371   0.000003  -0.000085   0.000189  -0.000030
    15  C   -0.439958   0.121202  -0.001102   0.004622  -0.214125   0.020695
    16  C   -0.343215  -0.153111   0.001115   0.002695  -0.203881  -0.002421
    17  C   -0.070988  -0.003794   0.000069   0.000023  -0.061212  -0.000336
    18  C   -0.019212  -0.003365  -0.000100   0.000493  -0.033580   0.004852
    19  H   -0.000136  -0.000010   0.000000   0.000000   0.000046   0.000000
    20  H   -0.000087   0.000019   0.000000   0.000000   0.000040   0.000000
    21  O    0.015184  -0.007116  -0.000013  -0.000155   0.004640  -0.000021
    22  H    0.000285   0.000319   0.000000   0.000000   0.000482   0.000000
    23  O   -0.019411   0.014223  -0.000001  -0.000016  -0.009630  -0.000472
    24  H    0.001788  -0.000277   0.000000   0.000000   0.000663  -0.000002
    25  O   -0.281872   0.041634  -0.000354   0.000087   0.025662  -0.000121
    26  H    0.050509  -0.009425   0.000004  -0.000004  -0.005270   0.000000
    27  C   -1.089272  -0.171887   0.017875   0.007284  -0.010363  -0.009425
    28  H   -0.145364  -0.010162   0.003253   0.000096   0.020866   0.000098
    29  H   -0.070406   0.031586   0.000127  -0.000136  -0.002636  -0.000039
    30  H   -0.133621   0.051820   0.000323  -0.000077  -0.023975  -0.000310
    31  O    0.342534  -0.187167   0.005173  -0.007550   0.038388  -0.000988
    32  H    0.052372   0.072584  -0.000151   0.000006  -0.008678   0.000003
    33  H    0.009131  -0.003298  -0.001333  -0.005130   0.439633  -0.027542
    34  C   -0.296618   0.319801  -0.005650   0.028402  -0.363060  -0.007764
    35  C   -0.432862   0.250705   0.006802  -0.059345   0.080561  -0.012338
    36  H   -0.001050  -0.000403  -0.000002   0.000117   0.004479   0.000004
    37  H   -0.025770   0.001403   0.000119   0.001074  -0.023903  -0.000045
    38  C    0.251847  -0.175627  -0.002415   0.014406  -0.083344   0.014476
    39  H    0.002556  -0.003039   0.000000   0.000001   0.004395   0.000016
    40  H    0.001204  -0.000798   0.000000   0.000000  -0.002929   0.000003
    41  H   -0.002440   0.003428   0.000000  -0.000003   0.011922  -0.000074
    42  C   -0.011711  -0.000340   0.000000  -0.000004   0.002924  -0.000006
    43  H    0.000002   0.000000   0.000000   0.000000   0.000002   0.000000
    44  H   -0.000006   0.000000   0.000000   0.000000  -0.000011   0.000000
    45  C    0.000023  -0.000068   0.000000   0.000000   0.000154   0.000000
    46  H    0.000000   0.000000   0.000000   0.000000  -0.000001   0.000000
    47  H   -0.000003   0.000000   0.000000   0.000000  -0.000010   0.000000
    48  H    0.000002   0.000000   0.000000   0.000000   0.000001   0.000000
              7          8          9         10         11         12
     1  C    1.009652  -0.007339  -1.294508   0.038621  -1.107047   0.023961
     2  C   -0.603994   0.035852   0.988300  -0.020650  -1.524092  -0.035986
     3  H    0.042722  -0.000156  -0.010333  -0.000057   0.046655  -0.000067
     4  H    0.089040  -0.000125  -0.007013   0.000078  -0.071251   0.001585
     5  C   -1.265963   0.011055   0.398172  -0.047268   0.630069  -0.026343
     6  H    0.028188  -0.008953  -0.027479   0.001740  -0.033008   0.000004
     7  C   14.037027   0.169179  -1.713124   0.142715  -1.756472   0.112988
     8  H    0.169179   0.566553   0.031022  -0.008048  -0.017035  -0.000205
     9  C   -1.713124   0.031022  17.436460   0.288975  -5.989564   0.020313
    10  H    0.142715  -0.008048   0.288975   0.555061  -0.302487   0.004425
    11  C   -1.756472  -0.017035  -5.989564  -0.302487  21.113171   0.134766
    12  H    0.112988  -0.000205   0.020313   0.004425   0.134766   0.556037
    13  C   -1.372138   0.030755   5.066560  -0.175912  -1.749475   0.039292
    14  C   -0.226726  -0.001610  -0.624715   0.005431   0.023324   0.002967
    15  C    0.084588   0.041934  -1.436027   0.230801  -2.965747   0.059906
    16  C    0.006181  -0.046197  -4.044792  -0.034644   2.792380  -0.005738
    17  C   -0.206692  -0.005052  -1.865482  -0.007439   0.493660   0.007580
    18  C    0.604079   0.012906  -1.755503   0.100274  -1.015124   0.012942
    19  H    0.000866   0.000000   0.002782   0.000002  -0.000681   0.000001
    20  H   -0.001674   0.000005  -0.008781  -0.000002  -0.000454   0.000000
    21  O   -0.016112  -0.000031  -0.068800  -0.001635   0.207857  -0.027278
    22  H    0.003526   0.000000   0.023508   0.000005   0.008806   0.000102
    23  O   -0.085390   0.000161   0.021950   0.007375  -0.080807  -0.000025
    24  H   -0.003273   0.000047   0.048395   0.000086   0.000931   0.000000
    25  O    0.042424  -0.000642  -0.268115  -0.006580   0.621799  -0.061490
    26  H   -0.000411   0.000000  -0.159839  -0.000503   0.100400  -0.006367
    27  C   -0.253051   0.002835   0.625166   0.007141  -0.744396   0.019750
    28  H   -0.012519   0.000001  -0.005224  -0.000038   0.064715  -0.000085
    29  H   -0.006906   0.000001   0.004384  -0.000122  -0.028289  -0.000006
    30  H    0.041393  -0.000080  -0.033929  -0.001051   0.080213  -0.000164
    31  O    0.019728   0.000161   0.068962  -0.000477  -0.141789  -0.001186
    32  H   -0.000497   0.000000   0.048511  -0.000013  -0.124038  -0.001410
    33  H   -0.192857  -0.001384   0.038261  -0.000077   0.031403  -0.000010
    34  C   -2.740327  -0.008512  -0.365590   0.032275  -1.077830  -0.034458
    35  C   -1.001467  -0.007358   0.018297   0.012419  -1.546376   0.017431
    36  H    0.019035  -0.000140  -0.013340   0.000004   0.012275   0.000115
    37  H    0.008802  -0.000089   0.010184  -0.000037  -0.004776   0.001072
    38  C    1.079969   0.038991   0.103857   0.001376   0.298449   0.002730
    39  H    0.146163  -0.001245   0.083325  -0.000047   0.020871  -0.000006
    40  H    0.015217   0.000503  -0.007513   0.000003  -0.003405   0.000001
    41  H   -0.099088   0.001680  -0.033014   0.000008  -0.011119   0.000001
    42  C   -0.065174  -0.000392  -0.063569  -0.000689   0.001301   0.000230
    43  H   -0.000047   0.000000   0.000279   0.000000   0.000050   0.000000
    44  H   -0.000204   0.000000   0.000629   0.000000  -0.000198   0.000000
    45  C   -0.000310  -0.000012  -0.000105   0.000015  -0.000760   0.000002
    46  H   -0.000043   0.000000   0.000080   0.000000   0.000005   0.000000
    47  H   -0.000279   0.000000  -0.000061   0.000000  -0.000157   0.000000
    48  H    0.000050   0.000000  -0.000021   0.000000   0.000033   0.000000
             13         14         15         16         17         18
     1  C   -0.369055  -0.067564  -0.439958  -0.343215  -0.070988  -0.019212
     2  C    0.018448  -0.005371   0.121202  -0.153111  -0.003794  -0.003365
     3  H   -0.000621   0.000003  -0.001102   0.001115   0.000069  -0.000100
     4  H   -0.002797  -0.000085   0.004622   0.002695   0.000023   0.000493
     5  C    0.234922   0.000189  -0.214125  -0.203881  -0.061212  -0.033580
     6  H   -0.016863  -0.000030   0.020695  -0.002421  -0.000336   0.004852
     7  C   -1.372138  -0.226726   0.084588   0.006181  -0.206692   0.604079
     8  H    0.030755  -0.001610   0.041934  -0.046197  -0.005052   0.012906
     9  C    5.066560  -0.624715  -1.436027  -4.044792  -1.865482  -1.755503
    10  H   -0.175912   0.005431   0.230801  -0.034644  -0.007439   0.100274
    11  C   -1.749475   0.023324  -2.965747   2.792380   0.493660  -1.015124
    12  H    0.039292   0.002967   0.059906  -0.005738   0.007580   0.012942
    13  C   19.526218  -1.449224  -1.068781  -4.109902  -6.154592  -2.759831
    14  C   -1.449224   9.463574  -1.107312  -0.809347   1.417717   0.707475
    15  C   -1.068781  -1.107312  11.385034  -1.078832  -0.179774   0.918028
    16  C   -4.109902  -0.809347  -1.078832  14.047935   2.899671  -1.996673
    17  C   -6.154592   1.417717  -0.179774   2.899671  11.848157  -2.196216
    18  C   -2.759831   0.707475   0.918028  -1.996673  -2.196216  13.806637
    19  H    0.062437   0.040609  -0.010194  -0.075883   0.301761   0.007431
    20  H    0.061206   0.052555  -0.056093  -0.005280   0.003484   0.293112
    21  O   -0.567823   0.056827  -0.136752   0.479869   0.199713  -0.083184
    22  H    0.157199   0.002614  -0.001616  -0.028631  -0.168330   0.009775
    23  O   -0.191128   0.048431   0.272901   0.041228   0.008052  -0.020509
    24  H    0.135001   0.001514   0.043222  -0.009714  -0.007223  -0.205646
    25  O   -0.181228   0.001081  -0.120874   0.249598   0.044405  -0.024748
    26  H   -0.108148   0.009857  -0.013743   0.112879   0.063619  -0.003697
    27  C    0.200040   0.014106   0.317452   0.003615   0.007544   0.063237
    28  H    0.000655  -0.000013  -0.000334  -0.000275  -0.000028  -0.000026
    29  H    0.000861   0.000027  -0.006062   0.001241   0.000196  -0.000904
    30  H   -0.011929   0.000108   0.002797   0.002997   0.000010   0.000433
    31  O    0.041271  -0.000709   0.021961  -0.040423  -0.003649   0.002757
    32  H    0.003059   0.000030  -0.000588  -0.002345   0.000081  -0.000118
    33  H    0.010455   0.000339  -0.010595   0.005304   0.000407  -0.001587
    34  C    0.628359   0.009330   0.772123  -0.421240   0.119237  -0.225310
    35  C    0.940496  -0.051188   0.391098  -0.905184  -0.265652   0.204191
    36  H   -0.002754  -0.000129  -0.001040   0.003128  -0.001296   0.000557
    37  H   -0.001753  -0.000714   0.001213   0.005197   0.000022  -0.000137
    38  C   -0.349976   0.017454  -0.193421   0.248293   0.039944   0.072819
    39  H   -0.027486   0.001924  -0.044453   0.019006  -0.005563  -0.006769
    40  H    0.001550  -0.000158   0.004324   0.002290  -0.000876   0.003926
    41  H    0.001450   0.001257   0.020886   0.004529   0.002278   0.002409
    42  C   -1.036771  -1.353830   0.259847  -0.016197   0.556451  -0.312629
    43  H    0.005721  -0.204142  -0.022933   0.051003   0.142361  -0.091606
    44  H   -0.006093  -0.225639   0.054729  -0.032381  -0.091729   0.138844
    45  C    0.000849  -0.057629   0.012494  -0.000971   0.040792   0.018691
    46  H    0.002413   0.026522   0.001561   0.002931   0.008750   0.006175
    47  H   -0.005681  -0.036167   0.003420  -0.015090  -0.011485   0.017290
    48  H    0.000364  -0.029247  -0.002782   0.002748   0.015055  -0.017435
             19         20         21         22         23         24
     1  C   -0.000136  -0.000087   0.015184   0.000285  -0.019411   0.001788
     2  C   -0.000010   0.000019  -0.007116   0.000319   0.014223  -0.000277
     3  H    0.000000   0.000000  -0.000013   0.000000  -0.000001   0.000000
     4  H    0.000000   0.000000  -0.000155   0.000000  -0.000016   0.000000
     5  C    0.000046   0.000040   0.004640   0.000482  -0.009630   0.000663
     6  H    0.000000   0.000000  -0.000021   0.000000  -0.000472  -0.000002
     7  C    0.000866  -0.001674  -0.016112   0.003526  -0.085390  -0.003273
     8  H    0.000000   0.000005  -0.000031   0.000000   0.000161   0.000047
     9  C    0.002782  -0.008781  -0.068800   0.023508   0.021950   0.048395
    10  H    0.000002  -0.000002  -0.001635   0.000005   0.007375   0.000086
    11  C   -0.000681  -0.000454   0.207857   0.008806  -0.080807   0.000931
    12  H    0.000001   0.000000  -0.027278   0.000102  -0.000025   0.000000
    13  C    0.062437   0.061206  -0.567823   0.157199  -0.191128   0.135001
    14  C    0.040609   0.052555   0.056827   0.002614   0.048431   0.001514
    15  C   -0.010194  -0.056093  -0.136752  -0.001616   0.272901   0.043222
    16  C   -0.075883  -0.005280   0.479869  -0.028631   0.041228  -0.009714
    17  C    0.301761   0.003484   0.199713  -0.168330   0.008052  -0.007223
    18  C    0.007431   0.293112  -0.083184   0.009775  -0.020509  -0.205646
    19  H    0.517488  -0.000141  -0.018569   0.007989   0.000110   0.000000
    20  H   -0.000141   0.517303   0.000105  -0.000001  -0.017853   0.007964
    21  O   -0.018569   0.000105   8.410609   0.214411  -0.003546   0.000037
    22  H    0.007989  -0.000001   0.214411   0.342229   0.000062   0.000000
    23  O    0.000110  -0.017853  -0.003546   0.000062   8.283140   0.204793
    24  H    0.000000   0.007964   0.000037   0.000000   0.204793   0.360527
    25  O   -0.000045   0.000000   0.009221   0.001146  -0.001496  -0.000052
    26  H   -0.000020   0.000000  -0.000119  -0.000127  -0.000020   0.000000
    27  C   -0.000012   0.000042  -0.013066  -0.000252   0.002262  -0.000268
    28  H    0.000000   0.000000  -0.000006   0.000000   0.000011   0.000000
    29  H    0.000000   0.000000   0.000033   0.000000   0.000005   0.000000
    30  H    0.000000   0.000000   0.000008   0.000000  -0.000082   0.000001
    31  O    0.000000   0.000000  -0.002417   0.000006   0.000267   0.000000
    32  H    0.000000   0.000000   0.000138   0.000000   0.000007   0.000000
    33  H    0.000000   0.000000   0.000006   0.000000  -0.000034   0.000000
    34  C   -0.001158   0.000970  -0.026972  -0.002511   0.053101   0.003287
    35  C    0.000538   0.000074  -0.094813   0.002408   0.011240   0.000616
    36  H    0.000000   0.000000   0.000230  -0.000002  -0.000007   0.000000
    37  H    0.000000   0.000000  -0.000188  -0.000020   0.000019   0.000000
    38  C    0.000310  -0.000352   0.004315  -0.000697  -0.012947  -0.000509
    39  H    0.000000  -0.000015   0.000556   0.000000  -0.000567  -0.000037
    40  H    0.000000   0.000000  -0.000150   0.000000  -0.000031   0.000000
    41  H    0.000000   0.000000  -0.000125   0.000000   0.000036   0.000003
    42  C   -0.011636  -0.022485  -0.010462   0.000716  -0.001090   0.000160
    43  H    0.002219   0.000074  -0.000061   0.000005   0.000040   0.000000
    44  H    0.000077   0.002232   0.000026   0.000000  -0.000060   0.000004
    45  C    0.007049   0.006566  -0.000625   0.000209  -0.000065   0.000099
    46  H   -0.000029  -0.000028  -0.000002   0.000000  -0.000001   0.000000
    47  H    0.000170   0.000012   0.000018   0.000001   0.000000   0.000000
    48  H    0.000011   0.000189   0.000001   0.000000   0.000024   0.000001
             25         26         27         28         29         30
     1  C   -0.281872   0.050509  -1.089272  -0.145364  -0.070406  -0.133621
     2  C    0.041634  -0.009425  -0.171887  -0.010162   0.031586   0.051820
     3  H   -0.000354   0.000004   0.017875   0.003253   0.000127   0.000323
     4  H    0.000087  -0.000004   0.007284   0.000096  -0.000136  -0.000077
     5  C    0.025662  -0.005270  -0.010363   0.020866  -0.002636  -0.023975
     6  H   -0.000121   0.000000  -0.009425   0.000098  -0.000039  -0.000310
     7  C    0.042424  -0.000411  -0.253051  -0.012519  -0.006906   0.041393
     8  H   -0.000642   0.000000   0.002835   0.000001   0.000001  -0.000080
     9  C   -0.268115  -0.159839   0.625166  -0.005224   0.004384  -0.033929
    10  H   -0.006580  -0.000503   0.007141  -0.000038  -0.000122  -0.001051
    11  C    0.621799   0.100400  -0.744396   0.064715  -0.028289   0.080213
[...]
    15  C   -0.138717  -0.013416   0.257687   0.000618  -0.008060  -0.001192
    16  C    0.253177   0.122496   0.121745  -0.000736   0.002130   0.006344
    17  C    0.044727   0.064556   0.031859  -0.000045   0.000173   0.000253
    18  C   -0.029703  -0.005622   0.036919   0.000064  -0.001189  -0.000330
    19  H   -0.000042  -0.000015   0.000001   0.000000   0.000000   0.000000
    20  H   -0.000005   0.000000   0.000025   0.000000   0.000000   0.000000
    21  O    0.007552  -0.001606  -0.014842  -0.000009   0.000050  -0.000020
    22  H    0.001018  -0.000176  -0.000191   0.000000   0.000000   0.000000
    23  O   -0.001382  -0.000066   0.002637   0.000001   0.000010   0.000151
    24  H   -0.000040   0.000000  -0.000194   0.000000   0.000000   0.000001
    25  O    8.490121   0.210978  -0.054665  -0.000746   0.004294  -0.003895
    26  H    0.210978   0.345362  -0.000140   0.000002  -0.000078  -0.000022
    27  C   -0.054665  -0.000140   6.174173   0.451694   0.441367   0.385883
    28  H   -0.000746   0.000002   0.451694   0.536069  -0.028939  -0.027271
    29  H    0.004294  -0.000078   0.441367  -0.028939   0.539357  -0.026804
    30  H   -0.003895  -0.000022   0.385883  -0.027271  -0.026804   0.533172
    31  O   -0.024110   0.000568  -0.083862  -0.001995  -0.005097   0.006939
    32  H    0.019226  -0.000859  -0.046087  -0.000221   0.002648   0.000046
    33  H    0.000045   0.000000  -0.003545  -0.000021   0.000002   0.000026
    34  C   -0.034053  -0.001526   0.089387   0.000922   0.000743   0.003556
    35  C   -0.018976  -0.002648   0.014690   0.000765  -0.000097  -0.000069
    36  H    0.000005   0.000000  -0.000162   0.000000   0.000000   0.000000
    37  H    0.000086   0.000011  -0.000789   0.000000   0.000000  -0.000002
    38  C    0.002522   0.000798  -0.014071  -0.000003  -0.000112  -0.000668
    39  H    0.000050   0.000000  -0.000520   0.000000   0.000000   0.000000
    40  H   -0.000003   0.000000   0.000039   0.000000   0.000000   0.000000
    41  H   -0.000004   0.000000   0.000594   0.000000   0.000000   0.000000
    42  C   -0.000269  -0.000434   0.001966   0.000000  -0.000002  -0.000004
    43  H    0.000000   0.000000   0.000000   0.000000   0.000000   0.000000
    44  H    0.000000   0.000000   0.000000   0.000000   0.000000   0.000000
    45  C    0.000030   0.000009   0.000013   0.000000   0.000000   0.000000
    46  H    0.000000   0.000000   0.000000   0.000000   0.000000   0.000000
    47  H    0.000000   0.000000   0.000000   0.000000   0.000000   0.000000
    48  H    0.000000   0.000000   0.000000   0.000000   0.000000   0.000000
             31         32         33         34         35         36
     1  C    0.288538   0.052408   0.004508  -0.330564  -0.364684   0.000970
     2  C   -0.176679   0.054354  -0.031181   0.335965   0.134685  -0.002135
     3  H    0.006153  -0.000124  -0.000984  -0.004237   0.009989  -0.000002
     4  H    0.000593  -0.000017  -0.005647   0.007910  -0.040965   0.000128
     5  C    0.015739  -0.006068   0.503236  -0.448623  -0.058345   0.004897
     6  H   -0.000345   0.000002  -0.032053  -0.016655   0.004219   0.000005
     7  C    0.028354   0.002194  -0.176216  -2.356589  -1.280987  -0.008279
     8  H    0.000115   0.000000  -0.001826  -0.051149  -0.021564  -0.000147
     9  C    0.054337   0.035427   0.026607  -1.185300  -0.317577  -0.012966
    10  H   -0.000324  -0.000020  -0.000060   0.042738   0.016464   0.000004
    11  C   -0.143963  -0.099886   0.053347  -1.002810  -1.841149   0.011977
    12  H    0.005265  -0.001835  -0.000003  -0.035648   0.016936   0.000130
    13  C    0.038310   0.002104   0.006319  -0.023531   0.800064  -0.002453
    14  C   -0.000469   0.000018   0.000316   0.149394  -0.015536   0.000149
    15  C    0.022050  -0.000877  -0.013216   0.909889   0.543048  -0.001234
    16  C   -0.031283  -0.002665   0.004457   0.230586  -0.862726   0.001727
    17  C   -0.001981  -0.000072   0.000287   0.470171  -0.194403  -0.001201
    18  C    0.002703  -0.000114  -0.001750  -0.246962   0.269410   0.000400
    19  H    0.000000   0.000000   0.000000  -0.000108   0.000471   0.000000
    20  H    0.000000   0.000000   0.000000   0.000073   0.000037   0.000000
    21  O   -0.002762   0.000211   0.000021  -0.053096  -0.089495   0.000175
    22  H    0.000008   0.000000   0.000000  -0.003279   0.002342  -0.000003
    23  O    0.000257   0.000006  -0.000053   0.025347   0.007634  -0.000008
    24  H    0.000000   0.000000   0.000000   0.002046   0.000533   0.000000
    25  O   -0.024110   0.019226   0.000045  -0.034053  -0.018976   0.000005
    26  H    0.000568  -0.000859   0.000000  -0.001526  -0.002648   0.000000
    27  C   -0.083862  -0.046087  -0.003545   0.089387   0.014690  -0.000162
    28  H   -0.001995  -0.000221  -0.000021   0.000922   0.000765   0.000000
    29  H   -0.005097   0.002648   0.000002   0.000743  -0.000097   0.000000
    30  H    0.006939   0.000046   0.000026   0.003556  -0.000069   0.000000
    31  O    8.311047   0.243556  -0.000494   0.000870   0.020497  -0.000027
    32  H    0.243556   0.350445   0.000005  -0.001695   0.002543   0.000000
    33  H   -0.000494   0.000005   0.565759  -0.022759  -0.014744  -0.000039
    34  C    0.000870  -0.001695  -0.022759  12.319833  -0.512784  -0.159317
    35  C    0.020497   0.002543  -0.014744  -0.512784  10.790655   0.559130
    36  H   -0.000027   0.000000  -0.000039  -0.159317   0.559130   0.543300
    37  H    0.000923   0.000003   0.000230  -0.149724   0.575400  -0.036507
    38  C   -0.002523  -0.000249  -0.012786  -1.844215  -1.591324  -0.044685
    39  H   -0.000005   0.000000  -0.000014  -0.332624  -0.088565   0.000213
    40  H    0.000000   0.000000  -0.000052  -0.140583  -0.022882   0.003228
    41  H    0.000002   0.000000   0.000364   0.028454   0.038542   0.000198
    42  C   -0.000037   0.000001   0.000017   0.035606  -0.004902   0.000064
    43  H    0.000000   0.000000   0.000000   0.000061   0.000073   0.000000
    44  H    0.000000   0.000000   0.000000   0.000171   0.000013   0.000000
    45  C    0.000000   0.000000   0.000000   0.003429   0.003035   0.000002
    46  H    0.000000   0.000000   0.000000   0.000035   0.000024   0.000000
    47  H    0.000000   0.000000   0.000000   0.000234   0.000045   0.000000
    48  H    0.000000   0.000000   0.000000  -0.000145  -0.000027   0.000000
             37         38         39         40         41         42
     1  C   -0.010074   0.242269   0.003395   0.001389  -0.003010  -0.017531
     2  C    0.000326  -0.133225  -0.003264  -0.001273   0.003575   0.000689
     3  H    0.000141  -0.003846   0.000000   0.000000   0.000000   0.000000
     4  H    0.000955   0.008865   0.000001   0.000001  -0.000003  -0.000005
     5  C   -0.026553  -0.025933   0.011775  -0.007339   0.012012   0.003972
     6  H   -0.000047   0.003012   0.000016   0.000003  -0.000079   0.000000
     7  C    0.003082   1.102885   0.140200   0.003927  -0.101458  -0.090595
     8  H   -0.000098   0.061396  -0.001005   0.000607   0.001703  -0.000171
     9  C    0.021565   0.282633   0.085327  -0.005756  -0.038959  -0.119038
    10  H   -0.000040   0.000797  -0.000050   0.000003   0.000006  -0.000904
    11  C   -0.039785   0.379523   0.022098  -0.003918  -0.011001  -0.024775
    12  H    0.001151   0.001105  -0.000006   0.000000   0.000000   0.000157
    13  C    0.012729  -0.295745  -0.010323   0.009029  -0.006950  -1.344826
    14  C   -0.001455  -0.013861  -0.005872  -0.000550   0.003447  -1.087170
    15  C    0.000267  -0.243540  -0.054327   0.004193   0.021998   0.340783
    16  C   -0.019277   0.205971   0.002328  -0.003017   0.013587  -0.282108
    17  C   -0.002379  -0.026133  -0.014770  -0.002127   0.004168   0.394269
    18  C    0.000041   0.085153   0.002051   0.004817   0.001107  -0.112559
    19  H    0.000000   0.000123   0.000000   0.000000   0.000000  -0.023828
    20  H    0.000000  -0.000103  -0.000010   0.000000   0.000000  -0.028387
    21  O    0.000420   0.005200   0.000604  -0.000157  -0.000129  -0.011327
    22  H   -0.000017  -0.000190   0.000001  -0.000001   0.000000   0.000518
    23  O    0.000039  -0.005988  -0.000251   0.000032  -0.000154   0.004037
    24  H    0.000000  -0.000481  -0.000044   0.000000   0.000003  -0.000752
    25  O    0.000086   0.002522   0.000050  -0.000003  -0.000004  -0.000269
    26  H    0.000011   0.000798   0.000000   0.000000   0.000000  -0.000434
    27  C   -0.000789  -0.014071  -0.000520   0.000039   0.000594   0.001966
    28  H    0.000000  -0.000003   0.000000   0.000000   0.000000   0.000000
    29  H    0.000000  -0.000112   0.000000   0.000000   0.000000  -0.000002
    30  H   -0.000002  -0.000668   0.000000   0.000000   0.000000  -0.000004
    31  O    0.000923  -0.002523  -0.000005   0.000000   0.000002  -0.000037
    32  H    0.000003  -0.000249   0.000000   0.000000   0.000000   0.000001
    33  H    0.000230  -0.012786  -0.000014  -0.000052   0.000364   0.000017
    34  C   -0.149724  -1.844215  -0.332624  -0.140583   0.028454   0.035606
    35  C    0.575400  -1.591324  -0.088565  -0.022882   0.038542  -0.004902
    36  H   -0.036507  -0.044685   0.000213   0.003228   0.000198   0.000064
    37  H    0.544494  -0.021681  -0.000199   0.000186  -0.000192  -0.000086
    38  C   -0.021681   7.163928   0.588778   0.514167   0.380299  -0.008650
    39  H   -0.000199   0.588778   0.540823  -0.026845  -0.029085  -0.002383
    40  H    0.000186   0.514167  -0.026845   0.544930  -0.026824   0.000201
    41  H   -0.000192   0.380299  -0.029085  -0.026824   0.538367   0.000415
    42  C   -0.000086  -0.008650  -0.002383   0.000201   0.000415   7.370933
    43  H    0.000000  -0.000067   0.000000   0.000000   0.000000   0.470441
    44  H    0.000000  -0.000038   0.000000   0.000000   0.000000   0.504907
    45  C    0.000003  -0.003246  -0.000528   0.000023   0.000015   0.216776
    46  H    0.000000  -0.000003   0.000000   0.000000   0.000000  -0.076504
    47  H    0.000000  -0.000218   0.000000   0.000000   0.000000  -0.035056
    48  H    0.000000  -0.000031  -0.000002   0.000000   0.000000  -0.054708
             43         44         45         46         47         48
     1  C   -0.000001  -0.000007  -0.000149   0.000000  -0.000005   0.000000
     2  C    0.000000   0.000000  -0.000021   0.000000   0.000000   0.000000
     3  H    0.000000   0.000000   0.000000   0.000000   0.000000   0.000000
     4  H    0.000000   0.000000   0.000000   0.000000   0.000000   0.000000
     5  C   -0.000001  -0.000012  -0.000069  -0.000002  -0.000009   0.000005
     6  H    0.000000   0.000000   0.000000   0.000000   0.000000   0.000000
     7  C   -0.000082  -0.000167  -0.002096  -0.000058  -0.000120   0.000061
     8  H    0.000000   0.000000  -0.000015   0.000000   0.000000   0.000000
     9  C   -0.000075  -0.000325  -0.003521   0.000010  -0.000147  -0.000261
    10  H    0.000000   0.000000   0.000010   0.000000   0.000000   0.000000
    11  C   -0.000067  -0.000218  -0.002135   0.000007  -0.000167   0.000018
    12  H    0.000000   0.000000   0.000003   0.000000   0.000000   0.000000
    13  C   -0.000873  -0.011830  -0.006424   0.001012  -0.007705   0.000853
    14  C   -0.157673  -0.170458   0.010258  -0.004219   0.023180   0.028004
    15  C   -0.020549   0.037554   0.007819  -0.000355   0.012547  -0.021149
    16  C    0.030848  -0.028796  -0.017286   0.003990  -0.039324   0.007750
    17  C    0.085895  -0.069394   0.017902   0.007721  -0.059399   0.041331
    18  C   -0.068263   0.077163  -0.016331   0.004748   0.042321  -0.064579
    19  H    0.002461   0.000112   0.003803  -0.000035   0.000198   0.000015
    20  H    0.000112   0.002491   0.003485  -0.000033   0.000016   0.000209
    21  O   -0.000039   0.000010  -0.000708  -0.000003   0.000029   0.000003
    22  H    0.000003   0.000000   0.000191   0.000000   0.000000   0.000000
    23  O    0.000025  -0.000040  -0.000174  -0.000004   0.000002   0.000045
    24  H    0.000000   0.000002   0.000100   0.000000   0.000000   0.000000
    25  O    0.000000   0.000000   0.000030   0.000000   0.000000   0.000000
    26  H    0.000000   0.000000   0.000009   0.000000   0.000000   0.000000
    27  C    0.000000   0.000000   0.000013   0.000000   0.000000   0.000000
    28  H    0.000000   0.000000   0.000000   0.000000   0.000000   0.000000
    29  H    0.000000   0.000000   0.000000   0.000000   0.000000   0.000000
    30  H    0.000000   0.000000   0.000000   0.000000   0.000000   0.000000
    31  O    0.000000   0.000000   0.000000   0.000000   0.000000   0.000000
    32  H    0.000000   0.000000   0.000000   0.000000   0.000000   0.000000
    33  H    0.000000   0.000000   0.000000   0.000000   0.000000   0.000000
    34  C    0.000061   0.000171   0.003429   0.000035   0.000234  -0.000145
    35  C    0.000073   0.000013   0.003035   0.000024   0.000045  -0.000027
    36  H    0.000000   0.000000   0.000002   0.000000   0.000000   0.000000
    37  H    0.000000   0.000000   0.000003   0.000000   0.000000   0.000000
    38  C   -0.000067  -0.000038  -0.003246  -0.000003  -0.000218  -0.000031
    39  H    0.000000   0.000000  -0.000528   0.000000   0.000000  -0.000002
    40  H    0.000000   0.000000   0.000023   0.000000   0.000000   0.000000
    41  H    0.000000   0.000000   0.000015   0.000000   0.000000   0.000000
    42  C    0.470441   0.504907   0.216776  -0.076504  -0.035056  -0.054708
    43  H    0.564396  -0.033501  -0.021983  -0.003349  -0.005030   0.004834
    44  H   -0.033501   0.565095  -0.021527  -0.003414   0.004865  -0.005008
    45  C   -0.021983  -0.021527   5.175507   0.423172   0.419948   0.419036
    46  H   -0.003349  -0.003414   0.423172   0.548711  -0.027112  -0.027039
    47  H   -0.005030   0.004865   0.419948  -0.027112   0.541380  -0.028699
    48  H    0.004834  -0.005008   0.419036  -0.027039  -0.028699   0.541177
 Mulliken atomic charges:
              1
     1  C    0.349652
     2  C   -0.303975
     3  H    0.154640
     4  H    0.156801
     5  C   -0.415872
     6  H    0.159390
     7  C   -0.022557
     8  H    0.145261
     9  C    0.492849
    10  H    0.158286
    11  C   -0.258245
    12  H    0.161768
    13  C    0.527575
    14  C    0.006325
    15  C    0.328175
    16  C   -0.586229
    17  C   -0.894455
    18  C   -0.108558
    19  H    0.149759
    20  H    0.151656
    21  O   -0.598490
    22  H    0.456603
    23  O   -0.604954
    24  H    0.448399
    25  O   -0.654651
    26  H    0.425780
    27  C   -0.323680
    28  H    0.163539
    29  H    0.159889
    30  H    0.167984
    31  O   -0.570868
    32  H    0.395592
    33  H    0.151893
    34  C    0.300557
    35  C   -0.466798
    36  H    0.142461
    37  H    0.146850
    38  C   -0.735810
    39  H    0.173031
    40  H    0.154547
    41  H    0.168990
    42  C   -0.018741
    43  H    0.152402
    44  H    0.152352
    45  C   -0.608356
    46  H    0.152701
    47  H    0.158225
    48  H    0.158306
 Sum of Mulliken atomic charges =   0.00000
 Mulliken charges with hydrogens summed into heavy atoms:
              1
     1  C    0.349652
     2  C    0.007467
     5  C   -0.104588
     7  C    0.122704
     9  C    0.651135
    11  C   -0.096477
    13  C    0.527575
    14  C    0.006325
    15  C    0.328175
    16  C   -0.586229
    17  C   -0.744696
    18  C    0.043098
    21  O   -0.141887
    23  O   -0.156556
    25  O   -0.228872
    27  C    0.167732
    31  O   -0.175276
    34  C    0.300557
    35  C   -0.177488
    38  C   -0.239241
    42  C    0.286013
    45  C   -0.139123
 Sum of Mulliken charges with hydrogens summed into heavy atoms =   0.00000
 Electronic spatial extent (au):  <R**2>=           7106.9939
 Charge=              0.0000 electrons
 Dipole moment (field-independent basis, Debye):
    X=             -7.9521    Y=              1.5321    Z=              1.1395  Tot=              8.1781
 Quadrupole moment (field-independent basis, Debye-Ang):
   XX=           -136.7237   YY=           -138.7589   ZZ=           -120.1526
   XY=              8.2484   XZ=              5.8585   YZ=              5.5376
 Traceless Quadrupole moment (field-independent basis, Debye-Ang):
   XX=             -4.8453   YY=             -6.8805   ZZ=             11.7258
   XY=              8.2484   XZ=              5.8585   YZ=              5.5376
 Octapole moment (field-independent basis, Debye-Ang**2):
  XXX=           -139.3111  YYY=             -7.6937  ZZZ=              1.9039  XYY=              0.1195
  XXY=              3.8073  XXZ=             47.1742  XZZ=            -47.2523  YZZ=            -10.7908
  YYZ=             -8.4047  XYZ=             -9.2558
 Hexadecapole moment (field-independent basis, Debye-Ang**3):
 XXXX=          -6784.8157 YYYY=          -1838.2604 ZZZZ=          -1013.6812 XXXY=            142.9463
 XXXZ=            106.0102 YYYX=            -56.4798 YYYZ=             57.0708 ZZZX=            -61.0680
 ZZZY=             57.8472 XXYY=          -1432.7960 XXZZ=          -1234.7624 YYZZ=           -497.1290
 XXYZ=             22.3879 YYXZ=              8.0617 ZZXY=              3.5395
 N-N= 1.984974873631D+03 E-N=-6.302772094760D+03  KE= 9.931116269941D+02

 Test job not archived.
 1\1\GINC-COMPUTE-10-9\SP\RB3LYP\6-31+G(d,p)\C18H26O4\LPASSAGLIA.IQUIR\
 23-Dec-2022\0\\# B3LYP/6-31+G** geom=allcheck test scrf=(pcm,solvent=w
 ater,smd,dovacuum)\\comment\\0,1\C,0,1.825606664,2.524725861,-1.614498
 324\C,0,1.027383344,3.550197439,-0.804420121\H,0,1.575061698,4.5009079
 57,-0.760894127\H,0,0.100141176,3.798237622,-1.332499585\C,0,0.7168944
 08,3.080775151,0.614642898\H,0,1.65140062,3.090120111,1.191063798\C,0,
 0.105884559,1.664544575,0.716901586\H,0,0.276519175,1.379817368,1.7660
 79945\C,0,0.893480875,0.6250373,-0.147949024\H,0,1.908655066,0.5704128
 49,0.270731429\C,0,1.120272763,1.142622203,-1.589383286\H,0,0.1794639,
 1.248877633,-2.135998146\C,0,0.351428031,-0.800425211,0.03953507\C,0,-
 0.646358534,-3.420685013,0.554973193\C,0,0.670086323,-1.499975601,1.22
 0627248\C,0,-0.484191457,-1.459639751,-0.87195398\C,0,-0.979454509,-2.
 745894226,-0.623179168\C,0,0.182899302,-2.784393968,1.481132717\H,0,-1
 .621159357,-3.235992484,-1.351066483\H,0,0.440954162,-3.294805646,2.40
 4922983\O,0,-0.818950564,-0.860120884,-2.052609349\H,0,-1.593604723,-1
 .313320395,-2.426279764\O,0,1.480150461,-0.899916453,2.149575574\H,0,1
 .646902218,-1.523712819,2.874661768\O,0,1.920178775,0.22817115,-2.3620
 97198\H,0,1.371875325,-0.576421796,-2.441400834\C,0,3.292003048,2.4754
 28881,-1.159013149\H,0,3.758429189,3.462033436,-1.26672044\H,0,3.88068
 7184,1.796801388,-1.786254494\H,0,3.403963742,2.163497774,-0.117543435
 \O,0,1.852717341,2.975169509,-2.982100806\H,0,2.178726337,2.20474254,-
 3.489493416\H,0,0.062957443,3.814191971,1.103340509\C,0,-1.420116957,1
 .666460214,0.55209345\C,0,-2.087269505,2.063094686,-0.544577804\H,0,-3
 .172663779,2.039932737,-0.583056546\H,0,-1.594292705,2.416326346,-1.44
 0971759\C,0,-2.18984172,1.184291815,1.757645686\H,0,-1.915866982,0.153
 421504,2.001878604\H,0,-3.272767834,1.207509208,1.595487794\H,0,-1.971
 93747,1.818413261,2.623339899\C,0,-1.193354672,-4.797240624,0.83230815
 6\H,0,-1.311781773,-5.344529036,-0.110819503\H,0,-0.469903084,-5.36968
 5236,1.425587855\C,0,-2.525787804,-4.738379997,1.563550426\H,0,-2.8990
 62241,-5.749945163,1.751932281\H,0,-3.278649062,-4.20291147,0.97518180
 4\H,0,-2.427708398,-4.227766715,2.52758607\\Version=EM64L-G09RevC.01\S
 tate=1-A\HF=-1002.5457919\RMSD=4.087e-09\Dipole=-1.232881,-2.4526559,1
 .6783379\Quadrupole=-2.352805,0.8279627,1.5248423,2.0076304,9.4951581,
 5.7131331\PG=C01 [X(C18H26O4)]\\@


 ERROR IS A HARDY PLANT... IT FLOURISHETH IN EVERY SOIL.
            MARTIN FARQUHAR TUPPER
 Job cpu time:  0 days  5 hours 37 minutes  0.8 seconds.
 File lengths (MBytes):  RWF=    241 Int=      0 D2E=      0 Chk=     19 Scr=      1
 Normal termination of Gaussian 09 at Fri Dec 23 18:24:17 2022.
