 Entering Gaussian System, Link 0=g09
 Input=/home/lpassaglia.iquir/Link1/02_RSSS_THC_007.gjc
 Output=/home/lpassaglia.iquir/Link1/02_RSSS_THC_007.log
 Initial command:
 /share/apps/Gaussian09/EM64T.SSE4.2-enabled/g09/l1.exe /tmp/Gau-30811.inp -scrdir=/tmp/
 Entering Link 1 = /share/apps/Gaussian09/EM64T.SSE4.2-enabled/g09/l1.exe PID=     30813.
  
 Copyright (c) 1988,1990,1992,1993,1995,1998,2003,2009,2011,
            Gaussian, Inc.  All Rights Reserved.
  
 This is part of the Gaussian(R) 09 program.  It is based on
 the Gaussian(R) 03 system (copyright 2003, Gaussian, Inc.),
 the Gaussian(R) 98 system (copyright 1998, Gaussian, Inc.),
 the Gaussian(R) 94 system (copyright 1995, Gaussian, Inc.),
 the Gaussian 92(TM) system (copyright 1992, Gaussian, Inc.),
 the Gaussian 90(TM) system (copyright 1990, Gaussian, Inc.),
 the Gaussian 88(TM) system (copyright 1988, Gaussian, Inc.),
 the Gaussian 86(TM) system (copyright 1986, Carnegie Mellon
 University), and the Gaussian 82(TM) system (copyright 1983,
 Carnegie Mellon University). Gaussian is a federally registered
 trademark of Gaussian, Inc.
  
 This software contains proprietary and confidential information,
 including trade secrets, belonging to Gaussian, Inc.
  
 This software is provided under written license and may be
 used, copied, transmitted, or stored only in accord with that
 written license.
  
 The following legend is applicable only to US Government
 contracts under FAR:
  
                    RESTRICTED RIGHTS LEGEND
  
 Use, reproduction and disclosure by the US Government is
 subject to restrictions as set forth in subparagraphs (a)
 and (c) of the Commercial Computer Software - Restricted
 Rights clause in FAR 52.227-19.
  
 Gaussian, Inc.
 340 Quinnipiac St., Bldg. 40, Wallingford CT 06492
  
  
 ---------------------------------------------------------------
 Warning -- This program may not be used in any manner that
 competes with the business of Gaussian, Inc. or will provide
 assistance to any competitor of Gaussian, Inc.  The licensee
 of this program is prohibited from giving any competitor of
 Gaussian, Inc. access to this program.  By using this program,
 the user acknowledges that Gaussian, Inc. is engaged in the
 business of creating and licensing software in the field of
 computational chemistry and represents and warrants to the
 licensee that it is not a competitor of Gaussian, Inc. and that
 it will not use this program in any manner prohibited above.
 ---------------------------------------------------------------
  

 Cite this work as:
 Gaussian 09, Revision C.01,
 M. J. Frisch, G. W. Trucks, H. B. Schlegel, G. E. Scuseria, 
 M. A. Robb, J. R. Cheeseman, G. Scalmani, V. Barone, B. Mennucci, 
 G. A. Petersson, H. Nakatsuji, M. Caricato, X. Li, H. P. Hratchian, 
 A. F. Izmaylov, J. Bloino, G. Zheng, J. L. Sonnenberg, M. Hada, 
 M. Ehara, K. Toyota, R. Fukuda, J. Hasegawa, M. Ishida, T. Nakajima, 
 Y. Honda, O. Kitao, H. Nakai, T. Vreven, J. A. Montgomery, Jr., 
 J. E. Peralta, F. Ogliaro, M. Bearpark, J. J. Heyd, E. Brothers, 
 K. N. Kudin, V. N. Staroverov, T. Keith, R. Kobayashi, J. Normand, 
 K. Raghavachari, A. Rendell, J. C. Burant, S. S. Iyengar, J. Tomasi, 
 M. Cossi, N. Rega, J. M. Millam, M. Klene, J. E. Knox, J. B. Cross, 
 V. Bakken, C. Adamo, J. Jaramillo, R. Gomperts, R. E. Stratmann, 
 O. Yazyev, A. J. Austin, R. Cammi, C. Pomelli, J. W. Ochterski, 
 R. L. Martin, K. Morokuma, V. G. Zakrzewski, G. A. Voth, 
 P. Salvador, J. J. Dannenberg, S. Dapprich, A. D. Daniels, 
 O. Farkas, J. B. Foresman, J. V. Ortiz, J. Cioslowski, 
 and D. J. Fox, Gaussian, Inc., Wallingford CT, 2010.
 
 ******************************************
 Gaussian 09:  EM64L-G09RevC.01 23-Sep-2011
                23-Dec-2022 
 ******************************************
 %chk=02_RSSS_THC_007_optB_NMR
 %nprocshared=4
 Will use up to    4 processors via shared memory.
 ------------------------------------------------
 # mPW1PW91/6-31+G** scrf=(PCM,solvent=water) nmr
 ------------------------------------------------
 1/38=1/1;
 2/12=2,17=6,18=5,40=1/2;
 3/5=1,6=6,7=111,11=2,16=1,25=1,30=1,70=2201,72=1,74=-7/1,2,8,3;
 4//1;
 5/5=2,38=5,53=1/2;
 8/6=1,10=90,11=11/1;
 10/13=100,45=16/2;
 6/7=2,8=2,9=2,10=2,28=1/1;
 99/9=1/99;
 -------
 comment
 -------
 Charge =  0 Multiplicity = 1
 Symbolic Z-Matrix:
 6                     1.55096   2.52265  -1.55919 
 6                     0.76544   3.54749  -0.7407 
 1                     1.29161   4.51104  -0.73972 
 1                    -0.18988   3.75839  -1.23297 
 6                     0.53262   3.09586   0.69597 
 1                     1.49258   3.13962   1.22751 
 6                    -0.03745   1.66669   0.85909 
 1                     0.23033   1.41378   1.89438 
 6                     0.70152   0.60837  -0.04348 
 1                     1.73494   0.5361    0.32621 
 6                     0.84395   1.1463   -1.48936 
 1                    -0.13727   1.2506   -1.96235 
 6                     0.15832  -0.81675   0.17221 
 6                    -0.97173  -3.37161   0.79135 
 6                     0.30809  -1.41809   1.4401 
 6                    -0.50716  -1.58806  -0.79137 
 6                    -1.08383  -2.82618  -0.4882 
 6                    -0.24722  -2.66547   1.75247 
 1                    -1.60265  -3.37087  -1.27397 
 1                    -0.12027  -3.09427   2.74231 
 8                    -0.60234  -1.22649  -2.10503 
 1                     0.29263  -0.90092  -2.34865 
 8                     1.04377  -0.77295   2.40226 
 1                     1.06338  -1.32488   3.20066 
 8                     1.56506   0.21844  -2.32729 
 1                     1.79977   0.74579  -3.12157 
 6                     3.0296    2.474    -1.14851 
 1                     3.49525   3.45835  -1.27748 
 1                     3.59549   1.78798  -1.78852 
 1                     3.17399   2.1706   -0.1086 
 8                     1.53315   2.92106  -2.94406 
 1                     1.87704   3.83109  -2.99459 
 1                    -0.1131    3.82523   1.20154 
 6                    -1.57357   1.65994   0.83362 
 6                    -2.26448   1.52882   1.98214 
 1                    -3.35009   1.50793   1.99673 
 1                    -1.7653    1.42406   2.94064 
 6                    -2.32381   1.78354  -0.46245 
 1                    -2.03837   2.68732  -1.00283 
 1                    -3.40627   1.8465   -0.30099 
 1                    -2.15393   0.91399  -1.10025 
 6                    -1.57203  -4.71583   1.10728 
 1                    -1.88234  -4.74266   2.15897 
 1                    -2.48611  -4.85946   0.51826 
 6                    -0.59839  -5.85103   0.82978 
 1                    -1.06165  -6.81361   1.06836 
 1                     0.30971  -5.75244   1.43419 
 1                    -0.29996  -5.86996  -0.22391 
 
                          Input orientation:                          
 ---------------------------------------------------------------------
 Center     Atomic      Atomic             Coordinates (Angstroms)
 Number     Number       Type             X           Y           Z
 ---------------------------------------------------------------------
      1          6           0        1.550963    2.522646   -1.559186
      2          6           0        0.765435    3.547494   -0.740696
      3          1           0        1.291607    4.511038   -0.739723
      4          1           0       -0.189883    3.758386   -1.232967
      5          6           0        0.532617    3.095861    0.695968
      6          1           0        1.492579    3.139622    1.227506
      7          6           0       -0.037445    1.666693    0.859093
      8          1           0        0.230334    1.413777    1.894376
      9          6           0        0.701516    0.608369   -0.043477
     10          1           0        1.734943    0.536101    0.326207
     11          6           0        0.843947    1.146297   -1.489358
     12          1           0       -0.137268    1.250595   -1.962354
     13          6           0        0.158316   -0.816754    0.172211
     14          6           0       -0.971729   -3.371609    0.791349
     15          6           0        0.308094   -1.418093    1.440101
     16          6           0       -0.507156   -1.588056   -0.791366
     17          6           0       -1.083828   -2.826177   -0.488203
     18          6           0       -0.247222   -2.665466    1.752471
     19          1           0       -1.602648   -3.370872   -1.273967
     20          1           0       -0.120266   -3.094266    2.742307
     21          8           0       -0.602341   -1.226485   -2.105033
     22          1           0        0.292632   -0.900915   -2.348648
     23          8           0        1.043766   -0.772946    2.402264
     24          1           0        1.063384   -1.324883    3.200663
     25          8           0        1.565061    0.218437   -2.327289
     26          1           0        1.799766    0.745786   -3.121574
     27          6           0        3.029602    2.474003   -1.148512
     28          1           0        3.495248    3.458346   -1.277476
     29          1           0        3.595488    1.787985   -1.788517
     30          1           0        3.173992    2.170598   -0.108595
     31          8           0        1.533151    2.921057   -2.944062
     32          1           0        1.877036    3.831092   -2.994590
     33          1           0       -0.113103    3.825232    1.201541
     34          6           0       -1.573571    1.659938    0.833618
     35          6           0       -2.264477    1.528825    1.982135
     36          1           0       -3.350086    1.507930    1.996726
     37          1           0       -1.765303    1.424059    2.940641
     38          6           0       -2.323815    1.783545   -0.462451
     39          1           0       -2.038374    2.687316   -1.002830
     40          1           0       -3.406267    1.846501   -0.300991
     41          1           0       -2.153929    0.913992   -1.100254
     42          6           0       -1.572026   -4.715826    1.107277
     43          1           0       -1.882344   -4.742659    2.158975
     44          1           0       -2.486110   -4.859457    0.518262
     45          6           0       -0.598389   -5.851030    0.829780
     46          1           0       -1.061652   -6.813615    1.068364
     47          1           0        0.309710   -5.752444    1.434194
     48          1           0       -0.299957   -5.869965   -0.223910
 ---------------------------------------------------------------------
                    Distance matrix (angstroms):
                    1          2          3          4          5
     1  C    0.000000
     2  C    1.528822   0.000000
     3  H    2.166216   1.097850   0.000000
     4  H    2.159634   1.095189   1.733374   0.000000
     5  C    2.539946   1.523870   2.154066   2.163731   0.000000
     6  H    2.854772   2.137503   2.406483   3.044253   1.098169
     7  C    3.017246   2.596412   3.523194   2.962285   1.547289
     8  H    3.860148   3.432592   4.202119   3.931164   2.087334
     9  C    2.585225   3.021366   4.007966   3.483114   2.600562
    10  H    2.744980   3.338670   4.139188   4.064369   2.852137
    11  C    1.548898   2.516427   3.476181   2.820913   2.945059
    12  H    2.151925   2.753737   3.763907   2.612238   3.304607
    13  C    4.011084   4.499851   5.522802   4.798716   3.965222
    14  C    6.828706   7.296498   8.342841   7.452917   6.640807
    15  C    5.105866   5.442618   6.393241   5.847154   4.580385
    16  C    4.660823   5.291119   6.359023   5.374023   5.023183
    17  C    6.057973   6.641326   7.716261   6.686575   6.251855
    18  C    6.412257   6.770689   7.751208   7.083926   5.909080
    19  H    6.690304   7.331848   8.413480   7.268006   7.089333
    20  H    7.269495   7.551739   8.482840   7.922531   6.552209
    21  O    4.357826   5.150059   6.194375   5.077358   5.274127
    22  H    3.731945   4.753672   5.733745   4.815253   5.030060
    23  O    5.177960   5.349942   6.152561   5.938836   4.259154
    24  H    6.139819   6.274005   7.045332   6.860567   5.108639
    25  O    2.428900   3.773500   4.584928   4.099830   4.299487
    26  H    2.379115   3.819423   4.484258   4.074470   4.658557
    27  C    1.535381   2.538730   2.708736   3.467255   3.166030
    28  H    2.176038   2.783515   2.500675   3.697593   3.578136
    29  H    2.184582   3.493279   3.717911   4.303504   4.155043
    30  H    2.205079   2.845442   3.069097   3.885992   2.912095
    31  O    1.441156   2.415913   2.728644   2.568621   3.779080
    32  H    1.969451   2.529056   2.426826   2.716754   3.996029
    33  H    3.476703   2.149710   2.492397   2.436635   1.097515
    34  C    4.028956   3.392976   4.337444   3.254052   2.552812
    35  C    5.299644   4.546340   5.380320   4.428517   3.454499
    36  H    6.139580   5.347038   6.168640   5.048005   4.391910
    37  H    5.696749   4.946297   5.693787   5.034881   3.621314
    38  C    4.094265   3.568250   4.537331   3.007883   3.350121
    39  H    3.635930   2.944481   3.805779   2.148738   3.108507
    40  H    5.158911   4.526568   5.418696   3.856036   4.250839
    41  H    4.065047   3.948076   4.994041   3.459143   3.899294
    42  C    8.322172   8.784144   9.835996   8.899401   8.100688
    43  H    8.854207   9.173084  10.203300   9.307925   8.331556
    44  H    8.666556   9.101338  10.181348   9.088822   8.510663
    45  C    8.969131   9.625937  10.649313   9.836802   9.019087
    46  H   10.044677  10.675370  11.707039  10.854645  10.043808
    47  H    8.886964   9.561730  10.537035   9.890360   8.881845
    48  H    8.697401   9.491610  10.514959   9.681708   9.051265
                    6          7          8          9         10
     6  H    0.000000
     7  C    2.155510   0.000000
     8  H    2.239759   1.098855   0.000000
     9  C    2.940819   1.575038   2.150806   0.000000
    10  H    2.765755   2.168770   2.343783   1.099937   0.000000
    11  C    3.431533   2.561813   3.449307   1.549266   2.112460
    12  H    4.049695   2.853711   3.877644   2.190457   3.041905
    13  C    4.306602   2.584113   2.818920   1.540313   2.083192
    14  C    6.975613   5.124642   5.055842   4.397375   4.776257
    15  C    4.713912   3.157986   2.869129   2.542112   2.663744
    16  C    5.515952   3.679407   4.094887   2.616202   3.284513
    17  C    6.721033   4.805830   5.037947   3.896324   4.462471
    18  C    6.082889   4.428287   4.109552   3.852730   4.026566
    19  H    7.630487   5.690067   6.024208   4.760004   5.381869
    20  H    6.614927   5.120555   4.600474   4.705893   4.739083
    21  O    5.878554   4.180386   4.864114   3.052335   3.805330
    22  H    5.527630   4.122034   4.833729   2.785487   3.361566
    23  O    4.109706   3.082569   2.387756   2.829632   2.549774
    24  H    4.899935   3.955287   3.146524   3.793792   3.489520
    25  O    4.601645   3.849480   4.586151   2.472560   2.677837
    26  H    4.973863   4.479858   5.298027   3.271043   3.454760
    27  C    2.907051   3.753533   4.268390   3.181459   2.757970
    28  H    3.222918   4.500541   4.990048   4.177327   3.769614
    29  H    3.917339   4.496972   5.002799   3.579348   3.082352
    30  H    2.356124   3.391706   3.640026   2.925395   2.220696
    31  O    4.177487   4.301650   5.232563   3.801781   4.052579
    32  H    4.295583   4.816714   5.697107   4.525136   4.680261
    33  H    1.746125   2.186844   2.532407   3.544274   3.872966
    34  C    3.427228   1.536352   2.107101   2.655393   3.530827
    35  C    4.156875   2.497980   2.499004   3.707756   4.441054
    36  H    5.167739   3.506138   3.583120   4.624620   5.439909
    37  H    4.061008   2.716101   2.253296   3.956703   4.458190
    38  C    4.388595   2.643411   3.495002   3.272492   4.318752
    39  H    4.200787   2.917558   3.893937   3.570626   4.542245
    40  H    5.292179   3.567504   4.269865   4.298042   5.342524
    41  H    4.865071   2.980789   3.860351   3.060024   4.159438
    42  C    8.432931   6.569100   6.437395   5.902566   6.255306
    43  H    8.624854   6.795082   6.514225   6.337242   6.656510
    44  H    8.962046   6.978736   6.973251   6.354025   6.853191
    45  C    9.239164   7.538678   7.389016   6.646515   6.818612
    46  H   10.276981   8.544496   8.369079   7.709137   7.898738
    47  H    8.972777   7.449486   7.181419   6.541939   6.542532
    48  H    9.300132   7.618597   7.604028   6.557768   6.743970
                   11         12         13         14         15
    11  C    0.000000
    12  H    1.094251   0.000000
    13  C    2.661667   2.986247   0.000000
    14  C    5.376781   5.444628   2.861401   0.000000
    15  C    3.930008   4.347062   1.411236   2.423850   0.000000
    16  C    3.128795   3.092891   1.402227   2.429377   2.381798
    17  C    4.527601   4.437248   2.452926   1.395462   2.763784
    18  C    5.121488   5.398847   2.465647   1.395459   1.400674
    19  H    5.141696   4.896854   3.422856   2.159535   3.851032
    20  H    6.067872   6.404057   3.445296   2.146659   2.165361
    21  O    2.846208   2.524397   2.435635   3.623125   3.665185
    22  H    2.287664   2.227787   2.525837   4.190766   3.823915
    23  O    4.343748   4.953732   2.399809   3.662010   1.372293
    24  H    5.305768   5.893335   3.201385   3.759729   1.918002
    25  O    1.443280   2.023969   3.049270   5.389771   4.295511
    26  H    1.933424   2.313163   3.998113   6.320213   5.264631
    27  C    2.579936   3.491151   4.562639   7.344719   5.408876
    28  H    3.524183   4.305624   5.613661   8.419157   6.428284
    29  H    2.841168   3.775245   4.737433   7.357757   5.613365
    30  H    2.895653   3.904775   4.254107   6.979467   4.846703
    31  O    2.396026   2.558221   5.056932   7.734686   6.288869
    32  H    3.246709   3.432476   5.880910   8.621351   7.048546
    33  H    3.915810   4.079162   4.762481   7.259477   5.265622
    34  C    3.391819   3.169856   3.093687   5.067590   3.658246
    35  C    4.675456   4.490147   3.827205   5.206095   3.949209
    36  H    5.465663   5.105167   4.587145   5.560523   4.717386
    37  H    5.148808   5.169133   4.047933   5.314852   3.824713
    38  C    3.390478   2.704576   3.650387   5.475012   4.560388
    39  H    3.304424   2.568862   4.299381   6.408384   5.322425
    40  H    4.468425   3.715048   4.474718   5.860789   5.242657
    41  H    3.031934   2.218882   3.156125   4.831370   4.237167
    42  C    6.851563   6.861439   4.367057   1.505684   3.810599
    43  H    7.444649   7.479956   4.850181   2.139953   4.045682
    44  H    7.154642   7.000233   4.843159   2.140472   4.527731
    45  C    7.511412   7.644719   5.133121   2.507666   4.565647
    46  H    8.575164   8.664365   6.184961   3.454306   5.579072
    47  H    7.511670   7.796081   5.096720   2.779156   4.334355
    48  H    7.220651   7.331510   5.089387   2.779175   4.791432
                   16         17         18         19         20
    16  C    0.000000
    17  C    1.399071   0.000000
    18  C    2.774794   2.397156   0.000000
    19  H    2.147426   1.087793   3.390296   0.000000
    20  H    3.860725   3.381792   1.086169   4.290038   0.000000
    21  O    1.365839   2.324862   4.132446   2.507924   5.217059
    22  H    1.880678   3.010404   4.497139   3.293587   5.558695
    23  O    3.642669   4.134878   2.381283   5.221820   2.618993
    24  H    4.297924   4.524614   2.368989   5.596080   2.177576
    25  O    3.149057   4.434921   5.314668   4.901735   6.286106
    26  H    4.024746   5.292322   6.291511   5.651278   7.267574
    27  C    5.397827   6.741530   6.750364   7.458958   7.487708
    28  H    6.459236   7.815761   7.790233   8.522135   8.495136
    29  H    5.405891   6.699052   6.865729   7.341606   7.627029
    30  H    5.305140   6.575780   6.209330   7.408257   6.833635
    31  O    5.397134   6.775730   7.512415   7.225706   8.441131
    32  H    6.317098   7.705058   8.321798   8.181505   9.212046
    33  H    5.781924   6.931001   6.515417   7.754405   7.088968
    34  C    3.785139   4.702370   4.616558   5.454522   5.325190
    35  C    4.527188   5.144175   4.659843   5.920072   5.152521
    36  H    5.043891   5.485916   5.206213   6.128106   5.671670
    37  H    4.958190   5.503261   4.521121   6.385980   4.812562
    38  C    3.843973   4.773653   5.386261   5.267509   6.238521
    39  H    4.546224   5.619128   6.281097   6.079886   7.150656
    40  H    4.521227   5.221368   5.878274   5.605417   6.668631
    41  H    3.011232   3.938094   4.958436   4.323673   5.913307
    42  C    3.810739   2.520846   2.524948   2.734988   2.722203
    43  H    4.532899   3.364236   2.674622   3.707441   2.482417
    44  H    4.041466   2.667132   3.368901   2.491681   3.695875
    45  C    4.561730   3.335036   3.335041   3.403743   3.389116
    46  H    5.574273   4.280544   4.282340   4.199008   4.185910
    47  H    4.791921   3.768368   3.152920   4.082050   2.993651
    48  H    4.324313   3.154196   3.765326   3.007505   4.066354
                   21         22         23         24         25
    21  O    0.000000
    22  H    0.983016   0.000000
    23  O    4.819865   4.811626   0.000000
    24  H    5.561900   5.618599   0.970803   0.000000
    25  O    2.614350   1.694839   4.860377   5.761229   0.000000
    26  H    3.270065   2.362306   5.778484   6.693326   0.981872
    27  C    5.272529   4.507927   5.205213   6.100235   2.936320
    28  H    6.278753   5.514283   6.119975   6.989061   3.914683
    29  H    5.177739   4.295671   5.534646   6.402610   2.622287
    30  H    5.457712   4.770143   4.416642   5.255877   3.364846
    31  O    4.739873   4.062127   6.516776   7.483738   2.772288
    32  H    5.702430   5.031845   7.142657   8.101066   3.686990
    33  H    6.057444   5.924941   4.891148   5.648388   5.317691
    34  C    4.232068   4.490824   3.902567   4.633097   4.681908
    35  C    5.201863   5.585528   4.052053   4.550068   5.912158
    36  H    5.643718   6.160698   4.967172   5.380800   6.672223
    37  H    5.816931   6.133284   3.606598   3.952944   6.347907
    38  C    3.836904   4.196410   5.107137   5.878252   4.588086
    39  H    4.312178   4.485556   5.750450   6.586957   4.564459
    40  H    4.534293   5.042128   5.828541   6.503617   5.609864
    41  H    2.828188   3.292117   5.033751   5.819068   3.977473
    42  C    4.840942   5.474843   4.905677   4.777672   6.781187
    43  H    5.673064   6.309372   4.937604   4.630726   7.524868
    44  H    4.860941   5.622333   5.719184   5.682200   7.091837
    45  C    5.477185   5.949786   5.563840   5.372949   7.175376
    46  H    6.441850   6.962045   6.534657   6.260084   8.238921
    47  H    5.817410   6.152033   5.125563   4.826151   7.167710
    48  H    5.019159   5.436646   5.889141   5.851852   6.706052
                   26         27         28         29         30
    26  H    0.000000
    27  C    2.896931   0.000000
    28  H    3.692336   1.096535   0.000000
    29  H    2.467355   1.095653   1.749663   0.000000
    30  H    3.605084   1.092854   1.768554   1.773750   0.000000
    31  O    2.198726   2.379753   2.629831   2.621520   3.360866
    32  H    3.088885   2.564782   2.388730   2.929501   3.573276
    33  H    5.641931   4.150321   4.393214   5.181165   3.906311
    34  C    5.278127   5.077474   5.777882   5.797513   4.867021
    35  C    6.571078   6.222667   6.893660   6.973103   5.861738
    36  H    7.300605   7.178178   7.834738   7.915017   6.887314
    37  H    7.065424   6.388636   7.043027   7.157894   5.852503
    38  C    5.015157   5.441184   6.109887   6.066022   5.522762
    39  H    4.794781   5.074555   5.593826   5.759036   5.313700
    40  H    6.022462   6.521692   7.154193   7.158263   6.591044
    41  H    4.443617   5.413406   6.198254   5.856054   5.563199
    42  C    7.686440   8.829338   9.908653   8.797066   8.451382
    43  H    8.459620   9.335251  10.391544   9.393543   8.860109
    44  H    7.939514   9.326353  10.401306   9.300298   9.047175
    45  C    8.054956   9.294199  10.385705   9.099375   8.913917
    46  H    9.104275  10.388106  11.479612  10.190105  10.002099
    47  H    8.074793   9.041162  10.116297   8.834040   8.564981
    48  H    7.521532   9.031205  10.125758   8.733080   8.759696
                   31         32         33         34         35
    31  O    0.000000
    32  H    0.974153   0.000000
    33  H    4.551232   4.644158   0.000000
    34  C    5.051041   5.592475   2.637580   0.000000
    35  C    6.373987   6.871707   3.242101   1.346712   0.000000
    36  H    7.089028   7.591648   4.059589   2.128833   1.085908
    37  H    6.910176   7.367998   3.394092   2.128836   1.085764
    38  C    4.725306   5.315197   3.438692   1.502644   2.458537
    39  H    4.071708   4.539357   3.140186   2.155015   3.209867
    40  H    5.704240   6.253588   4.125276   2.163543   2.572404
    41  H    4.585030   5.324158   4.235392   2.152467   3.145054
    42  C    9.185720  10.088168   8.665276   6.381634   6.343542
    43  H    9.820343  10.686504   8.800889   6.545622   6.285604
    44  H    9.416929  10.339381   9.028945   6.590500   6.557606
    45  C    9.784419  10.700327   9.695553   7.574010   7.652845
    46  H   10.844187  11.766616  10.681878   8.492247   8.478093
    47  H    9.792627  10.673087   9.589826   7.671430   7.742322
    48  H    9.383047  10.321166   9.801207   7.709727   7.966685
                   36         37         38         39         40
    36  H    0.000000
    37  H    1.846496   0.000000
    38  C    2.678945   3.467304   0.000000
    39  H    3.479781   4.149861   1.091004   0.000000
    40  H    2.323206   3.657785   1.096237   1.752336   0.000000
    41  H    3.372661   4.091458   1.091685   1.779754   1.754066
    42  C    6.533586   6.410676   6.728376   7.712103   6.957857
    43  H    6.422652   6.217163   7.046851   8.076255   7.196583
    44  H    6.593628   6.772744   6.716965   7.711548   6.818192
    45  C    7.942788   7.664486   7.933075   8.850727   8.271324
    46  H    8.680258   8.477017   8.823129   9.772999   9.075789
    47  H    8.150066   7.620844   8.205110   9.092971   8.635004
    48  H    8.286606   8.084826   7.920171   8.766748   8.318590
                   41         42         43         44         45
    41  H    0.000000
    42  C    6.075084   0.000000
    43  H    6.534067   1.096853   0.000000
    44  H    6.005219   1.096867   1.752174   0.000000
    45  C    7.204877   1.521073   2.154944   2.154936   0.000000
    46  H    8.100116   2.159332   2.480287   2.480005   1.094580
    47  H    7.545482   2.173104   2.519935   3.074567   1.095299
    48  H    7.087119   2.173075   3.074558   2.520160   1.095300
                   46         47         48
    46  H    0.000000
    47  H    1.772159   0.000000
    48  H    1.772182   1.770541   0.000000
 Stoichiometry    C18H26O4
 Framework group  C1[X(C18H26O4)]
 Deg. of freedom   138
 Full point group                 C1      NOp   1
 Largest Abelian subgroup         C1      NOp   1
 Largest concise Abelian subgroup C1      NOp   1
                         Standard orientation:                         
 ---------------------------------------------------------------------
 Center     Atomic      Atomic             Coordinates (Angstroms)
 Number     Number       Type             X           Y           Z
 ---------------------------------------------------------------------
      1          6           0        3.182572   -0.905251    0.233759
      2          6           0        3.686592    0.518507   -0.003245
      3          1           0        4.714473    0.620382    0.368719
      4          1           0        3.765410    0.707391   -1.079139
      5          6           0        2.802657    1.570403    0.655811
      6          1           0        2.948665    1.507022    1.742384
      7          6           0        1.287644    1.438756    0.370315
      8          1           0        0.833566    2.002493    1.197053
      9          6           0        0.764111   -0.038839    0.523181
     10          1           0        0.868472   -0.308804    1.584354
     11          6           0        1.706090   -1.018660   -0.220359
     12          1           0        1.674333   -0.842595   -1.299886
     13          6           0       -0.754860   -0.142155    0.289476
     14          6           0       -3.585233   -0.068688   -0.124297
     15          6           0       -1.627156    0.527291    1.174084
     16          6           0       -1.370868   -0.840572   -0.758850
     17          6           0       -2.751126   -0.787761   -0.981335
     18          6           0       -3.012849    0.572755    0.974900
     19          1           0       -3.169441   -1.337147   -1.821859
     20          1           0       -3.653704    1.105867    1.671220
     21          8           0       -0.692059   -1.665033   -1.610317
     22          1           0       -0.084771   -2.184155   -1.037575
     23          8           0       -1.108303    1.140457    2.286741
     24          1           0       -1.837174    1.533670    2.793289
     25          8           0        1.279777   -2.387359   -0.053098
     26          1           0        2.052591   -2.916509   -0.347770
     27          6           0        3.415756   -1.361604    1.681088
     28          1           0        4.483370   -1.320954    1.927942
     29          1           0        3.115061   -2.406015    1.819808
     30          1           0        2.880964   -0.750740    2.412643
     31          8           0        3.936056   -1.809876   -0.597412
     32          1           0        4.880599   -1.675228   -0.400734
     33          1           0        3.159993    2.568619    0.372236
     34          6           0        0.879316    2.199814   -0.900290
     35          6           0        0.250070    3.386279   -0.800368
     36          1           0       -0.062564    3.943052   -1.678696
     37          1           0        0.015856    3.829705    0.162649
     38          6           0        1.159320    1.631683   -2.262922
     39          1           0        2.220846    1.416508   -2.393883
     40          1           0        0.883326    2.332095   -3.059781
     41          1           0        0.583353    0.720521   -2.435611
     42          6           0       -5.073164   -0.034678   -0.352311
     43          1           0       -5.477563    0.923149   -0.002861
     44          1           0       -5.282753   -0.077243   -1.428126
     45          6           0       -5.781531   -1.180058    0.354783
     46          1           0       -6.859414   -1.129166    0.171255
     47          1           0       -5.619397   -1.139854    1.437269
     48          1           0       -5.421915   -2.150906   -0.002727
 ---------------------------------------------------------------------
 Rotational constants (GHZ):      0.4850284      0.1849729      0.1667816
 Standard basis: 6-31+G(d,p) (6D, 7F)
 There are   548 symmetry adapted basis functions of A   symmetry.
 Integral buffers will be    131072 words long.
 Raffenetti 2 integral format.
 Two-electron integral symmetry is turned on.
   548 basis functions,   886 primitive gaussians,   548 cartesian basis functions
    83 alpha electrons       83 beta electrons
       nuclear repulsion energy      1982.3442656785 Hartrees.
 NAtoms=   48 NActive=   48 NUniq=   48 SFac= 1.00D+00 NAtFMM=   60 NAOKFM=F Big=F
 ------------------------------------------------------------------------------
 Polarizable Continuum Model (PCM)
 =================================
 Model                : PCM.
 Atomic radii         : UFF (Universal Force Field).
 Polarization charges : Total charges.
 Charge compensation  : None.
 Solution method      : Matrix inversion.
 Cavity type          : Scaled VdW (van der Waals Surface) (Alpha=1.100).
 Cavity algorithm     : GePol (No added spheres)
                        Default sphere list used, NSphG=   48.
                        Lebedev-Laikov grids with approx.  5.0 points / Ang**2.
                        Smoothing algorithm: Karplus/York (Gamma=1.0000).
                        Polarization charges: spherical gaussians, with
                                              point-specific exponents (IZeta= 3).
                        Self-potential: point-specific (ISelfS= 7).
                        Self-field    : sphere-specific E.n sum rule (ISelfD= 2).
 Solvent              : Water, Eps=  78.355300 Eps(inf)=   1.777849
 ------------------------------------------------------------------------------
 One-electron integrals computed using PRISM.
 NBasis=   548 RedAO= T  NBF=   548
 NBsUse=   545 1.00D-06 NBFU=   545
 Harris functional with IExCor=  908 diagonalized for initial guess.
 ExpMin= 4.38D-02 ExpMax= 5.48D+03 ExpMxC= 8.25D+02 IAcc=2 IRadAn=         4 AccDes= 0.00D+00
 HarFok:  IExCor=  908 AccDes= 0.00D+00 IRadAn=         4 IDoV= 1
 ScaDFX=  1.000000  1.000000  1.000000  1.000000
 FoFCou: FMM=F IPFlag=           0 FMFlag=      100000 FMFlg1=           0
         NFxFlg=           0 DoJE=T BraDBF=F KetDBF=T FulRan=T
         Omega=  0.000000  0.000000  1.000000  0.000000  0.000000 ICntrl=     500 IOpCl=  0
         NMat0=    1 NMatS0=    1 NMatT0=    0 NMatD0=    1 NMtDS0=    0 NMtDT0=    0
         I1Cent=           4 NGrid=           0.
 Petite list used in FoFCou.
 Initial guess orbital symmetries:
       Occupied  (A) (A) (A) (A) (A) (A) (A) (A) (A) (A) (A) (A)
                 (A) (A) (A) (A) (A) (A) (A) (A) (A) (A) (A) (A)
                 (A) (A) (A) (A) (A) (A) (A) (A) (A) (A) (A) (A)
                 (A) (A) (A) (A) (A) (A) (A) (A) (A) (A) (A) (A)
                 (A) (A) (A) (A) (A) (A) (A) (A) (A) (A) (A) (A)
                 (A) (A) (A) (A) (A) (A) (A) (A) (A) (A) (A) (A)
                 (A) (A) (A) (A) (A) (A) (A) (A) (A) (A) (A)
       Virtual   (A) (A) (A) (A) (A) (A) (A) (A) (A) (A) (A) (A)
                 (A) (A) (A) (A) (A) (A) (A) (A) (A) (A) (A) (A)
                 (A) (A) (A) (A) (A) (A) (A) (A) (A) (A) (A) (A)
                 (A) (A) (A) (A) (A) (A) (A) (A) (A) (A) (A) (A)
                 (A) (A) (A) (A) (A) (A) (A) (A) (A) (A) (A) (A)
                 (A) (A) (A) (A) (A) (A) (A) (A) (A) (A) (A) (A)
                 (A) (A) (A) (A) (A) (A) (A) (A) (A) (A) (A) (A)
                 (A) (A) (A) (A) (A) (A) (A) (A) (A) (A) (A) (A)
                 (A) (A) (A) (A) (A) (A) (A) (A) (A) (A) (A) (A)
                 (A) (A) (A) (A) (A) (A) (A) (A) (A) (A) (A) (A)
                 (A) (A) (A) (A) (A) (A) (A) (A) (A) (A) (A) (A)
                 (A) (A) (A) (A) (A) (A) (A) (A) (A) (A) (A) (A)
                 (A) (A) (A) (A) (A) (A) (A) (A) (A) (A) (A) (A)
                 (A) (A) (A) (A) (A) (A) (A) (A) (A) (A) (A) (A)
                 (A) (A) (A) (A) (A) (A) (A) (A) (A) (A) (A) (A)
                 (A) (A) (A) (A) (A) (A) (A) (A) (A) (A) (A) (A)
                 (A) (A) (A) (A) (A) (A) (A) (A) (A) (A) (A) (A)
                 (A) (A) (A) (A) (A) (A) (A) (A) (A) (A) (A) (A)
                 (A) (A) (A) (A) (A) (A) (A) (A) (A) (A) (A) (A)
                 (A) (A) (A) (A) (A) (A) (A) (A) (A) (A) (A) (A)
                 (A) (A) (A) (A) (A) (A) (A) (A) (A) (A) (A) (A)
                 (A) (A) (A) (A) (A) (A) (A) (A) (A) (A) (A) (A)
                 (A) (A) (A) (A) (A) (A) (A) (A) (A) (A) (A) (A)
                 (A) (A) (A) (A) (A) (A) (A) (A) (A) (A) (A) (A)
                 (A) (A) (A) (A) (A) (A) (A) (A) (A) (A) (A) (A)
                 (A) (A) (A) (A) (A) (A) (A) (A) (A) (A) (A) (A)
                 (A) (A) (A) (A) (A) (A) (A) (A) (A) (A) (A) (A)
                 (A) (A) (A) (A) (A) (A) (A) (A) (A) (A) (A) (A)
                 (A) (A) (A) (A) (A) (A) (A) (A) (A) (A) (A) (A)
                 (A) (A) (A) (A) (A) (A) (A) (A) (A) (A) (A) (A)
                 (A) (A) (A) (A) (A) (A) (A) (A) (A) (A) (A) (A)
                 (A) (A) (A) (A) (A) (A) (A) (A) (A) (A) (A) (A)
                 (A) (A) (A) (A) (A) (A) (A) (A) (A) (A) (A) (A)
                 (A) (A) (A) (A) (A) (A) (A) (A) (A) (A) (A) (A)
                 (A) (A) (A) (A) (A) (A) (A) (A) (A) (A) (A) (A)
                 (A) (A) (A) (A) (A) (A) (A) (A) (A) (A) (A) (A)
                 (A) (A) (A) (A) (A) (A) (A) (A) (A) (A) (A) (A)
                 (A) (A) (A) (A) (A) (A) (A) (A) (A) (A) (A) (A)
                 (A) (A) (A) (A) (A) (A)
 The electronic state of the initial guess is 1-A.
 Requested convergence on RMS density matrix=1.00D-08 within 128 cycles.
 Requested convergence on MAX density matrix=1.00D-06.
 Requested convergence on             energy=1.00D-06.
 No special actions if energy rises.
 CoulSu:  requested number of processors reduced to:   3 ShMem   1 Linda.
 CoulSu:  requested number of processors reduced to:   3 ShMem   1 Linda.
 Error on total polarization charges =  0.01909
 SCF Done:  E(RmPW1PW91) =  -1002.30131386     A.U. after   14 cycles
             Convg  =    0.5067D-08             -V/T =  2.0094
 Range of M.O.s used for correlation:     1   545
 NBasis=   548 NAE=    83 NBE=    83 NFC=     0 NFV=     0
 NROrb=    545 NOA=    83 NOB=    83 NVA=   462 NVB=   462

 **** Warning!!: The largest alpha MO coefficient is  0.97463014D+02

 NEqPCM:  Using equilibrium solvation (IEInf=0, Eps=  78.3553, EpsInf=   1.7778)
          Differentiating once with respect to magnetic field using GIAOs.
          Electric field/nuclear overlap derivatives assumed to be zero.
 FoFCou: FMM=F IPFlag=           0 FMFlag=    10101102 FMFlg1=           0
         NFxFlg=    40000000 DoJE=F BraDBF=F KetDBF=T FulRan=T
         Omega=  0.000000  0.000000  1.000000  0.000000  0.000000 ICntrl=    6100 IOpCl=  0
         NMat0=    1 NMatS0=    1 NMatT0=    0 NMatD0=    1 NMtDS0=    0 NMtDT0=    0
         I1Cent=           7 NGrid=        2970.
 Symmetry not used in FoFCou.
          There are     3 degrees of freedom in the 1st order CPHF.  IDoFFX=0.
      3 vectors produced by pass  0 Test12= 1.28D-12 3.33D-08 XBig12= 6.27D+02 3.83D+00.
 AX will form     3 AO Fock derivatives at one time.
      3 vectors produced by pass  1 Test12= 1.28D-12 3.33D-08 XBig12= 1.53D+00 3.41D-01.
      3 vectors produced by pass  2 Test12= 1.28D-12 3.33D-08 XBig12= 5.92D-03 3.13D-02.
      3 vectors produced by pass  3 Test12= 1.28D-12 3.33D-08 XBig12= 3.28D-05 1.75D-03.
      3 vectors produced by pass  4 Test12= 1.28D-12 3.33D-08 XBig12= 1.03D-07 6.20D-05.
      3 vectors produced by pass  5 Test12= 1.28D-12 3.33D-08 XBig12= 3.37D-10 4.70D-06.
      3 vectors produced by pass  6 Test12= 1.28D-12 3.33D-08 XBig12= 1.66D-12 3.01D-07.
 Inverted reduced A of dimension    21 with in-core refinement.
 Calculating GIAO nuclear magnetic shielding tensors.
 SCF GIAO Magnetic shielding tensor (ppm):
      1  C    Isotropic =   120.4074   Anisotropy =    45.5822
   XX=   119.0922   YX=   -10.8290   ZX=   -11.9040
   XY=   -16.9551   YY=   119.9241   ZY=    15.6113
   XZ=   -19.8432   YZ=    15.7141   ZZ=   122.2058
   Eigenvalues:   104.6650   105.7616   150.7955
      2  C    Isotropic =   156.8483   Anisotropy =    30.3224
   XX=   152.0706   YX=     5.1725   ZX=    -3.7440
   XY=     0.2646   YY=   176.6417   ZY=    -2.8630
   XZ=    -1.8001   YZ=    -0.7261   ZZ=   141.8326
   Eigenvalues:   141.0971   152.3845   177.0633
      3  H    Isotropic =    30.0266   Anisotropy =     8.8406
   XX=    35.6015   YX=     0.7421   ZX=     1.1325
   XY=     1.7309   YY=    28.6246   ZY=     0.1862
   XZ=     0.8736   YZ=     0.3482   ZZ=    25.8538
   Eigenvalues:    25.7444    28.4152    35.9203
      4  H    Isotropic =    29.4472   Anisotropy =     6.0632
   XX=    29.0817   YX=    -0.9569   ZX=    -2.6621
   XY=     0.4436   YY=    28.1287   ZY=    -3.0202
   XZ=    -1.7153   YZ=    -2.4486   ZZ=    31.1311
   Eigenvalues:    25.8664    28.9859    33.4893
      5  C    Isotropic =   163.0049   Anisotropy =    28.0153
   XX=   180.2125   YX=    -1.0010   ZX=     8.7368
   XY=    -0.3486   YY=   163.2059   ZY=     1.4091
   XZ=     5.6445   YZ=    -2.8752   ZZ=   145.5964
   Eigenvalues:   144.1441   163.1889   181.6818
      6  H    Isotropic =    29.2721   Anisotropy =     7.6524
   XX=    28.8500   YX=    -0.8923   ZX=     3.4692
   XY=    -0.3665   YY=    27.1812   ZY=     3.5844
   XZ=     2.3523   YZ=     2.5600   ZZ=    31.7852
   Eigenvalues:    24.6671    28.7756    34.3737
      7  C    Isotropic =   150.5976   Anisotropy =    26.0735
   XX=   148.1082   YX=    -7.3088   ZX=     8.8958
   XY=    -0.5198   YY=   151.5187   ZY=   -12.2502
   XZ=     6.5055   YZ=   -13.0922   ZZ=   152.1660
   Eigenvalues:   138.2559   145.5570   167.9799
      8  H    Isotropic =    27.7680   Anisotropy =     7.0210
   XX=    29.5978   YX=    -1.2106   ZX=    -2.8669
   XY=    -0.1180   YY=    27.5741   ZY=     2.6131
   XZ=    -3.8044   YZ=     2.5830   ZZ=    26.1322
   Eigenvalues:    23.2103    27.6451    32.4487
      9  C    Isotropic =   152.0441   Anisotropy =    22.7788
   XX=   151.5045   YX=    -3.2304   ZX=    -5.4965
   XY=     2.0158   YY=   166.9355   ZY=     3.4498
   XZ=    -4.1141   YZ=     1.6953   ZZ=   137.6922
   Eigenvalues:   136.0173   152.8849   167.2299
     10  H    Isotropic =    28.1509   Anisotropy =     4.6462
   XX=    30.4780   YX=    -1.4668   ZX=    -0.9092
   XY=    -3.2682   YY=    23.9607   ZY=    -0.6102
   XZ=     0.4314   YZ=    -0.6213   ZZ=    30.0140
   Eigenvalues:    23.1283    30.0760    31.2484
     11  C    Isotropic =   120.9821   Anisotropy =    42.1011
   XX=   120.7761   YX=    11.7314   ZX=    -2.4221
   XY=    19.5134   YY=   139.1544   ZY=    -6.1054
   XZ=    -4.4649   YZ=    -5.2691   ZZ=   103.0157
   Eigenvalues:   102.0534   111.8434   149.0495
     12  H    Isotropic =    26.3637   Anisotropy =     3.5183
   XX=    25.2037   YX=     0.5625   ZX=     0.7915
   XY=     0.5574   YY=    27.0497   ZY=    -2.4862
   XZ=     0.7760   YZ=    -1.0282   ZZ=    26.8378
   Eigenvalues:    24.2372    26.1448    28.7093
     13  C    Isotropic =    84.7053   Anisotropy =   123.8170
   XX=    39.6880   YX=     9.7434   ZX=    -0.2336
   XY=    17.8156   YY=   129.1372   ZY=   -53.6494
   XZ=   -10.9049   YZ=   -54.5602   ZZ=    85.2906
   Eigenvalues:    37.2237    49.6422   167.2499
     14  C    Isotropic =    50.3079   Anisotropy =   189.2982
   XX=   -28.7485   YX=    18.3208   ZX=   -21.3388
   XY=    16.8494   YY=   120.9780   ZY=   -79.8734
   XZ=   -19.1061   YZ=   -74.8619   ZZ=    58.6944
   Eigenvalues:   -33.2021     7.6192   176.5067
     15  C    Isotropic =    44.3193   Anisotropy =   123.0660
   XX=    36.1676   YX=    -3.6972   ZX=   -26.3006
   XY=    -4.3638   YY=    83.0449   ZY=   -72.7198
   XZ=   -16.6966   YZ=   -65.3940   ZZ=    13.7454
   Eigenvalues:   -34.7726    41.3672   126.3633
     16  C    Isotropic =    43.0887   Anisotropy =   122.5490
   XX=    23.6331   YX=    38.3755   ZX=    17.1231
   XY=    32.0718   YY=    67.5135   ZY=   -58.7248
   XZ=    11.7187   YZ=   -74.7419   ZZ=    38.1196
   Eigenvalues:   -35.1215    39.5996   124.7881
     17  C    Isotropic =    85.0321   Anisotropy =   110.7889
   XX=    75.8667   YX=    -9.0340   ZX=   -28.9040
   XY=   -20.6206   YY=   109.0009   ZY=   -73.0230
   XZ=   -20.5221   YZ=   -59.7576   ZZ=    70.2287
   Eigenvalues:     8.2818    87.9231   158.8914
     18  C    Isotropic =    90.7240   Anisotropy =    97.7794
   XX=    71.1480   YX=    25.0614   ZX=    24.6749
   XY=    21.3032   YY=   119.4755   ZY=   -52.5493
   XZ=    29.4467   YZ=   -51.1997   ZZ=    81.5485
   Eigenvalues:    20.4379    95.8238   155.9103
     19  H    Isotropic =    24.8329   Anisotropy =     7.8664
   XX=    29.5235   YX=    -1.2911   ZX=    -1.2658
   XY=    -0.6206   YY=    21.7466   ZY=     0.9610
   XZ=    -1.8432   YZ=     1.8191   ZZ=    23.2286
   Eigenvalues:    20.9123    23.5092    30.0772
     20  H    Isotropic =    25.2035   Anisotropy =     7.4666
   XX=    28.5602   YX=     1.4521   ZX=     2.1854
   XY=     1.4606   YY=    22.7476   ZY=     2.4182
   XZ=     2.2022   YZ=     2.0833   ZZ=    24.3028
   Eigenvalues:    21.1426    24.2867    30.1812
     21  O    Isotropic =   236.1650   Anisotropy =    60.9995
   XX=   210.6620   YX=    -2.2194   ZX=   -31.6478
   XY=    -4.3371   YY=   261.7772   ZY=   -36.3572
   XZ=   -20.3406   YZ=    -8.8868   ZZ=   236.0558
   Eigenvalues:   191.1116   240.5521   276.8313
     22  H    Isotropic =    22.6168   Anisotropy =    26.7162
   XX=    28.3317   YX=    -6.1106   ZX=    12.3086
   XY=   -10.4446   YY=    20.0748   ZY=    -2.7728
   XZ=    12.4282   YZ=    -2.4303   ZZ=    19.4437
   Eigenvalues:     9.8459    17.5768    40.4275
     23  O    Isotropic =   222.7065   Anisotropy =    42.8684
   XX=   190.9684   YX=     8.5784   ZX=     5.4117
   XY=    29.8307   YY=   229.0318   ZY=    -9.8712
   XZ=    20.0999   YZ=    -3.7520   ZZ=   248.1191
   Eigenvalues:   179.9228   236.9111   251.2854
     24  H    Isotropic =    26.6414   Anisotropy =    15.6026
   XX=    30.2008   YX=    -3.2156   ZX=    -4.2945
   XY=    -3.7073   YY=    21.6927   ZY=     5.8823
   XZ=    -5.3345   YZ=     6.7389   ZZ=    28.0306
   Eigenvalues:    17.7825    25.0985    37.0431
     25  O    Isotropic =   291.4137   Anisotropy =    61.3101
   XX=   287.0565   YX=   -26.3334   ZX=    10.2851
   XY=   -31.0934   YY=   313.2353   ZY=     9.9905
   XZ=     8.3089   YZ=   -11.8230   ZZ=   273.9493
   Eigenvalues:   263.3060   278.6480   332.2871
     26  H    Isotropic =    27.5031   Anisotropy =    18.0215
   XX=    32.7965   YX=    -4.4068   ZX=    -3.4250
   XY=    -6.7941   YY=    32.5500   ZY=     4.6551
   XZ=    -2.1493   YZ=     4.6676   ZZ=    17.1630
   Eigenvalues:    15.7682    27.2238    39.5175
     27  C    Isotropic =   175.0671   Anisotropy =    32.5349
   XX=   170.0395   YX=    -1.7314   ZX=     6.7767
   XY=    -1.7243   YY=   161.6585   ZY=   -10.5605
   XZ=    -0.3925   YZ=    -9.0761   ZZ=   193.5033
   Eigenvalues:   158.8172   169.6270   196.7570
     28  H    Isotropic =    30.9353   Anisotropy =     9.9094
   XX=    34.7613   YX=    -1.0435   ZX=     3.7549
   XY=    -1.1464   YY=    27.5580   ZY=    -1.0461
   XZ=     4.6117   YZ=    -1.0502   ZZ=    30.4866
   Eigenvalues:    27.1985    28.0658    37.5416
     29  H    Isotropic =    29.9134   Anisotropy =     7.9856
   XX=    27.9433   YX=     1.1594   ZX=     1.8249
   XY=     0.5724   YY=    32.6659   ZY=    -3.1834
   XZ=     1.7502   YZ=    -4.7220   ZZ=    29.1310
   Eigenvalues:    25.1666    29.3365    35.2372
     30  H    Isotropic =    29.8099   Anisotropy =     7.6957
   XX=    27.9231   YX=    -2.9301   ZX=    -0.4646
   XY=    -2.9287   YY=    27.1585   ZY=     0.9425
   XZ=    -1.1076   YZ=     2.0385   ZZ=    34.3480
   Eigenvalues:    24.5480    29.9413    34.9403
     31  O    Isotropic =   247.8918   Anisotropy =    66.0432
   XX=   261.5588   YX=   -28.5557   ZX=   -18.1805
   XY=   -16.0078   YY=   224.9280   ZY=    20.3630
   XZ=   -16.2829   YZ=    25.4394   ZZ=   257.1886
   Eigenvalues:   209.6217   242.1332   291.9206
     32  H    Isotropic =    29.9216   Anisotropy =    17.0711
   XX=    40.8876   YX=    -2.1294   ZX=    -0.2482
   XY=    -2.8239   YY=    24.2989   ZY=     1.9938
   XZ=    -0.9715   YZ=     2.5657   ZZ=    24.5784
   Eigenvalues:    22.0471    26.4155    41.3024
     33  H    Isotropic =    29.9294   Anisotropy =     9.0817
   XX=    30.1288   YX=     2.4956   ZX=     0.4353
   XY=     2.8111   YY=    34.7719   ZY=     0.2212
   XZ=     0.3160   YZ=     0.0878   ZZ=    24.8876
   Eigenvalues:    24.8607    28.9437    35.9839
     34  C    Isotropic =    42.3039   Anisotropy =   185.0737
   XX=   134.8686   YX=    56.6668   ZX=     1.1157
   XY=    54.6299   YY=    65.1282   ZY=     1.5387
   XZ=     1.8577   YZ=     1.4264   ZZ=   -73.0851
   Eigenvalues:   -73.1053    34.3306   165.6864
     35  C    Isotropic =    85.2733   Anisotropy =    94.3942
   XX=   138.2021   YX=    16.7445   ZX=    -8.7063
   XY=    14.7554   YY=   123.2574   ZY=     9.1581
   XZ=    -6.6698   YZ=     5.9257   ZZ=    -5.6396
   Eigenvalues:    -6.5956   114.2127   148.2028
     36  H    Isotropic =    26.7626   Anisotropy =     6.8028
   XX=    26.1704   YX=    -1.6717   ZX=     0.4474
   XY=    -1.4848   YY=    30.6272   ZY=    -2.4382
   XZ=    -1.0840   YZ=    -0.1575   ZZ=    23.4903
   Eigenvalues:    23.1359    25.8542    31.2978
     37  H    Isotropic =    26.8211   Anisotropy =     7.7808
   XX=    26.7591   YX=    -2.2453   ZX=    -1.5051
   XY=    -1.1210   YY=    31.4133   ZY=     2.0300
   XZ=    -0.4434   YZ=    -1.2005   ZZ=    22.2911
   Eigenvalues:    22.0875    26.3676    32.0084
     38  C    Isotropic =   171.5991   Anisotropy =    27.3511
   XX=   160.5425   YX=    -6.4300   ZX=    -2.2470
   XY=    -6.4849   YY=   166.5393   ZY=     3.5653
   XZ=    -5.5050   YZ=     6.5740   ZZ=   187.7156
   Eigenvalues:   156.4111   168.5531   189.8332
     39  H    Isotropic =    29.6442   Anisotropy =     5.9249
   XX=    32.3128   YX=    -2.4101   ZX=    -1.1018
   XY=    -1.7353   YY=    26.0829   ZY=    -2.4512
   XZ=    -2.6369   YZ=    -1.2532   ZZ=    30.5369
   Eigenvalues:    24.5355    30.8029    33.5941
     40  H    Isotropic =    29.8368   Anisotropy =     9.0442
   XX=    26.4711   YX=    -1.5131   ZX=     0.2551
   XY=    -0.9050   YY=    29.7728   ZY=    -3.1662
   XZ=     0.7192   YZ=    -4.5280   ZZ=    33.2666
   Eigenvalues:    25.9381    27.7062    35.8663
     41  H    Isotropic =    29.5674   Anisotropy =     5.4513
   XX=    27.1933   YX=     3.2395   ZX=     1.2840
   XY=     3.9742   YY=    30.9923   ZY=    -1.1894
   XZ=     0.3946   YZ=     0.8548   ZZ=    30.5166
   Eigenvalues:    24.9007    30.5999    33.2016
     42  C    Isotropic =   164.9367   Anisotropy =    28.3246
   XX=   183.3672   YX=    -5.7913   ZX=     7.4367
   XY=     5.5626   YY=   154.2234   ZY=     2.0152
   XZ=    -0.5002   YZ=     1.1824   ZZ=   157.2194
   Eigenvalues:   153.4510   157.5393   183.8197
     43  H    Isotropic =    29.2919   Anisotropy =     7.2431
   XX=    30.4020   YX=    -2.3629   ZX=    -0.5909
   XY=    -2.4817   YY=    32.3362   ZY=     1.8475
   XZ=     1.1466   YZ=     1.2353   ZZ=    25.1375
   Eigenvalues:    24.7066    29.0485    34.1206
     44  H    Isotropic =    29.2382   Anisotropy =     7.3251
   XX=    29.7343   YX=     0.5775   ZX=     2.0873
   XY=    -1.1301   YY=    24.7352   ZY=    -1.6705
   XZ=     1.4955   YZ=    -0.4357   ZZ=    33.2450
   Eigenvalues:    24.6062    28.9868    34.1216
     45  C    Isotropic =   177.1024   Anisotropy =    30.2589
   XX=   182.9456   YX=     7.3604   ZX=    -2.9476
   XY=    17.7341   YY=   179.0335   ZY=    -6.8546
   XZ=   -10.6540   YZ=    -8.0184   ZZ=   169.3281
   Eigenvalues:   165.3010   168.7312   197.2750
     46  H    Isotropic =    30.3031   Anisotropy =    12.0057
   XX=    37.7285   YX=     1.6435   ZX=     0.5174
   XY=     3.4417   YY=    27.0074   ZY=    -0.3275
   XZ=    -0.8881   YZ=    -0.4802   ZZ=    26.1735
   Eigenvalues:    25.9236    26.6789    38.3069
     47  H    Isotropic =    30.6394   Anisotropy =     7.5030
   XX=    29.2530   YX=     1.8015   ZX=    -1.1260
   XY=     2.6354   YY=    27.6519   ZY=    -1.7574
   XZ=    -1.5961   YZ=    -0.4219   ZZ=    35.0134
   Eigenvalues:    26.0925    30.1843    35.6414
     48  H    Isotropic =    30.6072   Anisotropy =     7.4490
   XX=    29.4862   YX=     0.7408   ZX=    -1.2378
   XY=     1.2529   YY=    35.1812   ZY=     2.3310
   XZ=    -1.9317   YZ=     0.8948   ZZ=    27.1543
   Eigenvalues:    25.9652    30.2832    35.5732
 End of Minotr Frequency-dependent properties file   721 does not exist.
 End of Minotr Frequency-dependent properties file   722 does not exist.

 **********************************************************************

            Population analysis using the SCF density.

 **********************************************************************

 Orbital symmetries:
       Occupied  (A) (A) (A) (A) (A) (A) (A) (A) (A) (A) (A) (A)
                 (A) (A) (A) (A) (A) (A) (A) (A) (A) (A) (A) (A)
                 (A) (A) (A) (A) (A) (A) (A) (A) (A) (A) (A) (A)
                 (A) (A) (A) (A) (A) (A) (A) (A) (A) (A) (A) (A)
                 (A) (A) (A) (A) (A) (A) (A) (A) (A) (A) (A) (A)
                 (A) (A) (A) (A) (A) (A) (A) (A) (A) (A) (A) (A)
                 (A) (A) (A) (A) (A) (A) (A) (A) (A) (A) (A)
       Virtual   (A) (A) (A) (A) (A) (A) (A) (A) (A) (A) (A) (A)
                 (A) (A) (A) (A) (A) (A) (A) (A) (A) (A) (A) (A)
                 (A) (A) (A) (A) (A) (A) (A) (A) (A) (A) (A) (A)
                 (A) (A) (A) (A) (A) (A) (A) (A) (A) (A) (A) (A)
                 (A) (A) (A) (A) (A) (A) (A) (A) (A) (A) (A) (A)
                 (A) (A) (A) (A) (A) (A) (A) (A) (A) (A) (A) (A)
                 (A) (A) (A) (A) (A) (A) (A) (A) (A) (A) (A) (A)
                 (A) (A) (A) (A) (A) (A) (A) (A) (A) (A) (A) (A)
                 (A) (A) (A) (A) (A) (A) (A) (A) (A) (A) (A) (A)
                 (A) (A) (A) (A) (A) (A) (A) (A) (A) (A) (A) (A)
                 (A) (A) (A) (A) (A) (A) (A) (A) (A) (A) (A) (A)
                 (A) (A) (A) (A) (A) (A) (A) (A) (A) (A) (A) (A)
                 (A) (A) (A) (A) (A) (A) (A) (A) (A) (A) (A) (A)
                 (A) (A) (A) (A) (A) (A) (A) (A) (A) (A) (A) (A)
                 (A) (A) (A) (A) (A) (A) (A) (A) (A) (A) (A) (A)
                 (A) (A) (A) (A) (A) (A) (A) (A) (A) (A) (A) (A)
                 (A) (A) (A) (A) (A) (A) (A) (A) (A) (A) (A) (A)
                 (A) (A) (A) (A) (A) (A) (A) (A) (A) (A) (A) (A)
                 (A) (A) (A) (A) (A) (A) (A) (A) (A) (A) (A) (A)
                 (A) (A) (A) (A) (A) (A) (A) (A) (A) (A) (A) (A)
                 (A) (A) (A) (A) (A) (A) (A) (A) (A) (A) (A) (A)
                 (A) (A) (A) (A) (A) (A) (A) (A) (A) (A) (A) (A)
                 (A) (A) (A) (A) (A) (A) (A) (A) (A) (A) (A) (A)
                 (A) (A) (A) (A) (A) (A) (A) (A) (A) (A) (A) (A)
                 (A) (A) (A) (A) (A) (A) (A) (A) (A) (A) (A) (A)
                 (A) (A) (A) (A) (A) (A) (A) (A) (A) (A) (A) (A)
                 (A) (A) (A) (A) (A) (A) (A) (A) (A) (A) (A) (A)
                 (A) (A) (A) (A) (A) (A) (A) (A) (A) (A) (A) (A)
                 (A) (A) (A) (A) (A) (A) (A) (A) (A) (A) (A) (A)
                 (A) (A) (A) (A) (A) (A) (A) (A) (A) (A) (A) (A)
                 (A) (A) (A) (A) (A) (A) (A) (A) (A) (A) (A) (A)
                 (A) (A) (A) (A) (A) (A) (A) (A) (A) (A) (A) (A)
                 (A) (A) (A) (A) (A) (A) (A) (A) (A) (A) (A) (A)
                 (A) (A) (A) (A) (A) (A) (A) (A) (A) (A) (A) (A)
                 (A) (A) (A) (A) (A) (A) (A) (A) (A) (A) (A) (A)
                 (A) (A) (A) (A) (A) (A) (A) (A) (A) (A) (A) (A)
                 (A) (A) (A) (A) (A) (A) (A) (A) (A) (A) (A) (A)
                 (A) (A) (A) (A) (A) (A) (A) (A) (A) (A) (A) (A)
                 (A) (A) (A) (A) (A) (A)
 The electronic state is 1-A.
 Alpha  occ. eigenvalues --  -19.28379 -19.27381 -19.26053 -19.25714 -10.32271
 Alpha  occ. eigenvalues --  -10.31963 -10.31489 -10.31374 -10.27904 -10.26653
 Alpha  occ. eigenvalues --  -10.26624 -10.26468 -10.26411 -10.24984 -10.24893
 Alpha  occ. eigenvalues --  -10.24803 -10.24790 -10.24104 -10.24062 -10.23913
 Alpha  occ. eigenvalues --  -10.23690 -10.23635  -1.09905  -1.09206  -1.07611
 Alpha  occ. eigenvalues --   -1.05640  -0.88780  -0.87115  -0.82281  -0.82165
 Alpha  occ. eigenvalues --   -0.78481  -0.76899  -0.75756  -0.74082  -0.72134
 Alpha  occ. eigenvalues --   -0.70172  -0.67126  -0.64848  -0.63711  -0.63246
 Alpha  occ. eigenvalues --   -0.60947  -0.59247  -0.56006  -0.54122  -0.53768
 Alpha  occ. eigenvalues --   -0.53038  -0.51993  -0.50800  -0.49797  -0.48492
 Alpha  occ. eigenvalues --   -0.47652  -0.47167  -0.46049  -0.45341  -0.45177
 Alpha  occ. eigenvalues --   -0.44480  -0.43705  -0.43227  -0.42659  -0.42160
 Alpha  occ. eigenvalues --   -0.41944  -0.40825  -0.40677  -0.40446  -0.40082
 Alpha  occ. eigenvalues --   -0.38923  -0.38707  -0.38300  -0.37700  -0.37070
 Alpha  occ. eigenvalues --   -0.35977  -0.35800  -0.35027  -0.34775  -0.33846
 Alpha  occ. eigenvalues --   -0.33111  -0.32271  -0.31446  -0.30540  -0.29944
 Alpha  occ. eigenvalues --   -0.25991  -0.24343  -0.23303
 Alpha virt. eigenvalues --   -0.00599   0.00061   0.00350   0.00475   0.01240
 Alpha virt. eigenvalues --    0.01638   0.01756   0.02587   0.03070   0.03341
 Alpha virt. eigenvalues --    0.04132   0.04380   0.04514   0.04590   0.05189
 Alpha virt. eigenvalues --    0.05762   0.06301   0.06797   0.07217   0.07481
 Alpha virt. eigenvalues --    0.07722   0.08208   0.08651   0.09072   0.09504
 Alpha virt. eigenvalues --    0.09576   0.09882   0.10031   0.10745   0.10871
 Alpha virt. eigenvalues --    0.11352   0.11626   0.12228   0.12627   0.12921
 Alpha virt. eigenvalues --    0.13123   0.13168   0.13897   0.14096   0.14603
 Alpha virt. eigenvalues --    0.14755   0.15349   0.15383   0.15681   0.16097
 Alpha virt. eigenvalues --    0.16597   0.16774   0.17136   0.17433   0.17967
 Alpha virt. eigenvalues --    0.18202   0.18365   0.18690   0.18969   0.19625
 Alpha virt. eigenvalues --    0.19820   0.20205   0.20360   0.20611   0.20897
 Alpha virt. eigenvalues --    0.20947   0.21352   0.21610   0.21698   0.21896
 Alpha virt. eigenvalues --    0.22192   0.22663   0.22777   0.23256   0.23678
 Alpha virt. eigenvalues --    0.23863   0.24344   0.24630   0.24891   0.25067
 Alpha virt. eigenvalues --    0.25390   0.25932   0.26156   0.26383   0.26484
 Alpha virt. eigenvalues --    0.26810   0.27160   0.27830   0.28229   0.28382
 Alpha virt. eigenvalues --    0.28660   0.28802   0.29058   0.29179   0.29413
 Alpha virt. eigenvalues --    0.29768   0.30382   0.30719   0.31068   0.31171
 Alpha virt. eigenvalues --    0.31837   0.32041   0.32147   0.32956   0.33318
 Alpha virt. eigenvalues --    0.33831   0.34771   0.34971   0.35135   0.35424
 Alpha virt. eigenvalues --    0.35547   0.36519   0.36824   0.36945   0.37431
 Alpha virt. eigenvalues --    0.38145   0.38667   0.38718   0.39183   0.39801
 Alpha virt. eigenvalues --    0.40432   0.41014   0.41549   0.42361   0.42789
 Alpha virt. eigenvalues --    0.42825   0.43517   0.44461   0.44640   0.45609
 Alpha virt. eigenvalues --    0.46240   0.46784   0.47006   0.47409   0.48034
 Alpha virt. eigenvalues --    0.48950   0.49821   0.50248   0.51249   0.52392
 Alpha virt. eigenvalues --    0.53665   0.60417   0.63371   0.65347   0.66875
 Alpha virt. eigenvalues --    0.67750   0.69004   0.70032   0.70173   0.71574
 Alpha virt. eigenvalues --    0.72150   0.72325   0.72932   0.74129   0.74336
 Alpha virt. eigenvalues --    0.75039   0.75440   0.75832   0.76473   0.77346
 Alpha virt. eigenvalues --    0.77546   0.78255   0.78889   0.79153   0.80339
 Alpha virt. eigenvalues --    0.80976   0.81537   0.82530   0.82809   0.83951
 Alpha virt. eigenvalues --    0.84691   0.85343   0.86578   0.87122   0.87751
 Alpha virt. eigenvalues --    0.88596   0.89052   0.89893   0.90364   0.91499
 Alpha virt. eigenvalues --    0.91797   0.92890   0.94066   0.94620   0.95255
 Alpha virt. eigenvalues --    0.95605   0.97204   0.98166   0.99334   1.00034
 Alpha virt. eigenvalues --    1.00520   1.01432   1.01817   1.02564   1.04201
 Alpha virt. eigenvalues --    1.05176   1.06414   1.07393   1.08094   1.09069
 Alpha virt. eigenvalues --    1.09956   1.10141   1.11016   1.11954   1.12231
 Alpha virt. eigenvalues --    1.12811   1.13539   1.14388   1.14990   1.15237
 Alpha virt. eigenvalues --    1.16070   1.16374   1.18025   1.18456   1.18696
 Alpha virt. eigenvalues --    1.19624   1.20383   1.21082   1.21585   1.22990
 Alpha virt. eigenvalues --    1.23602   1.24324   1.25125   1.25794   1.26599
 Alpha virt. eigenvalues --    1.28295   1.30029   1.30416   1.31185   1.31492
 Alpha virt. eigenvalues --    1.32332   1.32779   1.33093   1.34520   1.34948
 Alpha virt. eigenvalues --    1.36130   1.37276   1.37681   1.38212   1.39225
 Alpha virt. eigenvalues --    1.39640   1.39873   1.41651   1.42476   1.43868
 Alpha virt. eigenvalues --    1.44000   1.45970   1.47332   1.48221   1.49694
 Alpha virt. eigenvalues --    1.50261   1.51895   1.53321   1.53616   1.54719
 Alpha virt. eigenvalues --    1.55386   1.55612   1.57858   1.59998   1.60315
 Alpha virt. eigenvalues --    1.60720   1.62001   1.63290   1.63647   1.66170
 Alpha virt. eigenvalues --    1.67700   1.69697   1.70512   1.71983   1.73490
 Alpha virt. eigenvalues --    1.75007   1.76433   1.77669   1.78721   1.80053
 Alpha virt. eigenvalues --    1.81349   1.81818   1.83667   1.84048   1.84407
 Alpha virt. eigenvalues --    1.84991   1.85868   1.87066   1.87533   1.88748
 Alpha virt. eigenvalues --    1.89687   1.89975   1.90869   1.91945   1.92386
 Alpha virt. eigenvalues --    1.93378   1.93830   1.94735   1.95717   1.96513
 Alpha virt. eigenvalues --    1.97077   1.97669   1.98252   1.98942   1.99412
 Alpha virt. eigenvalues --    2.01412   2.01872   2.03692   2.05609   2.06584
 Alpha virt. eigenvalues --    2.06821   2.07290   2.07593   2.08102   2.09477
 Alpha virt. eigenvalues --    2.10504   2.12207   2.12466   2.13185   2.13972
 Alpha virt. eigenvalues --    2.14038   2.15325   2.16150   2.16924   2.17506
 Alpha virt. eigenvalues --    2.18241   2.18348   2.19274   2.19643   2.21126
 Alpha virt. eigenvalues --    2.22654   2.23880   2.25043   2.25558   2.25999
 Alpha virt. eigenvalues --    2.26993   2.27978   2.28273   2.29932   2.31102
 Alpha virt. eigenvalues --    2.31684   2.32717   2.33159   2.33951   2.36460
 Alpha virt. eigenvalues --    2.36966   2.37137   2.37647   2.39807   2.40700
 Alpha virt. eigenvalues --    2.41039   2.42182   2.42814   2.44915   2.47133
 Alpha virt. eigenvalues --    2.49613   2.50747   2.51610   2.52035   2.52371
 Alpha virt. eigenvalues --    2.53244   2.54256   2.54581   2.55023   2.55959
 Alpha virt. eigenvalues --    2.56872   2.58611   2.58859   2.59915   2.60645
 Alpha virt. eigenvalues --    2.61153   2.62796   2.63399   2.64238   2.64883
 Alpha virt. eigenvalues --    2.65613   2.67260   2.68103   2.68887   2.70241
 Alpha virt. eigenvalues --    2.71085   2.71487   2.72180   2.72874   2.73681
 Alpha virt. eigenvalues --    2.74272   2.75000   2.76974   2.77522   2.79348
 Alpha virt. eigenvalues --    2.80127   2.80882   2.82211   2.82308   2.83891
 Alpha virt. eigenvalues --    2.84806   2.85855   2.86311   2.87178   2.88067
 Alpha virt. eigenvalues --    2.88766   2.88947   2.90481   2.91140   2.91496
 Alpha virt. eigenvalues --    2.93432   2.94138   2.94937   2.95671   2.96356
 Alpha virt. eigenvalues --    2.98235   3.00299   3.01878   3.02347   3.07527
 Alpha virt. eigenvalues --    3.09174   3.09996   3.10592   3.15059   3.18106
 Alpha virt. eigenvalues --    3.20365   3.27694   3.29313   3.30060   3.31180
 Alpha virt. eigenvalues --    3.32799   3.35833   3.37157   3.38496   3.40818
 Alpha virt. eigenvalues --    3.42335   3.45400   3.46145   3.47417   3.50584
 Alpha virt. eigenvalues --    3.51148   3.51479   3.51753   3.53885   3.54406
 Alpha virt. eigenvalues --    3.55832   3.57298   3.57769   3.58933   3.59794
 Alpha virt. eigenvalues --    3.61710   3.61971   3.65105   3.70875   3.77118
 Alpha virt. eigenvalues --    4.35847   4.38527   4.41220   4.47255   4.48188
 Alpha virt. eigenvalues --    4.49271   4.52119   4.53572   4.54883   4.58517
 Alpha virt. eigenvalues --    4.59919   4.65002   4.70236   4.71036   4.73370
 Alpha virt. eigenvalues --    4.74930   4.78599   4.80775   4.87237   4.94153
 Alpha virt. eigenvalues --    4.98023   5.00552
          Condensed to atoms (all electrons):
              1          2          3          4          5          6
     1  C   12.099143  -1.675159  -0.078941   0.002534  -0.050747   0.049838
     2  C   -1.675159   7.268202   0.424243   0.364336  -0.106410  -0.081553
     3  H   -0.078941   0.424243   0.532058  -0.030178  -0.076365  -0.005383
     4  H    0.002534   0.364336  -0.030178   0.530424  -0.073223   0.004630
     5  C   -0.050747  -0.106410  -0.076365  -0.073223   8.424866   0.361803
     6  H    0.049838  -0.081553  -0.005383   0.004630   0.361803   0.531678
     7  C    0.739540  -0.172389   0.051749   0.096119  -2.882947   0.034322
     8  H    0.000982   0.016291  -0.000150  -0.000122   0.024171  -0.009823
     9  C   -0.655294   0.701808  -0.015974  -0.008847   0.034602  -0.011178
    10  H    0.037120  -0.010760  -0.000044   0.000070  -0.061745   0.001516
    11  C   -3.508267  -0.117903   0.032877  -0.065661   0.765182  -0.057354
    12  H    0.077431  -0.030427  -0.000117   0.001835  -0.050537   0.000019
    13  C   -0.293182   0.009691  -0.002333  -0.002468  -0.026465  -0.011795
    14  C   -0.064592  -0.009363  -0.000007  -0.000036   0.025694  -0.000044
    15  C   -0.133251   0.119113  -0.001106   0.005050  -0.357911   0.024942
    16  C   -0.296147  -0.272182  -0.000284   0.004688   0.061497  -0.004150
    17  C    0.081632  -0.062234  -0.000029   0.000306  -0.007552  -0.000272
    18  C   -0.003884   0.035467  -0.000074   0.000452  -0.138307   0.004633
    19  H   -0.000340   0.000016   0.000000   0.000000  -0.000038   0.000000
    20  H    0.000004   0.000024   0.000000   0.000000   0.000145   0.000000
    21  O   -0.013645   0.018516   0.000001  -0.000164   0.019146  -0.000033
    22  H    0.033784  -0.007131   0.000001   0.000001  -0.005200   0.000000
    23  O   -0.008095   0.005213   0.000000  -0.000008  -0.021292   0.000038
    24  H    0.000799  -0.000207   0.000000   0.000000   0.000415  -0.000001
    25  O    0.185055  -0.007574  -0.000489  -0.000132   0.027711  -0.000197
    26  H   -0.057457   0.028065  -0.000016  -0.000002  -0.000885   0.000001
    27  C   -0.142319  -0.030818  -0.002485   0.009626   0.142476  -0.001471
    28  H   -0.076224  -0.028950   0.003107   0.000072   0.025184   0.000125
    29  H   -0.076884   0.036955   0.000058  -0.000136  -0.003782  -0.000030
    30  H   -0.154951   0.032115   0.000343  -0.000065  -0.024121  -0.000491
    31  O    0.106983  -0.055234  -0.006538  -0.006392   0.022051  -0.000541
    32  H    0.113354  -0.068164   0.003775  -0.000765   0.007033  -0.000002
    33  H    0.001347  -0.001069  -0.001449  -0.004658   0.418601  -0.025137
    34  C   -0.231383   0.039053  -0.003080   0.010650  -0.196536   0.004117
    35  C    0.251358  -0.227795  -0.004125   0.020455   0.137127   0.013741
    36  H    0.001144  -0.001757   0.000000   0.000001   0.003115   0.000004
    37  H    0.002283  -0.002221   0.000000  -0.000001  -0.003322  -0.000053
    38  C   -0.190368   0.145252   0.004916  -0.038337  -0.074144  -0.000213
    39  H   -0.015333  -0.023040   0.000120   0.001429   0.079182  -0.000039
    40  H   -0.002069   0.001230  -0.000002   0.000084  -0.000817   0.000003
    41  H    0.001812   0.013958  -0.000001   0.000061  -0.034551   0.000002
    42  C   -0.005591  -0.000269   0.000000  -0.000001   0.008527   0.000000
    43  H   -0.000004  -0.000001   0.000000   0.000000   0.000023   0.000000
    44  H   -0.000002   0.000000   0.000000   0.000000   0.000007   0.000000
    45  C   -0.000275  -0.000002   0.000000   0.000000  -0.000426   0.000000
    46  H    0.000000   0.000000   0.000000   0.000000   0.000000   0.000000
    47  H   -0.000003   0.000000   0.000000   0.000000  -0.000001   0.000000
    48  H   -0.000006   0.000000   0.000000   0.000000   0.000003   0.000000
              7          8          9         10         11         12
     1  C    0.739540   0.000982  -0.655294   0.037120  -3.508267   0.077431
     2  C   -0.172389   0.016291   0.701808  -0.010760  -0.117903  -0.030427
     3  H    0.051749  -0.000150  -0.015974  -0.000044   0.032877  -0.000117
     4  H    0.096119  -0.000122  -0.008847   0.000070  -0.065661   0.001835
     5  C   -2.882947   0.024171   0.034602  -0.061745   0.765182  -0.050537
     6  H    0.034322  -0.009823  -0.011178   0.001516  -0.057354   0.000019
     7  C   14.552287   0.208299  -2.141482   0.207467  -2.703639   0.140843
     8  H    0.208299   0.559129   0.042111  -0.007884   0.000626  -0.000160
     9  C   -2.141482   0.042111  15.682317   0.286505  -3.966020   0.030797
    10  H    0.207467  -0.007884   0.286505   0.537337  -0.354960   0.004279
    11  C   -2.703639   0.000626  -3.966020  -0.354960  20.145873   0.027405
    12  H    0.140843  -0.000160   0.030797   0.004279   0.027405   0.550455
    13  C   -0.950295   0.006640   3.923689  -0.178604  -0.697215   0.028450
    14  C   -0.089277  -0.001736  -0.761504   0.007945  -0.317828   0.007589
    15  C    0.444185   0.029862  -0.831980   0.245537  -2.569404   0.058916
    16  C   -0.333218  -0.017920  -3.826507  -0.022097   1.451863   0.022583
    17  C   -0.068277  -0.001034  -1.625821  -0.004030   0.110870   0.014492
    18  C    0.348998   0.010564  -1.236011   0.088500  -0.761983   0.009352
    19  H    0.001219   0.000000   0.005936   0.000002  -0.003392   0.000003
    20  H    0.002329   0.000003  -0.006385  -0.000002  -0.000485   0.000000
    21  O   -0.010877  -0.000034  -0.016259  -0.002006   0.101240  -0.011853
    22  H   -0.000709   0.000002  -0.071562   0.000153   0.009530   0.000431
    23  O   -0.108984  -0.008503   0.088807   0.011239  -0.028299  -0.000050
    24  H   -0.005401   0.000090   0.050154   0.000007   0.000464   0.000000
    25  O    0.045473  -0.000434  -0.112503  -0.005804   0.051974  -0.066453
    26  H   -0.018755   0.000004   0.021325  -0.000214   0.025142  -0.004469
    27  C   -0.425950  -0.000991   0.228859  -0.000562  -0.885257   0.013508
    28  H   -0.018849   0.000001  -0.017052  -0.000034   0.061127  -0.000094
    29  H   -0.005987   0.000001   0.009922  -0.000023  -0.070835   0.000017
    30  H    0.037706  -0.000091  -0.006751  -0.001088   0.123278  -0.000177
    31  O    0.015284   0.000111  -0.043227  -0.000172   0.185930  -0.002587
    32  H    0.001003   0.000000  -0.000080  -0.000001  -0.010459  -0.000120
    33  H   -0.203854  -0.001206   0.048664  -0.000108   0.040844  -0.000028
    34  C   -1.079579  -0.112073   0.032293   0.023705  -0.334765  -0.008277
    35  C    0.345019   0.106438  -0.395806   0.007671  -0.392294   0.008095
    36  H    0.029208   0.000415  -0.007718   0.000002  -0.002624   0.000000
    37  H    0.003497   0.005183   0.001398  -0.000008  -0.007776  -0.000001
    38  C    0.205458  -0.024262   0.248878   0.002765  -0.124390  -0.006875
    39  H   -0.040531  -0.000087  -0.044776  -0.000009   0.061625  -0.000977
    40  H    0.026311  -0.000100  -0.017020   0.000003   0.002931   0.000168
    41  H   -0.026843  -0.000083   0.079997  -0.000061  -0.008911  -0.001571
    42  C   -0.044317  -0.000435  -0.073682  -0.000230  -0.014452   0.000497
    43  H    0.000481   0.000000   0.001349   0.000000  -0.000069   0.000000
    44  H   -0.000089   0.000000  -0.000373   0.000000  -0.000198   0.000000
    45  C    0.000402   0.000006  -0.003582   0.000030  -0.005301   0.000007
    46  H    0.000012   0.000000   0.000109   0.000000   0.000021   0.000000
    47  H   -0.000083   0.000000  -0.000641   0.000000  -0.000095   0.000000
    48  H    0.000031   0.000000   0.000273   0.000000   0.000007   0.000000
             13         14         15         16         17         18
     1  C   -0.293182  -0.064592  -0.133251  -0.296147   0.081632  -0.003884
     2  C    0.009691  -0.009363   0.119113  -0.272182  -0.062234   0.035467
     3  H   -0.002333  -0.000007  -0.001106  -0.000284  -0.000029  -0.000074
     4  H   -0.002468  -0.000036   0.005050   0.004688   0.000306   0.000452
     5  C   -0.026465   0.025694  -0.357911   0.061497  -0.007552  -0.138307
     6  H   -0.011795  -0.000044   0.024942  -0.004150  -0.000272   0.004633
     7  C   -0.950295  -0.089277   0.444185  -0.333218  -0.068277   0.348998
     8  H    0.006640  -0.001736   0.029862  -0.017920  -0.001034   0.010564
     9  C    3.923689  -0.761504  -0.831980  -3.826507  -1.625821  -1.236011
    10  H   -0.178604   0.007945   0.245537  -0.022097  -0.004030   0.088500
    11  C   -0.697215  -0.317828  -2.569404   1.451863   0.110870  -0.761983
    12  H    0.028450   0.007589   0.058916   0.022583   0.014492   0.009352
    13  C   16.677451  -1.473183  -0.810804  -2.726770  -4.535565  -2.664186
    14  C   -1.473183  10.527415  -0.846621  -0.903407   1.436020   0.256510
    15  C   -0.810804  -0.846621  11.188180  -1.572599  -0.637831   0.763783
    16  C   -2.726770  -0.903407  -1.572599  13.547965   3.159776  -2.214588
    17  C   -4.535565   1.436020  -0.637831   3.159776  10.729195  -2.144130
    18  C   -2.664186   0.256510   0.763783  -2.214588  -2.144130  13.465923
    19  H    0.094351   0.014188  -0.009610  -0.045829   0.257204   0.032964
    20  H    0.076771   0.059770  -0.048447  -0.007460  -0.000865   0.268190
    21  O   -0.295266   0.115401  -0.028763   0.180001   0.021957  -0.026858
    22  H   -0.185331  -0.005822  -0.016611   0.172254   0.098225  -0.013858
    23  O   -0.241094   0.045925   0.248715   0.035486   0.005176  -0.002968
    24  H    0.151879   0.005515   0.045704  -0.002804  -0.002725  -0.236372
    25  O   -0.096431  -0.009254  -0.141682   0.111831   0.041682  -0.036701
    26  H    0.019274   0.000568   0.005139  -0.011646  -0.003307   0.000388
    27  C    0.141372   0.009647   0.146104   0.006972  -0.005657   0.031885
    28  H   -0.000676  -0.000011  -0.001560  -0.000303  -0.000029  -0.000084
    29  H    0.000347   0.000010  -0.004898   0.005306   0.000630  -0.000712
    30  H   -0.018422  -0.000213   0.014598  -0.012857  -0.001458   0.002803
    31  O    0.010373  -0.000900   0.016432  -0.026813  -0.005470   0.002722
    32  H   -0.000681  -0.000022   0.000283  -0.002518  -0.000155   0.000028
    33  H    0.012218   0.000256  -0.012088   0.003125   0.000157  -0.001640
    34  C    0.224898   0.033891   0.186213   0.084838   0.040370  -0.105847
    35  C   -0.217698   0.098712   0.128626   0.287563   0.175892   0.070368
    36  H   -0.000829  -0.000030   0.005762  -0.002680  -0.000537   0.006718
    37  H    0.008375  -0.001637   0.014503   0.004348   0.001064  -0.002008
    38  C    0.412049  -0.047502   0.029527  -0.582320  -0.272237   0.089660
    39  H   -0.027241   0.000049  -0.004299   0.011814   0.000736  -0.001100
    40  H   -0.007739   0.000873  -0.000048   0.013977   0.004574   0.000008
    41  H    0.076015  -0.008259   0.001254  -0.070054  -0.040743   0.005104
    42  C   -0.924383  -1.816886   0.210512   0.082656   0.075696   0.119341
    43  H   -0.005144  -0.268318   0.062621  -0.030852  -0.105480   0.150291
    44  H   -0.005658  -0.243849  -0.026091   0.044561   0.141215  -0.087268
    45  C   -0.001227   0.002714   0.013390  -0.009751   0.028714   0.028445
    46  H    0.002291   0.013700   0.000742   0.002533   0.006879   0.009079
    47  H   -0.006437  -0.050794  -0.006574   0.001280   0.015121  -0.012086
    48  H   -0.002129  -0.053145   0.005765  -0.011023  -0.013069   0.018304
             19         20         21         22         23         24
     1  C   -0.000340   0.000004  -0.013645   0.033784  -0.008095   0.000799
     2  C    0.000016   0.000024   0.018516  -0.007131   0.005213  -0.000207
     3  H    0.000000   0.000000   0.000001   0.000001   0.000000   0.000000
     4  H    0.000000   0.000000  -0.000164   0.000001  -0.000008   0.000000
     5  C   -0.000038   0.000145   0.019146  -0.005200  -0.021292   0.000415
     6  H    0.000000   0.000000  -0.000033   0.000000   0.000038  -0.000001
     7  C    0.001219   0.002329  -0.010877  -0.000709  -0.108984  -0.005401
     8  H    0.000000   0.000003  -0.000034   0.000002  -0.008503   0.000090
     9  C    0.005936  -0.006385  -0.016259  -0.071562   0.088807   0.050154
    10  H    0.000002  -0.000002  -0.002006   0.000153   0.011239   0.000007
    11  C   -0.003392  -0.000485   0.101240   0.009530  -0.028299   0.000464
    12  H    0.000003   0.000000  -0.011853   0.000431  -0.000050   0.000000
    13  C    0.094351   0.076771  -0.295266  -0.185331  -0.241094   0.151879
    14  C    0.014188   0.059770   0.115401  -0.005822   0.045925   0.005515
    15  C   -0.009610  -0.048447  -0.028763  -0.016611   0.248715   0.045704
    16  C   -0.045829  -0.007460   0.180001   0.172254   0.035486  -0.002804
    17  C    0.257204  -0.000865   0.021957   0.098225   0.005176  -0.002725
    18  C    0.032964   0.268190  -0.026858  -0.013858  -0.002968  -0.236372
    19  H    0.514359  -0.000139  -0.006776   0.000207   0.000119   0.000000
    20  H   -0.000139   0.519707   0.000094   0.000000  -0.016990   0.008375
    21  O   -0.006776   0.000094   8.346399   0.205088  -0.002126   0.000039
    22  H    0.000207   0.000000   0.205088   0.326899  -0.000150   0.000000
    23  O    0.000119  -0.016990  -0.002126  -0.000150   8.327883   0.203161
    24  H    0.000000   0.008375   0.000039   0.000000   0.203161   0.362465
    25  O   -0.000069   0.000002  -0.027503   0.036609  -0.001244  -0.000014
    26  H    0.000000   0.000000   0.004565  -0.003181  -0.000020   0.000000
    27  C    0.000001   0.000008  -0.003720  -0.004156   0.000913  -0.000342
    28  H    0.000000   0.000000   0.000005   0.000000   0.000004   0.000000
    29  H    0.000000   0.000000  -0.000034   0.000000   0.000000   0.000000
    30  H    0.000000   0.000000   0.000063  -0.000006  -0.000080   0.000001
    31  O    0.000000   0.000000   0.001318  -0.001254   0.000140   0.000000
    32  H    0.000000   0.000000   0.000013   0.000001   0.000000   0.000000
    33  H    0.000000   0.000000   0.000003   0.000000   0.000017   0.000000
    34  C   -0.001676  -0.000194  -0.014904   0.005003   0.017494   0.002841
    35  C   -0.000183   0.000891  -0.010643   0.001010  -0.015128  -0.000310
    36  H    0.000000   0.000000  -0.000054   0.000000  -0.000057   0.000000
    37  H    0.000000  -0.000003  -0.000014   0.000000   0.000980  -0.000022
    38  C    0.001262   0.000304  -0.003615  -0.005077  -0.004833   0.000053
    39  H    0.000000   0.000000   0.000729  -0.000009  -0.000028   0.000000
    40  H    0.000000   0.000000  -0.000212  -0.000001  -0.000014   0.000000
    41  H   -0.000007   0.000000   0.002141   0.000077   0.000083   0.000000
    42  C   -0.029920  -0.029757   0.004952  -0.002803   0.001583   0.000574
    43  H    0.000090   0.002155   0.000035   0.000000   0.000063   0.000001
    44  H    0.001776   0.000070   0.000008   0.000000   0.000042   0.000000
    45  C    0.005830   0.007000   0.000356   0.000159  -0.000101   0.000168
    46  H   -0.000028  -0.000031   0.000000   0.000000   0.000001   0.000000
    47  H    0.000007   0.000172   0.000003   0.000000   0.000012   0.000001
    48  H    0.000137   0.000012   0.000023   0.000000   0.000008   0.000000
             25         26         27         28         29         30
     1  C    0.185055  -0.057457  -0.142319  -0.076224  -0.076884  -0.154951
     2  C   -0.007574   0.028065  -0.030818  -0.028950   0.036955   0.032115
     3  H   -0.000489  -0.000016  -0.002485   0.003107   0.000058   0.000343
     4  H   -0.000132  -0.000002   0.009626   0.000072  -0.000136  -0.000065
     5  C    0.027711  -0.000885   0.142476   0.025184  -0.003782  -0.024121
     6  H   -0.000197   0.000001  -0.001471   0.000125  -0.000030  -0.000491
     7  C    0.045473  -0.018755  -0.425950  -0.018849  -0.005987   0.037706
     8  H   -0.000434   0.000004  -0.000991   0.000001   0.000001  -0.000091
     9  C   -0.112503   0.021325   0.228859  -0.017052   0.009922  -0.006751
    10  H   -0.005804  -0.000214  -0.000562  -0.000034  -0.000023  -0.001088
    11  C    0.051974   0.025142  -0.885257   0.061127  -0.070835   0.123278
[...]
    17  C    0.050273  -0.005615  -0.004019  -0.000075   0.000447  -0.000675
    18  C   -0.040871   0.000856   0.021983  -0.000024  -0.000748   0.001637
    19  H   -0.000059   0.000000   0.000010   0.000000   0.000000   0.000000
    20  H   -0.000001   0.000000  -0.000001   0.000000   0.000000   0.000000
    21  O   -0.033503   0.004376  -0.004199   0.000002  -0.000014   0.000024
    22  H    0.038802  -0.002640  -0.003605   0.000000  -0.000001  -0.000005
    23  O   -0.001525  -0.000017   0.000788  -0.000004   0.000012   0.000027
    24  H   -0.000011   0.000000  -0.000275   0.000000   0.000000   0.000001
    25  O    8.505555   0.230189  -0.000848  -0.001932   0.010564  -0.005597
    26  H    0.230189   0.327260  -0.016102   0.000055   0.000117   0.000194
    27  C   -0.000848  -0.016102   6.056083   0.436234   0.459395   0.384048
    28  H   -0.001932   0.000055   0.436234   0.531781  -0.028817  -0.026082
    29  H    0.010564   0.000117   0.459395  -0.028817   0.537058  -0.026247
    30  H   -0.005597   0.000194   0.384048  -0.026082  -0.026247   0.526114
    31  O   -0.026853   0.025163  -0.149515  -0.013334   0.004294   0.007818
    32  H    0.000985  -0.000681  -0.019921   0.003399  -0.000581   0.000057
    33  H    0.000024   0.000000  -0.001889  -0.000020   0.000002   0.000039
    34  C   -0.025797   0.000745  -0.009553   0.000634   0.000280   0.000694
    35  C    0.002145  -0.000052   0.027268   0.000079  -0.000205  -0.002174
    36  H   -0.000001   0.000000  -0.000006   0.000000   0.000000   0.000000
    37  H    0.000006   0.000000   0.000289   0.000000   0.000000   0.000000
    38  C   -0.001504   0.002405  -0.052248   0.000052   0.000303  -0.000066
    39  H   -0.000151   0.000003  -0.001704   0.000000   0.000000   0.000000
    40  H    0.000028   0.000000   0.000041   0.000000   0.000000   0.000000
    41  H   -0.000192  -0.000010  -0.000445   0.000000   0.000000   0.000000
    42  C   -0.001566   0.000041   0.001789   0.000000  -0.000004  -0.000003
    43  H    0.000000   0.000000   0.000000   0.000000   0.000000   0.000000
    44  H    0.000000   0.000000   0.000001   0.000000   0.000000   0.000000
    45  C   -0.000073  -0.000001  -0.000114   0.000000   0.000000   0.000000
    46  H    0.000000   0.000000   0.000000   0.000000   0.000000   0.000000
    47  H    0.000000   0.000000   0.000001   0.000000   0.000000   0.000000
    48  H    0.000001   0.000000   0.000000   0.000000   0.000000   0.000000
             31         32         33         34         35         36
     1  C    0.111002   0.033741  -0.001954  -0.361089   0.296149   0.001257
     2  C   -0.052246  -0.047940  -0.032458   0.130430  -0.287746  -0.002433
     3  H   -0.007138   0.003968  -0.001122  -0.000464  -0.007286   0.000000
     4  H    0.002393  -0.001151  -0.005092  -0.007950   0.011619   0.000001
     5  C    0.001697   0.007248   0.491329  -0.587156   0.437093   0.002574
     6  H    0.000116  -0.000011  -0.030371  -0.012132  -0.001717   0.000004
     7  C    0.032218  -0.000138  -0.205108  -0.383684  -0.156367   0.026010
     8  H    0.000085   0.000000  -0.001681  -0.141436   0.129251   0.000459
     9  C   -0.047243  -0.004187   0.044592  -0.221405  -0.371131  -0.007995
    10  H   -0.000221  -0.000001  -0.000100   0.017573   0.009046   0.000002
    11  C    0.134520   0.032184   0.059031  -0.168284  -0.390488  -0.003101
    12  H    0.001279  -0.000076  -0.000013  -0.022801   0.006625   0.000000
    13  C    0.007705  -0.000377   0.005223   0.142745  -0.252950  -0.000068
    14  C   -0.000720  -0.000008   0.000114  -0.000256   0.112098   0.000205
    15  C    0.015591   0.000025  -0.015220   0.240310   0.130801   0.005063
    16  C   -0.020047  -0.000530   0.000870   0.202354   0.325196  -0.003380
    17  C   -0.003062  -0.000052  -0.000065   0.110268   0.199435  -0.000553
    18  C    0.002296   0.000007  -0.001840  -0.108355   0.107610   0.007447
    19  H    0.000000   0.000000   0.000000  -0.000901  -0.000139   0.000000
    20  H    0.000000   0.000000   0.000000  -0.000169   0.000443   0.000000
    21  O    0.000242  -0.000006   0.000013  -0.025014  -0.017197  -0.000055
    22  H   -0.000964   0.000001   0.000000   0.006447   0.001679   0.000000
    23  O    0.000142   0.000000   0.000041  -0.004072  -0.006525  -0.000026
    24  H    0.000000   0.000000   0.000000  -0.000050  -0.000092   0.000000
    25  O   -0.026853   0.000985   0.000024  -0.025797   0.002145  -0.000001
    26  H    0.025163  -0.000681   0.000000   0.000745  -0.000052   0.000000
    27  C   -0.149515  -0.019921  -0.001889  -0.009553   0.027268  -0.000006
    28  H   -0.013334   0.003399  -0.000020   0.000634   0.000079   0.000000
    29  H    0.004294  -0.000581   0.000002   0.000280  -0.000205   0.000000
    30  H    0.007818   0.000057   0.000039   0.000694  -0.002174   0.000000
    31  O    8.333265   0.245789  -0.000449   0.011334   0.002090   0.000000
    32  H    0.245789   0.334211  -0.000011  -0.001055  -0.000206   0.000000
    33  H   -0.000449  -0.000011   0.562742   0.013822  -0.035249  -0.000108
    34  C    0.011334  -0.001055   0.013822  10.588627  -3.022652  -0.222912
    35  C    0.002090  -0.000206  -0.035249  -3.022652   9.300139   0.565420
    36  H    0.000000   0.000000  -0.000108  -0.222912   0.565420   0.536449
    37  H    0.000001   0.000000   0.000020  -0.250984   0.636007  -0.035895
    38  C   -0.000471   0.000285   0.001377  -0.032413  -1.076081  -0.018782
    39  H   -0.000604   0.000007   0.000226  -0.072577   0.003152   0.000146
    40  H   -0.000014   0.000000  -0.000040  -0.136305  -0.023863   0.003079
    41  H    0.000091   0.000000   0.000036  -0.081529  -0.086203   0.000202
    42  C   -0.000030   0.000000   0.000007  -0.023682   0.019722  -0.000040
    43  H    0.000000   0.000000   0.000000  -0.000134  -0.000009   0.000000
    44  H    0.000000   0.000000   0.000000   0.000104  -0.000027   0.000000
    45  C    0.000000   0.000000   0.000000  -0.000202  -0.001264   0.000003
    46  H    0.000000   0.000000   0.000000  -0.000005   0.000002   0.000000
    47  H    0.000000   0.000000   0.000000   0.000057  -0.000018   0.000000
    48  H    0.000000   0.000000   0.000000  -0.000023   0.000005   0.000000
             37         38         39         40         41         42
     1  C    0.002037  -0.040922   0.007955   0.001186  -0.011851  -0.006999
     2  C   -0.002630   0.089443  -0.019914  -0.002300   0.013898  -0.000775
     3  H    0.000000   0.006857   0.000118  -0.000002   0.000000   0.000000
     4  H   -0.000001  -0.025928   0.001140   0.000104   0.000055  -0.000001
     5  C   -0.006710  -0.093480   0.090242   0.003416  -0.045280   0.010507
     6  H   -0.000068   0.008867  -0.000031   0.000004   0.000002   0.000006
     7  C   -0.026253   0.193892  -0.050726   0.017244  -0.013513  -0.040452
     8  H    0.005744  -0.034790  -0.000105  -0.000114  -0.000091  -0.000389
     9  C   -0.012933   0.241875  -0.036715  -0.013465   0.057773  -0.033506
    10  H   -0.000005   0.003762  -0.000010   0.000003  -0.000057  -0.000473
    11  C   -0.009966  -0.253207   0.044769   0.001146  -0.015693  -0.003433
    12  H   -0.000001  -0.000793  -0.001025   0.000190  -0.001679   0.000255
    13  C    0.006987   0.419490  -0.025520  -0.004981   0.053738  -0.914615
    14  C   -0.001730  -0.047464  -0.001177   0.000791  -0.001382  -1.809463
    15  C    0.015242   0.082179  -0.003958  -0.001094   0.000785   0.119570
    16  C    0.006056  -0.755330  -0.008707   0.010041  -0.037502   0.064379
    17  C    0.001460  -0.346027  -0.003090   0.003260  -0.024125  -0.088056
    18  C   -0.002010   0.131362  -0.000682  -0.000179   0.004098   0.152345
    19  H    0.000000   0.000880   0.000000   0.000000  -0.000005  -0.046503
    20  H   -0.000002   0.000184   0.000000   0.000000   0.000000  -0.035975
    21  O   -0.000020   0.011520   0.000949   0.000026  -0.000174   0.008506
    22  H    0.000000  -0.007072  -0.000008  -0.000002   0.000153  -0.002944
    23  O    0.001230  -0.005754  -0.000043  -0.000017   0.000161   0.009744
    24  H   -0.000026   0.000004   0.000000   0.000000   0.000000  -0.000847
    25  O    0.000006  -0.001504  -0.000151   0.000028  -0.000192  -0.001566
    26  H    0.000000   0.002405   0.000003   0.000000  -0.000010   0.000041
    27  C    0.000289  -0.052248  -0.001704   0.000041  -0.000445   0.001789
    28  H    0.000000   0.000052   0.000000   0.000000   0.000000   0.000000
    29  H    0.000000   0.000303   0.000000   0.000000   0.000000  -0.000004
    30  H    0.000000  -0.000066   0.000000   0.000000   0.000000  -0.000003
    31  O    0.000001  -0.000471  -0.000604  -0.000014   0.000091  -0.000030
    32  H    0.000000   0.000285   0.000007   0.000000   0.000000   0.000000
    33  H    0.000020   0.001377   0.000226  -0.000040   0.000036   0.000007
    34  C   -0.250984  -0.032413  -0.072577  -0.136305  -0.081529  -0.023682
    35  C    0.636007  -1.076081   0.003152  -0.023863  -0.086203   0.019722
    36  H   -0.035895  -0.018782   0.000146   0.003079   0.000202  -0.000040
    37  H    0.545875  -0.013052  -0.000203   0.000239  -0.000208   0.000044
    38  C   -0.013052   6.894815   0.425011   0.496445   0.529805  -0.012153
    39  H   -0.000203   0.425011   0.540053  -0.028252  -0.027871  -0.000096
    40  H    0.000239   0.496445  -0.028252   0.547685  -0.027384   0.000010
    41  H   -0.000208   0.529805  -0.027871  -0.027384   0.534511   0.001324
    42  C    0.000044  -0.012153  -0.000096   0.000010   0.001324   7.623028
    43  H    0.000000   0.000008   0.000000   0.000000   0.000000   0.550667
    44  H    0.000000  -0.000016   0.000000   0.000000   0.000000   0.536551
    45  C   -0.000001   0.000832  -0.000001   0.000001   0.000028   0.145399
    46  H    0.000000  -0.000001   0.000000   0.000000   0.000000  -0.046681
    47  H    0.000000   0.000003   0.000000   0.000000   0.000000  -0.033350
    48  H    0.000000  -0.000006   0.000000   0.000000   0.000000  -0.028019
             43         44         45         46         47         48
     1  C   -0.000006  -0.000002  -0.000043   0.000000  -0.000005  -0.000007
     2  C    0.000000  -0.000001   0.000010   0.000000   0.000000   0.000000
     3  H    0.000000   0.000000   0.000000   0.000000   0.000000   0.000000
     4  H    0.000000   0.000000   0.000000   0.000000   0.000000   0.000000
     5  C    0.000016   0.000010  -0.000773   0.000001  -0.000003   0.000002
     6  H    0.000000   0.000000   0.000000   0.000000   0.000000   0.000000
     7  C    0.000438   0.000031   0.003701   0.000015  -0.000082   0.000036
     8  H    0.000000   0.000000   0.000003   0.000000   0.000000   0.000000
     9  C    0.000388  -0.000573  -0.007478   0.000119  -0.000919   0.000071
    10  H    0.000000   0.000000   0.000050   0.000000   0.000000   0.000000
    11  C   -0.000136  -0.000168  -0.005897   0.000025  -0.000127  -0.000041
    12  H    0.000000   0.000000   0.000009   0.000000   0.000000   0.000000
    13  C   -0.011071  -0.010759  -0.021062   0.001373  -0.005889  -0.005839
    14  C   -0.223759  -0.203541   0.091301  -0.040426   0.015416   0.012054
    15  C    0.041231  -0.020409   0.000217   0.000682  -0.026883   0.015098
    16  C   -0.025362   0.024079  -0.037402   0.004884   0.005515  -0.036996
    17  C   -0.082751   0.081296  -0.011197   0.009009   0.038695  -0.057602
    18  C    0.091574  -0.064368   0.028328   0.007869  -0.056325   0.039273
    19  H    0.000119   0.002148   0.003435  -0.000033   0.000010   0.000168
    20  H    0.002427   0.000101   0.003365  -0.000037   0.000200   0.000017
    21  O    0.000028   0.000012   0.000421  -0.000001   0.000007   0.000048
    22  H    0.000000   0.000000   0.000156   0.000000   0.000000   0.000000
    23  O    0.000062   0.000039   0.000074   0.000000   0.000035   0.000008
    24  H   -0.000001   0.000000   0.000159   0.000000   0.000000   0.000000
    25  O    0.000000   0.000000  -0.000073   0.000000   0.000000   0.000001
    26  H    0.000000   0.000000  -0.000001   0.000000   0.000000   0.000000
    27  C    0.000000   0.000001  -0.000114   0.000000   0.000001   0.000000
    28  H    0.000000   0.000000   0.000000   0.000000   0.000000   0.000000
    29  H    0.000000   0.000000   0.000000   0.000000   0.000000   0.000000
    30  H    0.000000   0.000000   0.000000   0.000000   0.000000   0.000000
    31  O    0.000000   0.000000   0.000000   0.000000   0.000000   0.000000
    32  H    0.000000   0.000000   0.000000   0.000000   0.000000   0.000000
    33  H    0.000000   0.000000   0.000000   0.000000   0.000000   0.000000
    34  C   -0.000134   0.000104  -0.000202  -0.000005   0.000057  -0.000023
    35  C   -0.000009  -0.000027  -0.001264   0.000002  -0.000018   0.000005
    36  H    0.000000   0.000000   0.000003   0.000000   0.000000   0.000000
    37  H    0.000000   0.000000  -0.000001   0.000000   0.000000   0.000000
    38  C    0.000008  -0.000016   0.000832  -0.000001   0.000003  -0.000006
    39  H    0.000000   0.000000  -0.000001   0.000000   0.000000   0.000000
    40  H    0.000000   0.000000   0.000001   0.000000   0.000000   0.000000
    41  H    0.000000   0.000000   0.000028   0.000000   0.000000   0.000000
    42  C    0.550667   0.536551   0.145399  -0.046681  -0.033350  -0.028019
    43  H    0.567422  -0.033438  -0.025546  -0.003335  -0.004910   0.004907
    44  H   -0.033438   0.565115  -0.024664  -0.003336   0.004875  -0.004952
    45  C   -0.025546  -0.024664   5.188213   0.422052   0.419515   0.417232
    46  H   -0.003335  -0.003336   0.422052   0.549880  -0.026966  -0.026911
    47  H   -0.004910   0.004875   0.419515  -0.026966   0.542306  -0.028579
    48  H    0.004907  -0.004952   0.417232  -0.026911  -0.028579   0.542799
 Mulliken atomic charges:
              1
     1  C    0.224946
     2  C   -0.354454
     3  H    0.157625
     4  H    0.161010
     5  C   -0.351067
     6  H    0.161943
     7  C   -0.240984
     8  H    0.148033
     9  C    0.419124
    10  H    0.169418
    11  C   -0.194694
    12  H    0.169810
    13  C    0.393526
    14  C    0.020602
    15  C    0.342331
    16  C   -0.210551
    17  C   -0.839502
    18  C   -0.027956
    19  H    0.147618
    20  H    0.150318
    21  O   -0.624884
    22  H    0.449210
    23  O   -0.606701
    24  H    0.446541
    25  O   -0.673656
    26  H    0.432020
    27  C   -0.330404
    28  H    0.165829
    29  H    0.162681
    30  H    0.172663
    31  O   -0.616222
    32  H    0.415025
    33  H    0.153281
    34  C    0.458614
    35  C   -0.583435
    36  H    0.147031
    37  H    0.141464
    38  C   -0.724095
    39  H    0.169399
    40  H    0.153070
    41  H    0.178533
    42  C   -0.113839
    43  H    0.151173
    44  H    0.151892
    45  C   -0.588783
    46  H    0.151821
    47  H    0.157421
    48  H    0.157256
 Sum of Mulliken atomic charges =   0.00000
 Mulliken charges with hydrogens summed into heavy atoms:
              1
     1  C    0.224946
     2  C   -0.035819
     5  C   -0.035843
     7  C   -0.092951
     9  C    0.588543
    11  C   -0.024883
    13  C    0.393526
    14  C    0.020602
    15  C    0.342331
    16  C   -0.210551
    17  C   -0.691885
    18  C    0.122362
    21  O   -0.175674
    23  O   -0.160160
    25  O   -0.241636
    27  C    0.170768
    31  O   -0.201197
    34  C    0.458614
    35  C   -0.294941
    38  C   -0.223092
    42  C    0.189226
    45  C   -0.122285
 Sum of Mulliken charges with hydrogens summed into heavy atoms =   0.00000
 Electronic spatial extent (au):  <R**2>=           7206.1534
 Charge=              0.0000 electrons
 Dipole moment (field-independent basis, Debye):
    X=              2.8969    Y=              2.1315    Z=              3.6928  Tot=              5.1548
 Quadrupole moment (field-independent basis, Debye-Ang):
   XX=           -101.7208   YY=           -139.3896   ZZ=           -134.3457
   XY=             -7.3037   XZ=             -2.8345   YZ=              1.6960
 Traceless Quadrupole moment (field-independent basis, Debye-Ang):
   XX=             23.4312   YY=            -14.2375   ZZ=             -9.1937
   XY=             -7.3037   XZ=             -2.8345   YZ=              1.6960
 Octapole moment (field-independent basis, Debye-Ang**2):
  XXX=             75.6808  YYY=            -25.8160  ZZZ=             27.2108  XYY=              6.4928
  XXY=             -7.6530  XXZ=             31.5856  XZZ=             -9.7304  YZZ=             20.1859
  YYZ=             11.5665  XYZ=            -19.6737
 Hexadecapole moment (field-independent basis, Debye-Ang**3):
 XXXX=          -5750.7444 YYYY=          -1964.0630 ZZZZ=          -1138.6324 XXXY=           -193.3941
 XXXZ=             31.4422 YYYX=           -118.2302 YYYZ=             50.9686 ZZZX=            -68.8502
 ZZZY=             38.7828 XXYY=          -1440.1492 XXZZ=          -1263.4478 YYZZ=           -504.2058
 XXYZ=             41.6016 YYXZ=            -17.6442 ZZXY=            -48.6162
 N-N= 1.982357290504D+03 E-N=-6.297656254597D+03  KE= 9.931595382874D+02

 Test job not archived.
 1\1\GINC-COMPUTE-10-5\SP\RB3LYP\6-31+G(d,p)\C18H26O4\LPASSAGLIA.IQUIR\
 23-Dec-2022\0\\# B3LYP/6-31+G** geom=allcheck test scrf=(pcm,solvent=w
 ater,smd,dovacuum)\\comment\\0,1\C,0,1.5509631,2.522645552,-1.55918642
 9\C,0,0.765435336,3.547494223,-0.74069599\H,0,1.291606564,4.511038316,
 -0.739722745\H,0,-0.189882601,3.758386422,-1.232966706\C,0,0.53261688,
 3.095861132,0.695967853\H,0,1.492579494,3.139621873,1.227505874\C,0,-0
 .03744501,1.666692677,0.859093225\H,0,0.230334021,1.413776796,1.894376
 124\C,0,0.701515756,0.608369343,-0.043476907\H,0,1.734943418,0.5361012
 82,0.326206993\C,0,0.843946916,1.14629684,-1.489357742\H,0,-0.13726805
 8,1.25059546,-1.962353777\C,0,0.15831596,-0.816754339,0.172210625\C,0,
 -0.971728978,-3.371608884,0.791349236\C,0,0.308094451,-1.418093465,1.4
 40100642\C,0,-0.507156125,-1.588056358,-0.791365785\C,0,-1.083828132,-
 2.826176822,-0.488202663\C,0,-0.247221577,-2.665465514,1.752471206\H,0
 ,-1.602648102,-3.37087217,-1.273966904\H,0,-0.120266028,-3.094266356,2
 .742307292\O,0,-0.602340749,-1.226485296,-2.105032933\H,0,0.292632237,
 -0.900915431,-2.348647655\O,0,1.043766289,-0.772946366,2.402264478\H,0
 ,1.063383932,-1.324882847,3.200663106\O,0,1.565060598,0.218436959,-2.3
 27288529\H,0,1.799765672,0.745785683,-3.121574435\C,0,3.029602276,2.47
 4003226,-1.148511801\H,0,3.495248047,3.458346486,-1.277476052\H,0,3.59
 5487887,1.787984748,-1.788517128\H,0,3.173991674,2.170597844,-0.108595
 081\O,0,1.53315146,2.921056518,-2.944062342\H,0,1.87703553,3.831091652
 ,-2.994590253\H,0,-0.113103298,3.825231571,1.201540857\C,0,-1.57357089
 3,1.659937915,0.833618037\C,0,-2.264477201,1.528824977,1.982135037\H,0
 ,-3.350085877,1.50792985,1.996725851\H,0,-1.76530286,1.424059365,2.940
 640603\C,0,-2.32381494,1.783544783,-0.462450865\H,0,-2.038373564,2.687
 315823,-1.002830499\H,0,-3.406266968,1.846500551,-0.3009905\H,0,-2.153
 928878,0.913991647,-1.100254306\C,0,-1.572026298,-4.715825684,1.107276
 534\H,0,-1.882343982,-4.742659461,2.158974956\H,0,-2.486109525,-4.8594
 57448,0.518262004\C,0,-0.598388955,-5.851029819,0.82977965\H,0,-1.0616
 51839,-6.813614577,1.068364436\H,0,0.309709843,-5.752443679,1.43419373
 3\H,0,-0.299956902,-5.869964998,-0.223910324\\Version=EM64L-G09RevC.01
 \State=1-A\HF=-1002.5418293\RMSD=3.938e-09\Dipole=1.0644044,1.282946,1
 .1550498\Quadrupole=-6.5831154,9.5544574,-2.971342,7.5665423,-1.656668
 5,-11.6153226\PG=C01 [X(C18H26O4)]\\@


 IF YOU PERCEIVE THAT THERE ARE FOUR POSSIBLE WAYS IN
 WHICH A PROCEDURE CAN GO WRONG AND CIRCUMVENT THESE, 
 THEN A FIFTH WAY WILL DEVELOP.

                              -- MURPHY'S TWELFTH LAW
 Job cpu time:  0 days  0 hours 59 minutes 57.5 seconds.
 File lengths (MBytes):  RWF=    239 Int=      0 D2E=      0 Chk=     19 Scr=      1
 Normal termination of Gaussian 09 at Fri Dec 23 14:35:16 2022.
