 Entering Gaussian System, Link 0=g09
 Input=/home/lpassaglia.iquir/Link1/03_RSRS_THC_004.gjc
 Output=/home/lpassaglia.iquir/Link1/03_RSRS_THC_004.log
 Initial command:
 /share/apps/Gaussian09/EM64T.SSE4.2-enabled/g09/l1.exe /tmp/Gau-57617.inp -scrdir=/tmp/
 Entering Link 1 = /share/apps/Gaussian09/EM64T.SSE4.2-enabled/g09/l1.exe PID=     57622.
  
 Copyright (c) 1988,1990,1992,1993,1995,1998,2003,2009,2011,
            Gaussian, Inc.  All Rights Reserved.
  
 This is part of the Gaussian(R) 09 program.  It is based on
 the Gaussian(R) 03 system (copyright 2003, Gaussian, Inc.),
 the Gaussian(R) 98 system (copyright 1998, Gaussian, Inc.),
 the Gaussian(R) 94 system (copyright 1995, Gaussian, Inc.),
 the Gaussian 92(TM) system (copyright 1992, Gaussian, Inc.),
 the Gaussian 90(TM) system (copyright 1990, Gaussian, Inc.),
 the Gaussian 88(TM) system (copyright 1988, Gaussian, Inc.),
 the Gaussian 86(TM) system (copyright 1986, Carnegie Mellon
 University), and the Gaussian 82(TM) system (copyright 1983,
 Carnegie Mellon University). Gaussian is a federally registered
 trademark of Gaussian, Inc.
  
 This software contains proprietary and confidential information,
 including trade secrets, belonging to Gaussian, Inc.
  
 This software is provided under written license and may be
 used, copied, transmitted, or stored only in accord with that
 written license.
  
 The following legend is applicable only to US Government
 contracts under FAR:
  
                    RESTRICTED RIGHTS LEGEND
  
 Use, reproduction and disclosure by the US Government is
 subject to restrictions as set forth in subparagraphs (a)
 and (c) of the Commercial Computer Software - Restricted
 Rights clause in FAR 52.227-19.
  
 Gaussian, Inc.
 340 Quinnipiac St., Bldg. 40, Wallingford CT 06492
  
  
 ---------------------------------------------------------------
 Warning -- This program may not be used in any manner that
 competes with the business of Gaussian, Inc. or will provide
 assistance to any competitor of Gaussian, Inc.  The licensee
 of this program is prohibited from giving any competitor of
 Gaussian, Inc. access to this program.  By using this program,
 the user acknowledges that Gaussian, Inc. is engaged in the
 business of creating and licensing software in the field of
 computational chemistry and represents and warrants to the
 licensee that it is not a competitor of Gaussian, Inc. and that
 it will not use this program in any manner prohibited above.
 ---------------------------------------------------------------
  

 Cite this work as:
 Gaussian 09, Revision C.01,
 M. J. Frisch, G. W. Trucks, H. B. Schlegel, G. E. Scuseria, 
 M. A. Robb, J. R. Cheeseman, G. Scalmani, V. Barone, B. Mennucci, 
 G. A. Petersson, H. Nakatsuji, M. Caricato, X. Li, H. P. Hratchian, 
 A. F. Izmaylov, J. Bloino, G. Zheng, J. L. Sonnenberg, M. Hada, 
 M. Ehara, K. Toyota, R. Fukuda, J. Hasegawa, M. Ishida, T. Nakajima, 
 Y. Honda, O. Kitao, H. Nakai, T. Vreven, J. A. Montgomery, Jr., 
 J. E. Peralta, F. Ogliaro, M. Bearpark, J. J. Heyd, E. Brothers, 
 K. N. Kudin, V. N. Staroverov, T. Keith, R. Kobayashi, J. Normand, 
 K. Raghavachari, A. Rendell, J. C. Burant, S. S. Iyengar, J. Tomasi, 
 M. Cossi, N. Rega, J. M. Millam, M. Klene, J. E. Knox, J. B. Cross, 
 V. Bakken, C. Adamo, J. Jaramillo, R. Gomperts, R. E. Stratmann, 
 O. Yazyev, A. J. Austin, R. Cammi, C. Pomelli, J. W. Ochterski, 
 R. L. Martin, K. Morokuma, V. G. Zakrzewski, G. A. Voth, 
 P. Salvador, J. J. Dannenberg, S. Dapprich, A. D. Daniels, 
 O. Farkas, J. B. Foresman, J. V. Ortiz, J. Cioslowski, 
 and D. J. Fox, Gaussian, Inc., Wallingford CT, 2010.
 
 ******************************************
 Gaussian 09:  EM64L-G09RevC.01 23-Sep-2011
                23-Dec-2022 
 ******************************************
 %chk=03_RSRS_THC_004_optB_NMR
 %nprocshared=4
 Will use up to    4 processors via shared memory.
 ------------------------------------------------
 # mPW1PW91/6-31+G** scrf=(PCM,solvent=water) nmr
 ------------------------------------------------
 1/38=1/1;
 2/12=2,17=6,18=5,40=1/2;
 3/5=1,6=6,7=111,11=2,16=1,25=1,30=1,70=2201,72=1,74=-7/1,2,8,3;
 4//1;
 5/5=2,38=5,53=1/2;
 8/6=1,10=90,11=11/1;
 10/13=100,45=16/2;
 6/7=2,8=2,9=2,10=2,28=1/1;
 99/9=1/99;
 -------
 comment
 -------
 Charge =  0 Multiplicity = 1
 Symbolic Z-Matrix:
 6                     0.58236   2.16214  -2.15091 
 6                     0.27881   3.34182  -1.22113 
 1                     1.18588   3.94463  -1.0835 
 1                    -0.4734    3.99616  -1.67979 
 6                    -0.23934   2.92146   0.15324 
 1                    -0.28904   3.8184    0.78585 
 6                     0.65782   1.87246   0.84213 
 1                     1.59072   2.43598   1.01591 
 6                     1.08657   0.67903  -0.0767 
 1                     2.02838   0.36245   0.39679 
 6                     1.54982   1.16885  -1.47666 
 1                     2.51259   1.68125  -1.34339 
 6                     0.23812  -0.60187  -0.08717 
 6                    -1.18823  -3.07431   0.10707 
 6                     0.89538  -1.84609   0.04107 
 6                    -1.15562  -0.66025  -0.18953 
 6                    -1.8604   -1.86317  -0.06512 
 6                     0.20568  -3.0593    0.14719 
 1                    -2.94672  -1.84234  -0.12444 
 1                     0.74454  -3.99614   0.25574 
 8                    -1.93821   0.42215  -0.4578 
 1                    -1.50682   0.91184  -1.19269 
 8                     2.26943  -1.87471   0.02459 
 1                     2.55876  -2.77372   0.25785 
 8                     1.79981   0.0746   -2.37148 
 1                     2.2324   -0.62625  -1.84379 
 6                     1.14803   2.68462  -3.47851 
 1                     0.44267   3.37673  -3.95302 
 1                     1.30495   1.87158  -4.196 
 1                     2.09924   3.20677  -3.33283 
 8                    -0.63726   1.47227  -2.46115 
 1                    -0.34893   0.69883  -2.99555 
 1                    -1.27315   2.58879   0.0568 
 6                     0.21267   1.44719   2.2455 
 6                    -1.04017   1.57      2.71705 
 1                    -1.30257   1.25253   3.7218 
 1                    -1.85521   1.95682   2.11465 
 6                     1.2918    0.87597   3.1314 
 1                     1.67484  -0.06339   2.72225 
 1                     0.92779   0.6681    4.14344 
 1                     2.12305   1.58275   3.22173 
 6                    -1.95438  -4.36258   0.25085 
 1                    -2.88117  -4.30928  -0.33336 
 1                    -1.37327  -5.18799  -0.17817 
 6                    -2.28044  -4.6655    1.70528 
 1                    -2.83611  -5.60552   1.7807 
 1                    -2.89266  -3.87282   2.14863 
 1                    -1.369    -4.76095   2.30519 
 
                          Input orientation:                          
 ---------------------------------------------------------------------
 Center     Atomic      Atomic             Coordinates (Angstroms)
 Number     Number       Type             X           Y           Z
 ---------------------------------------------------------------------
      1          6           0        0.582363    2.162140   -2.150907
      2          6           0        0.278813    3.341820   -1.221133
      3          1           0        1.185883    3.944634   -1.083502
      4          1           0       -0.473399    3.996160   -1.679791
      5          6           0       -0.239338    2.921455    0.153243
      6          1           0       -0.289038    3.818404    0.785845
      7          6           0        0.657818    1.872456    0.842135
      8          1           0        1.590720    2.435975    1.015908
      9          6           0        1.086568    0.679026   -0.076705
     10          1           0        2.028379    0.362450    0.396787
     11          6           0        1.549825    1.168855   -1.476663
     12          1           0        2.512588    1.681248   -1.343392
     13          6           0        0.238116   -0.601871   -0.087169
     14          6           0       -1.188234   -3.074313    0.107065
     15          6           0        0.895376   -1.846089    0.041069
     16          6           0       -1.155618   -0.660252   -0.189530
     17          6           0       -1.860404   -1.863168   -0.065121
     18          6           0        0.205675   -3.059300    0.147189
     19          1           0       -2.946724   -1.842339   -0.124443
     20          1           0        0.744541   -3.996137    0.255742
     21          8           0       -1.938211    0.422153   -0.457797
     22          1           0       -1.506815    0.911837   -1.192694
     23          8           0        2.269428   -1.874712    0.024591
     24          1           0        2.558757   -2.773725    0.257850
     25          8           0        1.799810    0.074597   -2.371477
     26          1           0        2.232396   -0.626249   -1.843795
     27          6           0        1.148028    2.684617   -3.478512
     28          1           0        0.442672    3.376734   -3.953021
     29          1           0        1.304948    1.871584   -4.195996
     30          1           0        2.099236    3.206769   -3.332828
     31          8           0       -0.637255    1.472274   -2.461146
     32          1           0       -0.348934    0.698833   -2.995546
     33          1           0       -1.273145    2.588787    0.056795
     34          6           0        0.212669    1.447192    2.245504
     35          6           0       -1.040167    1.570004    2.717052
     36          1           0       -1.302571    1.252530    3.721802
     37          1           0       -1.855209    1.956816    2.114653
     38          6           0        1.291805    0.875970    3.131400
     39          1           0        1.674844   -0.063386    2.722251
     40          1           0        0.927793    0.668104    4.143442
     41          1           0        2.123055    1.582753    3.221733
     42          6           0       -1.954384   -4.362585    0.250846
     43          1           0       -2.881170   -4.309280   -0.333358
     44          1           0       -1.373275   -5.187991   -0.178174
     45          6           0       -2.280438   -4.665502    1.705283
     46          1           0       -2.836114   -5.605517    1.780697
     47          1           0       -2.892662   -3.872817    2.148631
     48          1           0       -1.368997   -4.760947    2.305187
 ---------------------------------------------------------------------
                    Distance matrix (angstroms):
                    1          2          3          4          5
     1  C    0.000000
     2  C    1.532405   0.000000
     3  H    2.163533   1.097773   0.000000
     4  H    2.167997   1.097429   1.763926   0.000000
     5  C    2.561417   1.527774   2.146552   2.137706   0.000000
     6  H    3.482393   2.139520   2.384489   2.478901   1.098714
     7  C    3.007974   2.561200   2.877647   3.485668   1.542680
     8  H    3.334740   2.747000   2.616767   3.736517   2.080624
     9  C    2.599263   3.008763   3.418728   4.000845   2.615223
    10  H    3.438109   3.815140   3.966497   4.875953   3.427880
    11  C    1.541818   2.530325   2.827009   3.482578   2.988194
    12  H    2.146883   2.786072   2.636400   3.793165   3.369143
    13  C    3.466594   4.103684   4.749911   4.917783   3.563648
    14  C    5.971088   6.714395   7.504633   7.327717   6.070567
    15  C    4.579152   5.374728   5.906059   6.242337   4.902003
    16  C    3.851425   4.374742   5.242785   4.936443   3.712908
    17  C    5.149827   5.744955   6.636832   6.233993   5.056497
    18  C    5.717218   6.546143   7.178475   7.319735   5.997292
    19  H    5.709367   6.203412   7.175465   6.528746   5.486419
    20  H    6.613822   7.499578   8.064999   8.313031   6.987962
    21  O    3.499638   3.744640   4.749668   4.051231   3.083189
    22  H    2.616504   3.015641   4.057143   3.289112   2.730679
    23  O    4.886221   5.720715   6.022187   6.700385   5.414211
    24  H    5.837037   6.692191   6.987156   7.666796   6.346286
    25  O    2.426658   3.783050   4.124679   4.585255   4.317052
    26  H    3.254542   4.466516   4.750391   5.358628   4.762755
    27  C    1.534762   2.506634   2.706502   2.754009   3.894935
    28  H    2.177697   2.737020   3.018114   2.527933   4.187340
    29  H    2.188365   3.473379   3.741569   3.742676   4.733173
    30  H    2.188400   2.791315   2.537347   3.158183   4.207496
    31  O    1.435141   2.423224   3.366646   2.647142   3.015542
    32  H    1.929248   3.244686   4.067777   3.552333   3.855766
    33  H    2.915285   2.146796   3.030746   2.374032   1.090289
    34  C    4.469480   3.951147   4.273950   4.730314   2.599100
    35  C    5.165293   4.515345   5.003837   5.053681   3.006804
    36  H    6.234507   5.594507   6.044070   6.114920   4.080489
    37  H    4.917206   4.195206   4.840234   4.523951   2.718217
    38  C    5.482728   5.104029   5.214722   5.999924   3.924007
    39  H    5.467555   5.393942   5.548610   6.361827   4.378719
    40  H    6.478448   6.028979   6.174399   6.851959   4.728792
    41  H    5.619136   5.121973   4.999182   6.049053   4.097396
    42  C    7.401049   8.155473   8.980626   8.705704   7.483859
    43  H    7.561668   8.325441   9.232050   8.751605   7.713598
    44  H    7.857520   8.750704   9.527526   9.349506   8.195045
    45  C    8.347606   8.901172   9.691602   9.473569   8.008548
    46  H    9.353074   9.938239  10.751069  10.476145   9.060967
    47  H    8.184285   8.571146   9.391153   9.079121   7.561999
    48  H    8.461307   8.989162   9.684925   9.662767   8.057686
                    6          7          8          9         10
     6  H    0.000000
     7  C    2.164814   0.000000
     8  H    2.344681   1.103657   0.000000
     9  C    3.534400   1.566004   2.129517   0.000000
    10  H    4.179164   2.087317   2.207796   1.100646   0.000000
    11  C    3.939603   2.582161   2.796459   1.553841   2.095022
    12  H    4.117061   2.872848   2.643057   2.154641   2.236495
    13  C    4.536395   2.676201   3.503545   1.536450   2.090256
    14  C    6.984185   5.330925   6.237938   4.392727   4.716130
    15  C    5.834724   3.811262   4.446335   2.535080   2.507564
    16  C    4.664834   3.281386   4.310694   2.614153   3.395221
    17  C    5.955971   4.595590   5.617964   3.891983   4.504372
    18  C    6.924986   5.000960   5.733330   3.847231   3.884961
    19  H    6.319488   5.265615   6.339778   4.756786   5.466665
    20  H    7.900402   5.898454   6.531917   4.699431   4.545923
    21  O    3.975039   3.245392   4.322111   3.059494   4.058043
    22  H    3.720985   3.122331   4.098249   2.832891   3.914827
    23  O    6.287832   4.160160   4.474973   2.816202   2.280686
    24  H    7.200339   5.053905   5.352824   3.768389   3.183739
    25  O    5.324290   3.855353   4.134514   2.477908   2.792560
    26  H    5.746963   3.992123   4.238734   2.477756   2.457510
    27  C    4.640622   4.423562   4.523009   3.949489   4.602762
    28  H    4.815322   5.030174   5.185875   4.766346   5.524599
    29  H    5.581187   5.079522   5.250158   4.294002   4.888200
    30  H    4.800148   4.613935   4.445697   4.244682   4.690970
    31  O    4.021011   3.570578   4.240578   3.047355   4.062647
    32  H    4.902472   4.137480   4.782436   3.252798   4.156044
    33  H    1.735494   2.204202   3.024066   3.038628   3.996528
    34  C    2.829304   1.532466   2.094904   2.597389   2.809132
    35  C    3.057623   2.547537   3.250441   3.622419   4.032095
    36  H    4.028747   3.538350   4.134433   4.523886   4.789906
    37  H    2.772026   2.818107   3.648460   3.884437   4.536003
    38  C    4.081496   2.575977   2.645425   3.220690   2.878255
    39  H    4.761806   2.883863   3.027456   2.954894   2.390420
    40  H    4.762197   3.524483   3.653260   4.223146   3.916904
    41  H    4.092662   2.809508   2.424259   3.573615   3.078705
    42  C    8.365894   6.785938   7.705420   5.896823   6.181395
    43  H    8.604128   7.219424   8.204682   6.379030   6.816293
    44  H    9.122502   7.417296   8.266557   6.362626   6.535229
    45  C    8.762859   7.219644   8.117394   6.563245   6.749693
    46  H    9.812625   8.307138   9.211263   7.637595   7.822732
    47  H    8.233524   6.879026   7.822060   6.442489   6.724811
    48  H    8.779520   7.088761   7.887830   6.426236   6.436874
                   11         12         13         14         15
    11  C    0.000000
    12  H    1.098737   0.000000
    13  C    2.605138   3.458895   0.000000
    14  C    5.292413   6.198006   2.860974   0.000000
    15  C    3.438270   4.119978   1.412981   2.419570   0.000000
    16  C    3.510237   4.502195   1.398706   2.432432   2.380328
    17  C    4.776534   5.772342   2.448498   1.395827   2.757878
    18  C    4.724503   5.478730   2.468792   1.394568   1.399582
    19  H    5.578059   6.611021   3.418092   2.159547   3.845665
    20  H    5.506982   6.157591   3.448927   2.146505   2.165997
    21  O    3.709723   4.709481   2.433595   3.620333   3.663741
    22  H    3.080543   4.095156   2.560914   4.204791   3.859903
    23  O    3.469134   3.817769   2.399759   3.660775   1.374449
    24  H    4.423846   4.734225   3.197087   3.762051   1.916856
    25  O    1.435474   2.036257   2.848606   4.998721   3.213629
    26  H    1.955272   2.377700   2.657722   4.636765   2.613110
    27  C    2.542906   2.725346   4.809381   7.174940   5.742698
    28  H    3.497551   3.737564   5.551211   7.794880   6.590566
    29  H    2.819320   3.103543   4.913102   7.013858   5.651687
    30  H    2.810747   2.540853   5.338896   7.879868   6.193855
    31  O    2.417559   3.348815   3.271715   5.250785   4.429625
    32  H    2.476533   3.447183   3.239617   4.956537   4.152826
    33  H    3.512387   4.137140   3.533402   5.663960   4.936685
    34  C    3.964844   4.269026   3.104943   5.194175   4.021358
    35  C    4.945324   5.396448   3.770239   5.329506   4.751516
    36  H    5.930194   6.355740   4.507858   5.639235   5.289632
    37  H    5.011257   5.577783   3.972016   5.457795   5.131039
    38  C    4.624565   4.707711   3.695059   5.558950   4.137258
    39  H    4.377777   4.502779   3.201094   4.909389   3.312754
    40  H    5.676553   5.800291   4.470633   5.897083   4.811619
    41  H    4.751298   4.582772   4.390264   6.508000   4.835368
    42  C    6.772044   7.682666   4.366266   1.505756   3.807609
    43  H    7.137985   8.123991   4.851334   2.141296   4.524357
    44  H    7.116184   7.977726   4.861826   2.140849   4.045139
    45  C    7.670424   8.517555   5.105790   2.505811   4.561194
    46  H    8.702814   9.563760   6.162490   3.453049   5.575269
    47  H    7.635240   8.500505   5.049718   2.776810   4.785255
    48  H    7.614753   8.359468   5.060049   2.776535   4.330128
                   16         17         18         19         20
    16  C    0.000000
    17  C    1.399717   0.000000
    18  C    2.778837   2.396767   0.000000
    19  H    2.147005   1.088138   3.390044   0.000000
    20  H    3.864842   3.382048   1.086197   4.290550   0.000000
    21  O    1.362357   2.320116   4.133131   2.501229   5.218005
    22  H    1.897667   3.016140   4.527454   3.286334   5.590598
    23  O    3.640289   4.130822   2.382720   5.218381   2.622814
    24  H    4.296917   4.523539   2.372929   5.596780   2.187619
    25  O    3.746392   4.740399   4.325073   5.590473   4.958503
    26  H    3.770463   4.630839   3.740502   5.590916   4.240037
    27  C    5.226120   6.433059   6.857574   6.964920   7.664198
    28  H    5.745924   6.919284   7.634816   7.306486   8.494942
    29  H    5.340070   6.405619   6.662228   6.960423   7.386622
    30  H    5.952164   7.215326   7.413482   7.826171   8.160570
    31  O    3.158577   4.285115   5.296142   4.666958   6.260541
    32  H    3.220493   4.175618   4.930309   4.631339   5.814577
    33  H    3.260482   4.492175   5.839175   4.740105   6.889983
    34  C    3.498988   4.538183   4.971061   5.139983   5.819954
    35  C    3.665459   4.494435   5.439372   4.832509   6.342330
    36  H    4.356472   4.935539   5.800392   5.203370   6.614586
    37  H    3.556365   4.398150   5.768846   4.542966   6.756619
    38  C    4.402094   5.258996   5.056831   5.996236   5.683866
    39  H    4.104417   4.848365   4.214843   5.712026   4.734518
    40  H    4.987963   5.647422   5.512261   6.287213   6.074778
    41  H    5.236171   6.208521   5.888788   6.973580   6.466948
    42  C    3.813034   2.521061   2.524906   2.734450   2.723693
    43  H    4.039013   2.664091   3.364817   2.476639   3.686581
    44  H    4.532982   3.362220   2.670256   3.697568   2.468591
    45  C    4.571385   3.341232   3.344891   3.429589   3.420484
    46  H    5.582250   4.285351   4.289994   4.219396   4.211494
    47  H    4.336461   3.163059   3.777204   3.048381   4.102131
    48  H    4.804669   3.775840   3.167356   4.112250   3.041742
                   21         22         23         24         25
    21  O    0.000000
    22  H    0.982836   0.000000
    23  O    4.817936   4.848366   0.000000
    24  H    5.563138   5.675942   0.972803   0.000000
    25  O    4.213759   3.608915   3.124338   3.949974   0.000000
    26  H    4.518197   4.095283   2.247420   3.022428   0.978143
    27  C    4.875278   3.926309   5.858050   6.763434   2.909046
    28  H    5.158948   4.182776   6.836381   7.748379   3.904768
    29  H    5.156846   4.224565   5.725235   6.556499   2.608242
    30  H    5.685145   4.780219   6.092839   6.990739   3.290039
    31  O    2.609339   1.636825   5.082324   5.969585   2.810841
    32  H    3.007079   2.153215   4.753965   5.576550   2.322980
    33  H    2.324096   2.104278   5.698569   6.593969   4.654107
    34  C    3.603446   3.881293   4.494192   5.222168   5.071444
    35  C    3.493381   3.992125   5.483505   6.153690   6.016215
    36  H    4.308435   4.930523   6.017324   6.566548   6.938324
    37  H    2.996595   3.485959   6.005131   6.731184   6.085004
    38  C    4.849875   5.150859   4.263128   4.814845   5.584078
    39  H    4.837626   5.138173   3.303302   3.768357   5.097129
    40  H    5.426404   5.870355   5.023030   5.440960   6.599760
    41  H    5.601769   5.754412   4.711392   5.287092   5.801985
    42  C    4.836956   5.486680   4.907269   4.784659   6.376451
    43  H    4.826087   5.466935   5.708232   5.683332   6.729330
    44  H    5.645445   6.185062   4.928307   4.634616   6.524866
    45  C    5.538976   6.332730   5.595937   5.393671   7.465717
    46  H    6.492295   7.285877   6.562726   6.280346   8.425915
    47  H    5.113825   5.998161   5.928839   5.873757   7.617922
    48  H    5.901068   6.665932   5.173935   4.854677   7.436061
                   26         27         28         29         30
    26  H    0.000000
    27  C    3.848375   0.000000
    28  H    4.865780   1.096226   0.000000
    29  H    3.554179   1.095641   1.751579   0.000000
    30  H    4.114241   1.094835   1.777000   1.777265   0.000000
    31  O    3.608299   2.385800   2.649320   2.634636   3.355099
    32  H    3.121801   2.533277   2.952042   2.356216   3.520943
    33  H    5.122258   4.285984   4.432100   5.024657   4.821245
    34  C    5.010072   5.930470   6.495979   6.547221   6.145978
    35  C    6.027812   6.664501   7.067740   7.306213   7.009701
    36  H    6.855777   7.739563   8.152363   8.359062   8.072122
    37  H    6.249005   6.390041   6.641769   7.058198   6.846538
    38  C    5.281471   6.854401   7.560679   7.394739   6.918874
    39  H    4.634270   6.802832   7.609989   7.193267   6.894782
    40  H    6.262934   7.887268   8.551299   8.434266   7.981962
    41  H    5.527316   6.859888   7.584138   7.468296   6.752798
    42  C    5.989729   8.555473   9.127728   8.322410   9.304283
    43  H    6.480332   8.662623   9.122757   8.405156   9.502225
    44  H    6.048524   8.900963   9.534235   8.552974   9.616765
    45  C    7.019771   9.625505  10.203395   9.508606  10.321664
    46  H    7.976205  10.595234  11.149295  10.429588  11.320875
    47  H    7.262636   9.538964  10.045426   9.532700  10.251145
    48  H    6.876031   9.758228  10.424450   9.664669  10.358589
                   31         32         33         34         35
    31  O    0.000000
    32  H    0.983323   0.000000
    33  H    2.826833   3.707139   0.000000
    34  C    4.782840   5.323913   2.881203   0.000000
    35  C    5.194769   5.819839   2.858175   1.344261   0.000000
    36  H    6.222523   6.807259   3.901118   2.124453   1.085895
    37  H    4.759846   5.474078   2.230015   2.133766   1.084805
    38  C    5.945875   6.345303   4.354987   1.508523   2.468088
    39  H    5.879768   6.113090   4.778004   2.155712   3.168482
    40  H    6.834958   7.252319   5.023329   2.172682   2.592465
    41  H    6.318753   6.748823   4.750065   2.149646   3.203254
    42  C    6.567748   6.223703   6.987368   6.513700   6.489497
    43  H    6.556601   6.211334   7.093751   7.025620   6.874611
    44  H    7.079041   6.606175   7.780971   7.239826   7.359605
    45  C    7.598123   7.389492   7.507120   6.623628   6.437661
    46  H    8.539517   8.291164   8.518294   7.697521   7.455889
    47  H    7.409919   7.337104   6.982187   6.160759   5.777468
    48  H    7.880763   7.677727   7.686550   6.406732   6.352850
                   36         37         38         39         40
    36  H    0.000000
    37  H    1.839662   0.000000
    38  C    2.687221   3.479325   0.000000
    39  H    3.405252   4.112380   1.093852   0.000000
    40  H    2.343898   3.677208   1.095418   1.764354   0.000000
    41  H    3.477647   4.146340   1.094842   1.777681   1.764874
    42  C    6.633394   6.589267   6.802778   6.145100   6.983342
    43  H    7.061872   6.805096   7.503671   6.936976   7.702226
    44  H    7.529617   7.519148   7.404562   6.630616   7.633159
    45  C    6.328165   6.648571   6.745564   6.152882   6.684662
    46  H    7.290573   7.632993   7.802165   7.207669   7.688164
    47  H    5.592176   5.921324   6.405198   5.975191   6.260599
    48  H    6.178440   6.738030   6.287871   5.613020   6.174870
                   41         42         43         44         45
    41  H    0.000000
    42  C    7.797353   0.000000
    43  H    8.508643   1.096845   0.000000
    44  H    8.344259   1.096832   1.752131   0.000000
    45  C    7.793013   1.521005   2.154954   2.154843   0.000000
    46  H    8.851055   2.159346   2.480220   2.480203   1.094574
    47  H    7.488137   2.172976   2.520100   3.074450   1.095320
    48  H    7.299110   2.172945   3.074507   2.519815   1.095317
                   46         47         48
    46  H    0.000000
    47  H    1.772237   0.000000
    48  H    1.772236   1.770548   0.000000
 Stoichiometry    C18H26O4
 Framework group  C1[X(C18H26O4)]
 Deg. of freedom   138
 Full point group                 C1      NOp   1
 Largest Abelian subgroup         C1      NOp   1
 Largest concise Abelian subgroup C1      NOp   1
                         Standard orientation:                         
 ---------------------------------------------------------------------
 Center     Atomic      Atomic             Coordinates (Angstroms)
 Number     Number       Type             X           Y           Z
 ---------------------------------------------------------------------
      1          6           0        2.813787   -1.065579   -0.373025
      2          6           0        3.461609    0.263007   -0.777314
      3          1           0        4.221622    0.542315   -0.036050
      4          1           0        3.978840    0.150166   -1.738610
      5          6           0        2.466413    1.414386   -0.911505
      6          1           0        3.037813    2.340938   -1.060422
      7          6           0        1.561574    1.578209    0.327159
      8          1           0        2.281882    1.873831    1.109350
      9          6           0        0.934826    0.244080    0.855984
     10          1           0        0.770254    0.482525    1.917814
     11          6           0        1.984476   -0.900050    0.916179
     12          1           0        2.681723   -0.663588    1.731749
     13          6           0       -0.456418   -0.179253    0.360093
     14          6           0       -3.152071   -0.816279   -0.356028
     15          6           0       -1.416271   -0.586199    1.313818
     16          6           0       -0.886372   -0.179663   -0.970892
     17          6           0       -2.211243   -0.461118   -1.324035
     18          6           0       -2.739660   -0.889664    0.974142
     19          1           0       -2.494084   -0.417491   -2.373864
     20          1           0       -3.453437   -1.188676    1.736335
     21          8           0       -0.060565    0.047426   -2.030368
     22          1           0        0.753788   -0.480915   -1.876575
     23          8           0       -1.029487   -0.726618    2.625226
     24          1           0       -1.825688   -0.875572    3.163948
     25          8           0        1.385199   -2.159644    1.255111
     26          1           0        0.708402   -1.974135    1.936505
     27          6           0        3.898343   -2.139181   -0.209893
     28          1           0        4.468553   -2.256253   -1.138799
     29          1           0        3.462417   -3.121192    0.004705
     30          1           0        4.596670   -1.886623    0.594605
     31          8           0        1.942118   -1.510926   -1.422544
     32          1           0        1.518294   -2.320102   -1.058495
     33          1           0        1.896102    1.285748   -1.831791
     34          6           0        0.573772    2.748388    0.269032
     35          6           0        0.152505    3.333907   -0.865313
     36          1           0       -0.549660    4.162100   -0.850174
     37          1           0        0.461066    2.992612   -1.847713
     38          6           0        0.082514    3.259354    1.600655
     39          1           0       -0.503919    2.495039    2.118758
     40          1           0       -0.554342    4.144173    1.493651
     41          1           0        0.928965    3.540678    2.235524
     42          6           0       -4.577890   -1.107038   -0.743068
     43          1           0       -4.606353   -1.548359   -1.746809
     44          1           0       -4.997206   -1.863080   -0.068075
     45          6           0       -5.438534    0.146572   -0.708294
     46          1           0       -6.467907   -0.093064   -0.993003
     47          1           0       -5.062506    0.906042   -1.402219
     48          1           0       -5.457568    0.587712    0.294080
 ---------------------------------------------------------------------
 Rotational constants (GHZ):      0.4151997      0.2151047      0.1910253
 Standard basis: 6-31+G(d,p) (6D, 7F)
 There are   548 symmetry adapted basis functions of A   symmetry.
 Integral buffers will be    131072 words long.
 Raffenetti 2 integral format.
 Two-electron integral symmetry is turned on.
   548 basis functions,   886 primitive gaussians,   548 cartesian basis functions
    83 alpha electrons       83 beta electrons
       nuclear repulsion energy      2015.1614768759 Hartrees.
 NAtoms=   48 NActive=   48 NUniq=   48 SFac= 1.00D+00 NAtFMM=   60 NAOKFM=F Big=F
 ------------------------------------------------------------------------------
 Polarizable Continuum Model (PCM)
 =================================
 Model                : PCM.
 Atomic radii         : UFF (Universal Force Field).
 Polarization charges : Total charges.
 Charge compensation  : None.
 Solution method      : Matrix inversion.
 Cavity type          : Scaled VdW (van der Waals Surface) (Alpha=1.100).
 Cavity algorithm     : GePol (No added spheres)
                        Default sphere list used, NSphG=   48.
                        Lebedev-Laikov grids with approx.  5.0 points / Ang**2.
                        Smoothing algorithm: Karplus/York (Gamma=1.0000).
                        Polarization charges: spherical gaussians, with
                                              point-specific exponents (IZeta= 3).
                        Self-potential: point-specific (ISelfS= 7).
                        Self-field    : sphere-specific E.n sum rule (ISelfD= 2).
 Solvent              : Water, Eps=  78.355300 Eps(inf)=   1.777849
 ------------------------------------------------------------------------------
 One-electron integrals computed using PRISM.
 NBasis=   548 RedAO= T  NBF=   548
 NBsUse=   546 1.00D-06 NBFU=   546
 Harris functional with IExCor=  908 diagonalized for initial guess.
 ExpMin= 4.38D-02 ExpMax= 5.48D+03 ExpMxC= 8.25D+02 IAcc=2 IRadAn=         4 AccDes= 0.00D+00
 HarFok:  IExCor=  908 AccDes= 0.00D+00 IRadAn=         4 IDoV= 1
 ScaDFX=  1.000000  1.000000  1.000000  1.000000
 FoFCou: FMM=F IPFlag=           0 FMFlag=      100000 FMFlg1=           0
         NFxFlg=           0 DoJE=T BraDBF=F KetDBF=T FulRan=T
         Omega=  0.000000  0.000000  1.000000  0.000000  0.000000 ICntrl=     500 IOpCl=  0
         NMat0=    1 NMatS0=    1 NMatT0=    0 NMatD0=    1 NMtDS0=    0 NMtDT0=    0
         I1Cent=           4 NGrid=           0.
 Petite list used in FoFCou.
 Initial guess orbital symmetries:
       Occupied  (A) (A) (A) (A) (A) (A) (A) (A) (A) (A) (A) (A)
                 (A) (A) (A) (A) (A) (A) (A) (A) (A) (A) (A) (A)
                 (A) (A) (A) (A) (A) (A) (A) (A) (A) (A) (A) (A)
                 (A) (A) (A) (A) (A) (A) (A) (A) (A) (A) (A) (A)
                 (A) (A) (A) (A) (A) (A) (A) (A) (A) (A) (A) (A)
                 (A) (A) (A) (A) (A) (A) (A) (A) (A) (A) (A) (A)
                 (A) (A) (A) (A) (A) (A) (A) (A) (A) (A) (A)
       Virtual   (A) (A) (A) (A) (A) (A) (A) (A) (A) (A) (A) (A)
                 (A) (A) (A) (A) (A) (A) (A) (A) (A) (A) (A) (A)
                 (A) (A) (A) (A) (A) (A) (A) (A) (A) (A) (A) (A)
                 (A) (A) (A) (A) (A) (A) (A) (A) (A) (A) (A) (A)
                 (A) (A) (A) (A) (A) (A) (A) (A) (A) (A) (A) (A)
                 (A) (A) (A) (A) (A) (A) (A) (A) (A) (A) (A) (A)
                 (A) (A) (A) (A) (A) (A) (A) (A) (A) (A) (A) (A)
                 (A) (A) (A) (A) (A) (A) (A) (A) (A) (A) (A) (A)
                 (A) (A) (A) (A) (A) (A) (A) (A) (A) (A) (A) (A)
                 (A) (A) (A) (A) (A) (A) (A) (A) (A) (A) (A) (A)
                 (A) (A) (A) (A) (A) (A) (A) (A) (A) (A) (A) (A)
                 (A) (A) (A) (A) (A) (A) (A) (A) (A) (A) (A) (A)
                 (A) (A) (A) (A) (A) (A) (A) (A) (A) (A) (A) (A)
                 (A) (A) (A) (A) (A) (A) (A) (A) (A) (A) (A) (A)
                 (A) (A) (A) (A) (A) (A) (A) (A) (A) (A) (A) (A)
                 (A) (A) (A) (A) (A) (A) (A) (A) (A) (A) (A) (A)
                 (A) (A) (A) (A) (A) (A) (A) (A) (A) (A) (A) (A)
                 (A) (A) (A) (A) (A) (A) (A) (A) (A) (A) (A) (A)
                 (A) (A) (A) (A) (A) (A) (A) (A) (A) (A) (A) (A)
                 (A) (A) (A) (A) (A) (A) (A) (A) (A) (A) (A) (A)
                 (A) (A) (A) (A) (A) (A) (A) (A) (A) (A) (A) (A)
                 (A) (A) (A) (A) (A) (A) (A) (A) (A) (A) (A) (A)
                 (A) (A) (A) (A) (A) (A) (A) (A) (A) (A) (A) (A)
                 (A) (A) (A) (A) (A) (A) (A) (A) (A) (A) (A) (A)
                 (A) (A) (A) (A) (A) (A) (A) (A) (A) (A) (A) (A)
                 (A) (A) (A) (A) (A) (A) (A) (A) (A) (A) (A) (A)
                 (A) (A) (A) (A) (A) (A) (A) (A) (A) (A) (A) (A)
                 (A) (A) (A) (A) (A) (A) (A) (A) (A) (A) (A) (A)
                 (A) (A) (A) (A) (A) (A) (A) (A) (A) (A) (A) (A)
                 (A) (A) (A) (A) (A) (A) (A) (A) (A) (A) (A) (A)
                 (A) (A) (A) (A) (A) (A) (A) (A) (A) (A) (A) (A)
                 (A) (A) (A) (A) (A) (A) (A) (A) (A) (A) (A) (A)
                 (A) (A) (A) (A) (A) (A) (A) (A) (A) (A) (A) (A)
                 (A) (A) (A) (A) (A) (A) (A) (A) (A) (A) (A) (A)
                 (A) (A) (A) (A) (A) (A) (A) (A) (A) (A) (A) (A)
                 (A) (A) (A) (A) (A) (A) (A) (A) (A) (A) (A) (A)
                 (A) (A) (A) (A) (A) (A) (A) (A) (A) (A) (A) (A)
                 (A) (A) (A) (A) (A) (A) (A) (A) (A) (A) (A) (A)
                 (A) (A) (A) (A) (A) (A) (A)
 The electronic state of the initial guess is 1-A.
 Requested convergence on RMS density matrix=1.00D-08 within 128 cycles.
 Requested convergence on MAX density matrix=1.00D-06.
 Requested convergence on             energy=1.00D-06.
 No special actions if energy rises.
 CoulSu:  requested number of processors reduced to:   3 ShMem   1 Linda.
 CoulSu:  requested number of processors reduced to:   3 ShMem   1 Linda.
 Error on total polarization charges =  0.01923
 SCF Done:  E(RmPW1PW91) =  -1002.30685964     A.U. after   14 cycles
             Convg  =    0.5363D-08             -V/T =  2.0093
 Range of M.O.s used for correlation:     1   546
 NBasis=   548 NAE=    83 NBE=    83 NFC=     0 NFV=     0
 NROrb=    546 NOA=    83 NOB=    83 NVA=   463 NVB=   463

 **** Warning!!: The largest alpha MO coefficient is  0.17940118D+03

 NEqPCM:  Using equilibrium solvation (IEInf=0, Eps=  78.3553, EpsInf=   1.7778)
          Differentiating once with respect to magnetic field using GIAOs.
          Electric field/nuclear overlap derivatives assumed to be zero.
 FoFCou: FMM=F IPFlag=           0 FMFlag=    10101102 FMFlg1=           0
         NFxFlg=    40000000 DoJE=F BraDBF=F KetDBF=T FulRan=T
         Omega=  0.000000  0.000000  1.000000  0.000000  0.000000 ICntrl=    6100 IOpCl=  0
         NMat0=    1 NMatS0=    1 NMatT0=    0 NMatD0=    1 NMtDS0=    0 NMtDT0=    0
         I1Cent=           7 NGrid=        2980.
 Symmetry not used in FoFCou.
          There are     3 degrees of freedom in the 1st order CPHF.  IDoFFX=0.
      3 vectors produced by pass  0 Test12= 1.28D-12 3.33D-08 XBig12= 7.34D+02 3.72D+00.
 AX will form     3 AO Fock derivatives at one time.
      3 vectors produced by pass  1 Test12= 1.28D-12 3.33D-08 XBig12= 1.53D+00 2.85D-01.
      3 vectors produced by pass  2 Test12= 1.28D-12 3.33D-08 XBig12= 5.89D-03 3.32D-02.
      3 vectors produced by pass  3 Test12= 1.28D-12 3.33D-08 XBig12= 3.24D-05 2.07D-03.
      3 vectors produced by pass  4 Test12= 1.28D-12 3.33D-08 XBig12= 1.03D-07 5.32D-05.
      3 vectors produced by pass  5 Test12= 1.28D-12 3.33D-08 XBig12= 3.79D-10 2.65D-06.
      3 vectors produced by pass  6 Test12= 1.28D-12 3.33D-08 XBig12= 1.76D-12 1.92D-07.
 Inverted reduced A of dimension    21 with in-core refinement.
 Calculating GIAO nuclear magnetic shielding tensors.
 SCF GIAO Magnetic shielding tensor (ppm):
      1  C    Isotropic =   123.9233   Anisotropy =    47.9615
   XX=   124.8971   YX=     0.7649   ZX=    24.2648
   XY=     6.1239   YY=   110.3763   ZY=    10.7757
   XZ=    22.0656   YZ=     3.5064   ZZ=   136.4965
   Eigenvalues:   105.9374   109.9349   155.8976
      2  C    Isotropic =   159.2621   Anisotropy =    23.0479
   XX=   155.2566   YX=     2.7837   ZX=    -2.2098
   XY=    -0.3901   YY=   173.0385   ZY=    -2.2752
   XZ=    -5.2648   YZ=    -9.4265   ZZ=   149.4914
   Eigenvalues:   146.7614   156.3976   174.6274
      3  H    Isotropic =    29.7680   Anisotropy =     8.5766
   XX=    34.0700   YX=     1.2217   ZX=     3.1568
   XY=     1.9535   YY=    29.2907   ZY=     0.0629
   XZ=     2.7767   YZ=     0.9458   ZZ=    25.9432
   Eigenvalues:    24.9754    28.8429    35.4857
      4  H    Isotropic =    29.5428   Anisotropy =     9.1413
   XX=    30.7343   YX=    -1.7036   ZX=    -5.2930
   XY=    -1.2413   YY=    27.7445   ZY=    -0.8975
   XZ=    -4.9993   YZ=    -0.5955   ZZ=    30.1497
   Eigenvalues:    24.5298    28.4617    35.6370
      5  C    Isotropic =   170.9752   Anisotropy =    16.5508
   XX=   174.7440   YX=     1.2208   ZX=   -10.9473
   XY=    -3.2973   YY=   170.6967   ZY=    -2.7845
   XZ=    -9.3450   YZ=     3.8632   ZZ=   167.4848
   Eigenvalues:   160.3362   170.5803   182.0090
      6  H    Isotropic =    30.1732   Anisotropy =    10.4520
   XX=    30.9435   YX=     3.0440   ZX=    -3.2347
   XY=     3.6123   YY=    33.7873   ZY=    -2.6057
   XZ=    -2.2917   YZ=    -2.3905   ZZ=    25.7887
   Eigenvalues:    24.4584    28.9200    37.1412
      7  C    Isotropic =   150.0624   Anisotropy =    22.0136
   XX=   157.8854   YX=    -7.5464   ZX=    -6.2053
   XY=    -6.3010   YY=   154.4840   ZY=     3.0802
   XZ=    -3.1463   YZ=     5.0590   ZZ=   137.8179
   Eigenvalues:   136.3867   149.0624   164.7382
      8  H    Isotropic =    28.8472   Anisotropy =     7.4250
   XX=    28.5754   YX=     1.4711   ZX=     1.5660
   XY=     2.7422   YY=    28.6016   ZY=     3.9975
   XZ=     0.7193   YZ=     3.6071   ZZ=    29.3647
   Eigenvalues:    24.9490    27.7954    33.7972
      9  C    Isotropic =   157.7433   Anisotropy =    30.4244
   XX=   164.9339   YX=    -1.2241   ZX=     8.5749
   XY=    -1.2598   YY=   176.1968   ZY=   -12.2926
   XZ=     3.3120   YZ=    -3.7830   ZZ=   132.0990
   Eigenvalues:   129.7732   165.4304   178.0262
     10  H    Isotropic =    27.2680   Anisotropy =     6.4678
   XX=    25.6729   YX=     1.2931   ZX=    -3.1593
   XY=     2.0544   YY=    26.0424   ZY=     0.7913
   XZ=    -2.7717   YZ=     0.6726   ZZ=    30.0888
   Eigenvalues:    23.0654    27.1587    31.5799
     11  C    Isotropic =   118.8715   Anisotropy =    29.7331
   XX=   119.2528   YX=    10.8321   ZX=   -12.6232
   XY=     9.7512   YY=   130.9280   ZY=   -10.3125
   XZ=    -0.5133   YZ=     0.5799   ZZ=   106.4337
   Eigenvalues:   103.6541   114.2669   138.6936
     12  H    Isotropic =    27.3296   Anisotropy =     4.4501
   XX=    27.3264   YX=     0.3065   ZX=     2.9917
   XY=     0.2871   YY=    26.0514   ZY=    -0.1077
   XZ=     1.4710   YZ=    -0.7235   ZZ=    28.6111
   Eigenvalues:    25.3201    26.3723    30.2963
     13  C    Isotropic =    90.6841   Anisotropy =   118.5334
   XX=    51.2119   YX=   -38.0628   ZX=    -6.4729
   XY=   -31.6065   YY=   158.6018   ZY=     4.8610
   XZ=    -3.6687   YZ=    11.4102   ZZ=    62.2387
   Eigenvalues:    40.5914    61.7546   169.7064
     14  C    Isotropic =    50.9138   Anisotropy =   190.5320
   XX=   -13.1910   YX=   -52.3648   ZX=   -16.7902
   XY=   -52.0412   YY=   161.6279   ZY=    10.0664
   XZ=   -14.9701   YZ=    18.8373   ZZ=     4.3046
   Eigenvalues:   -31.4411     6.2475   177.9352
     15  C    Isotropic =    43.5370   Anisotropy =   125.0431
   XX=    45.4135   YX=   -17.5037   ZX=   -23.5512
   XY=   -24.8961   YY=   116.7300   ZY=    18.4544
   XZ=   -20.4749   YZ=    23.3684   ZZ=   -31.5323
   Eigenvalues:   -38.8556    42.5676   126.8991
     16  C    Isotropic =    41.4266   Anisotropy =   129.9579
   XX=     5.2225   YX=   -23.0651   ZX=    34.4583
   XY=   -18.2401   YY=   123.0388   ZY=    26.1714
   XZ=    30.8503   YZ=    12.5025   ZZ=    -3.9815
   Eigenvalues:   -37.2997    33.5143   128.0652
     17  C    Isotropic =    82.3256   Anisotropy =   110.0089
   XX=    84.1835   YX=   -13.2479   ZX=   -18.7749
   XY=   -11.3578   YY=   152.9896   ZY=    -3.1465
   XZ=   -22.7716   YZ=    13.6586   ZZ=     9.8037
   Eigenvalues:     4.3684    86.9435   155.6649
     18  C    Isotropic =    91.5963   Anisotropy =    99.3442
   XX=    67.7394   YX=   -24.6449   ZX=    30.4714
   XY=   -24.5679   YY=   147.8215   ZY=    30.0911
   XZ=    33.4484   YZ=    21.2200   ZZ=    59.2279
   Eigenvalues:    21.2736    95.6895   157.8257
     19  H    Isotropic =    24.8262   Anisotropy =     8.1841
   XX=    29.5377   YX=     2.1329   ZX=    -0.9110
   XY=     2.6351   YY=    21.2971   ZY=     0.0990
   XZ=    -0.8440   YZ=     0.0179   ZZ=    23.6436
   Eigenvalues:    20.6297    23.5665    30.2822
     20  H    Isotropic =    25.0450   Anisotropy =     6.9635
   XX=    27.6678   YX=     1.1566   ZX=     2.7455
   XY=     0.8219   YY=    21.2336   ZY=    -0.9226
   XZ=     2.5143   YZ=    -0.6927   ZZ=    26.2337
   Eigenvalues:    20.7763    24.6715    29.6874
     21  O    Isotropic =   216.1417   Anisotropy =    80.7950
   XX=   190.5620   YX=    -7.7491   ZX=   -14.7900
   XY=     1.3124   YY=   268.9992   ZY=    -3.3411
   XZ=   -31.8755   YZ=    17.5796   ZZ=   188.8640
   Eigenvalues:   166.2825   212.1376   270.0050
     22  H    Isotropic =    22.3618   Anisotropy =    29.0321
   XX=    32.8835   YX=   -11.8829   ZX=     4.8641
   XY=   -14.6085   YY=    18.7481   ZY=    -2.4098
   XZ=     3.4720   YZ=    -2.4622   ZZ=    15.4537
   Eigenvalues:    10.8016    14.5672    41.7165
     23  O    Isotropic =   229.2392   Anisotropy =    45.8977
   XX=   196.7322   YX=    -7.5937   ZX=     1.6117
   XY=   -32.9457   YY=   234.5730   ZY=    16.6039
   XZ=    21.8728   YZ=     0.5849   ZZ=   256.4126
   Eigenvalues:   185.0925   242.7875   259.8377
     24  H    Isotropic =    26.3332   Anisotropy =    16.1571
   XX=    30.9467   YX=     2.6279   ZX=    -5.4011
   XY=     1.8941   YY=    17.8738   ZY=    -0.5100
   XZ=    -6.9140   YZ=    -2.4882   ZZ=    30.1792
   Eigenvalues:    17.4725    24.4226    37.1046
     25  O    Isotropic =   290.4877   Anisotropy =    43.2336
   XX=   293.9443   YX=   -10.3202   ZX=   -30.9640
   XY=   -16.9537   YY=   299.8323   ZY=    -6.9120
   XZ=   -28.6741   YZ=    -7.2845   ZZ=   277.6865
   Eigenvalues:   250.8961   301.2569   319.3101
     26  H    Isotropic =    28.9676   Anisotropy =    20.0743
   XX=    32.2586   YX=    -2.0957   ZX=   -11.4280
   XY=    -4.0228   YY=    25.3668   ZY=    -2.3113
   XZ=   -11.3408   YZ=    -0.7417   ZZ=    29.2775
   Eigenvalues:    17.9272    26.6251    42.3505
     27  C    Isotropic =   167.7260   Anisotropy =    45.6849
   XX=   176.0546   YX=   -22.1188   ZX=    14.3356
   XY=   -22.4998   YY=   170.6305   ZY=    -2.2363
   XZ=     9.5405   YZ=    -0.4026   ZZ=   156.4929
   Eigenvalues:   145.5514   159.4439   198.1826
     28  H    Isotropic =    30.4331   Anisotropy =     9.4096
   XX=    31.9370   YX=    -3.1034   ZX=    -4.0527
   XY=    -3.9389   YY=    29.1438   ZY=     2.1910
   XZ=    -3.3969   YZ=     0.7370   ZZ=    30.2186
   Eigenvalues:    26.3544    28.2388    36.7062
     29  H    Isotropic =    30.0818   Anisotropy =     8.5657
   XX=    29.2300   YX=    -2.9727   ZX=    -1.2193
   XY=    -1.6006   YY=    34.8395   ZY=    -1.6053
   XZ=    -1.5065   YZ=    -1.7578   ZZ=    26.1759
   Eigenvalues:    25.0436    29.4096    35.7923
     30  H    Isotropic =    30.4996   Anisotropy =    11.0446
   XX=    34.2354   YX=    -1.6994   ZX=     5.1253
   XY=    -2.6948   YY=    27.3535   ZY=    -1.0671
   XZ=     4.6180   YZ=    -0.2260   ZZ=    29.9100
   Eigenvalues:    26.1718    27.4644    37.8627
     31  O    Isotropic =   277.1304   Anisotropy =    30.9777
   XX=   293.1860   YX=     7.2400   ZX=    21.0653
   XY=    -3.4329   YY=   291.8130   ZY=   -17.4264
   XZ=     6.1072   YZ=    -9.0822   ZZ=   246.3922
   Eigenvalues:   239.3617   294.2474   297.7822
     32  H    Isotropic =    28.5973   Anisotropy =    12.9570
   XX=    25.5960   YX=     6.9021   ZX=    -1.9183
   XY=     5.1615   YY=    33.8813   ZY=    -1.1847
   XZ=     0.2260   YZ=    -1.0864   ZZ=    26.3145
   Eigenvalues:    22.4085    26.1481    37.2353
     33  H    Isotropic =    28.9473   Anisotropy =     6.0825
   XX=    28.8864   YX=     0.0808   ZX=     2.4775
   XY=    -0.3342   YY=    26.9893   ZY=    -1.4387
   XZ=     2.8300   YZ=    -1.1934   ZZ=    30.9661
   Eigenvalues:    26.2758    27.5637    33.0023
     34  C    Isotropic =    45.7395   Anisotropy =   178.3854
   XX=    80.5109   YX=    95.8453   ZX=    32.7511
   XY=    98.0184   YY=    52.9751   ZY=   -36.6677
   XZ=    34.2376   YZ=   -35.9092   ZZ=     3.7325
   Eigenvalues:   -66.0711    38.6265   164.6631
     35  C    Isotropic =    87.4735   Anisotropy =   119.8777
   XX=   106.6418   YX=    67.8561   ZX=    40.4120
   XY=    76.8945   YY=    79.4200   ZY=   -33.6814
   XZ=    31.7123   YZ=   -30.1861   ZZ=    76.3588
   Eigenvalues:    -7.6773   102.7059   167.3920
     36  H    Isotropic =    26.4947   Anisotropy =     5.3451
   XX=    25.0914   YX=    -0.6386   ZX=     1.1756
   XY=     0.1250   YY=    27.5568   ZY=    -1.7134
   XZ=     2.1413   YZ=    -3.2684   ZZ=    26.8358
   Eigenvalues:    23.6621    25.7639    30.0581
     37  H    Isotropic =    26.4885   Anisotropy =     8.0588
   XX=    24.4353   YX=    -0.4746   ZX=     3.1401
   XY=    -0.4812   YY=    27.9148   ZY=    -5.3064
   XZ=     1.0148   YZ=    -2.5023   ZZ=    27.1154
   Eigenvalues:    22.5933    25.0112    31.8611
     38  C    Isotropic =   171.3319   Anisotropy =    39.6442
   XX=   163.3938   YX=   -13.8718   ZX=    -5.9814
   XY=    -7.4387   YY=   162.6077   ZY=    13.8158
   XZ=    -7.1163   YZ=    15.0681   ZZ=   187.9942
   Eigenvalues:   151.0826   165.1517   197.7613
     39  H    Isotropic =    29.7753   Anisotropy =     5.5066
   XX=    27.6928   YX=     0.5960   ZX=    -4.8501
   XY=     2.0084   YY=    32.1288   ZY=     1.0637
   XZ=    -3.8640   YZ=    -0.7128   ZZ=    29.5043
   Eigenvalues:    23.9929    31.8866    33.4463
     40  H    Isotropic =    29.8836   Anisotropy =     8.7793
   XX=    28.3417   YX=    -4.6548   ZX=     0.1912
   XY=    -3.5146   YY=    33.0105   ZY=     0.7974
   XZ=    -1.3377   YZ=     2.2962   ZZ=    28.2987
   Eigenvalues:    25.9336    27.9807    35.7365
     41  H    Isotropic =    30.0441   Anisotropy =     9.0274
   XX=    28.9283   YX=     0.8538   ZX=     2.4097
   XY=     1.6489   YY=    29.9096   ZY=     4.6459
   XZ=     3.6037   YZ=     3.4144   ZZ=    31.2944
   Eigenvalues:    25.9878    28.0822    36.0624
     42  C    Isotropic =   163.9235   Anisotropy =    29.6979
   XX=   181.6720   YX=    11.4334   ZX=     7.3621
   XY=    -2.4644   YY=   151.2365   ZY=    -2.5437
   XZ=     4.7391   YZ=     1.2751   ZZ=   158.8619
   Eigenvalues:   150.2921   157.7562   183.7221
     43  H    Isotropic =    29.1336   Anisotropy =     7.0538
   XX=    29.2300   YX=     0.4769   ZX=     1.3439
   XY=     1.4119   YY=    27.3801   ZY=     4.4634
   XZ=     0.3593   YZ=     3.6929   ZZ=    30.7906
   Eigenvalues:    24.6427    28.9220    33.8361
     44  H    Isotropic =    29.2230   Anisotropy =     7.6704
   XX=    29.8338   YX=     2.5904   ZX=    -0.7808
   XY=     3.4583   YY=    30.5197   ZY=    -3.8406
   XZ=     0.5929   YZ=    -3.1136   ZZ=    27.3155
   Eigenvalues:    24.5494    28.7829    34.3366
     45  C    Isotropic =   177.2479   Anisotropy =    27.7251
   XX=   186.8585   YX=    -7.2672   ZX=     3.4146
   XY=   -16.8194   YY=   179.0263   ZY=    -0.7992
   XZ=     1.3959   YZ=     0.8585   ZZ=   165.8590
   Eigenvalues:   165.3194   170.6930   195.7313
     46  H    Isotropic =    30.3356   Anisotropy =    12.0637
   XX=    37.7533   YX=     0.1158   ZX=     2.7430
   XY=    -2.1208   YY=    26.8642   ZY=    -0.5512
   XZ=     2.2994   YZ=     0.1634   ZZ=    26.3892
   Eigenvalues:    25.8546    26.7740    38.3780
     47  H    Isotropic =    30.6544   Anisotropy =     7.1793
   XX=    30.2663   YX=    -0.7919   ZX=    -0.1335
   XY=    -1.3100   YY=    32.0687   ZY=    -5.1848
   XZ=    -0.6754   YZ=    -3.5254   ZZ=    29.6282
   Eigenvalues:    26.1035    30.4191    35.4406
     48  H    Isotropic =    30.6220   Anisotropy =     7.2340
   XX=    30.2597   YX=    -2.1995   ZX=    -1.1042
   XY=    -3.6145   YY=    29.2000   ZY=     3.5746
   XZ=    -0.9937   YZ=     2.4720   ZZ=    32.4062
   Eigenvalues:    26.2317    30.1896    35.4446
 End of Minotr Frequency-dependent properties file   721 does not exist.
 End of Minotr Frequency-dependent properties file   722 does not exist.

 **********************************************************************

            Population analysis using the SCF density.

 **********************************************************************

 Orbital symmetries:
       Occupied  (A) (A) (A) (A) (A) (A) (A) (A) (A) (A) (A) (A)
                 (A) (A) (A) (A) (A) (A) (A) (A) (A) (A) (A) (A)
                 (A) (A) (A) (A) (A) (A) (A) (A) (A) (A) (A) (A)
                 (A) (A) (A) (A) (A) (A) (A) (A) (A) (A) (A) (A)
                 (A) (A) (A) (A) (A) (A) (A) (A) (A) (A) (A) (A)
                 (A) (A) (A) (A) (A) (A) (A) (A) (A) (A) (A) (A)
                 (A) (A) (A) (A) (A) (A) (A) (A) (A) (A) (A)
       Virtual   (A) (A) (A) (A) (A) (A) (A) (A) (A) (A) (A) (A)
                 (A) (A) (A) (A) (A) (A) (A) (A) (A) (A) (A) (A)
                 (A) (A) (A) (A) (A) (A) (A) (A) (A) (A) (A) (A)
                 (A) (A) (A) (A) (A) (A) (A) (A) (A) (A) (A) (A)
                 (A) (A) (A) (A) (A) (A) (A) (A) (A) (A) (A) (A)
                 (A) (A) (A) (A) (A) (A) (A) (A) (A) (A) (A) (A)
                 (A) (A) (A) (A) (A) (A) (A) (A) (A) (A) (A) (A)
                 (A) (A) (A) (A) (A) (A) (A) (A) (A) (A) (A) (A)
                 (A) (A) (A) (A) (A) (A) (A) (A) (A) (A) (A) (A)
                 (A) (A) (A) (A) (A) (A) (A) (A) (A) (A) (A) (A)
                 (A) (A) (A) (A) (A) (A) (A) (A) (A) (A) (A) (A)
                 (A) (A) (A) (A) (A) (A) (A) (A) (A) (A) (A) (A)
                 (A) (A) (A) (A) (A) (A) (A) (A) (A) (A) (A) (A)
                 (A) (A) (A) (A) (A) (A) (A) (A) (A) (A) (A) (A)
                 (A) (A) (A) (A) (A) (A) (A) (A) (A) (A) (A) (A)
                 (A) (A) (A) (A) (A) (A) (A) (A) (A) (A) (A) (A)
                 (A) (A) (A) (A) (A) (A) (A) (A) (A) (A) (A) (A)
                 (A) (A) (A) (A) (A) (A) (A) (A) (A) (A) (A) (A)
                 (A) (A) (A) (A) (A) (A) (A) (A) (A) (A) (A) (A)
                 (A) (A) (A) (A) (A) (A) (A) (A) (A) (A) (A) (A)
                 (A) (A) (A) (A) (A) (A) (A) (A) (A) (A) (A) (A)
                 (A) (A) (A) (A) (A) (A) (A) (A) (A) (A) (A) (A)
                 (A) (A) (A) (A) (A) (A) (A) (A) (A) (A) (A) (A)
                 (A) (A) (A) (A) (A) (A) (A) (A) (A) (A) (A) (A)
                 (A) (A) (A) (A) (A) (A) (A) (A) (A) (A) (A) (A)
                 (A) (A) (A) (A) (A) (A) (A) (A) (A) (A) (A) (A)
                 (A) (A) (A) (A) (A) (A) (A) (A) (A) (A) (A) (A)
                 (A) (A) (A) (A) (A) (A) (A) (A) (A) (A) (A) (A)
                 (A) (A) (A) (A) (A) (A) (A) (A) (A) (A) (A) (A)
                 (A) (A) (A) (A) (A) (A) (A) (A) (A) (A) (A) (A)
                 (A) (A) (A) (A) (A) (A) (A) (A) (A) (A) (A) (A)
                 (A) (A) (A) (A) (A) (A) (A) (A) (A) (A) (A) (A)
                 (A) (A) (A) (A) (A) (A) (A) (A) (A) (A) (A) (A)
                 (A) (A) (A) (A) (A) (A) (A) (A) (A) (A) (A) (A)
                 (A) (A) (A) (A) (A) (A) (A) (A) (A) (A) (A) (A)
                 (A) (A) (A) (A) (A) (A) (A) (A) (A) (A) (A) (A)
                 (A) (A) (A) (A) (A) (A) (A) (A) (A) (A) (A) (A)
                 (A) (A) (A) (A) (A) (A) (A) (A) (A) (A) (A) (A)
                 (A) (A) (A) (A) (A) (A) (A)
 The electronic state is 1-A.
 Alpha  occ. eigenvalues --  -19.29010 -19.27477 -19.25908 -19.24949 -10.32272
 Alpha  occ. eigenvalues --  -10.31922 -10.31111 -10.30925 -10.27093 -10.26618
 Alpha  occ. eigenvalues --  -10.26553 -10.26461 -10.26301 -10.25041 -10.24891
 Alpha  occ. eigenvalues --  -10.24808 -10.24093 -10.24023 -10.23937 -10.23913
 Alpha  occ. eigenvalues --  -10.23689 -10.23496  -1.10425  -1.09154  -1.07183
 Alpha  occ. eigenvalues --   -1.05567  -0.88579  -0.86780  -0.82533  -0.82024
 Alpha  occ. eigenvalues --   -0.78482  -0.77182  -0.75710  -0.74168  -0.70815
 Alpha  occ. eigenvalues --   -0.70211  -0.67239  -0.64549  -0.64078  -0.62865
 Alpha  occ. eigenvalues --   -0.60867  -0.58830  -0.56451  -0.54743  -0.53664
 Alpha  occ. eigenvalues --   -0.52716  -0.51593  -0.50530  -0.49411  -0.48686
 Alpha  occ. eigenvalues --   -0.47694  -0.47322  -0.45609  -0.45428  -0.44655
 Alpha  occ. eigenvalues --   -0.44230  -0.44052  -0.43338  -0.42678  -0.42238
 Alpha  occ. eigenvalues --   -0.41811  -0.40961  -0.40839  -0.39939  -0.39399
 Alpha  occ. eigenvalues --   -0.38976  -0.38486  -0.37836  -0.37472  -0.36752
 Alpha  occ. eigenvalues --   -0.36607  -0.35822  -0.34884  -0.34245  -0.33641
 Alpha  occ. eigenvalues --   -0.33341  -0.31887  -0.31242  -0.30276  -0.29777
 Alpha  occ. eigenvalues --   -0.25967  -0.24395  -0.23308
 Alpha virt. eigenvalues --   -0.00750  -0.00280   0.00277   0.00618   0.01516
 Alpha virt. eigenvalues --    0.01586   0.02043   0.02858   0.03133   0.03288
 Alpha virt. eigenvalues --    0.03912   0.04438   0.04618   0.04988   0.05182
 Alpha virt. eigenvalues --    0.05662   0.06442   0.06620   0.06950   0.07399
 Alpha virt. eigenvalues --    0.07697   0.08341   0.08476   0.08768   0.09535
 Alpha virt. eigenvalues --    0.09617   0.10181   0.10483   0.10991   0.11033
 Alpha virt. eigenvalues --    0.11120   0.11735   0.12391   0.12621   0.13077
 Alpha virt. eigenvalues --    0.13126   0.13462   0.14277   0.14424   0.14657
 Alpha virt. eigenvalues --    0.15076   0.15466   0.15604   0.16262   0.16474
 Alpha virt. eigenvalues --    0.16594   0.17201   0.17290   0.17532   0.17808
 Alpha virt. eigenvalues --    0.18299   0.18481   0.18689   0.18767   0.19293
 Alpha virt. eigenvalues --    0.19659   0.19791   0.20213   0.20381   0.20763
 Alpha virt. eigenvalues --    0.21014   0.21083   0.21672   0.22268   0.22296
 Alpha virt. eigenvalues --    0.22524   0.22727   0.23011   0.23357   0.23544
 Alpha virt. eigenvalues --    0.23924   0.24300   0.24332   0.24631   0.25113
 Alpha virt. eigenvalues --    0.25374   0.25850   0.26088   0.26311   0.26525
 Alpha virt. eigenvalues --    0.26804   0.27215   0.27421   0.27900   0.28370
 Alpha virt. eigenvalues --    0.28884   0.28962   0.29223   0.29403   0.29574
 Alpha virt. eigenvalues --    0.29675   0.30031   0.30406   0.30575   0.31475
 Alpha virt. eigenvalues --    0.31968   0.32104   0.32396   0.32774   0.33333
 Alpha virt. eigenvalues --    0.33783   0.33985   0.34362   0.34882   0.35616
 Alpha virt. eigenvalues --    0.36085   0.36289   0.36378   0.36943   0.37310
 Alpha virt. eigenvalues --    0.37903   0.38402   0.38742   0.38867   0.39764
 Alpha virt. eigenvalues --    0.39802   0.40109   0.41386   0.42023   0.42407
 Alpha virt. eigenvalues --    0.43079   0.43483   0.43895   0.44425   0.45287
 Alpha virt. eigenvalues --    0.45977   0.46690   0.47077   0.48036   0.48989
 Alpha virt. eigenvalues --    0.49342   0.50578   0.51234   0.51369   0.53598
 Alpha virt. eigenvalues --    0.54799   0.56241   0.60279   0.63974   0.65729
 Alpha virt. eigenvalues --    0.67904   0.68781   0.69109   0.69859   0.70471
 Alpha virt. eigenvalues --    0.70978   0.72159   0.72796   0.73361   0.74113
 Alpha virt. eigenvalues --    0.74752   0.75065   0.75434   0.76395   0.76655
 Alpha virt. eigenvalues --    0.77053   0.78008   0.78484   0.79162   0.80380
 Alpha virt. eigenvalues --    0.81109   0.81752   0.82391   0.83028   0.83668
 Alpha virt. eigenvalues --    0.85334   0.86081   0.86501   0.87062   0.87667
 Alpha virt. eigenvalues --    0.88285   0.88817   0.89795   0.90549   0.91632
 Alpha virt. eigenvalues --    0.92176   0.92852   0.93609   0.94495   0.95397
 Alpha virt. eigenvalues --    0.95603   0.96481   0.97192   0.98030   0.98738
 Alpha virt. eigenvalues --    0.99784   1.00412   1.01636   1.01828   1.02843
 Alpha virt. eigenvalues --    1.04268   1.04813   1.05821   1.06951   1.07368
 Alpha virt. eigenvalues --    1.08201   1.09072   1.10010   1.10248   1.10738
 Alpha virt. eigenvalues --    1.12322   1.13319   1.13352   1.13949   1.15043
 Alpha virt. eigenvalues --    1.15494   1.16904   1.17256   1.17989   1.18922
 Alpha virt. eigenvalues --    1.19045   1.19617   1.20319   1.21215   1.22116
 Alpha virt. eigenvalues --    1.22436   1.23596   1.24458   1.26051   1.26842
 Alpha virt. eigenvalues --    1.26903   1.27539   1.29984   1.30191   1.31613
 Alpha virt. eigenvalues --    1.32363   1.32652   1.33114   1.33369   1.34233
 Alpha virt. eigenvalues --    1.36241   1.36883   1.37254   1.38122   1.39810
 Alpha virt. eigenvalues --    1.40079   1.42058   1.42237   1.42544   1.43312
 Alpha virt. eigenvalues --    1.44260   1.45437   1.47077   1.48802   1.50765
 Alpha virt. eigenvalues --    1.51886   1.52641   1.53481   1.54242   1.54530
 Alpha virt. eigenvalues --    1.55045   1.56418   1.58841   1.59271   1.60351
 Alpha virt. eigenvalues --    1.60993   1.62329   1.63366   1.65067   1.65999
 Alpha virt. eigenvalues --    1.67987   1.68201   1.69244   1.70896   1.72431
 Alpha virt. eigenvalues --    1.73980   1.75427   1.77832   1.78686   1.80333
 Alpha virt. eigenvalues --    1.81569   1.82739   1.83913   1.84905   1.85342
 Alpha virt. eigenvalues --    1.85547   1.86078   1.86551   1.87371   1.87816
 Alpha virt. eigenvalues --    1.88715   1.89450   1.90053   1.91359   1.92139
 Alpha virt. eigenvalues --    1.92491   1.93299   1.94339   1.95053   1.95994
 Alpha virt. eigenvalues --    1.96582   1.97270   1.99078   1.99436   2.01855
 Alpha virt. eigenvalues --    2.02729   2.02945   2.04181   2.05642   2.05971
 Alpha virt. eigenvalues --    2.06214   2.06723   2.06944   2.07359   2.08880
 Alpha virt. eigenvalues --    2.09858   2.10502   2.11430   2.12086   2.12721
 Alpha virt. eigenvalues --    2.13445   2.13722   2.14657   2.14840   2.15234
 Alpha virt. eigenvalues --    2.16254   2.17547   2.19038   2.19742   2.19804
 Alpha virt. eigenvalues --    2.20195   2.21374   2.22380   2.24381   2.25189
 Alpha virt. eigenvalues --    2.26376   2.26619   2.27286   2.28701   2.28956
 Alpha virt. eigenvalues --    2.30553   2.32316   2.33334   2.34224   2.35768
 Alpha virt. eigenvalues --    2.36445   2.37406   2.37700   2.38279   2.40034
 Alpha virt. eigenvalues --    2.41281   2.42700   2.43912   2.44669   2.46975
 Alpha virt. eigenvalues --    2.48034   2.48621   2.49056   2.50466   2.51596
 Alpha virt. eigenvalues --    2.52613   2.53051   2.53783   2.54170   2.55727
 Alpha virt. eigenvalues --    2.56771   2.58010   2.58885   2.60353   2.60698
 Alpha virt. eigenvalues --    2.61406   2.62020   2.63161   2.63470   2.64599
 Alpha virt. eigenvalues --    2.66311   2.66962   2.68267   2.69273   2.69999
 Alpha virt. eigenvalues --    2.70857   2.72403   2.72924   2.72975   2.73813
 Alpha virt. eigenvalues --    2.74402   2.75632   2.76462   2.76880   2.77723
 Alpha virt. eigenvalues --    2.79133   2.80326   2.81013   2.81446   2.82503
 Alpha virt. eigenvalues --    2.83694   2.84954   2.86380   2.87399   2.88607
 Alpha virt. eigenvalues --    2.89027   2.89546   2.90298   2.90434   2.91323
 Alpha virt. eigenvalues --    2.92720   2.92967   2.94116   2.95254   2.96210
 Alpha virt. eigenvalues --    2.97297   2.97959   2.99406   3.03211   3.07597
 Alpha virt. eigenvalues --    3.07878   3.09557   3.10098   3.12212   3.13297
 Alpha virt. eigenvalues --    3.18412   3.19280   3.23257   3.27865   3.29245
 Alpha virt. eigenvalues --    3.30191   3.30961   3.35853   3.37139   3.38662
 Alpha virt. eigenvalues --    3.40646   3.42724   3.45377   3.47265   3.48937
 Alpha virt. eigenvalues --    3.49248   3.50089   3.51006   3.51643   3.52749
 Alpha virt. eigenvalues --    3.54149   3.54912   3.57325   3.57844   3.58834
 Alpha virt. eigenvalues --    3.59882   3.62767   3.65796   3.66008   3.74600
 Alpha virt. eigenvalues --    3.80922   4.37609   4.38605   4.40101   4.46141
 Alpha virt. eigenvalues --    4.47976   4.49179   4.53208   4.56281   4.58507
 Alpha virt. eigenvalues --    4.58750   4.62088   4.67421   4.67926   4.70620
 Alpha virt. eigenvalues --    4.71856   4.76061   4.77522   4.87928   4.90988
 Alpha virt. eigenvalues --    4.95335   5.00749   5.07966
          Condensed to atoms (all electrons):
              1          2          3          4          5          6
     1  C   14.425849  -0.742134   0.002188  -0.065952  -0.005407   0.036739
     2  C   -0.742134   7.524428   0.358608   0.377154  -0.855918   0.002039
     3  H    0.002188   0.358608   0.517643  -0.024476  -0.048052  -0.006654
     4  H   -0.065952   0.377154  -0.024476   0.517338  -0.041101  -0.001549
     5  C   -0.005407  -0.855918  -0.048052  -0.041101   7.949319   0.370209
     6  H    0.036739   0.002039  -0.006654  -0.001549   0.370209   0.540715
     7  C   -0.490501  -0.426967   0.009045   0.029167   0.070717  -0.181394
     8  H   -0.010163   0.030500   0.002971  -0.000022  -0.128883  -0.006604
     9  C    4.008050   0.644818   0.030002  -0.011115  -1.291565   0.088475
    10  H   -0.040587  -0.010534  -0.000060   0.000012   0.025806  -0.000167
    11  C   -7.097980  -0.503695  -0.036622   0.061355   1.025378  -0.014997
    12  H    0.177119  -0.015726   0.001355  -0.000066  -0.019078  -0.000015
    13  C   -2.305517  -0.497127   0.018617   0.004691   0.425624  -0.045627
    14  C    0.064960   0.086382   0.000104  -0.000097  -0.175873   0.000333
    15  C   -0.334483   0.260450   0.001723   0.001438  -0.439497  -0.002638
    16  C    2.243868   0.750328  -0.009760  -0.006546  -1.268785   0.027975
    17  C    0.278220   0.132859  -0.000718  -0.000780  -0.466193   0.001059
    18  C   -0.288693   0.026943   0.000180   0.000170   0.040391  -0.000140
    19  H   -0.000374  -0.000122   0.000000   0.000000  -0.000142   0.000000
    20  H   -0.000043  -0.000026   0.000000   0.000000  -0.000017   0.000000
    21  O   -0.117864   0.008025   0.000028   0.000972   0.004619   0.000713
    22  H    0.111683  -0.049629  -0.000034  -0.000078   0.025556  -0.000003
    23  O   -0.035269   0.001649   0.000008  -0.000002  -0.004348  -0.000008
    24  H    0.001992  -0.000196   0.000000   0.000000   0.000117   0.000000
    25  O   -0.045767   0.089471   0.000076  -0.000396  -0.013790   0.000047
    26  H    0.026232  -0.008617  -0.000002   0.000003   0.004941   0.000000
    27  C   -3.531563  -0.554145  -0.014178  -0.007888   0.015709  -0.005877
    28  H   -0.163336  -0.005531  -0.000052   0.002668   0.000581  -0.000005
    29  H   -0.024775   0.016612   0.000078   0.000006  -0.009786   0.000002
    30  H   -0.100559   0.012174   0.001244   0.000273   0.005920  -0.000003
    31  O   -0.357364  -0.077757   0.007798  -0.004300   0.026203  -0.000510
    32  H    0.165012   0.057904  -0.000198  -0.000028  -0.021884   0.000008
    33  H    0.024013  -0.060740   0.004712  -0.005504   0.399552  -0.030162
    34  C    0.106639  -0.119166  -0.003299  -0.007852   1.161855   0.078755
    35  C   -0.093204   0.048612  -0.002226  -0.002447  -0.376200  -0.022632
    36  H   -0.000501   0.001300   0.000000   0.000000  -0.008337   0.000004
    37  H   -0.001882   0.003181  -0.000003   0.000012   0.017091  -0.000202
    38  C   -0.038730  -0.044821   0.002905   0.000489  -0.022681  -0.002167
    39  H    0.003782  -0.004049   0.000000   0.000000   0.015839  -0.000008
    40  H   -0.000712   0.001013   0.000000   0.000000  -0.012478  -0.000005
    41  H   -0.001642   0.002714   0.000001   0.000000  -0.011973   0.000024
    42  C   -0.008387   0.006493   0.000005   0.000002  -0.022899  -0.000002
    43  H   -0.000011  -0.000003   0.000000   0.000000  -0.000009   0.000000
    44  H   -0.000049   0.000002   0.000000   0.000000   0.000005   0.000000
    45  C   -0.000081  -0.000030   0.000000   0.000000   0.000145   0.000000
    46  H    0.000001   0.000000   0.000000   0.000000   0.000000   0.000000
    47  H   -0.000023   0.000004   0.000000   0.000000   0.000003   0.000000
    48  H    0.000000  -0.000001   0.000000   0.000000  -0.000006   0.000000
              7          8          9         10         11         12
     1  C   -0.490501  -0.010163   4.008050  -0.040587  -7.097980   0.177119
     2  C   -0.426967   0.030500   0.644818  -0.010534  -0.503695  -0.015726
     3  H    0.009045   0.002971   0.030002  -0.000060  -0.036622   0.001355
     4  H    0.029167  -0.000022  -0.011115   0.000012   0.061355  -0.000066
     5  C    0.070717  -0.128883  -1.291565   0.025806   1.025378  -0.019078
     6  H   -0.181394  -0.006604   0.088475  -0.000167  -0.014997  -0.000015
     7  C   15.727529   0.244146  -5.836828   0.089038   2.533356  -0.095856
     8  H    0.244146   0.568548   0.027661  -0.010543  -0.036871   0.002399
     9  C   -5.836828   0.027661  25.647533   0.083667 -10.534674   0.350053
    10  H    0.089038  -0.010543   0.083667   0.554003   0.258209  -0.013728
    11  C    2.533356  -0.036871 -10.534674   0.258209  22.085908  -0.164404
    12  H   -0.095856   0.002399   0.350053  -0.013728  -0.164404   0.588544
    13  C   -1.597226   0.108373  -6.821334  -0.004030   2.779747   0.143964
    14  C   -0.277272   0.003207  -0.295023  -0.008420  -0.403575   0.000888
    15  C   -0.132481   0.025978  -2.499667   0.063264  -0.461324   0.024612
    16  C   -0.609782  -0.012284   7.038552  -0.177363  -5.512254  -0.018165
    17  C    0.754757   0.001482  -2.297470  -0.001938  -0.154224  -0.002492
    18  C   -0.489111   0.002457  -0.641453   0.056239   0.103284   0.005771
    19  H    0.004663   0.000000   0.006239   0.000002   0.003177   0.000000
    20  H    0.000454   0.000000  -0.008752  -0.000009   0.001115   0.000000
    21  O    0.017452  -0.000356   0.018764   0.001016   0.168244  -0.000012
    22  H    0.001778   0.000025   0.047828  -0.000140  -0.068267  -0.000093
    23  O    0.062971   0.000403  -0.132156   0.001163   0.115273  -0.000549
    24  H   -0.006706  -0.000001   0.030959   0.000245  -0.007655   0.000002
    25  O   -0.104694   0.000245   0.142224  -0.016697  -0.047518  -0.037534
    26  H    0.021418  -0.000035   0.011461   0.002024   0.027172  -0.004529
    27  C    0.501510   0.008718  -2.147061   0.012182   2.433313  -0.126910
    28  H    0.003035   0.000001  -0.023336   0.000003   0.056386  -0.000001
    29  H   -0.002985   0.000001   0.008063  -0.000001  -0.045551   0.000246
    30  H    0.002005   0.000006   0.004904   0.000000   0.000640   0.001538
    31  O    0.027507  -0.000427  -0.355080   0.000478   0.620999   0.009093
    32  H   -0.004914   0.000003   0.059001  -0.000069  -0.188271   0.000409
    33  H   -0.089421   0.005206   0.043275  -0.000114  -0.043984   0.000034
    34  C   -3.670365  -0.016731   1.342236  -0.072351  -0.694401   0.023548
    35  C   -0.960756   0.030924  -0.306800   0.000262  -0.109042   0.001395
    36  H    0.063293  -0.000127  -0.007906   0.000003   0.000572   0.000000
    37  H   -0.082569   0.000067  -0.023133   0.000002  -0.001388   0.000000
    38  C    0.983447  -0.017139   0.185269   0.011541   0.093111   0.001404
    39  H    0.148289  -0.000706  -0.007541  -0.000587   0.001942   0.000011
    40  H    0.044439   0.000070   0.006900   0.000002  -0.001596   0.000000
    41  H   -0.060194   0.004589   0.044704   0.000083   0.005634   0.000005
    42  C   -0.020483   0.000175  -0.311344  -0.000103   0.006524   0.000068
    43  H    0.000034   0.000000  -0.001443   0.000000   0.000015   0.000000
    44  H   -0.000036   0.000000   0.000579   0.000000  -0.000086   0.000000
    45  C   -0.000231  -0.000004   0.000346  -0.000020  -0.002399   0.000002
    46  H    0.000011   0.000000   0.000015   0.000000  -0.000006   0.000000
    47  H   -0.000009   0.000000  -0.000222   0.000000  -0.000038   0.000000
    48  H    0.000139   0.000000  -0.000402   0.000000   0.000016   0.000000
             13         14         15         16         17         18
     1  C   -2.305517   0.064960  -0.334483   2.243868   0.278220  -0.288693
     2  C   -0.497127   0.086382   0.260450   0.750328   0.132859   0.026943
     3  H    0.018617   0.000104   0.001723  -0.009760  -0.000718   0.000180
     4  H    0.004691  -0.000097   0.001438  -0.006546  -0.000780   0.000170
     5  C    0.425624  -0.175873  -0.439497  -1.268785  -0.466193   0.040391
     6  H   -0.045627   0.000333  -0.002638   0.027975   0.001059  -0.000140
     7  C   -1.597226  -0.277272  -0.132481  -0.609782   0.754757  -0.489111
     8  H    0.108373   0.003207   0.025978  -0.012284   0.001482   0.002457
     9  C   -6.821334  -0.295023  -2.499667   7.038552  -2.297470  -0.641453
    10  H   -0.004030  -0.008420   0.063264  -0.177363  -0.001938   0.056239
    11  C    2.779747  -0.403575  -0.461324  -5.512254  -0.154224   0.103284
    12  H    0.143964   0.000888   0.024612  -0.018165  -0.002492   0.005771
    13  C   52.380928  -6.562013  -4.003164 -24.784883  -6.845437   1.677599
    14  C   -6.562013  12.565033   0.478170   1.510666   1.386866  -0.780963
    15  C   -4.003164   0.478170  12.398069   0.666638   1.348874  -1.610474
    16  C  -24.784883   1.510666   0.666638  29.215966   1.183252  -2.231187
    17  C   -6.845437   1.386866   1.348874   1.183252  13.730388  -2.861390
    18  C    1.677599  -0.780963  -1.610474  -2.231187  -2.861390  12.998826
    19  H    0.085699   0.032432  -0.012604  -0.078948   0.270356   0.041690
    20  H    0.067869   0.063168  -0.000026  -0.018606   0.019129   0.209225
    21  O    0.370723  -0.076081  -0.111767  -0.043511  -0.260910   0.068166
    22  H   -0.115853  -0.011167  -0.014963   0.059332   0.004252  -0.010370
    23  O   -0.280815   0.071446   0.241150  -0.016392   0.035830  -0.022591
    24  H    0.133662   0.008677   0.020416  -0.011538  -0.004048  -0.158741
    25  O    0.365994  -0.013596  -0.123354  -0.048478  -0.061154   0.008887
    26  H   -0.135320   0.002676   0.019617   0.042091  -0.003256   0.023525
    27  C   -0.125468   0.003589   0.027909  -0.058014   0.173623  -0.054971
    28  H    0.003605   0.000020   0.000892  -0.002135   0.000188   0.000081
    29  H    0.004666  -0.000023  -0.000590  -0.001455  -0.000209  -0.000048
    30  H    0.003329  -0.000015   0.000791  -0.002369  -0.000077   0.000106
    31  O    0.567456  -0.052615  -0.048909  -0.462869  -0.103009   0.038229
    32  H   -0.065751   0.005432   0.003789   0.081450   0.013545  -0.002806
    33  H    0.057622   0.004350   0.010624  -0.010402   0.002039   0.001533
    34  C   -1.134045   0.195170  -0.280166   1.061439  -0.225717   0.035267
    35  C    2.171912  -0.105845   0.161185  -1.160150  -0.019227   0.116405
    36  H    0.021244  -0.002710   0.000777  -0.011908  -0.001006   0.000230
    37  H    0.103530  -0.008496   0.003725  -0.060594  -0.017577   0.002567
    38  C   -0.335801  -0.004993  -0.154640   0.103094  -0.067476  -0.082197
    39  H   -0.017621  -0.011484  -0.038077  -0.014817  -0.005258  -0.015271
    40  H   -0.001053  -0.000642   0.003297   0.005021   0.000019   0.000191
    41  H    0.003742   0.002133   0.010079   0.013991   0.001536  -0.000086
    42  C   -1.034965  -1.545381   0.476642  -0.720737   0.741665  -0.018897
    43  H    0.006569  -0.284953  -0.023858   0.038030   0.206192  -0.112935
    44  H    0.001008  -0.239230   0.055755  -0.027535  -0.110005   0.161976
    45  C   -0.011395   0.008309   0.019282   0.011990   0.016715   0.012006
    46  H    0.002501   0.011313   0.001052   0.002035   0.010918   0.008731
    47  H   -0.003200  -0.032867   0.003388  -0.013545  -0.020565   0.020919
    48  H   -0.000482  -0.038313  -0.001094  -0.000980   0.029935  -0.033002
             19         20         21         22         23         24
     1  C   -0.000374  -0.000043  -0.117864   0.111683  -0.035269   0.001992
     2  C   -0.000122  -0.000026   0.008025  -0.049629   0.001649  -0.000196
     3  H    0.000000   0.000000   0.000028  -0.000034   0.000008   0.000000
     4  H    0.000000   0.000000   0.000972  -0.000078  -0.000002   0.000000
     5  C   -0.000142  -0.000017   0.004619   0.025556  -0.004348   0.000117
     6  H    0.000000   0.000000   0.000713  -0.000003  -0.000008   0.000000
     7  C    0.004663   0.000454   0.017452   0.001778   0.062971  -0.006706
     8  H    0.000000   0.000000  -0.000356   0.000025   0.000403  -0.000001
     9  C    0.006239  -0.008752   0.018764   0.047828  -0.132156   0.030959
    10  H    0.000002  -0.000009   0.001016  -0.000140   0.001163   0.000245
    11  C    0.003177   0.001115   0.168244  -0.068267   0.115273  -0.007655
    12  H    0.000000   0.000000  -0.000012  -0.000093  -0.000549   0.000002
    13  C    0.085699   0.067869   0.370723  -0.115853  -0.280815   0.133662
    14  C    0.032432   0.063168  -0.076081  -0.011167   0.071446   0.008677
    15  C   -0.012604  -0.000026  -0.111767  -0.014963   0.241150   0.020416
    16  C   -0.078948  -0.018606  -0.043511   0.059332  -0.016392  -0.011538
    17  C    0.270356   0.019129  -0.260910   0.004252   0.035830  -0.004048
    18  C    0.041690   0.209225   0.068166  -0.010370  -0.022591  -0.158741
    19  H    0.516180  -0.000140  -0.006180   0.000163   0.000101  -0.000001
    20  H   -0.000140   0.520393   0.000125   0.000000  -0.018025   0.008078
    21  O   -0.006180   0.000125   8.307994   0.210852  -0.000405   0.000051
    22  H    0.000163   0.000000   0.210852   0.294656  -0.000219   0.000000
    23  O    0.000101  -0.018025  -0.000405  -0.000219   8.287412   0.210061
    24  H   -0.000001   0.008078   0.000051   0.000000   0.210061   0.349096
    25  O   -0.000054  -0.000050   0.001866  -0.002291  -0.009036   0.001301
    26  H    0.000000   0.000000  -0.000434   0.000030   0.006276   0.000004
    27  C    0.000073   0.000016  -0.038921   0.039310   0.002682  -0.000085
    28  H    0.000000   0.000000  -0.000054  -0.000011  -0.000002   0.000000
    29  H    0.000000   0.000000  -0.000002   0.000008   0.000019   0.000000
    30  H    0.000000   0.000000   0.000064  -0.000014   0.000006   0.000000
    31  O   -0.000091   0.000002   0.020921   0.020965   0.003913  -0.000002
    32  H   -0.000001   0.000000  -0.004195  -0.004941  -0.000130   0.000000
    33  H   -0.000004   0.000000  -0.010732   0.000701   0.000019   0.000000
    34  C   -0.004634  -0.000873  -0.050768   0.007828  -0.008798   0.001932
    35  C    0.002455   0.000257   0.050755  -0.002627  -0.001886   0.000245
    36  H    0.000000   0.000000   0.000311  -0.000003  -0.000002   0.000000
    37  H   -0.000006   0.000000   0.003025  -0.000078  -0.000003   0.000000
    38  C    0.000509   0.000083  -0.013742  -0.002077  -0.003121   0.000267
    39  H    0.000000  -0.000004  -0.000235   0.000002   0.001856  -0.000099
    40  H    0.000000   0.000000  -0.000050   0.000000  -0.000023   0.000001
    41  H    0.000000   0.000000  -0.000018   0.000000   0.000010   0.000000
    42  C   -0.033726  -0.018122  -0.028445  -0.001342  -0.002845   0.000779
    43  H    0.001782   0.000073   0.000015   0.000000   0.000036   0.000000
    44  H    0.000079   0.002317   0.000039   0.000000  -0.000007   0.000005
    45  C    0.004752   0.007592  -0.000145  -0.000027  -0.000237   0.000168
    46  H   -0.000026  -0.000029   0.000000   0.000000  -0.000001   0.000000
    47  H    0.000152   0.000011   0.000006   0.000000   0.000005   0.000000
    48  H    0.000005   0.000184   0.000007   0.000000   0.000034   0.000000
             25         26         27         28         29         30
     1  C   -0.045767   0.026232  -3.531563  -0.163336  -0.024775  -0.100559
     2  C    0.089471  -0.008617  -0.554145  -0.005531   0.016612   0.012174
     3  H    0.000076  -0.000002  -0.014178  -0.000052   0.000078   0.001244
     4  H   -0.000396   0.000003  -0.007888   0.002668   0.000006   0.000273
     5  C   -0.013790   0.004941   0.015709   0.000581  -0.009786   0.005920
     6  H    0.000047   0.000000  -0.005877  -0.000005   0.000002  -0.000003
     7  C   -0.104694   0.021418   0.501510   0.003035  -0.002985   0.002005
     8  H    0.000245  -0.000035   0.008718   0.000001   0.000001   0.000006
     9  C    0.142224   0.011461  -2.147061  -0.023336   0.008063   0.004904
    10  H   -0.016697   0.002024   0.012182   0.000003  -0.000001   0.000000
    11  C   -0.047518   0.027172   2.433313   0.056386  -0.045551   0.000640
[...]
    17  C   -0.064573  -0.002014   0.146900   0.000285  -0.000072  -0.000041
    18  C    0.015007   0.026757  -0.028286  -0.000001   0.000018   0.000181
    19  H   -0.000071   0.000000   0.000125   0.000000   0.000000   0.000000
    20  H   -0.000018   0.000000   0.000004   0.000000   0.000000   0.000000
    21  O   -0.001146  -0.000203  -0.026127  -0.000058  -0.000054   0.000059
    22  H   -0.000950   0.000014   0.025642  -0.000014   0.000017  -0.000016
    23  O   -0.012181   0.007934   0.004883   0.000000   0.000010   0.000006
    24  H    0.001226   0.000029  -0.000090   0.000000   0.000000   0.000000
    25  O    8.391032   0.222719  -0.091812  -0.000521   0.004849  -0.000355
    26  H    0.222719   0.341693   0.004006   0.000000  -0.000087  -0.000033
    27  C   -0.091812   0.004006   9.284572   0.529837   0.467925   0.440405
    28  H   -0.000521   0.000000   0.529837   0.534431  -0.029811  -0.026468
    29  H    0.004849  -0.000087   0.467925  -0.029811   0.531976  -0.026664
    30  H   -0.000355  -0.000033   0.440405  -0.026468  -0.026664   0.526789
    31  O   -0.005244  -0.001772   0.066158   0.001564  -0.009674   0.005679
    32  H    0.022591  -0.000713  -0.074013  -0.000730   0.003579   0.000003
    33  H   -0.000161   0.000000  -0.001097  -0.000004   0.000002  -0.000002
    34  C    0.038881  -0.005666  -0.156252  -0.000384   0.000036  -0.000176
    35  C   -0.000107  -0.000568   0.038657   0.000120  -0.000065   0.000105
    36  H   -0.000001   0.000000  -0.000014   0.000000   0.000000   0.000000
    37  H    0.000007   0.000000  -0.000278   0.000000   0.000000   0.000000
    38  C   -0.001272  -0.000297  -0.036632  -0.000014  -0.000021  -0.000031
    39  H   -0.000145   0.000000  -0.000009   0.000000   0.000000   0.000000
    40  H    0.000002   0.000000  -0.000038   0.000000   0.000000   0.000000
    41  H    0.000040   0.000000   0.000102   0.000000   0.000000   0.000000
    42  C   -0.004172   0.000117   0.002820   0.000003  -0.000005   0.000002
    43  H    0.000000   0.000000   0.000000   0.000000   0.000000   0.000000
    44  H    0.000004   0.000000  -0.000003   0.000000   0.000000   0.000000
    45  C    0.000180  -0.000007  -0.000158   0.000000   0.000000   0.000000
    46  H    0.000000   0.000000   0.000000   0.000000   0.000000   0.000000
    47  H    0.000000   0.000000  -0.000001   0.000000   0.000000   0.000000
    48  H    0.000000   0.000000   0.000000   0.000000   0.000000   0.000000
             31         32         33         34         35         36
     1  C   -0.345663   0.143632   0.029872   0.316206  -0.177257  -0.000460
     2  C   -0.035603   0.034518  -0.078692  -0.208996   0.027140  -0.001196
     3  H    0.006711  -0.000192   0.005127  -0.006810  -0.001394   0.000000
     4  H   -0.001454  -0.000010  -0.006176  -0.012743  -0.005234   0.000000
     5  C    0.005094  -0.014182   0.496688   1.475848  -0.356768  -0.011944
     6  H   -0.000035   0.000008  -0.034174   0.116058  -0.034088   0.000015
     7  C    0.051343  -0.007541  -0.234164  -4.605779  -1.368599   0.047047
     8  H   -0.000192   0.000000   0.005820   0.010901   0.028644  -0.000128
     9  C   -0.331950   0.051180   0.073731   2.716397  -0.808264  -0.007017
    10  H    0.000744  -0.000073  -0.000121  -0.099667  -0.006381   0.000003
    11  C    0.539476  -0.155550  -0.027124  -1.067879   0.049881  -0.000466
    12  H    0.005768   0.000521   0.000033   0.024864   0.000863   0.000000
    13  C    0.384609  -0.064576   0.053942  -2.770601   2.291019   0.021345
    14  C   -0.039183   0.004484   0.004996   0.296114  -0.065454  -0.001818
    15  C   -0.042981  -0.004951   0.011428  -0.277351   0.290932   0.000707
    16  C   -0.318782   0.073717  -0.025646   2.258370  -1.326005  -0.011494
    17  C   -0.043621   0.011034  -0.006022  -0.394497   0.162861  -0.000190
    18  C    0.012693  -0.003312   0.003766   0.126568   0.125883   0.000223
    19  H   -0.000132  -0.000001  -0.000005  -0.004962   0.002615   0.000000
    20  H   -0.000001   0.000000   0.000000  -0.000239   0.000317   0.000000
    21  O    0.004084  -0.003042  -0.006993  -0.073719   0.057356   0.000150
    22  H    0.037169  -0.004491   0.000353   0.014427  -0.005283  -0.000002
    23  O    0.003509  -0.000114   0.000019  -0.024963  -0.005369  -0.000001
    24  H   -0.000006   0.000000   0.000000   0.002948   0.000258   0.000000
    25  O   -0.005244   0.022591  -0.000161   0.038881  -0.000107  -0.000001
    26  H   -0.001772  -0.000713   0.000000  -0.005666  -0.000568   0.000000
    27  C    0.066158  -0.074013  -0.001097  -0.156252   0.038657  -0.000014
    28  H    0.001564  -0.000730  -0.000004  -0.000384   0.000120   0.000000
    29  H   -0.009674   0.003579   0.000002   0.000036  -0.000065   0.000000
    30  H    0.005679   0.000003  -0.000002  -0.000176   0.000105   0.000000
    31  O    8.385801   0.249533  -0.000143  -0.001951  -0.005085   0.000000
    32  H    0.249533   0.316262  -0.000004   0.002588  -0.000003   0.000000
    33  H   -0.000143  -0.000004   0.561525   0.025142  -0.013743   0.000055
    34  C   -0.001951   0.002588   0.025142  11.013535  -1.432681  -0.191337
    35  C   -0.005085  -0.000003  -0.013743  -1.432681   9.201230   0.545259
    36  H    0.000000   0.000000   0.000055  -0.191337   0.545259   0.537305
    37  H    0.000068   0.000000   0.000372  -0.179293   0.651967  -0.037174
    38  C    0.008296  -0.000200   0.002962  -0.970827  -1.291013  -0.038841
    39  H    0.000047   0.000000  -0.000007  -0.221283  -0.073364   0.000227
    40  H    0.000001   0.000000   0.000002  -0.151697   0.012175   0.003301
    41  H   -0.000008   0.000000   0.000002  -0.074927  -0.001399   0.000251
    42  C   -0.003042  -0.000320   0.000538  -0.009923   0.027243  -0.000039
    43  H    0.000003   0.000000   0.000000  -0.000061   0.000044   0.000000
    44  H    0.000000   0.000000   0.000000   0.000015   0.000006   0.000000
    45  C    0.000002  -0.000001  -0.000001   0.001540  -0.003076   0.000007
    46  H    0.000000   0.000000   0.000000  -0.000049   0.000028   0.000000
    47  H    0.000000   0.000000   0.000000   0.000264  -0.000094   0.000000
    48  H    0.000000   0.000000   0.000000  -0.000032  -0.000096   0.000000
             37         38         39         40         41         42
     1  C   -0.002558   0.008753   0.004129  -0.000575  -0.002768  -0.015425
     2  C   -0.002869  -0.068805  -0.005698   0.000120   0.005521   0.008072
     3  H   -0.000002   0.002203   0.000000   0.000000   0.000000   0.000009
     4  H    0.000013   0.000575   0.000000   0.000000   0.000000   0.000002
     5  C    0.004171  -0.080422   0.014545  -0.014600  -0.016795  -0.019272
     6  H   -0.000302   0.003561  -0.000009  -0.000005   0.000022  -0.000013
     7  C   -0.095099   1.100455   0.143890   0.012694  -0.047365  -0.020521
     8  H    0.000097  -0.030312  -0.000741   0.000130   0.004083   0.000112
     9  C   -0.036558   0.319514   0.030618  -0.004951   0.036468  -0.298850
    10  H    0.000006   0.019185  -0.000754   0.000026   0.000046  -0.000297
    11  C   -0.001426  -0.016332   0.016740  -0.006439   0.007869   0.024506
    12  H    0.000000   0.000249   0.000008   0.000000   0.000006   0.000030
    13  C    0.120662  -0.293398  -0.004245   0.014356  -0.017074  -0.940798
    14  C   -0.007883  -0.033583  -0.015914  -0.000151   0.002390  -1.268955
    15  C    0.006060  -0.242554  -0.058236   0.005208   0.003577   0.580287
    16  C   -0.072731   0.117264  -0.044390   0.003126   0.028811  -0.922121
    17  C   -0.012314  -0.090642  -0.011688   0.000923   0.002467   0.397661
    18  C    0.002085  -0.123175  -0.006193   0.000502  -0.003285   0.153983
    19  H   -0.000006   0.000311   0.000000   0.000000   0.000000  -0.015875
    20  H    0.000000   0.000008  -0.000004   0.000000   0.000000  -0.029245
    21  O    0.004742  -0.020224  -0.000017  -0.000053  -0.000100  -0.022116
    22  H   -0.000100  -0.000971   0.000001   0.000000   0.000000  -0.002218
    23  O   -0.000010   0.007788   0.002448   0.000003   0.000092   0.000167
    24  H    0.000000  -0.000145  -0.000113   0.000000   0.000001   0.000158
    25  O    0.000007  -0.001272  -0.000145   0.000002   0.000040  -0.004172
    26  H    0.000000  -0.000297   0.000000   0.000000   0.000000   0.000117
    27  C   -0.000278  -0.036632  -0.000009  -0.000038   0.000102   0.002820
    28  H    0.000000  -0.000014   0.000000   0.000000   0.000000   0.000003
    29  H    0.000000  -0.000021   0.000000   0.000000   0.000000  -0.000005
    30  H    0.000000  -0.000031   0.000000   0.000000   0.000000   0.000002
    31  O    0.000068   0.008296   0.000047   0.000001  -0.000008  -0.003042
    32  H    0.000000  -0.000200   0.000000   0.000000   0.000000  -0.000320
    33  H    0.000372   0.002962  -0.000007   0.000002   0.000002   0.000538
    34  C   -0.179293  -0.970827  -0.221283  -0.151697  -0.074927  -0.009923
    35  C    0.651967  -1.291013  -0.073364   0.012175  -0.001399   0.027243
    36  H   -0.037174  -0.038841   0.000227   0.003301   0.000251  -0.000039
    37  H    0.545394  -0.030192  -0.000188   0.000198  -0.000184   0.000157
    38  C   -0.030192   6.976067   0.575875   0.483104   0.424298  -0.013078
    39  H   -0.000188   0.575875   0.538229  -0.026220  -0.029967  -0.000866
    40  H    0.000198   0.483104  -0.026220   0.539539  -0.027288  -0.000134
    41  H   -0.000184   0.424298  -0.029967  -0.027288   0.538611   0.000086
    42  C    0.000157  -0.013078  -0.000866  -0.000134   0.000086   7.414341
    43  H    0.000000  -0.000010   0.000000   0.000000   0.000000   0.499360
    44  H    0.000000   0.000000   0.000000   0.000000   0.000000   0.510247
    45  C   -0.000012   0.001425   0.000046   0.000004  -0.000002   0.162480
    46  H    0.000000   0.000003   0.000000   0.000000   0.000000  -0.057332
    47  H    0.000000  -0.000045   0.000000   0.000000   0.000000  -0.054318
    48  H    0.000000  -0.000013   0.000000   0.000000   0.000000  -0.037993
             43         44         45         46         47         48
     1  C   -0.000029  -0.000054  -0.000097   0.000000  -0.000020   0.000000
     2  C   -0.000004   0.000003  -0.000194   0.000000   0.000003   0.000000
     3  H    0.000000   0.000000   0.000000   0.000000   0.000000   0.000000
     4  H    0.000000   0.000000   0.000000   0.000000   0.000000   0.000000
     5  C    0.000007  -0.000001   0.000612   0.000000   0.000006  -0.000009
     6  H    0.000000   0.000000   0.000000   0.000000   0.000000   0.000000
     7  C   -0.000029   0.000021  -0.000801   0.000027  -0.000187   0.000190
     8  H    0.000000   0.000000  -0.000005   0.000000   0.000000   0.000000
     9  C   -0.000882  -0.000286   0.006964  -0.000093   0.000767  -0.000831
    10  H    0.000000   0.000000  -0.000008   0.000000   0.000000   0.000000
    11  C   -0.000002  -0.000092  -0.003808  -0.000005  -0.000057   0.000016
    12  H    0.000000   0.000000   0.000001   0.000000   0.000000   0.000000
    13  C    0.001921  -0.007936  -0.029182   0.001878  -0.009424  -0.003130
    14  C   -0.202571  -0.184844   0.083271  -0.035019   0.062404   0.023019
    15  C   -0.022743   0.039041  -0.016981  -0.000296   0.013631  -0.019881
    16  C    0.028943  -0.024613   0.039317   0.002524  -0.028730   0.003293
    17  C    0.112944  -0.075700  -0.049933   0.016868  -0.095891   0.059696
    18  C   -0.075712   0.084595   0.010318   0.004738   0.051430  -0.086594
    19  H    0.002293   0.000106   0.002830  -0.000033   0.000209   0.000008
    20  H    0.000104   0.002538   0.004114  -0.000034   0.000014   0.000203
    21  O    0.000005   0.000022  -0.000196  -0.000001  -0.000010   0.000008
    22  H    0.000000   0.000000  -0.000013   0.000000   0.000000   0.000000
    23  O    0.000028   0.000007   0.000014  -0.000002   0.000004   0.000043
    24  H    0.000000   0.000002   0.000139   0.000000   0.000000  -0.000001
    25  O    0.000000   0.000004   0.000180   0.000000   0.000000   0.000000
    26  H    0.000000   0.000000  -0.000007   0.000000   0.000000   0.000000
    27  C    0.000000  -0.000003  -0.000158   0.000000  -0.000001   0.000000
    28  H    0.000000   0.000000   0.000000   0.000000   0.000000   0.000000
    29  H    0.000000   0.000000   0.000000   0.000000   0.000000   0.000000
    30  H    0.000000   0.000000   0.000000   0.000000   0.000000   0.000000
    31  O    0.000003   0.000000   0.000002   0.000000   0.000000   0.000000
    32  H    0.000000   0.000000  -0.000001   0.000000   0.000000   0.000000
    33  H    0.000000   0.000000  -0.000001   0.000000   0.000000   0.000000
    34  C   -0.000061   0.000015   0.001540  -0.000049   0.000264  -0.000032
    35  C    0.000044   0.000006  -0.003076   0.000028  -0.000094  -0.000096
    36  H    0.000000   0.000000   0.000007   0.000000   0.000000   0.000000
    37  H    0.000000   0.000000  -0.000012   0.000000   0.000000   0.000000
    38  C   -0.000010   0.000000   0.001425   0.000003  -0.000045  -0.000013
    39  H    0.000000   0.000000   0.000046   0.000000   0.000000   0.000000
    40  H    0.000000   0.000000   0.000004   0.000000   0.000000   0.000000
    41  H    0.000000   0.000000  -0.000002   0.000000   0.000000   0.000000
    42  C    0.499360   0.510247   0.162480  -0.057332  -0.054318  -0.037993
    43  H    0.565459  -0.033672  -0.023476  -0.003271  -0.005021   0.004860
    44  H   -0.033672   0.567138  -0.024253  -0.003346   0.004895  -0.004969
    45  C   -0.023476  -0.024253   5.182475   0.425922   0.415875   0.418162
    46  H   -0.003271  -0.003346   0.425922   0.549460  -0.026994  -0.027104
    47  H   -0.005021   0.004895   0.415875  -0.026994   0.541839  -0.028393
    48  H    0.004860  -0.004969   0.418162  -0.027104  -0.028393   0.541875
 Mulliken atomic charges:
              1
     1  C    0.332885
     2  C   -0.474193
     3  H    0.171737
     4  H    0.162775
     5  C   -0.329026
     6  H    0.150794
     7  C    0.016486
     8  H    0.156078
     9  C   -0.427960
    10  H    0.176980
    11  C   -0.125393
    12  H    0.153368
    13  C    1.403451
    14  C    0.079588
    15  C    0.221320
    16  C   -0.704629
    17  C   -0.758879
    18  C   -0.213585
    19  H    0.146478
    20  H    0.150433
    21  O   -0.568256
    22  H    0.475269
    23  O   -0.573569
    24  H    0.448651
    25  O   -0.592413
    26  H    0.415583
    27  C   -0.597010
    28  H    0.164199
    29  H    0.163873
    30  H    0.169389
    31  O   -0.581829
    32  H    0.420368
    33  H    0.157906
    34  C    0.504042
    35  C   -0.533212
    36  H    0.146227
    37  H    0.143178
    38  C   -0.668844
    39  H    0.173246
    40  H    0.156737
    41  H    0.166417
    42  C   -0.045453
    43  H    0.151511
    44  H    0.151128
    45  C   -0.603496
    46  H    0.152132
    47  H    0.157846
    48  H    0.157674
 Sum of Mulliken atomic charges =   0.00000
 Mulliken charges with hydrogens summed into heavy atoms:
              1
     1  C    0.332885
     2  C   -0.139681
     5  C   -0.020326
     7  C    0.172564
     9  C   -0.250980
    11  C    0.027974
    13  C    1.403451
    14  C    0.079588
    15  C    0.221320
    16  C   -0.704629
    17  C   -0.612401
    18  C   -0.063152
    21  O   -0.092987
    23  O   -0.124918
    25  O   -0.176830
    27  C   -0.099548
    31  O   -0.161461
    34  C    0.504042
    35  C   -0.243807
    38  C   -0.172443
    42  C    0.257186
    45  C   -0.135845
 Sum of Mulliken charges with hydrogens summed into heavy atoms =   0.00000
 Electronic spatial extent (au):  <R**2>=           6648.2578
 Charge=              0.0000 electrons
 Dipole moment (field-independent basis, Debye):
    X=             -0.1844    Y=             -0.7066    Z=              5.5093  Tot=              5.5575
 Quadrupole moment (field-independent basis, Debye-Ang):
   XX=           -114.3439   YY=           -139.5372   ZZ=           -131.7582
   XY=              6.4941   XZ=             -4.9679   YZ=              1.6745
 Traceless Quadrupole moment (field-independent basis, Debye-Ang):
   XX=             14.2025   YY=            -10.9908   ZZ=             -3.2118
   XY=              6.4941   XZ=             -4.9679   YZ=              1.6745
 Octapole moment (field-independent basis, Debye-Ang**2):
  XXX=             -0.1578  YYY=            -18.5191  ZZZ=             53.4399  XYY=             -7.5630
  XXY=            -21.5872  XXZ=             19.8035  XZZ=            -24.3185  YZZ=            -13.0579
  YYZ=              4.1626  XYZ=             12.6878
 Hexadecapole moment (field-independent basis, Debye-Ang**3):
 XXXX=          -5186.2037 YYYY=          -2328.7530 ZZZZ=          -1272.1165 XXXY=             78.7096
 XXXZ=            -32.4013 YYYX=            -57.2756 YYYZ=             41.9022 ZZZX=            -85.0952
 ZZZY=            -53.4290 XXYY=          -1310.8987 XXZZ=          -1051.7388 YYZZ=           -594.3932
 XXYZ=            -12.2969 YYXZ=            -22.1510 ZZXY=             44.5727
 N-N= 2.015173972896D+03 E-N=-6.363219801324D+03  KE= 9.932005699529D+02

 Test job not archived.
 1\1\GINC-COMPUTE-8-14\SP\RB3LYP\6-31+G(d,p)\C18H26O4\LPASSAGLIA.IQUIR\
 23-Dec-2022\0\\# B3LYP/6-31+G** geom=allcheck test scrf=(pcm,solvent=w
 ater,smd,dovacuum)\\comment\\0,1\C,0,0.582362566,2.162140297,-2.150906
 836\C,0,0.278812643,3.341819837,-1.221132768\H,0,1.185883478,3.9446343
 98,-1.083501737\H,0,-0.473398732,3.99616008,-1.679791306\C,0,-0.239337
 627,2.921455416,0.153242675\H,0,-0.289038407,3.818404024,0.785845139\C
 ,0,0.657818074,1.872456203,0.842134838\H,0,1.590720271,2.435975432,1.0
 15908377\C,0,1.08656821,0.679026045,-0.076704671\H,0,2.028378987,0.362
 449818,0.396787013\C,0,1.549824768,1.168854676,-1.476663193\H,0,2.5125
 88126,1.681248418,-1.343391528\C,0,0.238115521,-0.601870859,-0.0871694
 19\C,0,-1.188234279,-3.074313197,0.107065031\C,0,0.89537562,-1.8460889
 73,0.041068742\C,0,-1.155618265,-0.660251568,-0.189530024\C,0,-1.86040
 4384,-1.863167926,-0.065120911\C,0,0.205675079,-3.059300088,0.14718933
 9\H,0,-2.946724242,-1.842339347,-0.124443141\H,0,0.744540714,-3.996137
 049,0.255742391\O,0,-1.938210971,0.422152707,-0.457797003\H,0,-1.50681
 5021,0.911837476,-1.192694138\O,0,2.269427618,-1.874712081,0.024590939
 \H,0,2.55875665,-2.773724746,0.257849692\O,0,1.799809797,0.07459682,-2
 .371476945\H,0,2.232396494,-0.626249044,-1.843794872\C,0,1.148028203,2
 .684616749,-3.478511891\H,0,0.442672171,3.376733659,-3.953020573\H,0,1
 .304947612,1.871584444,-4.19599643\H,0,2.099236168,3.206769226,-3.3328
 28326\O,0,-0.637255184,1.472274465,-2.461146452\H,0,-0.34893449,0.6988
 32972,-2.995546462\H,0,-1.273145483,2.588787003,0.056795148\C,0,0.2126
 68601,1.44719191,2.245503869\C,0,-1.040166833,1.570003769,2.71705213\H
 ,0,-1.302571057,1.25253036,3.721802249\H,0,-1.855209211,1.95681643,2.1
 14653319\C,0,1.291804523,0.875969636,3.13140012\H,0,1.674844445,-0.063
 386099,2.722251495\H,0,0.927792594,0.668103735,4.14344155\H,0,2.123054
 632,1.582753092,3.221733442\C,0,-1.954383942,-4.362584619,0.250845707\
 H,0,-2.881170234,-4.309280401,-0.333358062\H,0,-1.37327497,-5.18799067
 7,-0.178174209\C,0,-2.280438008,-4.665501667,1.705282588\H,0,-2.836114
 187,-5.605516977,1.78069734\H,0,-2.892661505,-3.872816638,2.148630994\
 H,0,-1.368996534,-4.760947139,2.305186768\\Version=EM64L-G09RevC.01\St
 ate=1-A\HF=-1002.5459922\RMSD=6.327e-09\Dipole=2.0641559,-0.7002229,0.
 1720381\Quadrupole=-3.8094867,11.7495858,-7.9400991,1.3883401,2.659533
 1,-3.6991239\PG=C01 [X(C18H26O4)]\\@


 WE HAVE LEFT UNDONE THOSE THINGS WHICH WE OUGHT TO HAVE DONE,
 AND WE HAVE DONE THOSE THINGS WHICH WE OUGHT NOT TO HAVE DONE.
                   BOOK OF COMMON PRAYER                      
 Job cpu time:  0 days  2 hours  3 minutes  2.0 seconds.
 File lengths (MBytes):  RWF=    241 Int=      0 D2E=      0 Chk=     19 Scr=      1
 Normal termination of Gaussian 09 at Fri Dec 23 15:28:19 2022.
