 Entering Gaussian System, Link 0=g09
 Input=/home/lpassaglia.iquir/Link1/03_RSRS_THC_008.gjc
 Output=/home/lpassaglia.iquir/Link1/03_RSRS_THC_008.log
 Initial command:
 /share/apps/Gaussian09/EM64T.SSE4.2-enabled/g09/l1.exe /tmp/Gau-28598.inp -scrdir=/tmp/
 Entering Link 1 = /share/apps/Gaussian09/EM64T.SSE4.2-enabled/g09/l1.exe PID=     28606.
  
 Copyright (c) 1988,1990,1992,1993,1995,1998,2003,2009,2011,
            Gaussian, Inc.  All Rights Reserved.
  
 This is part of the Gaussian(R) 09 program.  It is based on
 the Gaussian(R) 03 system (copyright 2003, Gaussian, Inc.),
 the Gaussian(R) 98 system (copyright 1998, Gaussian, Inc.),
 the Gaussian(R) 94 system (copyright 1995, Gaussian, Inc.),
 the Gaussian 92(TM) system (copyright 1992, Gaussian, Inc.),
 the Gaussian 90(TM) system (copyright 1990, Gaussian, Inc.),
 the Gaussian 88(TM) system (copyright 1988, Gaussian, Inc.),
 the Gaussian 86(TM) system (copyright 1986, Carnegie Mellon
 University), and the Gaussian 82(TM) system (copyright 1983,
 Carnegie Mellon University). Gaussian is a federally registered
 trademark of Gaussian, Inc.
  
 This software contains proprietary and confidential information,
 including trade secrets, belonging to Gaussian, Inc.
  
 This software is provided under written license and may be
 used, copied, transmitted, or stored only in accord with that
 written license.
  
 The following legend is applicable only to US Government
 contracts under FAR:
  
                    RESTRICTED RIGHTS LEGEND
  
 Use, reproduction and disclosure by the US Government is
 subject to restrictions as set forth in subparagraphs (a)
 and (c) of the Commercial Computer Software - Restricted
 Rights clause in FAR 52.227-19.
  
 Gaussian, Inc.
 340 Quinnipiac St., Bldg. 40, Wallingford CT 06492
  
  
 ---------------------------------------------------------------
 Warning -- This program may not be used in any manner that
 competes with the business of Gaussian, Inc. or will provide
 assistance to any competitor of Gaussian, Inc.  The licensee
 of this program is prohibited from giving any competitor of
 Gaussian, Inc. access to this program.  By using this program,
 the user acknowledges that Gaussian, Inc. is engaged in the
 business of creating and licensing software in the field of
 computational chemistry and represents and warrants to the
 licensee that it is not a competitor of Gaussian, Inc. and that
 it will not use this program in any manner prohibited above.
 ---------------------------------------------------------------
  

 Cite this work as:
 Gaussian 09, Revision C.01,
 M. J. Frisch, G. W. Trucks, H. B. Schlegel, G. E. Scuseria, 
 M. A. Robb, J. R. Cheeseman, G. Scalmani, V. Barone, B. Mennucci, 
 G. A. Petersson, H. Nakatsuji, M. Caricato, X. Li, H. P. Hratchian, 
 A. F. Izmaylov, J. Bloino, G. Zheng, J. L. Sonnenberg, M. Hada, 
 M. Ehara, K. Toyota, R. Fukuda, J. Hasegawa, M. Ishida, T. Nakajima, 
 Y. Honda, O. Kitao, H. Nakai, T. Vreven, J. A. Montgomery, Jr., 
 J. E. Peralta, F. Ogliaro, M. Bearpark, J. J. Heyd, E. Brothers, 
 K. N. Kudin, V. N. Staroverov, T. Keith, R. Kobayashi, J. Normand, 
 K. Raghavachari, A. Rendell, J. C. Burant, S. S. Iyengar, J. Tomasi, 
 M. Cossi, N. Rega, J. M. Millam, M. Klene, J. E. Knox, J. B. Cross, 
 V. Bakken, C. Adamo, J. Jaramillo, R. Gomperts, R. E. Stratmann, 
 O. Yazyev, A. J. Austin, R. Cammi, C. Pomelli, J. W. Ochterski, 
 R. L. Martin, K. Morokuma, V. G. Zakrzewski, G. A. Voth, 
 P. Salvador, J. J. Dannenberg, S. Dapprich, A. D. Daniels, 
 O. Farkas, J. B. Foresman, J. V. Ortiz, J. Cioslowski, 
 and D. J. Fox, Gaussian, Inc., Wallingford CT, 2010.
 
 ******************************************
 Gaussian 09:  EM64L-G09RevC.01 23-Sep-2011
                23-Dec-2022 
 ******************************************
 %chk=03_RSRS_THC_008_optB_NMR
 %nprocshared=4
 Will use up to    4 processors via shared memory.
 ------------------------------------------------
 # mPW1PW91/6-31+G** scrf=(PCM,solvent=water) nmr
 ------------------------------------------------
 1/38=1/1;
 2/12=2,17=6,18=5,40=1/2;
 3/5=1,6=6,7=111,11=2,16=1,25=1,30=1,70=2201,72=1,74=-7/1,2,8,3;
 4//1;
 5/5=2,38=5,53=1/2;
 8/6=1,10=90,11=11/1;
 10/13=100,45=16/2;
 6/7=2,8=2,9=2,10=2,28=1/1;
 99/9=1/99;
 -------
 comment
 -------
 Charge =  0 Multiplicity = 1
 Symbolic Z-Matrix:
 6                     1.77935   2.41685  -1.45395 
 6                     1.00719   3.52439  -0.72137 
 1                     1.62955   4.42715  -0.65838 
 1                     0.14893   3.83665  -1.32547 
 6                     0.54822   3.135     0.68595 
 1                     1.43644   3.11353   1.33193 
 6                    -0.1602    1.7605    0.81448 
 1                    -0.028     1.50118   1.87733 
 6                     0.61247   0.66673   0.01189 
 1                     1.60058   0.63354   0.48954 
 6                     0.97847   1.08919  -1.42982 
 1                     1.56016   0.29995  -1.92196 
 6                     0.07555  -0.75468   0.19728 
 6                    -0.83294  -3.41647   0.70502 
 6                     0.56204  -1.52287   1.27797 
 6                    -0.89996  -1.36424  -0.60552 
 6                    -1.33912  -2.67157  -0.36205 
 6                     0.12815  -2.82969   1.52801 
 1                    -2.09457  -3.099    -1.01861 
 1                     0.53165  -3.39712   2.36172 
 8                    -1.52817  -0.76243  -1.65743 
 1                    -1.17579   0.14558  -1.77806 
 8                     1.49219  -0.97061   2.12298 
 1                     1.68162  -1.6039    2.83483 
 8                    -0.19162   1.27844  -2.24414 
 1                     0.08403   1.90129  -2.95162 
 6                     3.20374   2.26926  -0.90791 
 1                     3.77891   3.18568  -1.08453 
 1                     3.73724   1.46731  -1.43083 
 1                     3.23204   2.05538   0.16352 
 8                     1.88289   2.82369  -2.83524 
 1                     2.53414   2.24405  -3.27071 
 1                    -0.08687   3.93172   1.0935 
 6                    -1.68026   1.81913   0.63084 
 6                    -2.32504   2.50372  -0.32855 
 1                    -3.41002   2.50875  -0.38579 
 1                    -1.81273   3.0598   -1.10142 
 6                    -2.48721   1.07915   1.67287 
 1                    -2.23277   0.01693   1.69248 
 1                    -3.56492   1.15226   1.49077 
 1                    -2.29348   1.49878   2.66572 
 6                    -1.30232  -4.82696   0.94537 
 1                    -1.28091  -5.04498   2.02012 
 1                    -2.35046  -4.92546   0.63752 
 6                    -0.44987  -5.84129   0.19843 
 1                    -0.8128   -6.85577   0.39134 
 1                     0.59753  -5.78971   0.51466 
 1                    -0.48305  -5.66885  -0.88271 
 
                          Input orientation:                          
 ---------------------------------------------------------------------
 Center     Atomic      Atomic             Coordinates (Angstroms)
 Number     Number       Type             X           Y           Z
 ---------------------------------------------------------------------
      1          6           0        1.779347    2.416847   -1.453945
      2          6           0        1.007190    3.524395   -0.721366
      3          1           0        1.629554    4.427151   -0.658376
      4          1           0        0.148926    3.836649   -1.325466
      5          6           0        0.548215    3.135003    0.685947
      6          1           0        1.436435    3.113530    1.331929
      7          6           0       -0.160199    1.760499    0.814480
      8          1           0       -0.028000    1.501179    1.877331
      9          6           0        0.612465    0.666735    0.011889
     10          1           0        1.600575    0.633536    0.489536
     11          6           0        0.978473    1.089188   -1.429816
     12          1           0        1.560164    0.299949   -1.921963
     13          6           0        0.075552   -0.754679    0.197277
     14          6           0       -0.832943   -3.416469    0.705023
     15          6           0        0.562040   -1.522866    1.277968
     16          6           0       -0.899963   -1.364241   -0.605517
     17          6           0       -1.339118   -2.671569   -0.362053
     18          6           0        0.128149   -2.829687    1.528007
     19          1           0       -2.094574   -3.099001   -1.018608
     20          1           0        0.531655   -3.397119    2.361718
     21          8           0       -1.528170   -0.762429   -1.657425
     22          1           0       -1.175794    0.145578   -1.778064
     23          8           0        1.492192   -0.970605    2.122975
     24          1           0        1.681616   -1.603896    2.834832
     25          8           0       -0.191622    1.278441   -2.244136
     26          1           0        0.084029    1.901289   -2.951624
     27          6           0        3.203743    2.269260   -0.907912
     28          1           0        3.778909    3.185681   -1.084534
     29          1           0        3.737239    1.467310   -1.430835
     30          1           0        3.232039    2.055384    0.163521
     31          8           0        1.882894    2.823686   -2.835242
     32          1           0        2.534145    2.244050   -3.270708
     33          1           0       -0.086868    3.931716    1.093496
     34          6           0       -1.680261    1.819128    0.630838
     35          6           0       -2.325037    2.503716   -0.328547
     36          1           0       -3.410021    2.508747   -0.385789
     37          1           0       -1.812731    3.059804   -1.101416
     38          6           0       -2.487207    1.079153    1.672867
     39          1           0       -2.232770    0.016933    1.692479
     40          1           0       -3.564918    1.152257    1.490771
     41          1           0       -2.293485    1.498779    2.665723
     42          6           0       -1.302315   -4.826959    0.945375
     43          1           0       -1.280905   -5.044976    2.020122
     44          1           0       -2.350462   -4.925457    0.637521
     45          6           0       -0.449869   -5.841291    0.198430
     46          1           0       -0.812797   -6.855772    0.391336
     47          1           0        0.597528   -5.789708    0.514661
     48          1           0       -0.483045   -5.668848   -0.882709
 ---------------------------------------------------------------------
                    Distance matrix (angstroms):
                    1          2          3          4          5
     1  C    0.000000
     2  C    1.536086   0.000000
     3  H    2.167185   1.098305   0.000000
     4  H    2.165784   1.095015   1.727993   0.000000
     5  C    2.571103   1.530625   2.155491   2.167377   0.000000
     6  H    2.892067   2.137541   2.392532   3.040120   1.098493
     7  C    3.055877   2.613991   3.533207   2.997554   1.551655
     8  H    3.899020   3.452282   4.211723   3.967825   2.102570
     9  C    2.563821   2.976524   3.952778   3.471563   2.559459
    10  H    2.643724   3.189898   3.963591   3.957455   2.720914
    11  C    1.550697   2.536327   3.487265   2.871860   2.974379
    12  H    2.179069   3.484862   4.316858   3.854303   3.982809
    13  C    3.960812   4.474631   5.477082   4.837812   3.948650
    14  C    6.746317   7.320947   8.333374   7.595702   6.695503
    15  C    4.946365   5.447048   6.347576   5.972683   4.695362
    16  C    4.711174   5.248753   6.319926   5.354228   4.899826
    17  C    6.067046   6.635076   7.700172   6.745321   6.194887
    18  C    6.256565   6.797554   7.726330   7.251398   6.038464
    19  H    6.754359   7.319744   8.404871   7.295937   6.982310
    20  H    7.065283   7.592029   8.458461   8.128298   6.743672
    21  O    4.592262   5.067653   6.156383   4.906564   4.999275
    22  H    3.741200   4.159139   5.239804   3.947624   4.240310
    23  O    4.934739   5.341398   6.073760   6.066780   4.451086
    24  H    5.879587   6.277003   6.969846   7.018316   5.325361
    25  O    2.409375   2.966527   3.968084   2.739408   3.546769
    26  H    2.320118   2.908737   3.745345   2.528680   3.869037
    27  C    1.532591   2.536732   2.682691   3.458753   3.215855
    28  H    2.173894   2.815856   2.518449   3.695753   3.684366
    29  H    2.176120   3.491148   3.714793   4.301264   4.175145
    30  H    2.203898   2.809088   2.978045   3.859479   2.939628
    31  O    1.443683   2.392973   2.715516   2.512402   3.778499
    32  H    1.974894   3.235741   3.522569   3.465488   4.515842
    33  H    3.502434   2.157915   2.502122   2.432286   1.097351
    34  C    4.083195   3.458147   4.406669   3.353125   2.588566
    35  C    4.256763   3.507110   4.409895   2.981786   3.111800
    36  H    5.298957   4.544877   5.399249   3.913109   4.148307
    37  H    3.666156   2.883094   3.730314   2.121741   2.962159
    38  C    5.456176   4.891049   5.795817   4.852111   3.796619
    39  H    5.635304   5.350353   6.316177   5.419474   4.297598
    40  H    6.231510   5.605779   6.505867   5.378642   4.636474
    41  H    5.865362   5.144895   5.917367   5.230736   3.830405
    42  C    8.229587   8.823658   9.839025   9.073088   8.178301
    43  H    8.781406   9.283601  10.264809   9.597950   8.487506
    44  H    8.679804   9.193498  10.246519   9.320664   8.565962
    45  C    8.711865   9.522873  10.511851   9.815465   9.044761
    46  H    9.803353  10.597090  11.591864  10.871991  10.087355
    47  H    8.521717   9.404685  10.335633   9.810916   8.926491
    48  H    8.415652   9.314641  10.317102   9.536766   9.001776
                    6          7          8          9         10
     6  H    0.000000
     7  C    2.155849   0.000000
     8  H    2.245375   1.101987   0.000000
     9  C    2.899696   1.561244   2.141581   0.000000
    10  H    2.624298   2.115646   2.308904   1.098003   0.000000
    11  C    3.454696   2.604630   3.481371   1.546267   2.068463
    12  H    4.303413   3.546968   4.289506   2.184594   2.434798
    13  C    4.254700   2.600508   2.814640   1.530706   2.082847
    14  C    6.941468   5.221644   5.119131   4.386592   4.729798
    15  C    4.718437   3.393662   3.138827   2.529792   2.519970
    16  C    5.409518   3.511074   3.890435   2.606432   3.382742
    17  C    6.636313   4.734693   4.913828   3.884943   4.504523
    18  C    6.088669   4.654253   4.347736   3.841632   3.903892
    19  H    7.522539   5.542271   5.815398   4.750868   5.464472
    20  H    6.653394   5.428963   4.953905   4.695012   4.570978
    21  O    5.722602   3.787721   4.457458   3.067807   4.043168
    22  H    5.030362   3.218803   4.064112   2.583294   3.617781
    23  O    4.160412   3.449853   2.912223   2.812736   2.291973
    24  H    4.957110   4.335120   3.671660   3.777281   3.242389
    25  O    4.336630   3.096531   4.130724   2.471921   3.331792
    26  H    4.652672   3.776641   4.846798   3.253580   3.968462
    27  C    2.975408   3.813342   4.334939   3.182584   2.683021
    28  H    3.366256   4.599344   5.109085   4.192088   3.706248
    29  H    3.954314   4.507485   5.012199   3.533637   2.991377
    30  H    2.389360   3.466696   3.724533   2.968755   2.188518
    31  O    4.201029   4.315676   5.254416   3.791119   3.991316
    32  H    4.810949   4.917527   5.798168   4.117793   4.195800
    33  H    1.745489   2.190299   2.554481   3.509850   3.753695
    34  C    3.446854   1.532238   2.093992   2.639640   3.491344
    35  C    4.156648   2.558399   3.338766   3.481280   4.424620
    36  H    5.177302   3.544272   4.192251   4.442021   5.421133
    37  H    4.059696   2.844242   3.806246   3.584384   4.479795
    38  C    4.432820   2.572164   2.503519   3.540748   4.278879
    39  H    4.814766   2.847184   2.664238   3.367786   4.064702
    40  H    5.374510   3.524123   3.575047   4.457954   5.287141
    41  H    4.277701   2.836636   2.398747   4.022397   4.544022
    42  C    8.408421   6.687015   6.522097   5.892236   6.200933
    43  H    8.626631   7.001717   6.666506   6.343618   6.549131
    44  H    8.913367   7.037797   6.944970   6.359478   6.821657
    45  C    9.221268   7.632211   7.543776   6.596798   6.797974
    46  H   10.263076   8.651304   8.524243   7.665732   7.869164
    47  H    8.979941   7.594055   7.443467   6.476006   6.501139
    48  H    9.258466   7.627574   7.696374   6.491537   6.778243
                   11         12         13         14         15
    11  C    0.000000
    12  H    1.097029   0.000000
    13  C    2.619646   2.794189   0.000000
    14  C    5.304688   5.141963   2.858023   0.000000
    15  C    3.785279   3.815555   1.412329   2.420739   0.000000
    16  C    3.198015   3.248812   1.402738   2.435908   2.389588
    17  C    4.544738   4.434983   2.447164   1.396331   2.761085
    18  C    4.982905   4.873149   2.465616   1.394745   1.399486
    19  H    5.210915   5.072082   3.418139   2.159491   3.849163
    20  H    5.890868   5.751180   3.446059   2.146425   2.165240
    21  O    3.124668   3.276650   2.451919   3.620557   3.682903
    22  H    2.377508   2.744085   2.505655   4.355623   3.891414
    23  O    4.138717   4.240337   2.400376   3.660477   1.372666
    24  H    5.092577   5.125084   3.202703   3.760919   1.919334
    25  O    1.438074   2.032239   3.188332   5.581310   4.562954
    26  H    1.943049   2.409038   4.119444   6.518471   5.462855
    27  C    2.572310   2.758231   4.489012   7.157088   5.112424
    28  H    3.515245   3.735180   5.557367   8.249853   6.172526
    29  H    2.784559   2.518650   4.582132   7.021379   5.134263
    30  H    2.924178   3.197807   4.226228   6.838017   4.601604
    31  O    2.408668   2.703235   5.026664   7.671296   6.128267
    32  H    2.672584   2.558765   5.202305   7.693192   6.226500
    33  H    3.947407   4.999544   4.774085   7.396173   5.496142
    34  C    3.442088   4.396027   3.145685   5.304237   4.076226
    35  C    3.758571   4.742399   4.081232   6.192189   5.208595
    36  H    4.729061   5.651669   4.810316   6.552816   5.899090
    37  H    3.432490   4.434695   4.450000   6.794507   5.683473
    38  C    4.651631   5.469110   3.479660   4.887119   4.027947
    39  H    4.605489   5.246964   2.856460   3.837034   3.217726
    40  H    5.401500   6.216080   4.308428   5.380925   4.922739
    41  H    5.258033   6.110210   4.096783   5.489735   4.382947
    42  C    6.770843   6.534569   4.363672   1.505842   3.808342
    43  H    7.391537   7.223567   4.854831   2.140604   4.043822
    44  H    7.178555   7.010622   4.845075   2.141136   4.524430
    45  C    7.261053   6.800818   5.113677   2.506620   4.564883
    46  H    8.345516   7.885850   6.168481   3.453637   5.578188
    47  H    7.158584   6.629308   5.071954   2.777543   4.334725
    48  H    6.935879   6.393848   5.062357   2.777864   4.790604
                   16         17         18         19         20
    16  C    0.000000
    17  C    1.400443   0.000000
    18  C    2.785043   2.397957   0.000000
    19  H    2.146423   1.088336   3.390910   0.000000
    20  H    3.871254   3.383067   1.086219   4.290985   0.000000
    21  O    1.365040   2.314854   4.142937   2.487664   5.228574
    22  H    1.931451   3.157227   4.634929   3.456620   5.709981
    23  O    3.649935   4.133396   2.381341   5.221542   2.620611
    24  H    4.307898   4.526018   2.371416   5.598567   2.182177
    25  O    3.189136   4.523447   5.586415   4.927996   6.602870
    26  H    4.139583   5.444471   6.515456   5.786689   7.516988
    27  C    5.489460   6.734044   6.433680   7.543384   7.066710
    28  H    6.543935   7.811758   7.505869   8.602289   8.108919
    29  H    5.495678   6.636417   6.343852   7.418300   6.951396
    30  H    5.418366   6.596651   5.946417   7.505859   6.469462
    31  O    5.500426   6.833436   7.353753   7.361971   8.217825
    32  H    5.649434   6.901142   7.386426   7.419244   8.219305
    33  H    5.620936   6.876782   6.778761   7.610706   7.463430
    34  C    3.503037   4.611786   5.068208   5.203875   5.924336
    35  C    4.131420   5.268466   6.157118   5.649755   7.086471
    36  H    4.620466   5.578968   6.684320   5.794627   7.613466
    37  H    4.544363   5.798242   6.735501   6.165807   7.692938
    38  C    3.698722   4.418928   4.705327   4.985496   5.442890
    39  H    2.994127   3.499680   3.701922   4.132570   4.443610
    40  H    4.222460   4.796748   5.431023   5.150931   6.183631
    41  H    4.565062   5.241188   5.088647   5.895205   5.660711
    42  C    3.815438   2.521195   2.524833   2.733266   2.722851
    43  H    4.537279   3.363213   2.671164   3.699020   2.473357
    44  H    4.041207   2.664953   3.365818   2.478747   3.689887
    45  C    4.570875   3.339467   3.342400   3.421461   3.408398
    46  H    5.581956   4.283942   4.287978   4.212389   4.201456
    47  H    4.804377   3.773859   3.163687   4.103441   3.023316
    48  H    4.333624   3.160320   3.774379   3.036380   4.088603
                   21         22         23         24         25
    21  O    0.000000
    22  H    0.981427   0.000000
    23  O    4.843279   4.856143   0.000000
    24  H    5.584906   5.701251   0.971431   0.000000
    25  O    2.509132   1.571368   5.192794   6.132928   0.000000
    26  H    3.371874   2.459049   5.998522   6.951380   0.982070
    27  C    5.669560   4.944445   4.755251   5.596994   3.780968
    28  H    6.639342   5.854254   5.726421   6.534533   4.554927
    29  H    5.722553   5.099553   4.859345   5.643918   4.016601
    30  H    5.823702   5.181323   4.002891   4.788533   4.256984
    31  O    5.087517   4.200650   6.255654   7.196786   2.653451
    32  H    5.305092   4.516106   6.364864   7.267126   3.068559
    33  H    5.628491   4.875086   5.252239   6.066531   4.265047
    34  C    3.453073   2.976250   4.480351   5.279858   3.282357
    35  C    3.615054   2.997111   5.714202   6.552306   3.118050
    36  H    3.982338   3.537622   6.513946   7.294587   3.914742
    37  H    3.872930   3.058800   6.128900   7.032397   2.665907
    38  C    3.924540   3.807925   4.498858   5.091954   4.544484
    39  H    3.510801   3.630209   3.877615   4.387992   4.610274
    40  H    4.210166   4.172122   5.520923   6.076924   5.034340
    41  H    4.938459   4.777827   4.552338   5.045455   5.345381
    42  C    4.831768   5.670913   4.905862   4.781425   6.977287
    43  H    5.650283   6.432660   4.929619   4.613167   7.704287
    44  H    4.824287   5.738492   5.710816   5.667327   7.173067
    45  C    5.513781   6.346345   5.585611   5.426726   7.531495
    46  H    6.468231   7.338730   6.553376   6.306740   8.573039
    47  H    5.874529   6.605216   5.158571   4.907083   7.628398
    48  H    5.075965   5.923606   5.916856   5.918589   7.085424
                   26         27         28         29         30
    26  H    0.000000
    27  C    3.747636   0.000000
    28  H    4.334493   1.096284   0.000000
    29  H    3.980840   1.095988   1.753414   0.000000
    30  H    4.431461   1.092938   1.770390   1.772859   0.000000
    31  O    2.024913   2.401381   2.605934   2.692714   3.376842
    32  H    2.494467   2.455973   2.686162   2.331501   3.509499
    33  H    4.529331   4.194939   4.499402   5.202821   3.924363
    34  C    3.994184   5.140415   5.883240   5.807201   4.940131
    35  C    3.612070   5.563994   6.188275   6.248229   5.596805
    36  H    4.377317   6.638663   7.254461   7.297948   6.680138
    37  H    2.891907   5.082068   5.593082   5.783314   5.297040
    38  C    5.354725   6.361107   7.162745   6.966158   5.995075
    39  H    5.521418   6.433559   7.341188   6.892002   6.029687
    40  H    5.797477   7.267472   8.043556   7.871248   6.983971
    41  H    6.113034   6.601819   7.333759   7.290570   6.091160
    42  C    7.897967   8.607878   9.702668   8.406028   8.278787
    43  H    8.650543   9.065511  10.148119   8.916319   8.615610
    44  H    8.087841   9.219626  10.311412   9.066734   8.951041
    45  C    8.375884   8.964034  10.050611   8.579162   8.712929
    46  H    9.416252  10.054195  11.139691   9.659028   9.788835
    47  H    8.451642   8.588541   9.655891   8.142915   8.283081
    48  H    7.868225   8.752519   9.828920   8.308790   8.634825
                   31         32         33         34         35
    31  O    0.000000
    32  H    0.974544   0.000000
    33  H    4.532403   5.363227   0.000000
    34  C    5.071382   5.758805   2.686258   0.000000
    35  C    4.908419   5.686421   3.011775   1.343434   0.000000
    36  H    5.840715   6.612559   3.905953   2.121597   1.086505
    37  H    4.088954   4.926115   2.925144   2.134837   1.081211
    38  C    6.516457   7.142121   3.772852   1.511472   2.461978
    39  H    6.731775   7.233032   4.504354   2.163390   3.205800
    40  H    7.154489   7.814234   4.469905   2.176266   2.583344
    41  H    7.032647   7.687825   3.641461   2.149284   3.158567
    42  C    9.108841   9.082563   8.843848   6.664251   7.510501
    43  H    9.772411   9.781482   9.103041   7.014664   7.974284
    44  H    9.488445   9.515013   9.153212   6.777805   7.491766
    45  C    9.472421   9.290425   9.820620   7.770641   8.569312
    46  H   10.553172  10.364330  10.834662   8.721453   9.508160
    47  H    9.330840   9.089597   9.762661   7.943312   8.833644
    48  H    9.029572   8.798859   9.809851   7.732653   8.395882
                   36         37         38         39         40
    36  H    0.000000
    37  H    1.834972   0.000000
    38  C    2.670840   3.474844   0.000000
    39  H    3.451704   4.152270   1.092445   0.000000
    40  H    2.320675   3.664468   1.095429   1.761893   0.000000
    41  H    3.402707   4.106003   1.095161   1.773911   1.765541
    42  C    7.747710   8.164001   6.067567   4.988707   6.416218
    43  H    8.208549   8.701396   6.251456   5.161038   6.625906
    44  H    7.578735   8.190083   6.094751   5.055097   6.256321
    45  C    8.878454   9.098159   7.363237   6.303150   7.764238
    46  H    9.749037  10.077044   8.210299   7.137462   8.538821
    47  H    9.259353   9.313159   7.618286   6.566195   8.152891
    48  H    8.699838   8.832059   7.488868   6.482378   7.852313
                   41         42         43         44         45
    41  H    0.000000
    42  C    6.630006   0.000000
    43  H    6.653033   1.096846   0.000000
    44  H    6.737037   1.096853   1.752090   0.000000
    45  C    7.960093   1.521007   2.154832   2.154949   0.000000
    46  H    8.784292   2.159321   2.480131   2.480148   1.094578
    47  H    8.130625   2.172971   2.519831   3.074519   1.095309
    48  H    8.200240   2.172986   3.074446   2.520114   1.095308
                   46         47         48
    46  H    0.000000
    47  H    1.772206   0.000000
    48  H    1.772206   1.770561   0.000000
 Stoichiometry    C18H26O4
 Framework group  C1[X(C18H26O4)]
 Deg. of freedom   138
 Full point group                 C1      NOp   1
 Largest Abelian subgroup         C1      NOp   1
 Largest concise Abelian subgroup C1      NOp   1
                         Standard orientation:                         
 ---------------------------------------------------------------------
 Center     Atomic      Atomic             Coordinates (Angstroms)
 Number     Number       Type             X           Y           Z
 ---------------------------------------------------------------------
      1          6           0        3.015906   -1.286167   -0.211689
      2          6           0        3.695971   -0.009041    0.304084
      3          1           0        4.679586   -0.259521    0.723649
      4          1           0        3.928209    0.650729   -0.538429
      5          6           0        2.881546    0.746458    1.357054
      6          1           0        2.919938    0.164879    2.288172
      7          6           0        1.387586    0.989858    1.015776
      8          1           0        0.920372    1.145359    2.001629
      9          6           0        0.737410   -0.306739    0.438202
     10          1           0        0.829208   -1.036929    1.253067
     11          6           0        1.568824   -0.980666   -0.677825
     12          1           0        1.084599   -1.908765   -1.005897
     13          6           0       -0.773064   -0.211614    0.209118
     14          6           0       -3.616859   -0.066213   -0.035804
     15          6           0       -1.637926   -0.524370    1.280971
     16          6           0       -1.388296    0.198141   -0.983050
     17          6           0       -2.781901    0.261313   -1.105997
     18          6           0       -3.031365   -0.463530    1.166132
     19          1           0       -3.208012    0.580966   -2.055063
     20          1           0       -3.668096   -0.722018    2.007339
     21          8           0       -0.720905    0.594552   -2.105895
     22          1           0        0.246785    0.524693   -1.957923
     23          8           0       -1.097629   -0.897615    2.486367
     24          1           0       -1.818544   -1.026854    3.124535
     25          8           0        1.660835   -0.151999   -1.849534
     26          1           0        2.482745   -0.438273   -2.304477
     27          6           0        3.088648   -2.417418    0.819726
     28          1           0        4.131277   -2.701482    1.004307
     29          1           0        2.588264   -3.316872    0.443179
     30          1           0        2.637122   -2.152428    1.779110
     31          8           0        3.755002   -1.711375   -1.376658
     32          1           0        3.471034   -2.616953   -1.598077
     33          1           0        3.380264    1.696200    1.588250
     34          6           0        1.121181    2.299156    0.265763
     35          6           0        1.840229    2.767006   -0.768115
     36          1           0        1.597725    3.714648   -1.241042
     37          1           0        2.671968    2.227566   -1.199659
     38          6           0       -0.018982    3.132903    0.803761
     39          1           0       -0.961499    2.581113    0.778791
     40          1           0       -0.165744    4.053749    0.228897
     41          1           0        0.183948    3.422555    1.840245
     42          6           0       -5.114006   -0.009440   -0.187084
     43          1           0       -5.571878    0.261485    0.772094
     44          1           0       -5.384861    0.789570   -0.888017
     45          6           0       -5.683643   -1.333640   -0.672338
     46          1           0       -6.771355   -1.263593   -0.772718
     47          1           0       -5.459103   -2.143855    0.029684
     48          1           0       -5.269928   -1.610472   -1.647994
 ---------------------------------------------------------------------
 Rotational constants (GHZ):      0.4827241      0.1812302      0.1724467
 Standard basis: 6-31+G(d,p) (6D, 7F)
 There are   548 symmetry adapted basis functions of A   symmetry.
 Integral buffers will be    131072 words long.
 Raffenetti 2 integral format.
 Two-electron integral symmetry is turned on.
   548 basis functions,   886 primitive gaussians,   548 cartesian basis functions
    83 alpha electrons       83 beta electrons
       nuclear repulsion energy      1988.9936497606 Hartrees.
 NAtoms=   48 NActive=   48 NUniq=   48 SFac= 1.00D+00 NAtFMM=   60 NAOKFM=F Big=F
 ------------------------------------------------------------------------------
 Polarizable Continuum Model (PCM)
 =================================
 Model                : PCM.
 Atomic radii         : UFF (Universal Force Field).
 Polarization charges : Total charges.
 Charge compensation  : None.
 Solution method      : Matrix inversion.
 Cavity type          : Scaled VdW (van der Waals Surface) (Alpha=1.100).
 Cavity algorithm     : GePol (No added spheres)
                        Default sphere list used, NSphG=   48.
                        Lebedev-Laikov grids with approx.  5.0 points / Ang**2.
                        Smoothing algorithm: Karplus/York (Gamma=1.0000).
                        Polarization charges: spherical gaussians, with
                                              point-specific exponents (IZeta= 3).
                        Self-potential: point-specific (ISelfS= 7).
                        Self-field    : sphere-specific E.n sum rule (ISelfD= 2).
 Solvent              : Water, Eps=  78.355300 Eps(inf)=   1.777849
 ------------------------------------------------------------------------------
 One-electron integrals computed using PRISM.
 NBasis=   548 RedAO= T  NBF=   548
 NBsUse=   546 1.00D-06 NBFU=   546
 Harris functional with IExCor=  908 diagonalized for initial guess.
 ExpMin= 4.38D-02 ExpMax= 5.48D+03 ExpMxC= 8.25D+02 IAcc=2 IRadAn=         4 AccDes= 0.00D+00
 HarFok:  IExCor=  908 AccDes= 0.00D+00 IRadAn=         4 IDoV= 1
 ScaDFX=  1.000000  1.000000  1.000000  1.000000
 FoFCou: FMM=F IPFlag=           0 FMFlag=      100000 FMFlg1=           0
         NFxFlg=           0 DoJE=T BraDBF=F KetDBF=T FulRan=T
         Omega=  0.000000  0.000000  1.000000  0.000000  0.000000 ICntrl=     500 IOpCl=  0
         NMat0=    1 NMatS0=    1 NMatT0=    0 NMatD0=    1 NMtDS0=    0 NMtDT0=    0
         I1Cent=           4 NGrid=           0.
 Petite list used in FoFCou.
 Initial guess orbital symmetries:
       Occupied  (A) (A) (A) (A) (A) (A) (A) (A) (A) (A) (A) (A)
                 (A) (A) (A) (A) (A) (A) (A) (A) (A) (A) (A) (A)
                 (A) (A) (A) (A) (A) (A) (A) (A) (A) (A) (A) (A)
                 (A) (A) (A) (A) (A) (A) (A) (A) (A) (A) (A) (A)
                 (A) (A) (A) (A) (A) (A) (A) (A) (A) (A) (A) (A)
                 (A) (A) (A) (A) (A) (A) (A) (A) (A) (A) (A) (A)
                 (A) (A) (A) (A) (A) (A) (A) (A) (A) (A) (A)
       Virtual   (A) (A) (A) (A) (A) (A) (A) (A) (A) (A) (A) (A)
                 (A) (A) (A) (A) (A) (A) (A) (A) (A) (A) (A) (A)
                 (A) (A) (A) (A) (A) (A) (A) (A) (A) (A) (A) (A)
                 (A) (A) (A) (A) (A) (A) (A) (A) (A) (A) (A) (A)
                 (A) (A) (A) (A) (A) (A) (A) (A) (A) (A) (A) (A)
                 (A) (A) (A) (A) (A) (A) (A) (A) (A) (A) (A) (A)
                 (A) (A) (A) (A) (A) (A) (A) (A) (A) (A) (A) (A)
                 (A) (A) (A) (A) (A) (A) (A) (A) (A) (A) (A) (A)
                 (A) (A) (A) (A) (A) (A) (A) (A) (A) (A) (A) (A)
                 (A) (A) (A) (A) (A) (A) (A) (A) (A) (A) (A) (A)
                 (A) (A) (A) (A) (A) (A) (A) (A) (A) (A) (A) (A)
                 (A) (A) (A) (A) (A) (A) (A) (A) (A) (A) (A) (A)
                 (A) (A) (A) (A) (A) (A) (A) (A) (A) (A) (A) (A)
                 (A) (A) (A) (A) (A) (A) (A) (A) (A) (A) (A) (A)
                 (A) (A) (A) (A) (A) (A) (A) (A) (A) (A) (A) (A)
                 (A) (A) (A) (A) (A) (A) (A) (A) (A) (A) (A) (A)
                 (A) (A) (A) (A) (A) (A) (A) (A) (A) (A) (A) (A)
                 (A) (A) (A) (A) (A) (A) (A) (A) (A) (A) (A) (A)
                 (A) (A) (A) (A) (A) (A) (A) (A) (A) (A) (A) (A)
                 (A) (A) (A) (A) (A) (A) (A) (A) (A) (A) (A) (A)
                 (A) (A) (A) (A) (A) (A) (A) (A) (A) (A) (A) (A)
                 (A) (A) (A) (A) (A) (A) (A) (A) (A) (A) (A) (A)
                 (A) (A) (A) (A) (A) (A) (A) (A) (A) (A) (A) (A)
                 (A) (A) (A) (A) (A) (A) (A) (A) (A) (A) (A) (A)
                 (A) (A) (A) (A) (A) (A) (A) (A) (A) (A) (A) (A)
                 (A) (A) (A) (A) (A) (A) (A) (A) (A) (A) (A) (A)
                 (A) (A) (A) (A) (A) (A) (A) (A) (A) (A) (A) (A)
                 (A) (A) (A) (A) (A) (A) (A) (A) (A) (A) (A) (A)
                 (A) (A) (A) (A) (A) (A) (A) (A) (A) (A) (A) (A)
                 (A) (A) (A) (A) (A) (A) (A) (A) (A) (A) (A) (A)
                 (A) (A) (A) (A) (A) (A) (A) (A) (A) (A) (A) (A)
                 (A) (A) (A) (A) (A) (A) (A) (A) (A) (A) (A) (A)
                 (A) (A) (A) (A) (A) (A) (A) (A) (A) (A) (A) (A)
                 (A) (A) (A) (A) (A) (A) (A) (A) (A) (A) (A) (A)
                 (A) (A) (A) (A) (A) (A) (A) (A) (A) (A) (A) (A)
                 (A) (A) (A) (A) (A) (A) (A) (A) (A) (A) (A) (A)
                 (A) (A) (A) (A) (A) (A) (A) (A) (A) (A) (A) (A)
                 (A) (A) (A) (A) (A) (A) (A) (A) (A) (A) (A) (A)
                 (A) (A) (A) (A) (A) (A) (A)
 The electronic state of the initial guess is 1-A.
 Requested convergence on RMS density matrix=1.00D-08 within 128 cycles.
 Requested convergence on MAX density matrix=1.00D-06.
 Requested convergence on             energy=1.00D-06.
 No special actions if energy rises.
 CoulSu:  requested number of processors reduced to:   2 ShMem   1 Linda.
 CoulSu:  requested number of processors reduced to:   2 ShMem   1 Linda.
 Error on total polarization charges =  0.01926
 SCF Done:  E(RmPW1PW91) =  -1002.30588573     A.U. after   14 cycles
             Convg  =    0.5563D-08             -V/T =  2.0093
 Range of M.O.s used for correlation:     1   546
 NBasis=   548 NAE=    83 NBE=    83 NFC=     0 NFV=     0
 NROrb=    546 NOA=    83 NOB=    83 NVA=   463 NVB=   463

 **** Warning!!: The largest alpha MO coefficient is  0.13961335D+03

 NEqPCM:  Using equilibrium solvation (IEInf=0, Eps=  78.3553, EpsInf=   1.7778)
          Differentiating once with respect to magnetic field using GIAOs.
          Electric field/nuclear overlap derivatives assumed to be zero.
 FoFCou: FMM=F IPFlag=           0 FMFlag=    10101102 FMFlg1=           0
         NFxFlg=    40000000 DoJE=F BraDBF=F KetDBF=T FulRan=T
         Omega=  0.000000  0.000000  1.000000  0.000000  0.000000 ICntrl=    6100 IOpCl=  0
         NMat0=    1 NMatS0=    1 NMatT0=    0 NMatD0=    1 NMtDS0=    0 NMtDT0=    0
         I1Cent=           7 NGrid=        2999.
 Symmetry not used in FoFCou.
          There are     3 degrees of freedom in the 1st order CPHF.  IDoFFX=0.
      3 vectors produced by pass  0 Test12= 1.28D-12 3.33D-08 XBig12= 6.86D+02 3.80D+00.
 AX will form     3 AO Fock derivatives at one time.
      3 vectors produced by pass  1 Test12= 1.28D-12 3.33D-08 XBig12= 1.82D+00 5.03D-01.
      3 vectors produced by pass  2 Test12= 1.28D-12 3.33D-08 XBig12= 7.70D-03 3.90D-02.
      3 vectors produced by pass  3 Test12= 1.28D-12 3.33D-08 XBig12= 3.99D-05 1.70D-03.
      3 vectors produced by pass  4 Test12= 1.28D-12 3.33D-08 XBig12= 1.36D-07 8.61D-05.
      3 vectors produced by pass  5 Test12= 1.28D-12 3.33D-08 XBig12= 4.28D-10 4.50D-06.
      3 vectors produced by pass  6 Test12= 1.28D-12 3.33D-08 XBig12= 1.85D-12 2.33D-07.
 Inverted reduced A of dimension    21 with in-core refinement.
 Calculating GIAO nuclear magnetic shielding tensors.
 SCF GIAO Magnetic shielding tensor (ppm):
      1  C    Isotropic =   120.6256   Anisotropy =    47.5138
   XX=   118.1688   YX=   -11.6628   ZX=   -14.5222
   XY=    -9.8440   YY=   107.5556   ZY=     5.0647
   XZ=   -22.1374   YZ=    15.6839   ZZ=   136.1523
   Eigenvalues:   100.8263   108.7490   152.3014
      2  C    Isotropic =   165.4084   Anisotropy =    20.4963
   XX=   163.9145   YX=     4.6265   ZX=    -0.9424
   XY=    -0.9437   YY=   174.3353   ZY=     7.6805
   XZ=    -1.1027   YZ=    12.0527   ZZ=   157.9754
   Eigenvalues:   153.0683   164.0843   179.0726
      3  H    Isotropic =    30.0311   Anisotropy =     9.5417
   XX=    35.7620   YX=    -1.3134   ZX=     2.3457
   XY=    -0.9413   YY=    27.6174   ZY=     0.7759
   XZ=     2.1941   YZ=     0.9708   ZZ=    26.7140
   Eigenvalues:    25.5565    28.1446    36.3923
      4  H    Isotropic =    29.2633   Anisotropy =     6.5189
   XX=    28.8406   YX=     1.7800   ZX=    -2.6034
   XY=     2.0985   YY=    30.4712   ZY=    -2.1825
   XZ=    -1.8267   YZ=    -2.2249   ZZ=    28.4779
   Eigenvalues:    26.3937    27.7868    33.6092
      5  C    Isotropic =   163.2978   Anisotropy =    25.6135
   XX=   177.6579   YX=    -5.3146   ZX=     8.6234
   XY=    -2.0454   YY=   157.9545   ZY=    -2.6604
   XZ=     5.7682   YZ=     0.0297   ZZ=   154.2810
   Eigenvalues:   152.2302   157.2897   180.3735
      6  H    Isotropic =    29.4360   Anisotropy =     8.4746
   XX=    28.0927   YX=    -2.4124   ZX=     2.0832
   XY=    -1.9130   YY=    26.1315   ZY=    -1.0912
   XZ=     1.7172   YZ=    -1.7452   ZZ=    34.0839
   Eigenvalues:    24.7343    28.4880    35.0858
      7  C    Isotropic =   153.4448   Anisotropy =    15.5137
   XX=   150.7634   YX=    -6.1527   ZX=     5.9762
   XY=    -0.8793   YY=   158.8084   ZY=    -4.5580
   XZ=     6.3151   YZ=    -4.8985   ZZ=   150.7627
   Eigenvalues:   144.5535   151.9937   163.7873
      8  H    Isotropic =    28.8932   Anisotropy =     5.4927
   XX=    29.0933   YX=    -2.0905   ZX=    -1.6344
   XY=    -0.0596   YY=    27.1431   ZY=     1.7211
   XZ=    -2.2110   YZ=     1.6896   ZZ=    30.4431
   Eigenvalues:    26.3865    27.7380    32.5550
      9  C    Isotropic =   155.5426   Anisotropy =    18.4643
   XX=   155.4241   YX=    -1.5044   ZX=     0.4776
   XY=     0.7029   YY=   161.1548   ZY=    13.3544
   XZ=     2.1842   YZ=     8.4618   ZZ=   150.0490
   Eigenvalues:   143.2137   155.5620   167.8522
     10  H    Isotropic =    27.9859   Anisotropy =     8.1001
   XX=    31.2046   YX=    -0.8599   ZX=    -3.0518
   XY=    -1.9661   YY=    25.7043   ZY=    -4.7850
   XZ=    -4.0081   YZ=    -3.9003   ZZ=    27.0487
   Eigenvalues:    20.8511    29.7206    33.3859
     11  C    Isotropic =   116.7975   Anisotropy =    33.6985
   XX=   105.1462   YX=    -3.1415   ZX=    -1.8725
   XY=    -5.0970   YY=   125.1367   ZY=   -12.5855
   XZ=    -2.0081   YZ=   -20.1036   ZZ=   120.1097
   Eigenvalues:   101.3836   109.7458   139.2632
     12  H    Isotropic =    27.6665   Anisotropy =     4.7512
   XX=    26.2326   YX=     1.0637   ZX=     0.9229
   XY=     0.1935   YY=    30.7048   ZY=     0.6708
   XZ=    -0.7720   YZ=    -1.6009   ZZ=    26.0621
   Eigenvalues:    25.9313    26.2342    30.8340
     13  C    Isotropic =    88.2651   Anisotropy =   115.6076
   XX=    48.0939   YX=     4.4415   ZX=     0.0680
   XY=     0.6525   YY=   153.3981   ZY=    34.8394
   XZ=    -0.4254   YZ=    34.8104   ZZ=    63.3034
   Eigenvalues:    47.7760    51.6825   165.3369
     14  C    Isotropic =    49.5837   Anisotropy =   190.3260
   XX=   -31.4646   YX=    10.4065   ZX=    -4.2500
   XY=     9.6747   YY=   159.1328   ZY=    52.2051
   XZ=    -3.5494   YZ=    50.4850   ZZ=    21.0831
   Eigenvalues:   -33.0609     5.3443   176.4677
     15  C    Isotropic =    43.8924   Anisotropy =   124.3576
   XX=    32.8466   YX=     8.7557   ZX=   -23.9427
   XY=     6.0168   YY=   115.3908   ZY=    38.4704
   XZ=   -14.4309   YZ=    42.2528   ZZ=   -16.5601
   Eigenvalues:   -34.1809    39.0607   126.7975
     16  C    Isotropic =    40.4399   Anisotropy =   132.0594
   XX=     9.1438   YX=    -7.7923   ZX=    25.8588
   XY=   -11.2493   YY=   112.8798   ZY=    44.1059
   XZ=    25.4315   YZ=    45.6672   ZZ=    -0.7039
   Eigenvalues:   -33.7426    26.5828   128.4795
     17  C    Isotropic =    88.6077   Anisotropy =   106.9790
   XX=    77.7543   YX=     8.8458   ZX=   -27.7175
   XY=     3.2972   YY=   146.1248   ZY=    43.4851
   XZ=   -27.4472   YZ=    36.7974   ZZ=    41.9438
   Eigenvalues:    15.5862    90.3098   159.9270
     18  C    Isotropic =    93.7948   Anisotropy =    94.6811
   XX=    75.6359   YX=   -11.0975   ZX=    32.8552
   XY=   -15.3691   YY=   147.5348   ZY=    27.5731
   XZ=    31.5618   YZ=    32.7550   ZZ=    58.2138
   Eigenvalues:    25.1389    99.3299   156.9155
     19  H    Isotropic =    24.8455   Anisotropy =     7.7665
   XX=    29.3430   YX=     1.0800   ZX=    -1.6718
   XY=     1.3484   YY=    21.3198   ZY=    -1.4612
   XZ=    -1.4794   YZ=    -0.9966   ZZ=    23.8737
   Eigenvalues:    20.7862    23.7271    30.0231
     20  H    Isotropic =    25.1924   Anisotropy =     7.1574
   XX=    28.4780   YX=    -0.3611   ZX=     2.4039
   XY=    -0.1738   YY=    21.1976   ZY=    -0.7721
   XZ=     2.3618   YZ=    -1.2721   ZZ=    25.9017
   Eigenvalues:    20.9773    24.6359    29.9641
     21  O    Isotropic =   211.5685   Anisotropy =    70.6503
   XX=   173.9077   YX=     9.0486   ZX=   -30.6995
   XY=    10.5608   YY=   251.9490   ZY=    20.0498
   XZ=   -25.5961   YZ=    16.5326   ZZ=   208.8488
   Eigenvalues:   155.0436   220.9932   258.6687
     22  H    Isotropic =    21.0053   Anisotropy =    29.4448
   XX=    39.0545   YX=    -6.5437   ZX=     3.4253
   XY=    -5.9743   YY=     9.3960   ZY=    -2.4371
   XZ=     1.4165   YZ=    -2.4243   ZZ=    14.5655
   Eigenvalues:     7.5912    14.7896    40.6352
     23  O    Isotropic =   226.7519   Anisotropy =    52.3366
   XX=   193.1826   YX=    -3.3483   ZX=    16.2484
   XY=   -14.9486   YY=   248.2551   ZY=   -20.8411
   XZ=    31.4359   YZ=     0.6305   ZZ=   238.8180
   Eigenvalues:   182.6858   235.9270   261.6430
     24  H    Isotropic =    26.5292   Anisotropy =    15.2282
   XX=    29.9645   YX=     0.9538   ZX=    -4.6326
   XY=     1.7061   YY=    18.5634   ZY=    -3.6064
   XZ=    -6.2470   YZ=    -3.5585   ZZ=    31.0598
   Eigenvalues:    17.6080    25.2984    36.6814
     25  O    Isotropic =   286.8761   Anisotropy =    53.7297
   XX=   315.6969   YX=    -1.3942   ZX=   -20.5111
   XY=   -21.8237   YY=   277.9869   ZY=   -11.6845
   XZ=   -11.0457   YZ=     4.6707   ZZ=   266.9444
   Eigenvalues:   259.6283   278.3040   322.6959
     26  H    Isotropic =    26.8922   Anisotropy =    18.0406
   XX=    32.5647   YX=    -8.6280   ZX=    -5.4490
   XY=    -7.4634   YY=    19.6532   ZY=    -0.3622
   XZ=    -6.3901   YZ=    -1.2248   ZZ=    28.4587
   Eigenvalues:    14.9261    26.8312    38.9192
     27  C    Isotropic =   170.9326   Anisotropy =    39.7614
   XX=   161.1343   YX=    -2.4139   ZX=     3.0949
   XY=    -2.8690   YY=   179.0371   ZY=   -23.3527
   XZ=     0.8718   YZ=   -18.7808   ZZ=   172.6264
   Eigenvalues:   154.5151   160.8425   197.4402
     28  H    Isotropic =    30.2603   Anisotropy =    10.4902
   XX=    32.9080   YX=    -3.4873   ZX=     2.2435
   XY=    -4.8079   YY=    30.1347   ZY=    -2.3200
   XZ=     3.2331   YZ=    -2.3769   ZZ=    27.7381
   Eigenvalues:    26.2853    27.2418    37.2537
     29  H    Isotropic =    30.6326   Anisotropy =     8.8440
   XX=    28.6896   YX=     1.8382   ZX=     0.6569
   XY=     1.2140   YY=    36.1564   ZY=    -0.1467
   XZ=     0.3841   YZ=    -1.7399   ZZ=    27.0518
   Eigenvalues:    26.6984    28.6708    36.5286
     30  H    Isotropic =    29.7260   Anisotropy =     7.5550
   XX=    27.0531   YX=    -1.9285   ZX=    -2.4373
   XY=    -1.8700   YY=    28.6897   ZY=    -3.0852
   XZ=    -2.3911   YZ=    -1.6835   ZZ=    33.4353
   Eigenvalues:    24.5462    29.8692    34.7627
     31  O    Isotropic =   258.0048   Anisotropy =    96.9579
   XX=   215.3050   YX=    19.5202   ZX=    -3.0455
   XY=     4.3112   YY=   284.1917   ZY=    46.4643
   XZ=   -22.7360   YZ=    39.5693   ZZ=   274.5177
   Eigenvalues:   205.2934   246.0776   322.6434
     32  H    Isotropic =    30.2446   Anisotropy =    18.1120
   XX=    24.1622   YX=     0.7958   ZX=    -2.3203
   XY=     0.4665   YY=    38.5784   ZY=     6.8883
   XZ=    -1.1762   YZ=     7.7456   ZZ=    27.9933
   Eigenvalues:    22.3628    26.0518    42.3193
     33  H    Isotropic =    29.5677   Anisotropy =     9.2040
   XX=    29.9832   YX=     2.4200   ZX=     1.9893
   XY=     2.4934   YY=    31.3524   ZY=     4.1031
   XZ=     2.7992   YZ=     3.6741   ZZ=    27.3676
   Eigenvalues:    24.8413    28.1581    35.7037
     34  C    Isotropic =    41.4984   Anisotropy =   181.8220
   XX=    48.1446   YX=    89.0205   ZX=    53.5550
   XY=    90.5731   YY=    -2.4026   ZY=    29.3103
   XZ=    55.2744   YZ=    33.7897   ZZ=    78.7531
   Eigenvalues:   -70.8755    32.6575   162.7130
     35  C    Isotropic =    83.0349   Anisotropy =   121.9666
   XX=    89.6048   YX=    75.3682   ZX=    13.9889
   XY=    76.0203   YY=    38.8874   ZY=    22.9034
   XZ=    17.3102   YZ=    34.2634   ZZ=   120.6126
   Eigenvalues:   -17.0769   101.8357   164.3460
     36  H    Isotropic =    26.1672   Anisotropy =     5.8408
   XX=    25.9367   YX=     3.3617   ZX=    -2.6551
   XY=     1.4655   YY=    26.4190   ZY=    -1.0637
   XZ=    -1.4103   YZ=    -1.6545   ZZ=    26.1458
   Eigenvalues:    23.5193    24.9212    30.0610
     37  H    Isotropic =    25.7870   Anisotropy =     6.4140
   XX=    24.0964   YX=    -0.1562   ZX=    -0.1385
   XY=     3.7664   YY=    27.0339   ZY=    -3.3891
   XZ=    -2.9796   YZ=    -1.5000   ZZ=    26.2307
   Eigenvalues:    23.1427    24.1554    30.0630
     38  C    Isotropic =   165.9564   Anisotropy =    43.6797
   XX=   169.0196   YX=   -24.4094   ZX=   -11.8778
   XY=   -19.4724   YY=   172.8827   ZY=     1.8259
   XZ=   -13.3495   YZ=    -0.9129   ZZ=   155.9670
   Eigenvalues:   142.2689   160.5242   195.0763
     39  H    Isotropic =    30.7147   Anisotropy =     7.6103
   XX=    33.3139   YX=     1.5711   ZX=    -0.9338
   XY=     2.7682   YY=    33.6646   ZY=     1.9371
   XZ=     0.2158   YZ=     1.7498   ZZ=    25.1654
   Eigenvalues:    24.7058    31.6499    35.7882
     40  H    Isotropic =    30.2077   Anisotropy =     8.3584
   XX=    28.0513   YX=    -3.2382   ZX=     0.3178
   XY=    -0.8580   YY=    34.7977   ZY=    -2.7653
   XZ=    -0.5297   YZ=    -1.0425   ZZ=    27.7741
   Eigenvalues:    26.8192    28.0239    35.7800
     41  H    Isotropic =    30.0000   Anisotropy =     8.6082
   XX=    26.9887   YX=    -0.9079   ZX=    -0.9429
   XY=    -0.3865   YY=    30.7735   ZY=     4.6162
   XZ=     0.2823   YZ=     3.6186   ZZ=    32.2378
   Eigenvalues:    26.7879    27.4732    35.7388
     42  C    Isotropic =   164.4532   Anisotropy =    28.9087
   XX=   183.2869   YX=    -6.5488   ZX=     0.5356
   XY=    10.0372   YY=   153.0070   ZY=    -0.6266
   XZ=     5.6489   YZ=    -2.4368   ZZ=   157.0657
   Eigenvalues:   152.2619   157.3720   183.7257
     43  H    Isotropic =    29.2665   Anisotropy =     7.2765
   XX=    30.7543   YX=    -0.6884   ZX=    -2.5955
   XY=    -2.2243   YY=    26.1706   ZY=     2.9693
   XZ=    -1.6108   YZ=     2.7202   ZZ=    30.8746
   Eigenvalues:    24.7965    28.8854    34.1175
     44  H    Isotropic =    29.2263   Anisotropy =     7.0955
   XX=    29.9615   YX=    -1.3498   ZX=     2.1348
   XY=    -1.5734   YY=    30.8204   ZY=    -4.0157
   XZ=     0.4911   YZ=    -3.3288   ZZ=    26.8971
   Eigenvalues:    24.6665    29.0558    33.9567
     45  C    Isotropic =   177.8012   Anisotropy =    28.0510
   XX=   180.8859   YX=     6.8337   ZX=     3.6987
   XY=    15.1579   YY=   184.4623   ZY=     7.4431
   XZ=     6.4506   YZ=     6.8717   ZZ=   168.0553
   Eigenvalues:   165.2828   171.6188   196.5018
     46  H    Isotropic =    30.3496   Anisotropy =    11.9109
   XX=    37.1927   YX=     1.5375   ZX=     1.7592
   XY=     3.8007   YY=    27.4319   ZY=     0.8933
   XZ=     2.4309   YZ=     0.6398   ZZ=    26.4243
   Eigenvalues:    25.9486    26.8100    38.2902
     47  H    Isotropic =    30.5889   Anisotropy =     7.5959
   XX=    28.7413   YX=     1.5736   ZX=     1.0880
   XY=     2.7172   YY=    33.6676   ZY=    -4.0213
   XZ=     1.4001   YZ=    -2.4113   ZZ=    29.3577
   Eigenvalues:    25.9436    30.1702    35.6528
     48  H    Isotropic =    30.6079   Anisotropy =     7.3542
   XX=    29.1721   YX=     1.3720   ZX=    -0.6653
   XY=     2.0575   YY=    29.0283   ZY=     4.2414
   XZ=    -0.5702   YZ=     2.7251   ZZ=    33.6234
   Eigenvalues:    26.0945    30.2185    35.5108
 End of Minotr Frequency-dependent properties file   721 does not exist.
 End of Minotr Frequency-dependent properties file   722 does not exist.

 **********************************************************************

            Population analysis using the SCF density.

 **********************************************************************

 Orbital symmetries:
       Occupied  (A) (A) (A) (A) (A) (A) (A) (A) (A) (A) (A) (A)
                 (A) (A) (A) (A) (A) (A) (A) (A) (A) (A) (A) (A)
                 (A) (A) (A) (A) (A) (A) (A) (A) (A) (A) (A) (A)
                 (A) (A) (A) (A) (A) (A) (A) (A) (A) (A) (A) (A)
                 (A) (A) (A) (A) (A) (A) (A) (A) (A) (A) (A) (A)
                 (A) (A) (A) (A) (A) (A) (A) (A) (A) (A) (A) (A)
                 (A) (A) (A) (A) (A) (A) (A) (A) (A) (A) (A)
       Virtual   (A) (A) (A) (A) (A) (A) (A) (A) (A) (A) (A) (A)
                 (A) (A) (A) (A) (A) (A) (A) (A) (A) (A) (A) (A)
                 (A) (A) (A) (A) (A) (A) (A) (A) (A) (A) (A) (A)
                 (A) (A) (A) (A) (A) (A) (A) (A) (A) (A) (A) (A)
                 (A) (A) (A) (A) (A) (A) (A) (A) (A) (A) (A) (A)
                 (A) (A) (A) (A) (A) (A) (A) (A) (A) (A) (A) (A)
                 (A) (A) (A) (A) (A) (A) (A) (A) (A) (A) (A) (A)
                 (A) (A) (A) (A) (A) (A) (A) (A) (A) (A) (A) (A)
                 (A) (A) (A) (A) (A) (A) (A) (A) (A) (A) (A) (A)
                 (A) (A) (A) (A) (A) (A) (A) (A) (A) (A) (A) (A)
                 (A) (A) (A) (A) (A) (A) (A) (A) (A) (A) (A) (A)
                 (A) (A) (A) (A) (A) (A) (A) (A) (A) (A) (A) (A)
                 (A) (A) (A) (A) (A) (A) (A) (A) (A) (A) (A) (A)
                 (A) (A) (A) (A) (A) (A) (A) (A) (A) (A) (A) (A)
                 (A) (A) (A) (A) (A) (A) (A) (A) (A) (A) (A) (A)
                 (A) (A) (A) (A) (A) (A) (A) (A) (A) (A) (A) (A)
                 (A) (A) (A) (A) (A) (A) (A) (A) (A) (A) (A) (A)
                 (A) (A) (A) (A) (A) (A) (A) (A) (A) (A) (A) (A)
                 (A) (A) (A) (A) (A) (A) (A) (A) (A) (A) (A) (A)
                 (A) (A) (A) (A) (A) (A) (A) (A) (A) (A) (A) (A)
                 (A) (A) (A) (A) (A) (A) (A) (A) (A) (A) (A) (A)
                 (A) (A) (A) (A) (A) (A) (A) (A) (A) (A) (A) (A)
                 (A) (A) (A) (A) (A) (A) (A) (A) (A) (A) (A) (A)
                 (A) (A) (A) (A) (A) (A) (A) (A) (A) (A) (A) (A)
                 (A) (A) (A) (A) (A) (A) (A) (A) (A) (A) (A) (A)
                 (A) (A) (A) (A) (A) (A) (A) (A) (A) (A) (A) (A)
                 (A) (A) (A) (A) (A) (A) (A) (A) (A) (A) (A) (A)
                 (A) (A) (A) (A) (A) (A) (A) (A) (A) (A) (A) (A)
                 (A) (A) (A) (A) (A) (A) (A) (A) (A) (A) (A) (A)
                 (A) (A) (A) (A) (A) (A) (A) (A) (A) (A) (A) (A)
                 (A) (A) (A) (A) (A) (A) (A) (A) (A) (A) (A) (A)
                 (A) (A) (A) (A) (A) (A) (A) (A) (A) (A) (A) (A)
                 (A) (A) (A) (A) (A) (A) (A) (A) (A) (A) (A) (A)
                 (A) (A) (A) (A) (A) (A) (A) (A) (A) (A) (A) (A)
                 (A) (A) (A) (A) (A) (A) (A) (A) (A) (A) (A) (A)
                 (A) (A) (A) (A) (A) (A) (A) (A) (A) (A) (A) (A)
                 (A) (A) (A) (A) (A) (A) (A) (A) (A) (A) (A) (A)
                 (A) (A) (A) (A) (A) (A) (A) (A) (A) (A) (A) (A)
                 (A) (A) (A) (A) (A) (A) (A)
 The electronic state is 1-A.
 Alpha  occ. eigenvalues --  -19.28372 -19.26753 -19.26355 -19.25548 -10.32191
 Alpha  occ. eigenvalues --  -10.32168 -10.31490 -10.31309 -10.27432 -10.26419
 Alpha  occ. eigenvalues --  -10.26369 -10.26238 -10.26145 -10.24965 -10.24862
 Alpha  occ. eigenvalues --  -10.24805 -10.24563 -10.24489 -10.23892 -10.23675
 Alpha  occ. eigenvalues --  -10.23655 -10.23180  -1.09841  -1.09210  -1.07589
 Alpha  occ. eigenvalues --   -1.05288  -0.88683  -0.86855  -0.82246  -0.82112
 Alpha  occ. eigenvalues --   -0.78546  -0.77060  -0.75784  -0.73981  -0.71330
 Alpha  occ. eigenvalues --   -0.70089  -0.67154  -0.64870  -0.64307  -0.63205
 Alpha  occ. eigenvalues --   -0.61256  -0.58899  -0.56236  -0.54822  -0.53512
 Alpha  occ. eigenvalues --   -0.52286  -0.51248  -0.50808  -0.50026  -0.49133
 Alpha  occ. eigenvalues --   -0.48064  -0.46906  -0.45732  -0.45164  -0.44516
 Alpha  occ. eigenvalues --   -0.44055  -0.43612  -0.42973  -0.42441  -0.41780
 Alpha  occ. eigenvalues --   -0.41319  -0.40772  -0.40556  -0.40269  -0.39703
 Alpha  occ. eigenvalues --   -0.39368  -0.38542  -0.37997  -0.37844  -0.36861
 Alpha  occ. eigenvalues --   -0.36380  -0.35654  -0.34809  -0.34775  -0.33712
 Alpha  occ. eigenvalues --   -0.33116  -0.32272  -0.31964  -0.31439  -0.29708
 Alpha  occ. eigenvalues --   -0.25856  -0.23851  -0.22733
 Alpha virt. eigenvalues --   -0.00427  -0.00105   0.00176   0.01119   0.01225
 Alpha virt. eigenvalues --    0.01734   0.02056   0.02809   0.03022   0.03158
 Alpha virt. eigenvalues --    0.03987   0.04086   0.04325   0.04950   0.05184
 Alpha virt. eigenvalues --    0.05912   0.06274   0.06938   0.07054   0.07389
 Alpha virt. eigenvalues --    0.07620   0.07937   0.08631   0.09094   0.09420
 Alpha virt. eigenvalues --    0.09881   0.10134   0.10189   0.10287   0.10701
 Alpha virt. eigenvalues --    0.10800   0.11929   0.12335   0.12655   0.12692
 Alpha virt. eigenvalues --    0.13076   0.13781   0.13938   0.14284   0.14533
 Alpha virt. eigenvalues --    0.14607   0.14939   0.15253   0.15809   0.15934
 Alpha virt. eigenvalues --    0.16374   0.16752   0.17062   0.17617   0.18003
 Alpha virt. eigenvalues --    0.18294   0.18386   0.18655   0.19035   0.19140
 Alpha virt. eigenvalues --    0.19366   0.19706   0.20294   0.20472   0.20736
 Alpha virt. eigenvalues --    0.21095   0.21506   0.21833   0.21979   0.22467
 Alpha virt. eigenvalues --    0.22919   0.23155   0.23187   0.23331   0.23458
 Alpha virt. eigenvalues --    0.24062   0.24267   0.24474   0.24652   0.24792
 Alpha virt. eigenvalues --    0.25254   0.25680   0.25822   0.26150   0.26555
 Alpha virt. eigenvalues --    0.26838   0.27060   0.27750   0.27781   0.28170
 Alpha virt. eigenvalues --    0.28493   0.28824   0.28934   0.29373   0.29699
 Alpha virt. eigenvalues --    0.30166   0.30409   0.30570   0.30732   0.31534
 Alpha virt. eigenvalues --    0.31715   0.32065   0.32679   0.33135   0.33251
 Alpha virt. eigenvalues --    0.33725   0.34288   0.34392   0.34751   0.35442
 Alpha virt. eigenvalues --    0.35855   0.36147   0.36207   0.36989   0.37455
 Alpha virt. eigenvalues --    0.37744   0.38291   0.38613   0.38983   0.40057
 Alpha virt. eigenvalues --    0.40395   0.40903   0.41664   0.41920   0.42249
 Alpha virt. eigenvalues --    0.42861   0.43293   0.43632   0.44760   0.45179
 Alpha virt. eigenvalues --    0.45452   0.46829   0.46966   0.47603   0.48117
 Alpha virt. eigenvalues --    0.49484   0.49774   0.51264   0.52219   0.53186
 Alpha virt. eigenvalues --    0.54407   0.55785   0.60369   0.63696   0.65669
 Alpha virt. eigenvalues --    0.67416   0.68634   0.69428   0.69609   0.71285
 Alpha virt. eigenvalues --    0.71675   0.72214   0.72600   0.73179   0.73784
 Alpha virt. eigenvalues --    0.74855   0.75144   0.75759   0.76065   0.76435
 Alpha virt. eigenvalues --    0.77041   0.77656   0.78380   0.78772   0.79497
 Alpha virt. eigenvalues --    0.80503   0.81191   0.81895   0.82446   0.83165
 Alpha virt. eigenvalues --    0.84241   0.85043   0.86164   0.86910   0.88139
 Alpha virt. eigenvalues --    0.88238   0.89218   0.89381   0.90414   0.91136
 Alpha virt. eigenvalues --    0.91529   0.93013   0.93154   0.93443   0.94745
 Alpha virt. eigenvalues --    0.95177   0.96317   0.97222   0.98089   0.99158
 Alpha virt. eigenvalues --    0.99391   1.00866   1.01718   1.02328   1.02914
 Alpha virt. eigenvalues --    1.04917   1.05407   1.06613   1.06823   1.07778
 Alpha virt. eigenvalues --    1.09375   1.09996   1.10497   1.12181   1.12290
 Alpha virt. eigenvalues --    1.12755   1.13369   1.14456   1.14494   1.14914
 Alpha virt. eigenvalues --    1.15800   1.16400   1.16878   1.17273   1.18335
 Alpha virt. eigenvalues --    1.19110   1.19497   1.20248   1.20407   1.21964
 Alpha virt. eigenvalues --    1.23744   1.24138   1.24987   1.25831   1.26481
 Alpha virt. eigenvalues --    1.28498   1.28728   1.29781   1.30493   1.31125
 Alpha virt. eigenvalues --    1.31262   1.32196   1.32946   1.33900   1.35336
 Alpha virt. eigenvalues --    1.35616   1.36141   1.36719   1.37672   1.38244
 Alpha virt. eigenvalues --    1.39610   1.40294   1.41377   1.43062   1.43942
 Alpha virt. eigenvalues --    1.44336   1.45528   1.45824   1.47491   1.48085
 Alpha virt. eigenvalues --    1.49588   1.50426   1.51647   1.53274   1.54296
 Alpha virt. eigenvalues --    1.54697   1.56612   1.57784   1.59546   1.60729
 Alpha virt. eigenvalues --    1.61221   1.63235   1.63848   1.64866   1.66675
 Alpha virt. eigenvalues --    1.67779   1.68635   1.71563   1.72487   1.74351
 Alpha virt. eigenvalues --    1.76135   1.76273   1.77713   1.78662   1.80076
 Alpha virt. eigenvalues --    1.81295   1.81836   1.82527   1.84249   1.84854
 Alpha virt. eigenvalues --    1.85802   1.86195   1.86939   1.87020   1.88565
 Alpha virt. eigenvalues --    1.89672   1.89771   1.90313   1.91491   1.92089
 Alpha virt. eigenvalues --    1.92568   1.93132   1.94162   1.94837   1.95425
 Alpha virt. eigenvalues --    1.96238   1.96941   1.97516   1.98403   2.00069
 Alpha virt. eigenvalues --    2.01120   2.01788   2.03208   2.03803   2.05995
 Alpha virt. eigenvalues --    2.06112   2.06712   2.07036   2.07836   2.08707
 Alpha virt. eigenvalues --    2.09658   2.10800   2.11610   2.12736   2.13383
 Alpha virt. eigenvalues --    2.13881   2.14688   2.15047   2.15687   2.15923
 Alpha virt. eigenvalues --    2.17053   2.18601   2.18943   2.19695   2.20140
 Alpha virt. eigenvalues --    2.20947   2.22190   2.23114   2.24966   2.25675
 Alpha virt. eigenvalues --    2.26123   2.27473   2.29115   2.30002   2.30357
 Alpha virt. eigenvalues --    2.30901   2.32075   2.33380   2.33923   2.34883
 Alpha virt. eigenvalues --    2.36034   2.37268   2.38406   2.39355   2.40179
 Alpha virt. eigenvalues --    2.40917   2.41345   2.43555   2.45545   2.46779
 Alpha virt. eigenvalues --    2.48026   2.48475   2.49272   2.50534   2.52370
 Alpha virt. eigenvalues --    2.52975   2.53290   2.54738   2.55571   2.56017
 Alpha virt. eigenvalues --    2.56270   2.57128   2.58736   2.59161   2.59292
 Alpha virt. eigenvalues --    2.59836   2.60413   2.62557   2.63701   2.64075
 Alpha virt. eigenvalues --    2.65224   2.66257   2.67694   2.68548   2.69162
 Alpha virt. eigenvalues --    2.70207   2.70297   2.70941   2.72305   2.72686
 Alpha virt. eigenvalues --    2.73781   2.75156   2.75765   2.77265   2.78159
 Alpha virt. eigenvalues --    2.78635   2.79355   2.80082   2.81064   2.81858
 Alpha virt. eigenvalues --    2.83479   2.84613   2.85093   2.85731   2.87102
 Alpha virt. eigenvalues --    2.87980   2.88823   2.90077   2.91546   2.91825
 Alpha virt. eigenvalues --    2.93214   2.93426   2.93694   2.95455   2.95853
 Alpha virt. eigenvalues --    2.97299   2.98856   3.00952   3.03592   3.05121
 Alpha virt. eigenvalues --    3.07467   3.08399   3.09828   3.10483   3.14662
 Alpha virt. eigenvalues --    3.18641   3.21213   3.25320   3.28896   3.29355
 Alpha virt. eigenvalues --    3.30657   3.31262   3.36148   3.37709   3.39331
 Alpha virt. eigenvalues --    3.41551   3.42745   3.45502   3.47727   3.49346
 Alpha virt. eigenvalues --    3.51023   3.51329   3.51433   3.51781   3.51924
 Alpha virt. eigenvalues --    3.54042   3.55580   3.56352   3.57943   3.58617
 Alpha virt. eigenvalues --    3.59072   3.59925   3.61465   3.67707   3.74782
 Alpha virt. eigenvalues --    3.93234   4.36965   4.37499   4.42072   4.46149
 Alpha virt. eigenvalues --    4.48674   4.50850   4.53039   4.54827   4.57419
 Alpha virt. eigenvalues --    4.61080   4.63575   4.64603   4.67660   4.71170
 Alpha virt. eigenvalues --    4.74268   4.75908   4.78461   4.84280   4.93222
 Alpha virt. eigenvalues --    4.96481   5.00542   5.09315
          Condensed to atoms (all electrons):
              1          2          3          4          5          6
     1  C   12.590924  -1.802451  -0.144329   0.075068  -0.893432   0.070761
     2  C   -1.802451   7.730558   0.414452   0.329496   0.272083  -0.088791
     3  H   -0.144329   0.414452   0.532135  -0.029968  -0.036687  -0.006045
     4  H    0.075068   0.329496  -0.029968   0.533340  -0.065268   0.004891
     5  C   -0.893432   0.272083  -0.036687  -0.065268   7.053766   0.377856
     6  H    0.070761  -0.088791  -0.006045   0.004891   0.377856   0.539998
     7  C    2.705219  -1.265125   0.050451   0.078587  -1.822630   0.051856
     8  H   -0.042270   0.042441  -0.000130  -0.000122  -0.008365  -0.009267
     9  C   -2.024794   1.177056  -0.032975  -0.030447   0.653132  -0.026781
    10  H    0.090268  -0.024835  -0.000054   0.000131  -0.071335   0.002332
    11  C   -2.180409  -0.380084   0.072710  -0.051105   0.541114  -0.053110
    12  H    0.073091  -0.010354  -0.000095  -0.000108  -0.016416  -0.000025
    13  C   -0.053673  -0.065873  -0.001037  -0.003735   0.100208  -0.017001
    14  C   -0.044708  -0.002808  -0.000002  -0.000107   0.013009   0.000037
    15  C    0.057842  -0.040749  -0.001081   0.004167  -0.415891   0.035166
    16  C   -0.551497   0.039671   0.000084  -0.001143   0.245569  -0.012210
    17  C   -0.045445  -0.058512   0.000158  -0.000077  -0.043844  -0.000669
    18  C   -0.064951   0.049022  -0.000183   0.000284  -0.070170   0.005301
    19  H   -0.000105  -0.000025   0.000000   0.000000  -0.000023   0.000000
    20  H   -0.000063  -0.000005   0.000000   0.000000  -0.000023   0.000000
    21  O    0.051581  -0.004923  -0.000009   0.000022   0.000197   0.000017
    22  H   -0.017660   0.002594   0.000002  -0.000020   0.001064  -0.000002
    23  O   -0.015022   0.005622   0.000000  -0.000009   0.001963  -0.000404
    24  H    0.000495   0.000063   0.000000   0.000000   0.000460   0.000000
    25  O    0.352617  -0.009145  -0.000392   0.001618  -0.186143   0.000158
    26  H   -0.021119  -0.045448  -0.000043   0.001127   0.019026  -0.000004
    27  C   -1.028309  -0.294401   0.002727   0.009771   0.170401  -0.010755
    28  H   -0.131087   0.013665   0.002636   0.000057   0.021678   0.000069
    29  H   -0.027503   0.010092   0.000111  -0.000145  -0.001652  -0.000053
    30  H   -0.098863   0.036255   0.000207  -0.000007  -0.025849   0.000005
    31  O    0.015027  -0.144669   0.004127  -0.006778   0.062426  -0.000750
    32  H    0.134510   0.051817  -0.000190   0.000006  -0.011926   0.000007
    33  H    0.043995  -0.026815  -0.001349  -0.005282   0.449429  -0.027125
    34  C   -0.726776   0.393276  -0.004351   0.009983   0.132158  -0.013301
    35  C   -0.258894  -0.010995   0.003160  -0.032771   0.054121  -0.004168
    36  H   -0.000261  -0.000251  -0.000001   0.000066  -0.000470   0.000003
    37  H   -0.010039  -0.014538   0.000124   0.001980  -0.004606  -0.000040
    38  C    0.128227  -0.063291  -0.000641   0.006810  -0.088576   0.007003
    39  H    0.002932  -0.000794   0.000000   0.000001  -0.001709   0.000011
    40  H    0.001171  -0.000711   0.000000   0.000000  -0.002425   0.000002
    41  H   -0.002558   0.001542   0.000000  -0.000001   0.004671  -0.000035
    42  C   -0.008817  -0.000459   0.000000  -0.000004   0.008192  -0.000005
    43  H    0.000003  -0.000001   0.000000   0.000000   0.000019   0.000000
    44  H    0.000000  -0.000001   0.000000   0.000000   0.000001   0.000000
    45  C    0.000256  -0.000019   0.000000   0.000000  -0.000113   0.000000
    46  H    0.000000   0.000000   0.000000   0.000000   0.000000   0.000000
    47  H   -0.000009   0.000000   0.000000   0.000000   0.000000   0.000000
    48  H    0.000005  -0.000001   0.000000   0.000000   0.000004   0.000000
              7          8          9         10         11         12
     1  C    2.705219  -0.042270  -2.024794   0.090268  -2.180409   0.073091
     2  C   -1.265125   0.042441   1.177056  -0.024835  -0.380084  -0.010354
     3  H    0.050451  -0.000130  -0.032975  -0.000054   0.072710  -0.000095
     4  H    0.078587  -0.000122  -0.030447   0.000131  -0.051105  -0.000108
     5  C   -1.822630  -0.008365   0.653132  -0.071335   0.541114  -0.016416
     6  H    0.051856  -0.009267  -0.026781   0.002332  -0.053110  -0.000025
     7  C   15.580715   0.008455  -2.624048   0.165279  -2.024279   0.039400
     8  H    0.008455   0.572624   0.094975  -0.008719   0.046823  -0.000151
     9  C   -2.624048   0.094975  13.697975   0.214083  -1.777464  -0.158901
    10  H    0.165279  -0.008719   0.214083   0.563044  -0.281446  -0.002620
    11  C   -2.024279   0.046823  -1.777464  -0.281446  15.063343   0.326213
    12  H    0.039400  -0.000151  -0.158901  -0.002620   0.326213   0.588691
    13  C    0.102834   0.056518   2.546097  -0.220339  -1.320018  -0.089528
    14  C   -0.131983  -0.009170  -0.613150   0.011232  -0.137388   0.014335
    15  C    1.241928  -0.043796  -1.787515   0.455388  -2.126734  -0.053909
    16  C   -2.166084  -0.025285  -1.017565  -0.193831   1.771568   0.234995
    17  C    0.125166  -0.019009  -1.720800   0.014087  -0.525978   0.034962
    18  C   -0.295505   0.020301  -1.017940   0.092103   0.128936  -0.004372
    19  H   -0.000741   0.000000   0.004402   0.000002  -0.003199   0.000001
    20  H   -0.000913   0.000003   0.001393  -0.000008   0.000510   0.000000
    21  O    0.060429   0.000197   0.129765  -0.000462   0.047515  -0.000926
    22  H   -0.053282   0.000004  -0.011626  -0.000051   0.044464  -0.000188
    23  O   -0.130898   0.003932  -0.019021  -0.001209  -0.010371  -0.001407
    24  H   -0.002899  -0.000039   0.041297   0.000096   0.001002  -0.000002
    25  O    0.349044  -0.001891  -0.276511   0.011143  -0.268051  -0.040747
    26  H   -0.026503   0.000014   0.040842  -0.000294   0.012468  -0.003664
    27  C   -0.536210   0.012700   0.466132  -0.009120   0.088708  -0.044694
    28  H   -0.009986   0.000001   0.002996   0.000022   0.028279  -0.000093
    29  H   -0.004383  -0.000001  -0.003935  -0.000138  -0.000966   0.003889
    30  H    0.017743  -0.000063   0.026762  -0.000996  -0.034485   0.000064
    31  O   -0.041227   0.000184   0.001466  -0.000869   0.174563  -0.019172
    32  H   -0.000967   0.000000   0.037347  -0.000004  -0.143821   0.004390
    33  H   -0.140085  -0.000826   0.026046  -0.000036  -0.014923   0.000012
    34  C   -2.905184   0.132300  -0.286197   0.004148  -0.397848  -0.028964
    35  C   -1.325799   0.005705  -0.235180   0.011560  -0.639504  -0.004147
    36  H    0.030508  -0.000145  -0.019032   0.000003  -0.006822   0.000000
    37  H   -0.014940  -0.000041  -0.003786  -0.000018  -0.007771  -0.000004
    38  C    0.941206   0.005201   0.193265   0.002984   0.271379  -0.000156
    39  H    0.141320  -0.001664   0.055205  -0.000087   0.015701   0.000002
    40  H    0.010415   0.000358   0.004634   0.000003  -0.000617   0.000000
    41  H   -0.081936   0.003091  -0.011777   0.000009  -0.003859   0.000000
    42  C   -0.004220  -0.001175  -0.094219  -0.000302  -0.036944   0.000736
    43  H    0.000248   0.000000   0.001461   0.000000   0.000126   0.000000
    44  H   -0.000099   0.000000  -0.000404   0.000000  -0.000188   0.000000
    45  C   -0.001834   0.000005   0.000275   0.000011  -0.001113  -0.000009
    46  H    0.000002   0.000000   0.000037   0.000000   0.000009   0.000000
    47  H   -0.000048   0.000000  -0.000341   0.000000  -0.000177   0.000000
    48  H    0.000026   0.000000   0.000365   0.000000   0.000191   0.000000
             13         14         15         16         17         18
     1  C   -0.053673  -0.044708   0.057842  -0.551497  -0.045445  -0.064951
     2  C   -0.065873  -0.002808  -0.040749   0.039671  -0.058512   0.049022
     3  H   -0.001037  -0.000002  -0.001081   0.000084   0.000158  -0.000183
     4  H   -0.003735  -0.000107   0.004167  -0.001143  -0.000077   0.000284
     5  C    0.100208   0.013009  -0.415891   0.245569  -0.043844  -0.070170
     6  H   -0.017001   0.000037   0.035166  -0.012210  -0.000669   0.005301
     7  C    0.102834  -0.131983   1.241928  -2.166084   0.125166  -0.295505
     8  H    0.056518  -0.009170  -0.043796  -0.025285  -0.019009   0.020301
     9  C    2.546097  -0.613150  -1.787515  -1.017565  -1.720800  -1.017940
    10  H   -0.220339   0.011232   0.455388  -0.193831   0.014087   0.092103
    11  C   -1.320018  -0.137388  -2.126734   1.771568  -0.525978   0.128936
    12  H   -0.089528   0.014335  -0.053909   0.234995   0.034962  -0.004372
    13  C   22.947904  -2.121226  -0.928604  -6.389024  -5.788609  -2.311535
    14  C   -2.121226  10.154375  -0.986309   0.262672   1.323868   0.384778
    15  C   -0.928604  -0.986309  18.590288  -9.671976   2.822245  -2.210313
    16  C   -6.389024   0.262672  -9.671976  25.407064  -2.263637   1.498220
    17  C   -5.788609   1.323868   2.822245  -2.263637  15.384298  -3.739184
    18  C   -2.311535   0.384778  -2.210313   1.498220  -3.739184  13.610832
    19  H    0.056942   0.055455  -0.032983   0.037479   0.172862   0.056747
    20  H    0.043783   0.096737   0.057581  -0.059822   0.066223   0.139502
    21  O    0.106793   0.037109  -0.016288  -0.097896  -0.278400   0.063936
    22  H   -0.178116  -0.001573  -0.016544   0.167830   0.071839  -0.008583
    23  O   -0.212106   0.034537   0.282496  -0.034557   0.021979   0.060193
    24  H    0.173983  -0.004763  -0.019765   0.013723  -0.016204  -0.184813
    25  O    0.004190   0.007352   0.023581   0.050278   0.062295  -0.018196
    26  H    0.013679  -0.000887  -0.003254  -0.018596  -0.003766  -0.000429
    27  C    0.131312   0.001024   0.058319   0.016254  -0.013747   0.025327
    28  H   -0.000648  -0.000027  -0.001533  -0.000475   0.000024  -0.000183
    29  H    0.006723   0.000210  -0.011917   0.009091   0.000295  -0.001067
    30  H    0.000259   0.000230   0.016123   0.001026  -0.000600   0.004251
    31  O    0.032545  -0.000896   0.010376  -0.019459  -0.004248   0.002121
    32  H    0.000571   0.000096  -0.000135   0.003215  -0.000138   0.000079
    33  H    0.014676   0.000345  -0.008285   0.006378   0.000742  -0.001368
    34  C   -0.044510  -0.025322  -0.277287   0.777535   0.164651  -0.115436
    35  C   -0.041727   0.033179   0.078052  -0.025696   0.123447  -0.021541
    36  H    0.006766   0.000489   0.002178  -0.000330   0.001705  -0.000156
    37  H   -0.020926   0.000426  -0.002952   0.028435   0.002614   0.000313
    38  C    0.039808  -0.016330   0.121981  -0.344881  -0.117715   0.068484
    39  H   -0.014689   0.000036   0.015061  -0.041460  -0.008014   0.004614
    40  H   -0.002398  -0.000452  -0.004024   0.017073  -0.013214   0.005550
    41  H    0.017771   0.000565   0.010816  -0.002535   0.004779  -0.004090
    42  C   -1.519115  -2.044937   0.663442  -0.834086   0.914340   0.030008
    43  H   -0.001837  -0.266125   0.042202  -0.013047  -0.143476   0.204485
    44  H   -0.003508  -0.295983  -0.009220   0.005999   0.252819  -0.148277
    45  C    0.023633   0.021344   0.012773   0.023084   0.015087  -0.013718
    46  H    0.000470   0.010480   0.003325  -0.001229   0.009516   0.005124
    47  H   -0.007844  -0.051761   0.003224  -0.010255   0.044436  -0.045750
    48  H   -0.001965  -0.028714  -0.002435   0.002250  -0.051067   0.041721
             19         20         21         22         23         24
     1  C   -0.000105  -0.000063   0.051581  -0.017660  -0.015022   0.000495
     2  C   -0.000025  -0.000005  -0.004923   0.002594   0.005622   0.000063
     3  H    0.000000   0.000000  -0.000009   0.000002   0.000000   0.000000
     4  H    0.000000   0.000000   0.000022  -0.000020  -0.000009   0.000000
     5  C   -0.000023  -0.000023   0.000197   0.001064   0.001963   0.000460
     6  H    0.000000   0.000000   0.000017  -0.000002  -0.000404   0.000000
     7  C   -0.000741  -0.000913   0.060429  -0.053282  -0.130898  -0.002899
     8  H    0.000000   0.000003   0.000197   0.000004   0.003932  -0.000039
     9  C    0.004402   0.001393   0.129765  -0.011626  -0.019021   0.041297
    10  H    0.000002  -0.000008  -0.000462  -0.000051  -0.001209   0.000096
    11  C   -0.003199   0.000510   0.047515   0.044464  -0.010371   0.001002
    12  H    0.000001   0.000000  -0.000926  -0.000188  -0.001407  -0.000002
    13  C    0.056942   0.043783   0.106793  -0.178116  -0.212106   0.173983
    14  C    0.055455   0.096737   0.037109  -0.001573   0.034537  -0.004763
    15  C   -0.032983   0.057581  -0.016288  -0.016544   0.282496  -0.019765
    16  C    0.037479  -0.059822  -0.097896   0.167830  -0.034557   0.013723
    17  C    0.172862   0.066223  -0.278400   0.071839   0.021979  -0.016204
    18  C    0.056747   0.139502   0.063936  -0.008583   0.060193  -0.184813
    19  H    0.518766  -0.000143  -0.007594   0.000143   0.000106   0.000000
    20  H   -0.000143   0.523336   0.000125   0.000000  -0.018437   0.008066
    21  O   -0.007594   0.000125   8.392156   0.164245  -0.000723   0.000054
    22  H    0.000143   0.000000   0.164245   0.302038  -0.000168   0.000000
    23  O    0.000106  -0.018437  -0.000723  -0.000168   8.291267   0.206171
    24  H    0.000000   0.008066   0.000054   0.000000   0.206171   0.360220
    25  O    0.000039   0.000001   0.008778   0.018693  -0.001143   0.000000
    26  H    0.000000   0.000000   0.002959   0.000732   0.000006   0.000000
    27  C    0.000020   0.000032   0.000338   0.001300   0.001367   0.000185
    28  H    0.000000   0.000000  -0.000001   0.000000   0.000027   0.000000
    29  H    0.000000   0.000000   0.000002  -0.000001  -0.000115   0.000000
    30  H    0.000000   0.000000   0.000008   0.000001  -0.000198   0.000001
    31  O    0.000000   0.000000  -0.000419  -0.000105   0.000250   0.000000
    32  H    0.000000   0.000000   0.000027   0.000004  -0.000001   0.000000
    33  H    0.000000   0.000000   0.000004  -0.000004  -0.000044   0.000000
    34  C   -0.001341  -0.000046  -0.089056   0.022890   0.061217   0.007030
    35  C   -0.000195  -0.000046  -0.044430   0.018809   0.013194   0.000649
    36  H    0.000000   0.000000   0.000009  -0.000060  -0.000001   0.000000
    37  H    0.000000   0.000000  -0.001043   0.000114   0.000013   0.000000
    38  C    0.001608   0.000068   0.036958  -0.007365  -0.015960  -0.001219
    39  H   -0.000007  -0.000008   0.002377  -0.000075  -0.000507  -0.000015
    40  H    0.000001   0.000000   0.000056  -0.000017  -0.000033   0.000000
    41  H    0.000000   0.000000  -0.000239   0.000003   0.000010   0.000001
    42  C   -0.029551  -0.028765  -0.015450   0.001515   0.000150  -0.000798
    43  H    0.000086   0.002031   0.000032   0.000000   0.000089  -0.000001
    44  H    0.001734   0.000085   0.000063   0.000000   0.000031   0.000000
    45  C    0.004471   0.007214   0.000418  -0.000057  -0.000181   0.000109
    46  H   -0.000027  -0.000028   0.000001   0.000000   0.000000   0.000000
    47  H    0.000005   0.000198   0.000007   0.000000   0.000007   0.000001
    48  H    0.000157   0.000008   0.000005   0.000000   0.000010   0.000000
             25         26         27         28         29         30
     1  C    0.352617  -0.021119  -1.028309  -0.131087  -0.027503  -0.098863
     2  C   -0.009145  -0.045448  -0.294401   0.013665   0.010092   0.036255
     3  H   -0.000392  -0.000043   0.002727   0.002636   0.000111   0.000207
     4  H    0.001618   0.001127   0.009771   0.000057  -0.000145  -0.000007
     5  C   -0.186143   0.019026   0.170401   0.021678  -0.001652  -0.025849
     6  H    0.000158  -0.000004  -0.010755   0.000069  -0.000053   0.000005
     7  C    0.349044  -0.026503  -0.536210  -0.009986  -0.004383   0.017743
     8  H   -0.001891   0.000014   0.012700   0.000001  -0.000001  -0.000063
     9  C   -0.276511   0.040842   0.466132   0.002996  -0.003935   0.026762
    10  H    0.011143  -0.000294  -0.009120   0.000022  -0.000138  -0.000996
    11  C   -0.268051   0.012468   0.088708   0.028279  -0.000966  -0.034485
[...]
    16  C    0.114383  -0.038743   0.095991  -0.000265   0.008398   0.005863
    17  C    0.061751  -0.007787  -0.026024  -0.000032   0.000194  -0.000098
    18  C   -0.018466   0.000303   0.042819   0.000004  -0.001887   0.001609
    19  H    0.000025   0.000000   0.000021   0.000000   0.000000   0.000000
    20  H    0.000002   0.000000   0.000026   0.000000   0.000000   0.000000
    21  O    0.001580   0.004311   0.002287   0.000000   0.000013   0.000000
    22  H    0.022661  -0.000142   0.000581   0.000000   0.000000   0.000001
    23  O   -0.001070   0.000001   0.001647   0.000015  -0.000117   0.000313
    24  H    0.000001   0.000000   0.000199   0.000000   0.000000   0.000001
    25  O    8.704108   0.194035  -0.049136   0.000024   0.001753  -0.000069
    26  H    0.194035   0.312091   0.020778  -0.000031  -0.000025  -0.000044
    27  C   -0.049136   0.020778   6.152189   0.439641   0.401422   0.400619
    28  H    0.000024  -0.000031   0.439641   0.526158  -0.028519  -0.025287
    29  H    0.001753  -0.000025   0.401422  -0.028519   0.541486  -0.025616
    30  H   -0.000069  -0.000044   0.400619  -0.025287  -0.025616   0.518415
    31  O   -0.055293   0.042351  -0.028588  -0.000031  -0.007747   0.006987
    32  H    0.009033  -0.003418  -0.051546  -0.001017   0.004348   0.000167
    33  H    0.001995  -0.000016  -0.008825  -0.000013   0.000003   0.000012
    34  C   -0.168662   0.009193   0.171788   0.001479  -0.000805   0.000873
    35  C    0.087460  -0.006242  -0.016724   0.000670  -0.000297  -0.000518
    36  H    0.001089  -0.000026  -0.000232   0.000000   0.000000   0.000000
    37  H   -0.002422   0.000087  -0.000600   0.000000   0.000000  -0.000001
    38  C   -0.019196   0.000846  -0.008030  -0.000052  -0.000103  -0.000111
    39  H   -0.000212   0.000000  -0.000548   0.000000   0.000000   0.000000
    40  H   -0.000085   0.000000   0.000045   0.000000   0.000000   0.000000
    41  H   -0.000003   0.000000   0.000519   0.000000   0.000000   0.000000
    42  C   -0.002134  -0.000023  -0.000270   0.000001   0.000002  -0.000009
    43  H    0.000000   0.000000   0.000000   0.000000   0.000000   0.000000
    44  H   -0.000001   0.000000   0.000000   0.000000   0.000000   0.000000
    45  C    0.000003   0.000000   0.000066   0.000000   0.000000   0.000000
    46  H    0.000000   0.000000   0.000000   0.000000   0.000000   0.000000
    47  H    0.000000   0.000000   0.000000   0.000000   0.000000   0.000000
    48  H    0.000000   0.000000  -0.000001   0.000000   0.000000   0.000000
             31         32         33         34         35         36
     1  C    0.041877   0.118704   0.045888  -0.797293  -0.201758  -0.000194
     2  C   -0.138001   0.042373  -0.055383   0.430624  -0.122171  -0.000122
     3  H    0.004463  -0.000197  -0.001106   0.000278   0.001511  -0.000001
     4  H   -0.001034   0.000063  -0.005867   0.000612  -0.016983   0.000085
     5  C    0.036425  -0.008539   0.499954   0.176569   0.086966  -0.000986
     6  H   -0.000140   0.000006  -0.031706  -0.017851   0.012609   0.000003
     7  C   -0.021137   0.002305  -0.094036  -3.512189  -1.750517  -0.001909
     8  H    0.000147   0.000000  -0.001165   0.095935   0.000056  -0.000154
     9  C   -0.035949   0.032291  -0.006140  -0.299809  -0.408994  -0.016425
    10  H   -0.000479  -0.000006   0.000003   0.022712   0.017038   0.000004
    11  C    0.162645  -0.145150   0.003510  -0.334455  -1.112195  -0.009361
    12  H   -0.018277   0.004207   0.000013  -0.033616  -0.006472   0.000000
    13  C    0.021643   0.002291   0.012158  -0.338408   0.227288   0.010734
    14  C   -0.000809   0.000099   0.000371   0.020016   0.047047   0.000319
    15  C    0.009046  -0.000423  -0.008889  -0.491619   0.246759   0.002725
    16  C   -0.015243   0.002501   0.004131   1.357949  -0.252932  -0.005954
    17  C   -0.003657   0.000016   0.000811   0.162254   0.167637   0.000090
    18  C    0.001959  -0.000045  -0.001555   0.011175   0.006080   0.000152
    19  H    0.000000   0.000000   0.000000  -0.001298  -0.000197   0.000000
    20  H    0.000000   0.000000   0.000000   0.000130   0.000017   0.000000
    21  O   -0.000240   0.000036   0.000018  -0.086099  -0.050672   0.000095
    22  H   -0.000070   0.000002  -0.000005   0.031770   0.016836  -0.000016
    23  O    0.000236  -0.000001  -0.000071   0.038495   0.013998   0.000000
    24  H    0.000000   0.000000   0.000000   0.006146   0.000577   0.000000
    25  O   -0.055293   0.009033   0.001995  -0.168662   0.087460   0.001089
    26  H    0.042351  -0.003418  -0.000016   0.009193  -0.006242  -0.000026
    27  C   -0.028588  -0.051546  -0.008825   0.171788  -0.016724  -0.000232
    28  H   -0.000031  -0.001017  -0.000013   0.001479   0.000670   0.000000
    29  H   -0.007747   0.004348   0.000003  -0.000805  -0.000297   0.000000
    30  H    0.006987   0.000167   0.000012   0.000873  -0.000518   0.000000
    31  O    8.344054   0.243635  -0.000431   0.011983   0.003599   0.000000
    32  H    0.243635   0.338834   0.000004  -0.000776   0.000196   0.000000
    33  H   -0.000431   0.000004   0.561806  -0.049951  -0.018057  -0.000031
    34  C    0.011983  -0.000776  -0.049951  11.984562  -0.378611  -0.198856
    35  C    0.003599   0.000196  -0.018057  -0.378611  10.052411   0.632738
    36  H    0.000000   0.000000  -0.000031  -0.198856   0.632738   0.547090
    37  H   -0.000121   0.000001   0.000145  -0.166460   0.593868  -0.037366
    38  C   -0.000751  -0.000083  -0.002217  -1.618694  -1.309751  -0.067830
    39  H   -0.000003   0.000000  -0.000010  -0.332849  -0.072271   0.000241
    40  H    0.000000   0.000000  -0.000026  -0.122163  -0.025706   0.003383
    41  H    0.000001   0.000000   0.000075   0.041551   0.002133   0.000182
    42  C   -0.000055   0.000003   0.000015  -0.041051   0.002910   0.000082
    43  H    0.000000   0.000000   0.000000  -0.000397  -0.000015   0.000000
    44  H    0.000000   0.000000   0.000000   0.000003  -0.000015   0.000000
    45  C    0.000001   0.000000   0.000000   0.004605   0.000671   0.000000
    46  H    0.000000   0.000000   0.000000  -0.000009  -0.000001   0.000000
    47  H    0.000000   0.000000   0.000000   0.000023   0.000001   0.000000
    48  H    0.000000   0.000000   0.000000  -0.000052  -0.000003   0.000000
             37         38         39         40         41         42
     1  C   -0.004208   0.088804   0.003351   0.001161  -0.002599  -0.011478
     2  C   -0.018680  -0.023171  -0.000408  -0.001149   0.001705  -0.000591
     3  H    0.000133  -0.001098   0.000000   0.000000   0.000000   0.000000
     4  H    0.001225   0.002594   0.000001   0.000000  -0.000001  -0.000005
     5  C   -0.009140  -0.174141   0.000288  -0.007006   0.009554   0.008655
     6  H   -0.000040  -0.005157   0.000010   0.000002  -0.000040   0.000002
     7  C   -0.015740   1.035708   0.146005  -0.006188  -0.102388  -0.011508
     8  H   -0.000040   0.016755  -0.001696   0.000449   0.002950  -0.000976
     9  C   -0.008187   0.283397   0.055114   0.006758  -0.010240  -0.133486
    10  H   -0.000021   0.000159  -0.000090   0.000003   0.000008  -0.000370
    11  C   -0.018271   0.407457   0.019699  -0.001989  -0.002476  -0.061144
    12  H    0.000002   0.000668   0.000002   0.000000   0.000000   0.000899
    13  C   -0.021787  -0.121858  -0.023467  -0.003434   0.016221  -1.800056
    14  C    0.000465   0.004741  -0.002934   0.000782   0.000946  -1.954799
    15  C   -0.005328   0.093363  -0.014664  -0.005408   0.014489   1.053627
    16  C    0.031479  -0.276717  -0.001147   0.022802  -0.015974  -1.453657
    17  C    0.003001  -0.111252  -0.018699  -0.012259   0.003230   1.270013
    18  C    0.000205   0.062788   0.009547   0.006212  -0.002688  -0.357355
    19  H    0.000000   0.001469   0.000005   0.000001   0.000000  -0.024945
    20  H    0.000000   0.000033  -0.000006   0.000000   0.000000  -0.033205
    21  O   -0.001326   0.041589   0.001269  -0.000351   0.000035  -0.011667
    22  H   -0.000080  -0.009119  -0.000027  -0.000007   0.000000   0.000680
    23  O    0.000017  -0.011854  -0.000379  -0.000006  -0.000131   0.002430
    24  H    0.000000  -0.001076  -0.000018   0.000000   0.000001  -0.001311
    25  O   -0.002422  -0.019196  -0.000212  -0.000085  -0.000003  -0.002134
    26  H    0.000087   0.000846   0.000000   0.000000   0.000000  -0.000023
    27  C   -0.000600  -0.008030  -0.000548   0.000045   0.000519  -0.000270
    28  H    0.000000  -0.000052   0.000000   0.000000   0.000000   0.000001
    29  H    0.000000  -0.000103   0.000000   0.000000   0.000000   0.000002
    30  H   -0.000001  -0.000111   0.000000   0.000000   0.000000  -0.000009
    31  O   -0.000121  -0.000751  -0.000003   0.000000   0.000001  -0.000055
    32  H    0.000001  -0.000083   0.000000   0.000000   0.000000   0.000003
    33  H    0.000145  -0.002217  -0.000010  -0.000026   0.000075   0.000015
    34  C   -0.166460  -1.618694  -0.332849  -0.122163   0.041551  -0.041051
    35  C    0.593868  -1.309751  -0.072271  -0.025706   0.002133   0.002910
    36  H   -0.037366  -0.067830   0.000241   0.003383   0.000182   0.000082
    37  H    0.548953  -0.011950  -0.000198   0.000230  -0.000192  -0.000015
    38  C   -0.011950   6.956371   0.578249   0.498061   0.393304   0.006618
    39  H   -0.000198   0.578249   0.540645  -0.027140  -0.029740  -0.001147
    40  H    0.000230   0.498061  -0.027140   0.547090  -0.027575   0.000372
    41  H   -0.000192   0.393304  -0.029740  -0.027575   0.540758  -0.000056
    42  C   -0.000015   0.006618  -0.001147   0.000372  -0.000056   8.602345
    43  H    0.000000   0.000188   0.000000   0.000000   0.000000   0.543628
    44  H    0.000000  -0.000033   0.000000   0.000000   0.000000   0.541432
    45  C    0.000001  -0.002821  -0.000297   0.000007   0.000007   0.095548
    46  H    0.000000   0.000002   0.000000   0.000000   0.000000  -0.035455
    47  H    0.000000  -0.000001   0.000000   0.000000   0.000000  -0.020931
    48  H    0.000000   0.000021   0.000000   0.000000   0.000000  -0.055736
             43         44         45         46         47         48
     1  C    0.000000   0.000000   0.000523  -0.000001  -0.000009   0.000002
     2  C   -0.000001  -0.000001  -0.000001   0.000000   0.000000   0.000000
     3  H    0.000000   0.000000   0.000000   0.000000   0.000000   0.000000
     4  H    0.000000   0.000000   0.000000   0.000000   0.000000   0.000000
     5  C    0.000014   0.000003  -0.000134   0.000001  -0.000003   0.000003
     6  H    0.000000   0.000000   0.000000   0.000000   0.000000   0.000000
     7  C    0.000211  -0.000059  -0.001179   0.000003  -0.000064   0.000022
     8  H    0.000000   0.000000   0.000005   0.000000   0.000000   0.000000
     9  C    0.000716  -0.000564  -0.006660   0.000042  -0.000714   0.000353
    10  H    0.000000   0.000000   0.000030   0.000000   0.000000   0.000000
    11  C    0.000040  -0.000134  -0.002063   0.000009  -0.000222   0.000157
    12  H    0.000000   0.000000  -0.000013   0.000000   0.000000   0.000000
    13  C   -0.010808  -0.012258  -0.007034  -0.001035  -0.008837  -0.006431
    14  C   -0.216974  -0.214976   0.154073  -0.044945   0.017074   0.061016
    15  C    0.034507  -0.014699   0.003486   0.003070  -0.012343   0.001777
    16  C   -0.023047   0.003883   0.014638  -0.001253  -0.011512  -0.012117
    17  C   -0.077920   0.117767  -0.032804   0.010764   0.095014  -0.138111
    18  C    0.093977  -0.078605  -0.047068   0.004775  -0.121616   0.088591
    19  H    0.000105   0.002286   0.002445  -0.000032   0.000006   0.000213
    20  H    0.002380   0.000105   0.003467  -0.000033   0.000238   0.000010
    21  O    0.000025   0.000029   0.000174   0.000000   0.000012   0.000000
    22  H    0.000000   0.000000  -0.000032   0.000000   0.000000   0.000000
    23  O    0.000073   0.000029  -0.000278  -0.000001   0.000015   0.000011
    24  H   -0.000002   0.000000   0.000112   0.000000   0.000000   0.000000
    25  O    0.000000  -0.000001   0.000003   0.000000   0.000000   0.000000
    26  H    0.000000   0.000000   0.000000   0.000000   0.000000   0.000000
    27  C    0.000000   0.000000   0.000066   0.000000   0.000000  -0.000001
    28  H    0.000000   0.000000   0.000000   0.000000   0.000000   0.000000
    29  H    0.000000   0.000000   0.000000   0.000000   0.000000   0.000000
    30  H    0.000000   0.000000   0.000000   0.000000   0.000000   0.000000
    31  O    0.000000   0.000000   0.000001   0.000000   0.000000   0.000000
    32  H    0.000000   0.000000   0.000000   0.000000   0.000000   0.000000
    33  H    0.000000   0.000000   0.000000   0.000000   0.000000   0.000000
    34  C   -0.000397   0.000003   0.004605  -0.000009   0.000023  -0.000052
    35  C   -0.000015  -0.000015   0.000671  -0.000001   0.000001  -0.000003
    36  H    0.000000   0.000000   0.000000   0.000000   0.000000   0.000000
    37  H    0.000000   0.000000   0.000001   0.000000   0.000000   0.000000
    38  C    0.000188  -0.000033  -0.002821   0.000002  -0.000001   0.000021
    39  H    0.000000   0.000000  -0.000297   0.000000   0.000000   0.000000
    40  H    0.000000   0.000000   0.000007   0.000000   0.000000   0.000000
    41  H    0.000000   0.000000   0.000007   0.000000   0.000000   0.000000
    42  C    0.543628   0.541432   0.095548  -0.035455  -0.020931  -0.055736
    43  H    0.567021  -0.033656  -0.027299  -0.003312  -0.004978   0.004921
    44  H   -0.033656   0.565739  -0.023982  -0.003301   0.004901  -0.005077
    45  C   -0.027299  -0.023982   5.200205   0.422856   0.419689   0.416242
    46  H   -0.003312  -0.003301   0.422856   0.549657  -0.026984  -0.026857
    47  H   -0.004978   0.004901   0.419689  -0.026984   0.542106  -0.028404
    48  H    0.004921  -0.005077   0.416242  -0.026857  -0.028404   0.541669
 Mulliken atomic charges:
              1
     1  C   -0.083195
     2  C   -0.269476
     3  H    0.155112
     4  H    0.157949
     5  C   -0.415460
     6  H    0.158248
     7  C   -0.036955
     8  H    0.144548
     9  C    0.412980
    10  H    0.163689
    11  C   -0.122740
    12  H    0.143018
    13  C    0.732860
    14  C    0.019872
    15  C    0.476704
    16  C   -0.703277
    17  C   -0.750690
    18  C   -0.158746
    19  H    0.145353
    20  H    0.147826
    21  O   -0.625203
    22  H    0.488663
    23  O   -0.602579
    24  H    0.447195
    25  O   -0.760472
    26  H    0.459770
    27  C   -0.284817
    28  H    0.172081
    29  H    0.161360
    30  H    0.177519
    31  O   -0.602997
    32  H    0.410085
    33  H    0.154588
    34  C    0.411252
    35  C   -0.469975
    36  H    0.140450
    37  H    0.142362
    38  C   -0.696119
    39  H    0.173524
    40  H    0.153136
    41  H    0.166434
    42  C   -0.115829
    43  H    0.150602
    44  H    0.151182
    45  C   -0.587190
    46  H    0.152040
    47  H    0.157538
    48  H    0.157781
 Sum of Mulliken atomic charges =   0.00000
 Mulliken charges with hydrogens summed into heavy atoms:
              1
     1  C   -0.083195
     2  C    0.043585
     5  C   -0.102623
     7  C    0.107593
     9  C    0.576669
    11  C    0.020278
    13  C    0.732860
    14  C    0.019872
    15  C    0.476704
    16  C   -0.703277
    17  C   -0.605338
    18  C   -0.010920
    21  O   -0.136540
    23  O   -0.155384
    25  O   -0.300702
    27  C    0.226143
    31  O   -0.192912
    34  C    0.411252
    35  C   -0.187164
    38  C   -0.203026
    42  C    0.185955
    45  C   -0.119831
 Sum of Mulliken charges with hydrogens summed into heavy atoms =   0.00000
 Electronic spatial extent (au):  <R**2>=           7171.2263
 Charge=              0.0000 electrons
 Dipole moment (field-independent basis, Debye):
    X=              0.3412    Y=             -4.0895    Z=              4.8421  Tot=              6.3472
 Quadrupole moment (field-independent basis, Debye-Ang):
   XX=           -124.0848   YY=           -129.6213   ZZ=           -132.6547
   XY=             -5.2203   XZ=             -7.2664   YZ=              2.1131
 Traceless Quadrupole moment (field-independent basis, Debye-Ang):
   XX=              4.7021   YY=             -0.8343   ZZ=             -3.8678
   XY=             -5.2203   XZ=             -7.2664   YZ=              2.1131
 Octapole moment (field-independent basis, Debye-Ang**2):
  XXX=            -65.6786  YYY=            -42.8337  ZZZ=             33.5974  XYY=             31.8441
  XXY=            -21.6215  XXZ=             30.1367  XZZ=             -5.1886  YZZ=            -21.3454
  YYZ=            -11.5456  XYZ=             12.9227
 Hexadecapole moment (field-independent basis, Debye-Ang**3):
 XXXX=          -6511.0411 YYYY=          -1785.0602 ZZZZ=          -1213.9804 XXXY=            -28.0197
 XXXZ=              1.6556 YYYX=           -152.7044 YYYZ=             28.9973 ZZZX=           -163.5130
 ZZZY=            -10.9909 XXYY=          -1401.6603 XXZZ=          -1228.6575 YYZZ=           -498.3933
 XXYZ=            -46.5531 YYXZ=            -60.7797 ZZXY=              7.7896
 N-N= 1.989006284889D+03 E-N=-6.310825066859D+03  KE= 9.932015336373D+02

 Test job not archived.
 1\1\GINC-COMPUTE-8-16\SP\RB3LYP\6-31+G(d,p)\C18H26O4\LPASSAGLIA.IQUIR\
 23-Dec-2022\0\\# B3LYP/6-31+G** geom=allcheck test scrf=(pcm,solvent=w
 ater,smd,dovacuum)\\comment\\0,1\C,0,1.779347356,2.416847156,-1.453945
 073\C,0,1.007189607,3.524394643,-0.721366229\H,0,1.629553795,4.4271508
 89,-0.658376284\H,0,0.148925574,3.836649403,-1.325466456\C,0,0.5482154
 11,3.135003219,0.68594687\H,0,1.436435107,3.113530084,1.331928709\C,0,
 -0.160198709,1.760499415,0.814480296\H,0,-0.028000287,1.501179187,1.87
 7331309\C,0,0.612465074,0.66673457,0.011889373\H,0,1.600575175,0.63353
 6202,0.489535634\C,0,0.978472588,1.089188205,-1.429815812\H,0,1.560163
 644,0.299948832,-1.921963371\C,0,0.075552289,-0.754678891,0.197277427\
 C,0,-0.832943023,-3.416469318,0.705023321\C,0,0.562040257,-1.522866082
 ,1.277967661\C,0,-0.899963067,-1.364240611,-0.605516544\C,0,-1.3391184
 67,-2.671569474,-0.362052923\C,0,0.128148702,-2.829686853,1.528006522\
 H,0,-2.094573661,-3.099001088,-1.018608166\H,0,0.531654709,-3.39711937
 4,2.361718102\O,0,-1.528170347,-0.762428696,-1.657425116\H,0,-1.175794
 141,0.145577645,-1.778064343\O,0,1.492192337,-0.970605336,2.122975316\
 H,0,1.681615843,-1.603896299,2.834832254\O,0,-0.191621896,1.278441283,
 -2.24413637\H,0,0.084029367,1.901289016,-2.951624464\C,0,3.203742819,2
 .269260006,-0.907912106\H,0,3.778909001,3.185680846,-1.084533662\H,0,3
 .737239434,1.467309917,-1.430834531\H,0,3.232039074,2.055383944,0.1635
 21417\O,0,1.882893873,2.823685504,-2.835241582\H,0,2.534144666,2.24404
 9738,-3.270708201\H,0,-0.086868256,3.931716298,1.093495796\C,0,-1.6802
 61344,1.819127713,0.630837755\C,0,-2.325036508,2.50371605,-0.328547357
 \H,0,-3.410021155,2.508747176,-0.38578879\H,0,-1.812730833,3.059804169
 ,-1.101415937\C,0,-2.487206603,1.07915317,1.672866686\H,0,-2.2327695,0
 .016932679,1.692479069\H,0,-3.564918181,1.152257227,1.490770543\H,0,-2
 .29348454,1.498779112,2.665722972\C,0,-1.302315275,-4.826958926,0.9453
 7494\H,0,-1.280905363,-5.044975801,2.020121642\H,0,-2.350461761,-4.925
 457395,0.637520892\C,0,-0.449868504,-5.84129103,0.198430473\H,0,-0.812
 796796,-6.855771828,0.39133615\H,0,0.597527592,-5.789708395,0.51466075
 3\H,0,-0.483045077,-5.668847901,-0.882708564\\Version=EM64L-G09RevC.01
 \State=1-A\HF=-1002.5453115\RMSD=5.499e-09\Dipole=2.2034196,-0.1225083
 ,1.1686682\Quadrupole=-1.1565127,-0.5256133,1.682126,1.6271817,-3.9282
 201,-6.0708691\PG=C01 [X(C18H26O4)]\\@


 HE WHO LOVES TO READ, AND KNOWS HOW TO REFLECT,
 HAS LAID BY A PERPETUAL FEAST FOR HIS OLD AGE.
 -- UNCLE ESEK, "SCRIBNER'S MONTHLY", SEPT. 1880
 Job cpu time:  0 days  2 hours  2 minutes 22.0 seconds.
 File lengths (MBytes):  RWF=    240 Int=      0 D2E=      0 Chk=     19 Scr=      1
 Normal termination of Gaussian 09 at Fri Dec 23 15:32:13 2022.
