 Entering Gaussian System, Link 0=g09
 Input=/home/lpassaglia.iquir/Link1/04_RSSR_THC_005.gjc
 Output=/home/lpassaglia.iquir/Link1/04_RSSR_THC_005.log
 Initial command:
 /share/apps/Gaussian09/EM64T.SSE4.2-enabled/g09/l1.exe /tmp/Gau-21308.inp -scrdir=/tmp/
 Entering Link 1 = /share/apps/Gaussian09/EM64T.SSE4.2-enabled/g09/l1.exe PID=     21316.
  
 Copyright (c) 1988,1990,1992,1993,1995,1998,2003,2009,2011,
            Gaussian, Inc.  All Rights Reserved.
  
 This is part of the Gaussian(R) 09 program.  It is based on
 the Gaussian(R) 03 system (copyright 2003, Gaussian, Inc.),
 the Gaussian(R) 98 system (copyright 1998, Gaussian, Inc.),
 the Gaussian(R) 94 system (copyright 1995, Gaussian, Inc.),
 the Gaussian 92(TM) system (copyright 1992, Gaussian, Inc.),
 the Gaussian 90(TM) system (copyright 1990, Gaussian, Inc.),
 the Gaussian 88(TM) system (copyright 1988, Gaussian, Inc.),
 the Gaussian 86(TM) system (copyright 1986, Carnegie Mellon
 University), and the Gaussian 82(TM) system (copyright 1983,
 Carnegie Mellon University). Gaussian is a federally registered
 trademark of Gaussian, Inc.
  
 This software contains proprietary and confidential information,
 including trade secrets, belonging to Gaussian, Inc.
  
 This software is provided under written license and may be
 used, copied, transmitted, or stored only in accord with that
 written license.
  
 The following legend is applicable only to US Government
 contracts under FAR:
  
                    RESTRICTED RIGHTS LEGEND
  
 Use, reproduction and disclosure by the US Government is
 subject to restrictions as set forth in subparagraphs (a)
 and (c) of the Commercial Computer Software - Restricted
 Rights clause in FAR 52.227-19.
  
 Gaussian, Inc.
 340 Quinnipiac St., Bldg. 40, Wallingford CT 06492
  
  
 ---------------------------------------------------------------
 Warning -- This program may not be used in any manner that
 competes with the business of Gaussian, Inc. or will provide
 assistance to any competitor of Gaussian, Inc.  The licensee
 of this program is prohibited from giving any competitor of
 Gaussian, Inc. access to this program.  By using this program,
 the user acknowledges that Gaussian, Inc. is engaged in the
 business of creating and licensing software in the field of
 computational chemistry and represents and warrants to the
 licensee that it is not a competitor of Gaussian, Inc. and that
 it will not use this program in any manner prohibited above.
 ---------------------------------------------------------------
  

 Cite this work as:
 Gaussian 09, Revision C.01,
 M. J. Frisch, G. W. Trucks, H. B. Schlegel, G. E. Scuseria, 
 M. A. Robb, J. R. Cheeseman, G. Scalmani, V. Barone, B. Mennucci, 
 G. A. Petersson, H. Nakatsuji, M. Caricato, X. Li, H. P. Hratchian, 
 A. F. Izmaylov, J. Bloino, G. Zheng, J. L. Sonnenberg, M. Hada, 
 M. Ehara, K. Toyota, R. Fukuda, J. Hasegawa, M. Ishida, T. Nakajima, 
 Y. Honda, O. Kitao, H. Nakai, T. Vreven, J. A. Montgomery, Jr., 
 J. E. Peralta, F. Ogliaro, M. Bearpark, J. J. Heyd, E. Brothers, 
 K. N. Kudin, V. N. Staroverov, T. Keith, R. Kobayashi, J. Normand, 
 K. Raghavachari, A. Rendell, J. C. Burant, S. S. Iyengar, J. Tomasi, 
 M. Cossi, N. Rega, J. M. Millam, M. Klene, J. E. Knox, J. B. Cross, 
 V. Bakken, C. Adamo, J. Jaramillo, R. Gomperts, R. E. Stratmann, 
 O. Yazyev, A. J. Austin, R. Cammi, C. Pomelli, J. W. Ochterski, 
 R. L. Martin, K. Morokuma, V. G. Zakrzewski, G. A. Voth, 
 P. Salvador, J. J. Dannenberg, S. Dapprich, A. D. Daniels, 
 O. Farkas, J. B. Foresman, J. V. Ortiz, J. Cioslowski, 
 and D. J. Fox, Gaussian, Inc., Wallingford CT, 2010.
 
 ******************************************
 Gaussian 09:  EM64L-G09RevC.01 23-Sep-2011
                23-Dec-2022 
 ******************************************
 %chk=04_RSSR_THC_005_optB_NMR
 %nprocshared=4
 Will use up to    4 processors via shared memory.
 ------------------------------------------------
 # mPW1PW91/6-31+G** scrf=(PCM,solvent=water) nmr
 ------------------------------------------------
 1/38=1/1;
 2/12=2,17=6,18=5,40=1/2;
 3/5=1,6=6,7=111,11=2,16=1,25=1,30=1,70=2201,72=1,74=-7/1,2,8,3;
 4//1;
 5/5=2,38=5,53=1/2;
 8/6=1,10=90,11=11/1;
 10/13=100,45=16/2;
 6/7=2,8=2,9=2,10=2,28=1/1;
 99/9=1/99;
 -------
 comment
 -------
 Charge =  0 Multiplicity = 1
 Symbolic Z-Matrix:
 6                     1.54528   2.54709  -1.5229 
 6                     0.87483   3.5526   -0.58157 
 1                     1.47211   4.47231  -0.53266 
 1                    -0.1061    3.84325  -0.97148 
 6                     0.72819   3.01573   0.83885 
 1                     1.72934   2.9548    1.28701 
 6                     0.07255   1.62268   0.93815 
 1                     0.31295   1.30546   1.96175 
 6                     0.76217   0.59359  -0.02272 
 1                     1.81025   0.50456   0.30489 
 6                     0.85029   1.16411  -1.46179 
 1                    -0.14178   1.24887  -1.91176 
 6                     0.20949  -0.83401   0.15361 
 6                    -0.9186   -3.40426   0.70584 
 6                     0.40911  -1.49403   1.38478 
 6                    -0.50631  -1.5538   -0.81495 
 6                    -1.08205  -2.7995   -0.54135 
 6                    -0.14439  -2.74962   1.66461 
 1                    -1.64082  -3.3036   -1.32694 
 1                     0.02089  -3.22378   2.62778 
 8                    -0.65327  -1.13836  -2.10855 
 1                     0.23379  -0.82058  -2.39089 
 8                     1.18727  -0.89615   2.3434 
 1                     1.26357  -1.49528   3.10343 
 8                     1.60147   0.24138  -2.28316 
 1                     2.53481   0.39186  -2.01929 
 6                     1.56358   3.0942   -2.95529 
 1                     0.55031   3.21332  -3.35242 
 1                     2.1264    2.43618  -3.62648 
 1                     2.06456   4.06849  -2.9925 
 8                     2.91581   2.36027  -1.12587 
 1                     3.35176   3.231    -1.14771 
 1                     0.17296   3.74243   1.4454 
 6                    -1.46014   1.68524   0.89754 
 6                    -2.20974   2.05971  -0.1526 
 1                    -3.29511   2.06492  -0.09272 
 1                    -1.79758   2.36016  -1.10548 
 6                    -2.14193   1.28101   2.18324 
 1                    -1.89657   0.2459    2.43926 
 1                    -3.23274   1.35397   2.11686 
 1                    -1.81765   1.93068   3.00293 
 6                    -1.51866  -4.7564    0.98671 
 1                    -1.7821   -4.82899   2.04898 
 1                    -2.45955  -4.86478   0.43346 
 6                    -0.57056  -5.88599   0.61415 
 1                    -1.03304  -6.85451   0.8291 
 1                     0.36454  -5.82326   1.181 
 1                    -0.31955  -5.8589   -0.45165 
 
                          Input orientation:                          
 ---------------------------------------------------------------------
 Center     Atomic      Atomic             Coordinates (Angstroms)
 Number     Number       Type             X           Y           Z
 ---------------------------------------------------------------------
      1          6           0        1.545280    2.547094   -1.522895
      2          6           0        0.874834    3.552605   -0.581565
      3          1           0        1.472106    4.472312   -0.532663
      4          1           0       -0.106098    3.843249   -0.971483
      5          6           0        0.728186    3.015732    0.838851
      6          1           0        1.729338    2.954801    1.287013
      7          6           0        0.072550    1.622682    0.938147
      8          1           0        0.312951    1.305464    1.961745
      9          6           0        0.762169    0.593591   -0.022716
     10          1           0        1.810250    0.504560    0.304890
     11          6           0        0.850294    1.164111   -1.461789
     12          1           0       -0.141782    1.248871   -1.911756
     13          6           0        0.209492   -0.834011    0.153611
     14          6           0       -0.918597   -3.404259    0.705842
     15          6           0        0.409108   -1.494028    1.384779
     16          6           0       -0.506312   -1.553800   -0.814948
     17          6           0       -1.082053   -2.799501   -0.541354
     18          6           0       -0.144395   -2.749623    1.664607
     19          1           0       -1.640821   -3.303600   -1.326942
     20          1           0        0.020895   -3.223780    2.627777
     21          8           0       -0.653266   -1.138357   -2.108548
     22          1           0        0.233786   -0.820583   -2.390890
     23          8           0        1.187267   -0.896149    2.343403
     24          1           0        1.263575   -1.495282    3.103430
     25          8           0        1.601465    0.241380   -2.283160
     26          1           0        2.534806    0.391860   -2.019289
     27          6           0        1.563579    3.094200   -2.955293
     28          1           0        0.550305    3.213323   -3.352420
     29          1           0        2.126403    2.436181   -3.626479
     30          1           0        2.064557    4.068492   -2.992503
     31          8           0        2.915809    2.360272   -1.125873
     32          1           0        3.351756    3.231000   -1.147715
     33          1           0        0.172955    3.742428    1.445401
     34          6           0       -1.460144    1.685239    0.897539
     35          6           0       -2.209738    2.059706   -0.152604
     36          1           0       -3.295113    2.064925   -0.092718
     37          1           0       -1.797584    2.360156   -1.105477
     38          6           0       -2.141930    1.281015    2.183244
     39          1           0       -1.896566    0.245897    2.439263
     40          1           0       -3.232743    1.353972    2.116858
     41          1           0       -1.817654    1.930681    3.002932
     42          6           0       -1.518657   -4.756403    0.986711
     43          1           0       -1.782102   -4.828991    2.048979
     44          1           0       -2.459551   -4.864781    0.433460
     45          6           0       -0.570564   -5.885993    0.614152
     46          1           0       -1.033039   -6.854507    0.829097
     47          1           0        0.364543   -5.823258    1.181002
     48          1           0       -0.319548   -5.858896   -0.451653
 ---------------------------------------------------------------------
                    Distance matrix (angstroms):
                    1          2          3          4          5
     1  C    0.000000
     2  C    1.531879   0.000000
     3  H    2.166189   1.097719   0.000000
     4  H    2.170512   1.094868   1.754711   0.000000
     5  C    2.542658   1.525556   2.134501   2.158268   0.000000
     6  H    2.845292   2.139890   2.383323   3.042855   1.098575
     7  C    3.013337   2.584141   3.498918   2.934199   1.542824
     8  H    3.899103   3.440026   4.194596   3.901254   2.087660
     9  C    2.584565   3.013431   3.975994   3.494900   2.571034
    10  H    2.753716   3.309287   4.069261   4.055658   2.786029
    11  C    1.548994   2.545643   3.492007   2.886671   2.955732
    12  H    2.163973   2.847825   3.859677   2.759744   3.382970
    13  C    4.003359   4.497284   5.497475   4.821017   3.944505
    14  C    6.815906   7.298751   8.324045   7.483312   6.629168
    15  C    5.106479   5.436167   6.356395   5.856956   4.553875
    16  C    4.639780   5.295036   6.348846   5.414131   5.013946
    17  C    6.037581   6.646824   7.707338   6.727825   6.244907
    18  C    6.408618   6.767731   7.719935   7.100450   5.889192
    19  H    6.664853   7.341094   8.413442   7.318414   7.087793
    20  H    7.270132   7.546422   8.445367   7.931816   6.529320
    21  O    4.331183   5.164484   6.203243   5.138941   5.277502
    22  H    3.716811   4.775916   5.744665   4.886877   5.039144
    23  O    5.189640   5.333335   6.096988   5.926479   4.216307
    24  H    6.150045   6.261906   6.991197   6.854257   5.075845
    25  O    2.428472   3.793103   4.580584   4.196395   4.266919
    26  H    2.422932   3.848748   4.470958   4.470386   4.279899
    27  C    1.533435   2.513780   2.788673   2.698963   3.885816
    28  H    2.186549   2.810350   3.222700   2.548830   4.199694
    29  H    2.185193   3.476252   3.761068   3.743382   4.714877
    30  H    2.178084   2.737554   2.562202   2.974391   4.192072
    31  O    1.439055   2.425595   2.626192   3.369715   3.012551
    32  H    1.967699   2.561073   2.335000   3.516057   3.297863
    33  H    3.481793   2.153430   2.476543   2.435029   1.097393
    34  C    3.953969   3.335705   4.290844   3.159698   2.561727
    35  C    4.026836   3.453598   4.418268   2.876959   3.244745
    36  H    5.070237   4.454281   5.358680   3.755594   4.237782
    37  H    3.374007   2.972917   3.934487   2.253585   3.254183
    38  C    5.379028   4.680294   5.533695   4.545543   3.613060
    39  H    5.730664   5.266913   6.167891   5.270664   4.137949
    40  H    6.123794   5.384019   6.235352   5.050769   4.481485
    41  H    5.672072   4.767467   5.457365   4.731100   3.513101
    42  C    8.308243   8.787940   9.819487   8.932181   8.091739
    43  H    8.845134   9.177702  10.186706   9.334877   8.325000
    44  H    8.648808   9.110476  10.177063   9.129206   8.510493
    45  C    8.953252   9.623203  10.619894   9.868542   8.998774
    46  H   10.028444  10.674171  11.680195  10.887759  10.026147
    47  H    8.875133   9.553735  10.495813   9.914437   8.853081
    48  H    8.676740   9.487875  10.485725   9.718405   9.028962
                    6          7          8          9         10
     6  H    0.000000
     7  C    2.154343   0.000000
     8  H    2.276341   1.098259   0.000000
     9  C    2.868121   1.567756   2.155608   0.000000
    10  H    2.640984   2.161206   2.372451   1.101691   0.000000
    11  C    3.396352   2.564150   3.468329   1.550545   2.116052
    12  H    4.079634   2.882295   3.900513   2.194310   3.045972
    13  C    4.236701   2.582555   2.803107   1.540971   2.092149
    14  C    6.912812   5.128984   5.027475   4.397565   4.783956
    15  C    4.641621   3.166486   2.859947   2.542410   2.669029
    16  C    5.453793   3.674025   4.068981   2.616862   3.295048
    17  C    6.660243   4.803929   5.006224   3.896565   4.471953
    18  C    6.016137   4.437551   4.091600   3.853050   4.032266
    19  H    7.573528   5.686346   5.989671   4.760617   5.392110
    20  H    6.549144   5.132807   4.587259   4.706052   4.743218
    21  O    5.827571   4.175225   4.844907   3.058399   3.820049
    22  H    5.478793   4.132557   4.844768   2.808439   3.392414
    23  O    4.029841   3.092224   2.399415   2.828171   2.550614
    24  H    4.829032   3.978529   3.170380   3.793097   3.482822
    25  O    4.486105   3.823924   4.561991   2.436817   2.609761
    26  H    4.260173   4.040303   4.649725   2.677543   2.437106
    27  C    4.247831   4.421245   5.379676   3.936409   4.170836
    28  H    4.793881   4.600799   5.651249   4.242029   4.722369
    29  H    4.956716   5.071085   5.982924   4.271227   4.391671
    30  H    4.434742   5.039850   5.936920   4.752977   4.862004
    31  O    2.753761   3.590034   4.173833   2.996045   2.590948
    32  H    2.938779   4.206031   4.755078   3.863613   3.452503
    33  H    1.751505   2.181905   2.494995   3.523878   3.803326
    34  C    3.454892   1.534508   2.102529   2.641447   3.527139
    35  C    4.288358   2.567016   3.376879   3.316414   4.334522
    36  H    5.285891   3.549566   4.220867   4.316395   5.353276
    37  H    4.303114   2.866648   3.869701   3.293245   4.295210
    38  C    4.311787   2.563382   2.464974   3.711146   4.444190
    39  H    4.670441   2.833073   2.496531   3.640206   4.285200
    40  H    5.279541   3.519450   3.549417   4.595137   5.425542
    41  H    4.071160   2.816216   2.452436   4.194978   4.740774
    42  C    8.372713   6.574726   6.407161   5.902842   6.262925
    43  H    8.573110   6.804246   6.482931   6.337952   6.662853
    44  H    8.911858   6.982365   6.935009   6.354636   6.861308
    45  C    9.159800   7.543127   7.369780   6.645810   6.826645
    46  H   10.201124   8.549675   8.347437   7.708600   7.906640
    47  H    8.884156   7.455619   7.171534   6.540871   6.549727
    48  H    9.214236   7.619665   7.586343   6.556576   6.752923
                   11         12         13         14         15
    11  C    0.000000
    12  H    1.092643   0.000000
    13  C    2.648139   2.954240   0.000000
    14  C    5.357015   5.395079   2.860720   0.000000
    15  C    3.919604   4.323670   1.411114   2.423374   0.000000
    16  C    3.105773   3.031639   1.403060   2.430428   2.383352
    17  C    4.504596   4.376234   2.452389   1.395689   2.763658
    18  C    5.106963   5.364544   2.465342   1.395410   1.400424
    19  H    5.117058   4.828469   3.422655   2.159618   3.850999
    20  H    6.055249   6.374828   3.445005   2.146870   2.165132
    21  O    2.824952   2.449327   2.440152   3.622914   3.668580
    22  H    2.276471   2.157141   2.544652   4.194415   3.839263
    23  O    4.340243   4.947106   2.398978   3.661541   1.371842
    24  H    5.299472   5.887062   3.201531   3.762246   1.919343
    25  O    1.445801   2.047410   3.005313   5.345609   4.229318
    26  H    1.935137   2.812499   3.410475   5.810581   4.434280
    27  C    2.542552   2.720747   5.189382   7.860985   6.420348
    28  H    2.804237   2.532503   5.365568   7.900605   6.679831
    29  H    2.816469   3.081338   5.353297   7.883640   6.596086
    30  H    3.500422   3.739815   6.113415   8.855450   7.269301
    31  O    2.410393   3.346893   4.377749   7.161542   5.238564
    32  H    3.260059   4.088692   5.300150   8.105446   6.115439
    33  H    3.944396   4.193733   4.755402   7.267295   5.242129
    34  C    3.343072   3.133789   3.112513   5.121818   3.720114
    35  C    3.446716   2.833463   3.784183   5.679691   4.674498
    36  H    4.457603   3.730730   4.554862   6.016436   5.345129
    37  H    2.927241   2.150981   3.976979   6.105897   5.091719
    38  C    4.717344   4.557483   3.757915   5.062712   3.853078
    39  H    4.858658   4.797561   3.290271   4.157501   3.074965
    40  H    5.432675   5.078860   4.526653   5.476039   4.680826
    41  H    5.257310   5.237134   4.457743   5.877628   4.393805
    42  C    6.830781   6.808833   4.366430   1.505739   3.810226
    43  H    7.427804   7.437639   4.849611   2.139981   4.045311
    44  H    7.134044   6.946137   4.842438   2.140526   4.527271
    45  C    7.485475   7.580919   5.132553   2.507695   4.565411
    46  H    8.549464   8.600659   6.184378   3.454344   5.578826
    47  H    7.486229   7.735407   5.096288   2.779169   4.334252
    48  H    7.191073   7.258364   5.088781   2.779189   4.791189
                   16         17         18         19         20
    16  C    0.000000
    17  C    1.399322   0.000000
    18  C    2.776539   2.397489   0.000000
    19  H    2.147335   1.087882   3.390509   0.000000
    20  H    3.862530   3.382292   1.086206   4.290394   0.000000
    21  O    1.366598   2.323651   4.134226   2.504885   5.218837
    22  H    1.889165   3.011367   4.506802   3.288086   5.568456
    23  O    3.643610   4.134535   2.381061   5.221622   2.618999
    24  H    4.299955   4.526302   2.371911   5.597654   2.181331
    25  O    3.133854   4.413855   5.251570   4.898332   6.214728
    26  H    3.805841   5.044873   5.533364   5.618864   6.402173
    27  C    5.519912   6.896534   7.642703   7.338362   8.571314
    28  H    5.502787   6.835257   7.823675   7.167558   8.802234
    29  H    5.545795   6.872012   7.748849   7.240507   8.693908
    30  H    6.554486   7.942205   8.547212   8.417343   9.430872
    31  O    5.208412   6.553459   6.577435   7.272054   7.324757
    32  H    6.155464   7.509546   7.476635   8.225506   8.186157
    33  H    5.798329   6.951192   6.503498   7.786025   7.067474
    34  C    3.785998   4.725067   4.689093   5.465297   5.411624
    35  C    4.049418   5.003468   5.540536   5.519763   6.373497
    36  H    4.625387   5.362980   6.016235   5.751613   6.809361
    37  H    4.131688   5.239493   6.042867   5.670252   6.958764
    38  C    4.438533   5.019699   4.528264   5.795792   5.016831
    39  H    3.970089   4.338428   3.555747   5.181567   3.968734
    40  H    4.948136   5.379860   5.155765   6.007241   5.639416
    41  H    5.332676   5.956316   5.147442   6.795350   5.485387
    42  C    3.811493   2.520926   2.524937   2.734694   2.722545
    43  H    4.533938   3.364331   2.674621   3.707239   2.482440
    44  H    4.041814   2.667048   3.368911   2.491309   3.696014
    45  C    4.562274   3.335153   3.334950   3.403241   3.389969
    46  H    5.574748   4.280608   4.282270   4.198433   4.186670
    47  H    4.792752   3.768588   3.152796   4.081659   2.994752
    48  H    4.324432   3.154260   3.765211   3.006897   4.067263
                   21         22         23         24         25
    21  O    0.000000
    22  H    0.983646   0.000000
    23  O    4.823494   4.829945   0.000000
    24  H    5.564746   5.630563   0.970785   0.000000
    25  O    2.649147   1.734912   4.782323   5.669702   0.000000
    26  H    3.537420   2.627318   4.744250   5.605317   0.981528
    27  C    4.852414   4.172820   6.643845   7.606673   2.931174
    28  H    4.683260   4.158981   7.052367   8.022326   3.328769
    29  H    4.775772   3.964239   6.901151   7.841718   2.626255
    30  H    5.939632   5.255161   7.340926   8.292018   3.919746
    31  O    5.093561   4.348719   5.062412   5.956692   2.748912
    32  H    6.004556   5.261421   5.822910   6.691074   3.645625
    33  H    6.093871   5.961703   4.832353   5.601081   5.310381
    34  C    4.202417   4.467920   3.970249   4.732898   4.644892
    35  C    4.059055   4.390535   5.148473   5.941683   4.729783
    36  H    4.615620   5.104986   5.898676   6.608485   5.665672
    37  H    3.815129   3.986960   5.604251   6.476882   4.174887
    38  C    5.146743   5.566277   3.981111   4.489102   5.919680
    39  H    4.913709   5.385736   3.289906   3.668694   5.876863
    40  H    5.542514   6.088128   4.964963   5.413728   6.630806
    41  H    6.074704   6.393057   4.177977   4.608828   6.518196
    42  C    4.839399   5.474479   4.905527   4.780818   6.738327
    43  H    5.672749   6.312177   4.936707   4.636985   7.478276
    44  H    4.859084   5.620191   5.718146   5.687172   7.067160
    45  C    5.473571   5.944378   5.565861   5.370187   7.117360
    46  H    6.438039   6.955674   6.536429   6.258459   8.184031
    47  H    5.814238   6.148355   5.128787   4.820308   7.092970
    48  H    5.013996   5.426916   5.891662   5.846881   6.652674
                   26         27         28         29         30
    26  H    0.000000
    27  C    3.020269   0.000000
    28  H    3.698126   1.094817   0.000000
    29  H    2.632318   1.095560   1.778523   0.000000
    30  H    3.832219   1.096180   1.775898   1.752196   0.000000
    31  O    2.194994   2.390388   3.358693   2.623348   2.669635
    32  H    3.080221   2.546298   3.564991   2.877065   2.400316
    33  H    5.367375   4.660488   4.841635   5.589831   4.835232
    34  C    5.112762   5.096311   4.943591   5.821853   5.765054
    35  C    5.364412   4.812813   4.380353   5.568812   5.510885
    36  H    6.363865   5.732420   5.170273   6.482140   6.414757
    37  H    4.845497   3.906156   3.359944   4.664644   4.625518
    38  C    6.350097   6.589613   6.451784   7.301093   7.228618
    39  H    6.287848   7.013321   6.952437   7.600977   7.733486
    40  H    7.162261   7.194430   6.905189   7.929536   7.844462
    41  H    6.821625   6.948882   6.902383   7.730472   7.455672
    42  C    7.209106   9.309755   9.307265   9.289846  10.322419
    43  H    7.902138   9.950541   9.964640  10.013489  10.926049
    44  H    7.654531   9.540157   9.415300   9.529854  10.583390
    45  C    7.482631   9.896432   9.989373   9.721890  10.910710
    46  H    8.564616  10.956313  11.016046  10.777342  11.979634
    47  H    7.319808   9.902913  10.111687   9.717734  10.869909
    48  H    7.048175   9.485373   9.564322   9.212518  10.521070
                   31         32         33         34         35
    31  O    0.000000
    32  H    0.974009   0.000000
    33  H    4.005628   4.134076   0.000000
    34  C    4.868145   5.452231   2.683131   0.000000
    35  C    5.225785   5.769956   3.326019   1.343472   0.000000
    36  H    6.303190   6.830345   4.148171   2.119405   1.087038
    37  H    4.713437   5.222629   3.507233   2.140432   1.080791
    38  C    6.139689   6.714038   3.458563   1.510386   2.463157
    39  H    6.351357   7.022971   4.182870   2.153853   3.178955
    40  H    7.023720   7.585268   4.213592   2.176829   2.587481
    41  H    6.295812   6.755848   3.109799   2.149590   3.182418
    42  C    8.647229   9.595588   8.677677   6.442525   6.945140
    43  H    9.156176  10.076646   8.812251   6.623040   7.244583
    44  H    9.139333  10.090246   9.057492   6.642059   6.953732
    45  C    9.120492  10.080095   9.692795   7.628579   8.149168
    46  H   10.214082  11.173704  10.683130   8.550694   9.044973
    47  H    8.876981   9.814579   9.571257   7.732229   8.399199
    48  H    8.858715   9.827980   9.799326   7.748242   8.146564
                   36         37         38         39         40
    36  H    0.000000
    37  H    1.831786   0.000000
    38  C    2.669147   3.478334   0.000000
    39  H    3.416975   4.128568   1.094175   0.000000
    40  H    2.321975   3.668179   1.095264   1.765544   0.000000
    41  H    3.432777   4.130845   1.095039   1.778327   1.766409
    42  C    7.131022   7.422969   6.186321   5.222617   6.446084
    43  H    7.375781   7.850775   6.122064   5.091160   6.351220
    44  H    6.999704   7.416619   6.397924   5.518988   6.488801
    45  C    8.434449   8.512442   7.503148   6.533711   7.858906
    46  H    9.247864   9.446540   8.321662   7.331715   8.595123
    47  H    8.788565   8.767613   7.599841   6.597763   8.082631
    48  H    8.471703   8.376448   7.825732   6.936344   8.192033
                   41         42         43         44         45
    41  H    0.000000
    42  C    6.990825   0.000000
    43  H    6.826745   1.096853   0.000000
    44  H    7.293321   1.096865   1.752176   0.000000
    45  C    8.268125   1.521070   2.154950   2.154946   0.000000
    46  H    9.084091   2.159330   2.480307   2.480015   1.094580
    47  H    8.258631   2.173101   2.519928   3.074573   1.095299
    48  H    8.651935   2.173072   3.074562   2.520178   1.095300
                   46         47         48
    46  H    0.000000
    47  H    1.772159   0.000000
    48  H    1.772183   1.770540   0.000000
 Stoichiometry    C18H26O4
 Framework group  C1[X(C18H26O4)]
 Deg. of freedom   138
 Full point group                 C1      NOp   1
 Largest Abelian subgroup         C1      NOp   1
 Largest concise Abelian subgroup C1      NOp   1
                         Standard orientation:                         
 ---------------------------------------------------------------------
 Center     Atomic      Atomic             Coordinates (Angstroms)
 Number     Number       Type             X           Y           Z
 ---------------------------------------------------------------------
      1          6           0        3.181157   -0.920619    0.199128
      2          6           0        3.695854    0.513939    0.044906
      3          1           0        4.695230    0.600888    0.490634
      4          1           0        3.808624    0.765880   -1.014597
      5          6           0        2.790984    1.536084    0.725897
      6          1           0        2.881981    1.403745    1.812669
      7          6           0        1.297981    1.426779    0.352665
      8          1           0        0.801748    2.025190    1.128442
      9          6           0        0.771465   -0.040997    0.514762
     10          1           0        0.879869   -0.302694    1.579416
     11          6           0        1.697029   -1.038565   -0.228462
     12          1           0        1.631035   -0.903434   -1.310707
     13          6           0       -0.746471   -0.149086    0.272316
     14          6           0       -3.575080   -0.091718   -0.151236
     15          6           0       -1.625722    0.513248    1.155194
     16          6           0       -1.353436   -0.850052   -0.780688
     17          6           0       -2.733526   -0.803785   -1.007213
     18          6           0       -3.010766    0.550521    0.951600
     19          1           0       -3.145998   -1.354094   -1.850133
     20          1           0       -3.657011    1.079473    1.646165
     21          8           0       -0.671498   -1.675031   -1.630370
     22          1           0       -0.069661   -2.207025   -1.062626
     23          8           0       -1.113084    1.133205    2.266412
     24          1           0       -1.846380    1.495616    2.789250
     25          8           0        1.249500   -2.384846    0.050079
     26          1           0        1.566795   -2.558165    0.962593
     27          6           0        4.064854   -1.888273   -0.597207
     28          1           0        4.011556   -1.688261   -1.672278
     29          1           0        3.774951   -2.930016   -0.421196
     30          1           0        5.111885   -1.805834   -0.283297
     31          8           0        3.265592   -1.313306    1.580992
     32          1           0        4.195275   -1.224877    1.857692
     33          1           0        3.163429    2.546709    0.515676
     34          6           0        0.963208    2.138768   -0.964800
     35          6           0        1.385492    1.779417   -2.188507
     36          1           0        1.089179    2.341091   -3.070762
     37          1           0        2.019611    0.924480   -2.375817
     38          6           0        0.075608    3.351974   -0.817956
     39          1           0       -0.888092    3.072426   -0.381660
     40          1           0       -0.126527    3.838647   -1.778109
     41          1           0        0.552840    4.092363   -0.167429
     42          6           0       -5.062384   -0.066204   -0.384747
     43          1           0       -5.473863    0.888354   -0.034617
     44          1           0       -5.267710   -0.107552   -1.461429
     45          6           0       -5.766394   -1.217478    0.317102
     46          1           0       -6.843878   -1.172712    0.129673
     47          1           0       -5.608530   -1.178768    1.400273
     48          1           0       -5.399554   -2.185302   -0.041264
 ---------------------------------------------------------------------
 Rotational constants (GHZ):      0.4847860      0.1861526      0.1668219
 Standard basis: 6-31+G(d,p) (6D, 7F)
 There are   548 symmetry adapted basis functions of A   symmetry.
 Integral buffers will be    131072 words long.
 Raffenetti 2 integral format.
 Two-electron integral symmetry is turned on.
   548 basis functions,   886 primitive gaussians,   548 cartesian basis functions
    83 alpha electrons       83 beta electrons
       nuclear repulsion energy      1982.9482129860 Hartrees.
 NAtoms=   48 NActive=   48 NUniq=   48 SFac= 1.00D+00 NAtFMM=   60 NAOKFM=F Big=F
 ------------------------------------------------------------------------------
 Polarizable Continuum Model (PCM)
 =================================
 Model                : PCM.
 Atomic radii         : UFF (Universal Force Field).
 Polarization charges : Total charges.
 Charge compensation  : None.
 Solution method      : Matrix inversion.
 Cavity type          : Scaled VdW (van der Waals Surface) (Alpha=1.100).
 Cavity algorithm     : GePol (No added spheres)
                        Default sphere list used, NSphG=   48.
                        Lebedev-Laikov grids with approx.  5.0 points / Ang**2.
                        Smoothing algorithm: Karplus/York (Gamma=1.0000).
                        Polarization charges: spherical gaussians, with
                                              point-specific exponents (IZeta= 3).
                        Self-potential: point-specific (ISelfS= 7).
                        Self-field    : sphere-specific E.n sum rule (ISelfD= 2).
 Solvent              : Water, Eps=  78.355300 Eps(inf)=   1.777849
 ------------------------------------------------------------------------------
 One-electron integrals computed using PRISM.
 NBasis=   548 RedAO= T  NBF=   548
 NBsUse=   545 1.00D-06 NBFU=   545
 Harris functional with IExCor=  908 diagonalized for initial guess.
 ExpMin= 4.38D-02 ExpMax= 5.48D+03 ExpMxC= 8.25D+02 IAcc=2 IRadAn=         4 AccDes= 0.00D+00
 HarFok:  IExCor=  908 AccDes= 0.00D+00 IRadAn=         4 IDoV= 1
 ScaDFX=  1.000000  1.000000  1.000000  1.000000
 FoFCou: FMM=F IPFlag=           0 FMFlag=      100000 FMFlg1=           0
         NFxFlg=           0 DoJE=T BraDBF=F KetDBF=T FulRan=T
         Omega=  0.000000  0.000000  1.000000  0.000000  0.000000 ICntrl=     500 IOpCl=  0
         NMat0=    1 NMatS0=    1 NMatT0=    0 NMatD0=    1 NMtDS0=    0 NMtDT0=    0
         I1Cent=           4 NGrid=           0.
 Petite list used in FoFCou.
 Initial guess orbital symmetries:
       Occupied  (A) (A) (A) (A) (A) (A) (A) (A) (A) (A) (A) (A)
                 (A) (A) (A) (A) (A) (A) (A) (A) (A) (A) (A) (A)
                 (A) (A) (A) (A) (A) (A) (A) (A) (A) (A) (A) (A)
                 (A) (A) (A) (A) (A) (A) (A) (A) (A) (A) (A) (A)
                 (A) (A) (A) (A) (A) (A) (A) (A) (A) (A) (A) (A)
                 (A) (A) (A) (A) (A) (A) (A) (A) (A) (A) (A) (A)
                 (A) (A) (A) (A) (A) (A) (A) (A) (A) (A) (A)
       Virtual   (A) (A) (A) (A) (A) (A) (A) (A) (A) (A) (A) (A)
                 (A) (A) (A) (A) (A) (A) (A) (A) (A) (A) (A) (A)
                 (A) (A) (A) (A) (A) (A) (A) (A) (A) (A) (A) (A)
                 (A) (A) (A) (A) (A) (A) (A) (A) (A) (A) (A) (A)
                 (A) (A) (A) (A) (A) (A) (A) (A) (A) (A) (A) (A)
                 (A) (A) (A) (A) (A) (A) (A) (A) (A) (A) (A) (A)
                 (A) (A) (A) (A) (A) (A) (A) (A) (A) (A) (A) (A)
                 (A) (A) (A) (A) (A) (A) (A) (A) (A) (A) (A) (A)
                 (A) (A) (A) (A) (A) (A) (A) (A) (A) (A) (A) (A)
                 (A) (A) (A) (A) (A) (A) (A) (A) (A) (A) (A) (A)
                 (A) (A) (A) (A) (A) (A) (A) (A) (A) (A) (A) (A)
                 (A) (A) (A) (A) (A) (A) (A) (A) (A) (A) (A) (A)
                 (A) (A) (A) (A) (A) (A) (A) (A) (A) (A) (A) (A)
                 (A) (A) (A) (A) (A) (A) (A) (A) (A) (A) (A) (A)
                 (A) (A) (A) (A) (A) (A) (A) (A) (A) (A) (A) (A)
                 (A) (A) (A) (A) (A) (A) (A) (A) (A) (A) (A) (A)
                 (A) (A) (A) (A) (A) (A) (A) (A) (A) (A) (A) (A)
                 (A) (A) (A) (A) (A) (A) (A) (A) (A) (A) (A) (A)
                 (A) (A) (A) (A) (A) (A) (A) (A) (A) (A) (A) (A)
                 (A) (A) (A) (A) (A) (A) (A) (A) (A) (A) (A) (A)
                 (A) (A) (A) (A) (A) (A) (A) (A) (A) (A) (A) (A)
                 (A) (A) (A) (A) (A) (A) (A) (A) (A) (A) (A) (A)
                 (A) (A) (A) (A) (A) (A) (A) (A) (A) (A) (A) (A)
                 (A) (A) (A) (A) (A) (A) (A) (A) (A) (A) (A) (A)
                 (A) (A) (A) (A) (A) (A) (A) (A) (A) (A) (A) (A)
                 (A) (A) (A) (A) (A) (A) (A) (A) (A) (A) (A) (A)
                 (A) (A) (A) (A) (A) (A) (A) (A) (A) (A) (A) (A)
                 (A) (A) (A) (A) (A) (A) (A) (A) (A) (A) (A) (A)
                 (A) (A) (A) (A) (A) (A) (A) (A) (A) (A) (A) (A)
                 (A) (A) (A) (A) (A) (A) (A) (A) (A) (A) (A) (A)
                 (A) (A) (A) (A) (A) (A) (A) (A) (A) (A) (A) (A)
                 (A) (A) (A) (A) (A) (A) (A) (A) (A) (A) (A) (A)
                 (A) (A) (A) (A) (A) (A) (A) (A) (A) (A) (A) (A)
                 (A) (A) (A) (A) (A) (A) (A) (A) (A) (A) (A) (A)
                 (A) (A) (A) (A) (A) (A) (A) (A) (A) (A) (A) (A)
                 (A) (A) (A) (A) (A) (A) (A) (A) (A) (A) (A) (A)
                 (A) (A) (A) (A) (A) (A) (A) (A) (A) (A) (A) (A)
                 (A) (A) (A) (A) (A) (A) (A) (A) (A) (A) (A) (A)
                 (A) (A) (A) (A) (A) (A)
 The electronic state of the initial guess is 1-A.
 Requested convergence on RMS density matrix=1.00D-08 within 128 cycles.
 Requested convergence on MAX density matrix=1.00D-06.
 Requested convergence on             energy=1.00D-06.
 No special actions if energy rises.
 CoulSu:  requested number of processors reduced to:   2 ShMem   1 Linda.
 CoulSu:  requested number of processors reduced to:   2 ShMem   1 Linda.
 Error on total polarization charges =  0.01907
 SCF Done:  E(RmPW1PW91) =  -1002.30214556     A.U. after   14 cycles
             Convg  =    0.4829D-08             -V/T =  2.0094
 Range of M.O.s used for correlation:     1   545
 NBasis=   548 NAE=    83 NBE=    83 NFC=     0 NFV=     0
 NROrb=    545 NOA=    83 NOB=    83 NVA=   462 NVB=   462

 **** Warning!!: The largest alpha MO coefficient is  0.14678066D+03

 NEqPCM:  Using equilibrium solvation (IEInf=0, Eps=  78.3553, EpsInf=   1.7778)
          Differentiating once with respect to magnetic field using GIAOs.
          Electric field/nuclear overlap derivatives assumed to be zero.
 FoFCou: FMM=F IPFlag=           0 FMFlag=    10101102 FMFlg1=           0
         NFxFlg=    40000000 DoJE=F BraDBF=F KetDBF=T FulRan=T
         Omega=  0.000000  0.000000  1.000000  0.000000  0.000000 ICntrl=    6100 IOpCl=  0
         NMat0=    1 NMatS0=    1 NMatT0=    0 NMatD0=    1 NMtDS0=    0 NMtDT0=    0
         I1Cent=           7 NGrid=        3006.
 Symmetry not used in FoFCou.
          There are     3 degrees of freedom in the 1st order CPHF.  IDoFFX=0.
      3 vectors produced by pass  0 Test12= 1.28D-12 3.33D-08 XBig12= 6.63D+02 3.63D+00.
 AX will form     3 AO Fock derivatives at one time.
      3 vectors produced by pass  1 Test12= 1.28D-12 3.33D-08 XBig12= 1.60D+00 3.03D-01.
      3 vectors produced by pass  2 Test12= 1.28D-12 3.33D-08 XBig12= 6.56D-03 2.43D-02.
      3 vectors produced by pass  3 Test12= 1.28D-12 3.33D-08 XBig12= 3.04D-05 1.20D-03.
      3 vectors produced by pass  4 Test12= 1.28D-12 3.33D-08 XBig12= 1.00D-07 7.77D-05.
      3 vectors produced by pass  5 Test12= 1.28D-12 3.33D-08 XBig12= 3.93D-10 4.87D-06.
      3 vectors produced by pass  6 Test12= 1.28D-12 3.33D-08 XBig12= 2.05D-12 2.65D-07.
 Inverted reduced A of dimension    21 with in-core refinement.
 Calculating GIAO nuclear magnetic shielding tensors.
 SCF GIAO Magnetic shielding tensor (ppm):
      1  C    Isotropic =   122.0616   Anisotropy =    39.1768
   XX=   106.1256   YX=    -0.7999   ZX=     3.1182
   XY=    -2.1843   YY=   113.3939   ZY=    -9.7986
   XZ=     5.9513   YZ=    -1.8145   ZZ=   146.6652
   Eigenvalues:   105.5229   112.4824   148.1795
      2  C    Isotropic =   160.0112   Anisotropy =    32.0192
   XX=   156.1241   YX=     5.8970   ZX=     1.3640
   XY=     4.4281   YY=   180.2747   ZY=    -3.3628
   XZ=     4.9179   YZ=     0.0901   ZZ=   143.6350
   Eigenvalues:   142.6747   156.0017   181.3574
      3  H    Isotropic =    30.1318   Anisotropy =     9.1160
   XX=    35.9282   YX=     0.2057   ZX=     1.4269
   XY=     1.4398   YY=    28.9151   ZY=     1.6198
   XZ=     1.0725   YZ=     1.0434   ZZ=    25.5521
   Eigenvalues:    25.0106    29.1757    36.2092
      4  H    Isotropic =    29.3743   Anisotropy =     6.1356
   XX=    28.5653   YX=    -1.1502   ZX=    -2.7268
   XY=     0.6253   YY=    28.8370   ZY=    -2.6610
   XZ=    -2.5541   YZ=    -2.5596   ZZ=    30.7205
   Eigenvalues:    25.6909    28.9672    33.4647
      5  C    Isotropic =   167.3820   Anisotropy =    23.2508
   XX=   181.7353   YX=     2.2382   ZX=     9.0254
   XY=     0.7257   YY=   159.6146   ZY=    -0.8383
   XZ=     0.7543   YZ=    -1.4898   ZZ=   160.7961
   Eigenvalues:   158.1740   161.0895   182.8825
      6  H    Isotropic =    29.2975   Anisotropy =     7.9188
   XX=    28.3308   YX=    -1.0345   ZX=     3.2128
   XY=    -0.6086   YY=    26.8172   ZY=     3.1778
   XZ=     1.9531   YZ=     2.3374   ZZ=    32.7445
   Eigenvalues:    24.7784    28.5374    34.5767
      7  C    Isotropic =   153.5432   Anisotropy =    20.6883
   XX=   153.0736   YX=    -3.0554   ZX=     9.0145
   XY=     0.7558   YY=   155.2642   ZY=    -9.8439
   XZ=     6.3404   YZ=   -11.7824   ZZ=   152.2917
   Eigenvalues:   140.5729   152.7212   167.3354
      8  H    Isotropic =    27.9667   Anisotropy =     7.2775
   XX=    30.0037   YX=    -2.0468   ZX=    -2.1991
   XY=    -1.1912   YY=    28.3868   ZY=     2.3144
   XZ=    -3.9117   YZ=     1.6470   ZZ=    25.5097
   Eigenvalues:    23.6951    27.3867    32.8184
      9  C    Isotropic =   148.7309   Anisotropy =    27.6039
   XX=   144.1999   YX=    -4.2898   ZX=    -3.9110
   XY=     6.9818   YY=   167.0537   ZY=    -1.9179
   XZ=     1.6250   YZ=     1.7429   ZZ=   134.9389
   Eigenvalues:   134.7998   144.2594   167.1335
     10  H    Isotropic =    28.0254   Anisotropy =     5.0274
   XX=    30.2930   YX=    -1.5275   ZX=    -1.0949
   XY=    -3.3652   YY=    24.7933   ZY=    -0.4188
   XZ=    -0.3918   YZ=    -0.1117   ZZ=    28.9899
   Eigenvalues:    23.8115    28.8877    31.3770
     11  C    Isotropic =   121.4756   Anisotropy =    40.2331
   XX=   119.9341   YX=     8.4531   ZX=    -5.5706
   XY=    14.3069   YY=   142.7214   ZY=    -2.2332
   XZ=    -3.5893   YZ=    -7.6949   ZZ=   101.7712
   Eigenvalues:   100.5435   115.5856   148.2976
     12  H    Isotropic =    26.5934   Anisotropy =     1.7228
   XX=    26.9873   YX=     0.7145   ZX=     0.1136
   XY=    -0.0561   YY=    25.6641   ZY=    -0.6744
   XZ=     1.2467   YZ=     0.1206   ZZ=    27.1286
   Eigenvalues:    25.4615    26.5767    27.7419
     13  C    Isotropic =    84.7138   Anisotropy =   126.6016
   XX=    39.1962   YX=     8.8802   ZX=    -1.6474
   XY=    20.0218   YY=   130.1286   ZY=   -54.7892
   XZ=   -11.8076   YZ=   -55.7490   ZZ=    84.8164
   Eigenvalues:    36.7432    48.2833   169.1148
     14  C    Isotropic =    50.4952   Anisotropy =   188.8428
   XX=   -28.7268   YX=    17.5849   ZX=   -21.1768
   XY=    14.7676   YY=   121.6943   ZY=   -79.9313
   XZ=   -18.4402   YZ=   -74.3558   ZZ=    58.5180
   Eigenvalues:   -33.0164     8.1116   176.3903
     15  C    Isotropic =    44.3908   Anisotropy =   123.2683
   XX=    35.9973   YX=    -4.7225   ZX=   -27.2482
   XY=    -5.7155   YY=    83.2740   ZY=   -72.2700
   XZ=   -16.7903   YZ=   -66.1207   ZZ=    13.9009
   Eigenvalues:   -35.3128    41.9155   126.5696
     16  C    Isotropic =    42.7085   Anisotropy =   121.6203
   XX=    23.1033   YX=    38.2648   ZX=    17.8208
   XY=    32.4299   YY=    67.0882   ZY=   -58.3013
   XZ=    12.6133   YZ=   -74.0505   ZZ=    37.9340
   Eigenvalues:   -35.6538    39.9906   123.7886
     17  C    Isotropic =    85.2279   Anisotropy =   110.3438
   XX=    76.3269   YX=    -8.4021   ZX=   -27.4452
   XY=   -19.9005   YY=   109.3334   ZY=   -72.7687
   XZ=   -19.7469   YZ=   -59.5402   ZZ=    70.0234
   Eigenvalues:     9.4518    87.4416   158.7904
     18  C    Isotropic =    90.2804   Anisotropy =    98.5645
   XX=    70.1782   YX=    25.5040   ZX=    25.5230
   XY=    21.4462   YY=   119.6459   ZY=   -52.6401
   XZ=    29.1723   YZ=   -51.3747   ZZ=    81.0171
   Eigenvalues:    19.4579    95.3932   155.9900
     19  H    Isotropic =    24.8265   Anisotropy =     7.9693
   XX=    29.5696   YX=    -1.3606   ZX=    -1.2767
   XY=    -0.6614   YY=    21.7035   ZY=     0.8966
   XZ=    -1.8695   YZ=     1.8126   ZZ=    23.2062
   Eigenvalues:    20.9052    23.4349    30.1393
     20  H    Isotropic =    25.1158   Anisotropy =     7.4602
   XX=    28.4154   YX=     1.5159   ZX=     2.1791
   XY=     1.5237   YY=    22.6851   ZY=     2.4095
   XZ=     2.2258   YZ=     2.0141   ZZ=    24.2467
   Eigenvalues:    21.1202    24.1379    30.0892
     21  O    Isotropic =   237.0364   Anisotropy =    59.9992
   XX=   210.0682   YX=     2.7892   ZX=   -25.6289
   XY=     0.7827   YY=   263.7190   ZY=   -30.2864
   XZ=   -19.9702   YZ=    -9.6788   ZZ=   237.3221
   Eigenvalues:   196.0127   238.0606   277.0359
     22  H    Isotropic =    23.8389   Anisotropy =    23.8807
   XX=    28.1056   YX=    -5.4116   ZX=    10.8154
   XY=    -9.5790   YY=    21.5942   ZY=    -2.6385
   XZ=    12.0920   YZ=    -1.5187   ZZ=    21.8168
   Eigenvalues:    11.9725    19.7848    39.7593
     23  O    Isotropic =   225.3670   Anisotropy =    46.8287
   XX=   193.0676   YX=     7.9932   ZX=     7.9820
   XY=    29.9874   YY=   230.3063   ZY=    -9.2326
   XZ=    23.2859   YZ=    -1.0655   ZZ=   252.7272
   Eigenvalues:   181.3198   238.1952   256.5862
     24  H    Isotropic =    26.4428   Anisotropy =    15.4073
   XX=    30.1347   YX=    -2.8351   ZX=    -4.3811
   XY=    -3.3891   YY=    21.1297   ZY=     5.4937
   XZ=    -5.6372   YZ=     6.2916   ZZ=    28.0641
   Eigenvalues:    17.7552    24.8590    36.7144
     25  O    Isotropic =   289.6103   Anisotropy =    49.4427
   XX=   265.7409   YX=   -14.8904   ZX=    12.7303
   XY=    -9.5591   YY=   298.8174   ZY=   -11.5251
   XZ=     9.2574   YZ=   -20.7128   ZZ=   304.2726
   Eigenvalues:   260.8811   285.3777   322.5721
     26  H    Isotropic =    28.3386   Anisotropy =    15.2293
   XX=    25.1216   YX=     2.9498   ZX=     5.4249
   XY=    -0.0537   YY=    26.4766   ZY=    -5.7291
   XZ=     6.6993   YZ=    -6.0856   ZZ=    33.4178
   Eigenvalues:    19.2323    27.2921    38.4915
     27  C    Isotropic =   167.5196   Anisotropy =    46.1276
   XX=   162.7132   YX=   -19.2352   ZX=   -15.0129
   XY=   -18.1045   YY=   164.2820   ZY=    15.2018
   XZ=    -9.7421   YZ=    13.9914   ZZ=   175.5636
   Eigenvalues:   144.7465   159.5409   198.2713
     28  H    Isotropic =    30.3821   Anisotropy =     9.7879
   XX=    28.3057   YX=    -1.6212   ZX=    -3.0875
   XY=    -1.5440   YY=    27.1446   ZY=     2.1546
   XZ=    -2.0611   YZ=     0.9848   ZZ=    35.6961
   Eigenvalues:    26.0344    28.2046    36.9074
     29  H    Isotropic =    29.6214   Anisotropy =     8.1350
   XX=    29.3646   YX=    -2.0610   ZX=    -1.2301
   XY=    -1.0015   YY=    34.3148   ZY=     0.8733
   XZ=    -1.0104   YZ=     2.0195   ZZ=    25.1848
   Eigenvalues:    24.7834    29.0360    35.0448
     30  H    Isotropic =    30.6389   Anisotropy =     9.1400
   XX=    35.9442   YX=    -2.0092   ZX=     0.1883
   XY=    -3.0202   YY=    28.5058   ZY=     0.6082
   XZ=    -0.5104   YZ=     1.0931   ZZ=    27.4667
   Eigenvalues:    26.8135    28.3709    36.7322
     31  O    Isotropic =   272.2686   Anisotropy =    77.1637
   XX=   304.2482   YX=    -0.0899   ZX=    37.9187
   XY=    13.4343   YY=   232.3712   ZY=    -3.4236
   XZ=    20.2296   YZ=   -10.7563   ZZ=   280.1863
   Eigenvalues:   229.4027   263.6920   323.7111
     32  H    Isotropic =    30.6154   Anisotropy =    17.9788
   XX=    38.0833   YX=     0.0341   ZX=     6.6250
   XY=    -0.4088   YY=    23.1346   ZY=    -1.6323
   XZ=     7.9876   YZ=    -1.2624   ZZ=    30.6283
   Eigenvalues:    22.7166    26.5283    42.6013
     33  H    Isotropic =    30.1538   Anisotropy =     9.8536
   XX=    30.5352   YX=     2.9894   ZX=     0.9063
   XY=     2.8859   YY=    35.1907   ZY=     1.3368
   XZ=     0.5124   YZ=     0.5488   ZZ=    24.7356
   Eigenvalues:    24.6124    29.1263    36.7229
     34  C    Isotropic =    42.5096   Anisotropy =   182.7520
   XX=    92.7472   YX=   103.5686   ZX=    -6.9406
   XY=   101.4154   YY=    11.9970   ZY=    37.0564
   XZ=    -3.3487   YZ=    34.0535   ZZ=    22.7844
   Eigenvalues:   -69.2451    32.4296   164.3442
     35  C    Isotropic =    87.8368   Anisotropy =   109.3096
   XX=   115.8236   YX=    64.4124   ZX=   -16.5773
   XY=    67.8944   YY=    62.4114   ZY=    29.4366
   XZ=   -22.5788   YZ=    42.9201   ZZ=    85.2755
   Eigenvalues:    -1.5498   104.3503   160.7099
     36  H    Isotropic =    26.4619   Anisotropy =     5.0805
   XX=    25.0336   YX=     0.1924   ZX=    -2.1321
   XY=     0.6438   YY=    25.1405   ZY=     0.2274
   XZ=    -1.2615   YZ=    -0.7915   ZZ=    29.2116
   Eigenvalues:    24.3180    25.2188    29.8489
     37  H    Isotropic =    26.5665   Anisotropy =     6.0791
   XX=    25.3111   YX=    -0.1653   ZX=    -0.3420
   XY=     0.7617   YY=    24.2290   ZY=    -1.1948
   XZ=    -2.7826   YZ=     1.3198   ZZ=    30.1593
   Eigenvalues:    24.1053    24.9749    30.6193
     38  C    Isotropic =   166.1911   Anisotropy =    44.0706
   XX=   158.9751   YX=   -24.6631   ZX=    -0.6144
   XY=   -24.0100   YY=   179.1147   ZY=    -5.3306
   XZ=    -4.7040   YZ=    -4.3800   ZZ=   160.4835
   Eigenvalues:   141.4342   161.5676   195.5715
     39  H    Isotropic =    30.3244   Anisotropy =     6.2020
   XX=    33.2084   YX=    -0.4530   ZX=    -2.6481
   XY=     0.0384   YY=    31.4422   ZY=    -1.1190
   XZ=    -3.1888   YZ=    -3.8255   ZZ=    26.3225
   Eigenvalues:    24.4306    32.0835    34.4590
     40  H    Isotropic =    30.1917   Anisotropy =     8.7484
   XX=    27.5055   YX=    -2.3886   ZX=     1.7121
   XY=    -1.6564   YY=    31.6936   ZY=    -4.8720
   XZ=     0.0151   YZ=    -3.0985   ZZ=    31.3759
   Eigenvalues:    26.4732    28.0779    36.0239
     41  H    Isotropic =    29.8380   Anisotropy =     8.2249
   XX=    27.1802   YX=     0.1751   ZX=     0.6641
   XY=     0.8584   YY=    34.6569   ZY=     2.9447
   XZ=     0.9924   YZ=     1.3202   ZZ=    27.6769
   Eigenvalues:    26.4414    27.7515    35.3213
     42  C    Isotropic =   164.9555   Anisotropy =    28.3232
   XX=   183.3526   YX=    -5.6531   ZX=     7.4408
   XY=     5.8103   YY=   154.0209   ZY=     2.1710
   XZ=    -0.3154   YZ=     1.2292   ZZ=   157.4929
   Eigenvalues:   153.2688   157.7600   183.8376
     43  H    Isotropic =    29.2338   Anisotropy =     7.2282
   XX=    30.4048   YX=    -2.3923   ZX=    -0.5898
   XY=    -2.4650   YY=    32.2262   ZY=     1.9044
   XZ=     1.1936   YZ=     1.2370   ZZ=    25.0703
   Eigenvalues:    24.6174    29.0313    34.0526
     44  H    Isotropic =    29.2264   Anisotropy =     7.3639
   XX=    29.6853   YX=     0.5840   ZX=     2.0953
   XY=    -1.0630   YY=    24.7379   ZY=    -1.5811
   XZ=     1.5470   YZ=    -0.4692   ZZ=    33.2560
   Eigenvalues:    24.6162    28.9274    34.1356
     45  C    Isotropic =   177.0003   Anisotropy =    30.5416
   XX=   182.8342   YX=     7.4511   ZX=    -2.8803
   XY=    17.9473   YY=   179.2042   ZY=    -6.9501
   XZ=   -10.5460   YZ=    -8.0335   ZZ=   168.9627
   Eigenvalues:   165.0088   168.6308   197.3614
     46  H    Isotropic =    30.2849   Anisotropy =    12.0239
   XX=    37.6933   YX=     1.6856   ZX=     0.5656
   XY=     3.5387   YY=    26.9967   ZY=    -0.2995
   XZ=    -0.8256   YZ=    -0.4701   ZZ=    26.1646
   Eigenvalues:    25.9123    26.6414    38.3008
     47  H    Isotropic =    30.6081   Anisotropy =     7.4880
   XX=    29.2283   YX=     1.7761   ZX=    -1.1373
   XY=     2.7209   YY=    27.6380   ZY=    -1.7393
   XZ=    -1.5969   YZ=    -0.4589   ZZ=    34.9579
   Eigenvalues:    26.0468    30.1773    35.6001
     48  H    Isotropic =    30.5978   Anisotropy =     7.3960
   XX=    29.4907   YX=     0.6501   ZX=    -1.2659
   XY=     1.2315   YY=    35.1416   ZY=     2.3526
   XZ=    -1.9148   YZ=     0.9068   ZZ=    27.1610
   Eigenvalues:    25.9694    30.2954    35.5284
 End of Minotr Frequency-dependent properties file   721 does not exist.
 End of Minotr Frequency-dependent properties file   722 does not exist.

 **********************************************************************

            Population analysis using the SCF density.

 **********************************************************************

 Orbital symmetries:
       Occupied  (A) (A) (A) (A) (A) (A) (A) (A) (A) (A) (A) (A)
                 (A) (A) (A) (A) (A) (A) (A) (A) (A) (A) (A) (A)
                 (A) (A) (A) (A) (A) (A) (A) (A) (A) (A) (A) (A)
                 (A) (A) (A) (A) (A) (A) (A) (A) (A) (A) (A) (A)
                 (A) (A) (A) (A) (A) (A) (A) (A) (A) (A) (A) (A)
                 (A) (A) (A) (A) (A) (A) (A) (A) (A) (A) (A) (A)
                 (A) (A) (A) (A) (A) (A) (A) (A) (A) (A) (A)
       Virtual   (A) (A) (A) (A) (A) (A) (A) (A) (A) (A) (A) (A)
                 (A) (A) (A) (A) (A) (A) (A) (A) (A) (A) (A) (A)
                 (A) (A) (A) (A) (A) (A) (A) (A) (A) (A) (A) (A)
                 (A) (A) (A) (A) (A) (A) (A) (A) (A) (A) (A) (A)
                 (A) (A) (A) (A) (A) (A) (A) (A) (A) (A) (A) (A)
                 (A) (A) (A) (A) (A) (A) (A) (A) (A) (A) (A) (A)
                 (A) (A) (A) (A) (A) (A) (A) (A) (A) (A) (A) (A)
                 (A) (A) (A) (A) (A) (A) (A) (A) (A) (A) (A) (A)
                 (A) (A) (A) (A) (A) (A) (A) (A) (A) (A) (A) (A)
                 (A) (A) (A) (A) (A) (A) (A) (A) (A) (A) (A) (A)
                 (A) (A) (A) (A) (A) (A) (A) (A) (A) (A) (A) (A)
                 (A) (A) (A) (A) (A) (A) (A) (A) (A) (A) (A) (A)
                 (A) (A) (A) (A) (A) (A) (A) (A) (A) (A) (A) (A)
                 (A) (A) (A) (A) (A) (A) (A) (A) (A) (A) (A) (A)
                 (A) (A) (A) (A) (A) (A) (A) (A) (A) (A) (A) (A)
                 (A) (A) (A) (A) (A) (A) (A) (A) (A) (A) (A) (A)
                 (A) (A) (A) (A) (A) (A) (A) (A) (A) (A) (A) (A)
                 (A) (A) (A) (A) (A) (A) (A) (A) (A) (A) (A) (A)
                 (A) (A) (A) (A) (A) (A) (A) (A) (A) (A) (A) (A)
                 (A) (A) (A) (A) (A) (A) (A) (A) (A) (A) (A) (A)
                 (A) (A) (A) (A) (A) (A) (A) (A) (A) (A) (A) (A)
                 (A) (A) (A) (A) (A) (A) (A) (A) (A) (A) (A) (A)
                 (A) (A) (A) (A) (A) (A) (A) (A) (A) (A) (A) (A)
                 (A) (A) (A) (A) (A) (A) (A) (A) (A) (A) (A) (A)
                 (A) (A) (A) (A) (A) (A) (A) (A) (A) (A) (A) (A)
                 (A) (A) (A) (A) (A) (A) (A) (A) (A) (A) (A) (A)
                 (A) (A) (A) (A) (A) (A) (A) (A) (A) (A) (A) (A)
                 (A) (A) (A) (A) (A) (A) (A) (A) (A) (A) (A) (A)
                 (A) (A) (A) (A) (A) (A) (A) (A) (A) (A) (A) (A)
                 (A) (A) (A) (A) (A) (A) (A) (A) (A) (A) (A) (A)
                 (A) (A) (A) (A) (A) (A) (A) (A) (A) (A) (A) (A)
                 (A) (A) (A) (A) (A) (A) (A) (A) (A) (A) (A) (A)
                 (A) (A) (A) (A) (A) (A) (A) (A) (A) (A) (A) (A)
                 (A) (A) (A) (A) (A) (A) (A) (A) (A) (A) (A) (A)
                 (A) (A) (A) (A) (A) (A) (A) (A) (A) (A) (A) (A)
                 (A) (A) (A) (A) (A) (A) (A) (A) (A) (A) (A) (A)
                 (A) (A) (A) (A) (A) (A) (A) (A) (A) (A) (A) (A)
                 (A) (A) (A) (A) (A) (A) (A) (A) (A) (A) (A) (A)
                 (A) (A) (A) (A) (A) (A)
 The electronic state is 1-A.
 Alpha  occ. eigenvalues --  -19.28307 -19.27057 -19.26058 -19.25933 -10.32160
 Alpha  occ. eigenvalues --  -10.31793 -10.31355 -10.31348 -10.27160 -10.26555
 Alpha  occ. eigenvalues --  -10.26478 -10.26418 -10.25933 -10.24878 -10.24771
 Alpha  occ. eigenvalues --  -10.24676 -10.24551 -10.24097 -10.23901 -10.23846
 Alpha  occ. eigenvalues --  -10.23680 -10.23607  -1.09852  -1.09030  -1.07628
 Alpha  occ. eigenvalues --   -1.05462  -0.88607  -0.86747  -0.82103  -0.81973
 Alpha  occ. eigenvalues --   -0.78442  -0.77198  -0.75764  -0.74004  -0.71007
 Alpha  occ. eigenvalues --   -0.70344  -0.67025  -0.64566  -0.63692  -0.63082
 Alpha  occ. eigenvalues --   -0.61250  -0.60376  -0.56011  -0.54262  -0.53355
 Alpha  occ. eigenvalues --   -0.51820  -0.51201  -0.50317  -0.49869  -0.48145
 Alpha  occ. eigenvalues --   -0.47232  -0.47072  -0.46195  -0.45208  -0.44637
 Alpha  occ. eigenvalues --   -0.44422  -0.44061  -0.43210  -0.42940  -0.42632
 Alpha  occ. eigenvalues --   -0.42093  -0.41250  -0.40561  -0.39777  -0.39134
 Alpha  occ. eigenvalues --   -0.38905  -0.38249  -0.38019  -0.37135  -0.37016
 Alpha  occ. eigenvalues --   -0.36562  -0.36051  -0.34965  -0.34844  -0.34224
 Alpha  occ. eigenvalues --   -0.33070  -0.32229  -0.31228  -0.30256  -0.29047
 Alpha  occ. eigenvalues --   -0.26092  -0.24261  -0.23298
 Alpha virt. eigenvalues --   -0.00458  -0.00096   0.00356   0.00537   0.01126
 Alpha virt. eigenvalues --    0.01644   0.01838   0.02615   0.03072   0.03284
 Alpha virt. eigenvalues --    0.04162   0.04336   0.04615   0.04757   0.05135
 Alpha virt. eigenvalues --    0.05623   0.05992   0.06721   0.07323   0.07450
 Alpha virt. eigenvalues --    0.07557   0.07798   0.08764   0.09027   0.09289
 Alpha virt. eigenvalues --    0.09662   0.09848   0.10174   0.10498   0.10953
 Alpha virt. eigenvalues --    0.11566   0.11850   0.12163   0.12602   0.12952
 Alpha virt. eigenvalues --    0.13303   0.13480   0.14002   0.14059   0.14547
 Alpha virt. eigenvalues --    0.15058   0.15360   0.15529   0.15850   0.16175
 Alpha virt. eigenvalues --    0.16668   0.17063   0.17270   0.17631   0.17966
 Alpha virt. eigenvalues --    0.18248   0.18540   0.19031   0.19206   0.19659
 Alpha virt. eigenvalues --    0.19748   0.19859   0.20331   0.20580   0.20892
 Alpha virt. eigenvalues --    0.21006   0.21416   0.21587   0.21754   0.21888
 Alpha virt. eigenvalues --    0.22035   0.22793   0.23210   0.23481   0.23727
 Alpha virt. eigenvalues --    0.23818   0.24313   0.24717   0.24903   0.24998
 Alpha virt. eigenvalues --    0.25208   0.25674   0.25789   0.26107   0.26525
 Alpha virt. eigenvalues --    0.26872   0.27049   0.27391   0.27723   0.28348
 Alpha virt. eigenvalues --    0.28516   0.28645   0.29050   0.29197   0.29526
 Alpha virt. eigenvalues --    0.29972   0.30363   0.30575   0.30748   0.30894
 Alpha virt. eigenvalues --    0.31624   0.32419   0.32741   0.33248   0.33299
 Alpha virt. eigenvalues --    0.34035   0.34451   0.34647   0.35083   0.35532
 Alpha virt. eigenvalues --    0.36147   0.36406   0.37014   0.37432   0.37746
 Alpha virt. eigenvalues --    0.38163   0.38716   0.39247   0.39497   0.40105
 Alpha virt. eigenvalues --    0.40358   0.41059   0.41239   0.42026   0.42385
 Alpha virt. eigenvalues --    0.43071   0.44201   0.44505   0.44598   0.45878
 Alpha virt. eigenvalues --    0.46482   0.46741   0.47419   0.47885   0.48191
 Alpha virt. eigenvalues --    0.49721   0.50672   0.51005   0.51647   0.52690
 Alpha virt. eigenvalues --    0.54509   0.60489   0.63185   0.65442   0.67899
 Alpha virt. eigenvalues --    0.68252   0.69387   0.70528   0.71016   0.71030
 Alpha virt. eigenvalues --    0.72274   0.72508   0.73170   0.73591   0.73919
 Alpha virt. eigenvalues --    0.74590   0.75485   0.76063   0.76395   0.76980
 Alpha virt. eigenvalues --    0.77520   0.78381   0.78448   0.78741   0.79609
 Alpha virt. eigenvalues --    0.80632   0.81619   0.82739   0.83749   0.84078
 Alpha virt. eigenvalues --    0.85530   0.86456   0.86539   0.87727   0.88412
 Alpha virt. eigenvalues --    0.88989   0.89530   0.89960   0.91002   0.91704
 Alpha virt. eigenvalues --    0.91735   0.92858   0.93918   0.94650   0.95828
 Alpha virt. eigenvalues --    0.96208   0.96966   0.97957   0.98752   0.99964
 Alpha virt. eigenvalues --    1.00641   1.01455   1.01610   1.02992   1.04404
 Alpha virt. eigenvalues --    1.05218   1.05754   1.06723   1.08662   1.08812
 Alpha virt. eigenvalues --    1.09568   1.10633   1.11025   1.11975   1.12232
 Alpha virt. eigenvalues --    1.13375   1.13911   1.14599   1.15071   1.15630
 Alpha virt. eigenvalues --    1.16152   1.17149   1.17778   1.18195   1.18882
 Alpha virt. eigenvalues --    1.19077   1.19735   1.20446   1.21554   1.22298
 Alpha virt. eigenvalues --    1.22691   1.23960   1.24389   1.25135   1.27172
 Alpha virt. eigenvalues --    1.28375   1.28881   1.30007   1.30596   1.31494
 Alpha virt. eigenvalues --    1.31995   1.32610   1.33746   1.34340   1.35497
 Alpha virt. eigenvalues --    1.35968   1.36426   1.37301   1.38748   1.39076
 Alpha virt. eigenvalues --    1.39345   1.40949   1.41983   1.42888   1.44004
 Alpha virt. eigenvalues --    1.45320   1.46149   1.46927   1.47142   1.47914
 Alpha virt. eigenvalues --    1.50684   1.51817   1.53217   1.53741   1.55178
 Alpha virt. eigenvalues --    1.56135   1.56367   1.58788   1.59121   1.59827
 Alpha virt. eigenvalues --    1.60661   1.61701   1.63679   1.63951   1.64751
 Alpha virt. eigenvalues --    1.65565   1.67814   1.70845   1.71530   1.72297
 Alpha virt. eigenvalues --    1.76734   1.77306   1.78239   1.79507   1.80297
 Alpha virt. eigenvalues --    1.80846   1.81667   1.82518   1.83085   1.84904
 Alpha virt. eigenvalues --    1.85164   1.86528   1.87876   1.88102   1.88481
 Alpha virt. eigenvalues --    1.89080   1.90588   1.91301   1.92212   1.92956
 Alpha virt. eigenvalues --    1.93297   1.94118   1.94861   1.95304   1.95874
 Alpha virt. eigenvalues --    1.96917   1.97741   1.97946   1.99096   1.99996
 Alpha virt. eigenvalues --    2.01722   2.03432   2.05072   2.05580   2.06427
 Alpha virt. eigenvalues --    2.06734   2.06814   2.07862   2.08512   2.09414
 Alpha virt. eigenvalues --    2.10593   2.10759   2.12355   2.13133   2.13512
 Alpha virt. eigenvalues --    2.14486   2.14859   2.15305   2.15852   2.16103
 Alpha virt. eigenvalues --    2.16981   2.18340   2.18872   2.19278   2.20502
 Alpha virt. eigenvalues --    2.21743   2.23096   2.24346   2.24597   2.26845
 Alpha virt. eigenvalues --    2.27225   2.28289   2.28623   2.29405   2.30498
 Alpha virt. eigenvalues --    2.31404   2.31705   2.32132   2.34310   2.35902
 Alpha virt. eigenvalues --    2.37234   2.37896   2.40006   2.40520   2.40687
 Alpha virt. eigenvalues --    2.41349   2.42643   2.45438   2.47962   2.48391
 Alpha virt. eigenvalues --    2.49112   2.49355   2.50646   2.51816   2.52797
 Alpha virt. eigenvalues --    2.53348   2.53999   2.54696   2.55362   2.57378
 Alpha virt. eigenvalues --    2.58068   2.58234   2.58999   2.60472   2.60774
 Alpha virt. eigenvalues --    2.61391   2.62340   2.63013   2.63827   2.64181
 Alpha virt. eigenvalues --    2.65113   2.65568   2.67745   2.69265   2.70148
 Alpha virt. eigenvalues --    2.71006   2.71764   2.72166   2.73201   2.73752
 Alpha virt. eigenvalues --    2.74375   2.75632   2.76607   2.77982   2.78375
 Alpha virt. eigenvalues --    2.80347   2.81568   2.82206   2.82564   2.83587
 Alpha virt. eigenvalues --    2.85317   2.86314   2.86616   2.87613   2.87860
 Alpha virt. eigenvalues --    2.88957   2.89613   2.90480   2.91292   2.92621
 Alpha virt. eigenvalues --    2.92705   2.93816   2.95693   2.96079   2.96557
 Alpha virt. eigenvalues --    2.99342   3.03272   3.04686   3.04993   3.08168
 Alpha virt. eigenvalues --    3.09335   3.10195   3.12110   3.16056   3.16559
 Alpha virt. eigenvalues --    3.18710   3.26508   3.28812   3.29362   3.30982
 Alpha virt. eigenvalues --    3.31805   3.35793   3.37231   3.39415   3.39946
 Alpha virt. eigenvalues --    3.42345   3.45401   3.47070   3.47292   3.49184
 Alpha virt. eigenvalues --    3.50129   3.50781   3.51518   3.52970   3.54014
 Alpha virt. eigenvalues --    3.55236   3.56087   3.58369   3.58921   3.59821
 Alpha virt. eigenvalues --    3.61363   3.63055   3.67625   3.70468   3.76619
 Alpha virt. eigenvalues --    4.36469   4.37663   4.39870   4.43471   4.47714
 Alpha virt. eigenvalues --    4.49847   4.51897   4.53257   4.54536   4.56642
 Alpha virt. eigenvalues --    4.62889   4.63941   4.66325   4.68819   4.72468
 Alpha virt. eigenvalues --    4.75392   4.77573   4.79146   4.86776   4.95434
 Alpha virt. eigenvalues --    5.00338   5.03318
          Condensed to atoms (all electrons):
              1          2          3          4          5          6
     1  C   12.701693  -1.273195   0.057729  -0.086770   0.243953  -0.018113
     2  C   -1.273195   7.139116   0.281506   0.382592   0.215721  -0.061360
     3  H    0.057729   0.281506   0.533916  -0.025110  -0.008427  -0.005243
     4  H   -0.086770   0.382592  -0.025110   0.524474  -0.098074   0.004823
     5  C    0.243953   0.215721  -0.008427  -0.098074   7.032507   0.415530
     6  H   -0.018113  -0.061360  -0.005243   0.004823   0.415530   0.536834
     7  C   -0.163815  -0.697347   0.058249   0.075558  -1.772419  -0.000914
     8  H   -0.022301   0.045438  -0.000176  -0.000151  -0.014745  -0.008828
     9  C    0.363898   0.493430   0.009664  -0.071330   1.050243  -0.059785
    10  H   -0.039399   0.014854  -0.000070   0.000057  -0.084834   0.002217
    11  C   -2.229761  -0.647476  -0.000359   0.081093   0.379149   0.061073
    12  H   -0.073952   0.022744  -0.000056   0.000605  -0.013125   0.000007
    13  C    0.428371  -0.042751   0.002913  -0.015591   0.188265  -0.033685
    14  C   -0.034066   0.010762   0.000004  -0.000110  -0.009451  -0.000302
    15  C   -0.193001   0.158896  -0.000482  -0.001270  -0.254888   0.007097
    16  C   -0.784823   0.146301   0.000412   0.003516  -0.245192  -0.003084
    17  C   -0.048360   0.011670   0.000058  -0.000105  -0.060702  -0.000550
    18  C    0.016170   0.029695  -0.000062   0.000066  -0.093318   0.003245
    19  H   -0.000551   0.000016   0.000000   0.000000   0.000005   0.000000
    20  H   -0.000069   0.000018   0.000000   0.000000   0.000091   0.000000
    21  O    0.025264   0.002029  -0.000005   0.000026   0.015714  -0.000009
    22  H    0.022892  -0.001714   0.000001  -0.000001  -0.006231   0.000000
    23  O   -0.016204   0.001807   0.000003  -0.000022   0.002036  -0.000520
    24  H    0.000061  -0.000220   0.000000   0.000000  -0.000222  -0.000004
    25  O    0.065265  -0.022691  -0.000457   0.000219   0.014249  -0.000176
    26  H   -0.066956   0.018092  -0.000011  -0.000025  -0.005363  -0.000006
    27  C   -2.890513   0.132246  -0.064314   0.038184  -0.472502   0.008092
    28  H   -0.135560   0.027998   0.000351   0.000972   0.007598  -0.000002
    29  H   -0.106412   0.020774  -0.000055   0.000099  -0.010301   0.000003
    30  H   -0.051258  -0.017361   0.002386   0.000043   0.006972   0.000000
    31  O    0.403574   0.098644  -0.013719   0.009511  -0.053772   0.009459
    32  H    0.095689  -0.095199   0.004648   0.000045   0.019210  -0.000019
    33  H    0.032514  -0.035084  -0.001827  -0.004630   0.456231  -0.027933
    34  C   -0.355444   0.003516  -0.007168   0.048745  -0.370833  -0.004260
    35  C    0.070755  -0.050813   0.004634  -0.061112   0.154699  -0.014656
    36  H   -0.001409  -0.001144  -0.000001   0.000126   0.008742   0.000004
    37  H   -0.031911   0.006467   0.000101   0.000486  -0.032058  -0.000041
    38  C    0.031338   0.034088  -0.001655   0.014271  -0.146014   0.016203
    39  H    0.000001   0.000197   0.000000   0.000001   0.004338   0.000015
    40  H   -0.000580   0.000609   0.000000   0.000000  -0.005000   0.000003
    41  H    0.001901  -0.003088  -0.000001  -0.000006   0.011237  -0.000079
    42  C    0.005996  -0.000064   0.000000  -0.000003   0.007107  -0.000008
    43  H   -0.000005   0.000000   0.000000   0.000000   0.000018   0.000000
    44  H    0.000003  -0.000001   0.000000   0.000000   0.000008   0.000000
    45  C   -0.000373  -0.000013   0.000000   0.000000  -0.000138   0.000000
    46  H    0.000000   0.000000   0.000000   0.000000   0.000000   0.000000
    47  H    0.000001   0.000000   0.000000   0.000000   0.000001   0.000000
    48  H   -0.000004   0.000000   0.000000   0.000000   0.000003   0.000000
              7          8          9         10         11         12
     1  C   -0.163815  -0.022301   0.363898  -0.039399  -2.229761  -0.073952
     2  C   -0.697347   0.045438   0.493430   0.014854  -0.647476   0.022744
     3  H    0.058249  -0.000176   0.009664  -0.000070  -0.000359  -0.000056
     4  H    0.075558  -0.000151  -0.071330   0.000057   0.081093   0.000605
     5  C   -1.772419  -0.014745   1.050243  -0.084834   0.379149  -0.013125
     6  H   -0.000914  -0.008828  -0.059785   0.002217   0.061073   0.000007
     7  C   13.325498   0.204497  -2.353050   0.186468  -0.917794   0.085324
     8  H    0.204497   0.561239   0.001169  -0.007060  -0.004283  -0.000195
     9  C   -2.353050   0.001169  18.060023   0.310231  -5.402636   0.023166
    10  H    0.186468  -0.007060   0.310231   0.532118  -0.293982   0.004301
    11  C   -0.917794  -0.004283  -5.402636  -0.293982  21.870509   0.290200
    12  H    0.085324  -0.000195   0.023166   0.004301   0.290200   0.516064
    13  C   -1.327661   0.011327   3.208895  -0.124512  -4.877566   0.061008
    14  C   -0.014145   0.001435  -0.739821   0.002051  -0.498544  -0.003716
    15  C   -0.154057   0.045544  -1.632426   0.230054  -2.702538   0.042793
    16  C    0.327575  -0.006898  -1.747394  -0.068416   0.912470  -0.076145
    17  C   -0.087648   0.000170  -1.341089  -0.010880  -0.392921  -0.024851
    18  C    0.237131   0.012138  -1.321006   0.095941  -0.369246   0.011022
    19  H    0.000248   0.000000   0.004545   0.000002   0.000644   0.000002
    20  H    0.000793   0.000006  -0.010808  -0.000002  -0.000330   0.000000
    21  O    0.002988  -0.000108  -0.093737  -0.002429   0.242501  -0.011678
    22  H   -0.002411   0.000003  -0.010593   0.000222  -0.054649  -0.001586
    23  O   -0.107082  -0.008402   0.195737   0.010831  -0.013940   0.000071
    24  H   -0.005703   0.000210   0.037639   0.000016  -0.002202   0.000000
    25  O    0.056951  -0.000590  -0.283578  -0.015395   0.381969  -0.053742
    26  H    0.021407  -0.000007  -0.029009   0.003403   0.059043   0.005709
    27  C    0.396559  -0.000069  -2.282213   0.006768   1.958252  -0.010732
    28  H   -0.007673   0.000000   0.019236  -0.000002   0.063448   0.001874
    29  H    0.005766   0.000000  -0.009076   0.000009  -0.031891   0.000286
    30  H   -0.002324   0.000000  -0.001197   0.000002   0.018431   0.000059
    31  O    0.043436  -0.000683   0.108383   0.005501  -0.319042   0.006591
    32  H   -0.001302  -0.000005  -0.029668  -0.000173   0.056143  -0.000182
    33  H   -0.173049  -0.002229   0.045929  -0.000041  -0.001525   0.000006
    34  C   -1.606855  -0.015848  -0.896759   0.040556  -0.923395   0.010126
    35  C   -0.903747  -0.007431   0.103070   0.011167  -0.979711  -0.006978
    36  H    0.018683  -0.000136  -0.011929   0.000003   0.016431   0.000082
    37  H   -0.008933  -0.000092   0.025173  -0.000040  -0.019183   0.001857
    38  C    0.943658   0.038878   0.128652   0.001806   0.378389   0.001913
    39  H    0.135089  -0.000910   0.056758  -0.000033   0.012137  -0.000007
    40  H    0.006736   0.000524  -0.009754   0.000002  -0.000884   0.000000
    41  H   -0.068635   0.001112  -0.010555   0.000006  -0.007625   0.000001
    42  C   -0.019604  -0.000429   0.056338  -0.000030  -0.026579   0.000030
    43  H    0.000532   0.000000   0.001842   0.000000  -0.000089   0.000000
    44  H   -0.000057   0.000000  -0.000187   0.000000  -0.000174   0.000000
    45  C   -0.000456  -0.000003  -0.007567   0.000032  -0.006919   0.000006
    46  H    0.000008   0.000000   0.000183   0.000000   0.000029   0.000000
    47  H   -0.000065   0.000000  -0.000538   0.000000  -0.000087   0.000000
    48  H    0.000051   0.000000   0.000493   0.000000  -0.000013   0.000000
             13         14         15         16         17         18
     1  C    0.428371  -0.034066  -0.193001  -0.784823  -0.048360   0.016170
     2  C   -0.042751   0.010762   0.158896   0.146301   0.011670   0.029695
     3  H    0.002913   0.000004  -0.000482   0.000412   0.000058  -0.000062
     4  H   -0.015591  -0.000110  -0.001270   0.003516  -0.000105   0.000066
     5  C    0.188265  -0.009451  -0.254888  -0.245192  -0.060702  -0.093318
     6  H   -0.033685  -0.000302   0.007097  -0.003084  -0.000550   0.003245
     7  C   -1.327661  -0.014145  -0.154057   0.327575  -0.087648   0.237131
     8  H    0.011327   0.001435   0.045544  -0.006898   0.000170   0.012138
     9  C    3.208895  -0.739821  -1.632426  -1.747394  -1.341089  -1.321006
    10  H   -0.124512   0.002051   0.230054  -0.068416  -0.010880   0.095941
    11  C   -4.877566  -0.498544  -2.702538   0.912470  -0.392921  -0.369246
    12  H    0.061008  -0.003716   0.042793  -0.076145  -0.024851   0.011022
    13  C   18.549483  -0.675507   0.533607  -4.111077  -3.488668  -2.294760
    14  C   -0.675507  10.214108  -0.662737  -0.992439   1.387619  -0.184719
    15  C    0.533607  -0.662737  10.605164  -1.044762  -0.301961   0.480277
    16  C   -4.111077  -0.992439  -1.044762  12.839507   2.910694  -1.841463
    17  C   -3.488668   1.387619  -0.301961   2.910694  10.118945  -1.977018
    18  C   -2.294760  -0.184719   0.480277  -1.841463  -1.977018  12.748545
    19  H    0.093955   0.014390  -0.011569  -0.034583   0.263897   0.026760
    20  H    0.072686   0.066314  -0.045556  -0.006200   0.001388   0.266581
    21  O   -0.376611   0.157299  -0.064706   0.126662   0.040901  -0.027055
    22  H   -0.111783  -0.016424   0.009320   0.124065   0.062785  -0.010372
    23  O   -0.203814   0.006989   0.192664   0.063676  -0.003648  -0.079299
    24  H    0.146731   0.010090   0.053681  -0.002282  -0.003160  -0.231071
    25  O   -0.139521  -0.001476  -0.166845   0.157089   0.073253  -0.058026
    26  H   -0.033443  -0.000789   0.021425   0.001033  -0.003786   0.005911
    27  C   -0.688825   0.001392  -0.100116   0.203875   0.009428   0.003383
    28  H   -0.000742  -0.000045  -0.000310   0.000449  -0.000275  -0.000021
    29  H   -0.000813   0.000044   0.000105   0.001861   0.000350   0.000010
    30  H   -0.000123  -0.000004   0.000157  -0.000786  -0.000062   0.000012
    31  O   -0.016936  -0.000201  -0.004118   0.000385  -0.002273   0.000152
    32  H   -0.003202  -0.000032  -0.002336  -0.002147  -0.000123  -0.000114
    33  H    0.009192   0.000226  -0.006247   0.000206   0.000008  -0.000879
    34  C    0.713914   0.087456   0.751772   0.129186   0.228480   0.017734
    35  C    0.927900  -0.025746   0.220885  -0.606371  -0.081568   0.067924
    36  H   -0.000710  -0.000664  -0.002404  -0.003107  -0.001390   0.000943
    37  H   -0.011556   0.000121   0.001213   0.023544   0.001831  -0.001042
    38  C   -0.489808  -0.021469  -0.238330   0.101087  -0.049230   0.082548
    39  H   -0.022368   0.001449  -0.033854   0.003658  -0.010131  -0.003249
    40  H   -0.001291   0.000010   0.003600   0.003104   0.000917   0.003547
    41  H    0.004044  -0.000632   0.017628  -0.004354   0.000387   0.005285
    42  C   -0.500353  -1.778962   0.150314   0.012310  -0.320739   0.353506
    43  H   -0.001752  -0.254256   0.058781  -0.026848  -0.101716   0.146190
    44  H   -0.003202  -0.249223  -0.026695   0.045516   0.139455  -0.082954
    45  C    0.012683   0.006892   0.003490  -0.007353   0.053017  -0.000874
    46  H    0.002428   0.018836   0.001413   0.002905   0.004747   0.010775
    47  H   -0.005378  -0.054045  -0.007257   0.001088   0.015225  -0.009604
    48  H   -0.000531  -0.052383   0.005037  -0.008357  -0.014995   0.018860
             19         20         21         22         23         24
     1  C   -0.000551  -0.000069   0.025264   0.022892  -0.016204   0.000061
     2  C    0.000016   0.000018   0.002029  -0.001714   0.001807  -0.000220
     3  H    0.000000   0.000000  -0.000005   0.000001   0.000003   0.000000
     4  H    0.000000   0.000000   0.000026  -0.000001  -0.000022   0.000000
     5  C    0.000005   0.000091   0.015714  -0.006231   0.002036  -0.000222
     6  H    0.000000   0.000000  -0.000009   0.000000  -0.000520  -0.000004
     7  C    0.000248   0.000793   0.002988  -0.002411  -0.107082  -0.005703
     8  H    0.000000   0.000006  -0.000108   0.000003  -0.008402   0.000210
     9  C    0.004545  -0.010808  -0.093737  -0.010593   0.195737   0.037639
    10  H    0.000002  -0.000002  -0.002429   0.000222   0.010831   0.000016
    11  C    0.000644  -0.000330   0.242501  -0.054649  -0.013940  -0.002202
    12  H    0.000002   0.000000  -0.011678  -0.001586   0.000071   0.000000
    13  C    0.093955   0.072686  -0.376611  -0.111783  -0.203814   0.146731
    14  C    0.014390   0.066314   0.157299  -0.016424   0.006989   0.010090
    15  C   -0.011569  -0.045556  -0.064706   0.009320   0.192664   0.053681
    16  C   -0.034583  -0.006200   0.126662   0.124065   0.063676  -0.002282
    17  C    0.263897   0.001388   0.040901   0.062785  -0.003648  -0.003160
    18  C    0.026760   0.266581  -0.027055  -0.010372  -0.079299  -0.231071
    19  H    0.514692  -0.000138  -0.006858   0.000160   0.000111   0.000000
    20  H   -0.000138   0.520108   0.000082   0.000000  -0.017463   0.008307
    21  O   -0.006858   0.000082   8.326610   0.213225  -0.002236   0.000027
    22  H    0.000160   0.000000   0.213225   0.328602  -0.000110   0.000000
    23  O    0.000111  -0.017463  -0.002236  -0.000110   8.328797   0.200840
    24  H    0.000000   0.008307   0.000027   0.000000   0.200840   0.362651
    25  O   -0.000040   0.000002  -0.007676   0.033340  -0.000215  -0.000013
    26  H    0.000000   0.000000  -0.000749  -0.000033  -0.000070   0.000000
    27  C    0.000007   0.000000   0.004620  -0.008075  -0.004370  -0.000025
    28  H    0.000000   0.000000  -0.000005  -0.000005   0.000001   0.000000
    29  H    0.000000   0.000000  -0.000022  -0.000013   0.000000   0.000000
    30  H    0.000000   0.000000   0.000012   0.000000   0.000000   0.000000
    31  O    0.000000   0.000000   0.001264  -0.000506  -0.001608  -0.000003
    32  H    0.000000   0.000000   0.000021   0.000000   0.000011   0.000000
    33  H    0.000000   0.000000   0.000006   0.000000   0.000032   0.000000
    34  C   -0.001117   0.000333  -0.042843   0.006572   0.008908   0.005660
    35  C    0.000447   0.000249  -0.005032  -0.003329  -0.005533   0.000659
    36  H    0.000000   0.000000  -0.000003  -0.000001  -0.000005   0.000000
    37  H    0.000000   0.000000   0.000050   0.000000   0.000005   0.000000
    38  C    0.000055   0.000292   0.001323  -0.000153  -0.006065  -0.001641
    39  H    0.000000  -0.000025   0.000128  -0.000001   0.000193  -0.000069
    40  H    0.000000   0.000000  -0.000068   0.000000  -0.000065   0.000001
    41  H    0.000000   0.000000  -0.000019   0.000000   0.000006   0.000004
    42  C   -0.040701  -0.030876   0.012702  -0.002761  -0.001267   0.001124
    43  H    0.000090   0.002141   0.000034   0.000000   0.000063   0.000000
    44  H    0.001753   0.000067   0.000019   0.000000   0.000042   0.000000
    45  C    0.005659   0.006944   0.000701   0.000111  -0.000304   0.000193
    46  H   -0.000027  -0.000032   0.000000   0.000000   0.000001   0.000000
    47  H    0.000006   0.000160   0.000004   0.000000   0.000015   0.000001
    48  H    0.000139   0.000011   0.000022   0.000000   0.000009   0.000000
             25         26         27         28         29         30
     1  C    0.065265  -0.066956  -2.890513  -0.135560  -0.106412  -0.051258
     2  C   -0.022691   0.018092   0.132246   0.027998   0.020774  -0.017361
     3  H   -0.000457  -0.000011  -0.064314   0.000351  -0.000055   0.002386
     4  H    0.000219  -0.000025   0.038184   0.000972   0.000099   0.000043
     5  C    0.014249  -0.005363  -0.472502   0.007598  -0.010301   0.006972
     6  H   -0.000176  -0.000006   0.008092  -0.000002   0.000003   0.000000
     7  C    0.056951   0.021407   0.396559  -0.007673   0.005766  -0.002324
     8  H   -0.000590  -0.000007  -0.000069   0.000000   0.000000   0.000000
     9  C   -0.283578  -0.029009  -2.282213   0.019236  -0.009076  -0.001197
    10  H   -0.015395   0.003403   0.006768  -0.000002   0.000009   0.000002
    11  C    0.381969   0.059043   1.958252   0.063448  -0.031891   0.018431
[...]
    18  C   -0.065596   0.005177  -0.001851  -0.000017  -0.000024   0.000014
    19  H   -0.000023   0.000000  -0.000018   0.000000   0.000000   0.000000
    20  H   -0.000001   0.000000   0.000000   0.000000   0.000000   0.000000
    21  O   -0.012396   0.000781   0.007102  -0.000035   0.000035   0.000003
    22  H    0.033733  -0.000364  -0.006352  -0.000005  -0.000024   0.000000
    23  O   -0.000498  -0.000063  -0.003215   0.000000   0.000000   0.000000
    24  H   -0.000007   0.000000  -0.000004   0.000000   0.000000   0.000000
    25  O    8.426712   0.242889  -0.008039  -0.002301   0.004525  -0.000663
    26  H    0.242889   0.320860   0.009703   0.000149   0.000268   0.000019
    27  C   -0.008039   0.009703   8.223606   0.426875   0.507299   0.455243
    28  H   -0.002301   0.000149   0.426875   0.530602  -0.026220  -0.026184
    29  H    0.004525   0.000268   0.507299  -0.026220   0.532610  -0.029862
    30  H   -0.000663   0.000019   0.455243  -0.026184  -0.029862   0.534524
    31  O   -0.000870   0.020774  -0.224215   0.008337  -0.000302  -0.011588
    32  H   -0.000122  -0.000480  -0.011520   0.000052  -0.000608   0.003105
    33  H    0.000051   0.000000  -0.008806  -0.000003   0.000002  -0.000004
    34  C   -0.028382  -0.001348   0.070165  -0.002138  -0.001451   0.000247
    35  C    0.000929  -0.000213  -0.087195   0.005051   0.000666  -0.000391
    36  H   -0.000004   0.000000  -0.000344   0.000000   0.000000   0.000000
    37  H    0.000429  -0.000004   0.006871   0.000190   0.000002   0.000002
    38  C    0.000553  -0.000093   0.036502  -0.000572  -0.000107   0.000040
    39  H    0.000036   0.000000   0.000056   0.000000   0.000000   0.000000
    40  H   -0.000002   0.000000   0.000140   0.000000   0.000000   0.000000
    41  H   -0.000005   0.000000  -0.000175   0.000000   0.000000   0.000000
    42  C   -0.003090   0.000005   0.000178   0.000000   0.000000   0.000000
    43  H    0.000000   0.000000   0.000000   0.000000   0.000000   0.000000
    44  H    0.000000   0.000000   0.000000   0.000000   0.000000   0.000000
    45  C    0.000051   0.000000  -0.000027   0.000000   0.000000   0.000000
    46  H    0.000000   0.000000   0.000000   0.000000   0.000000   0.000000
    47  H    0.000000   0.000000   0.000000   0.000000   0.000000   0.000000
    48  H    0.000001   0.000000   0.000000   0.000000   0.000000   0.000000
             31         32         33         34         35         36
     1  C    0.329533   0.029263   0.059020  -0.395425   0.181376   0.002248
     2  C    0.122502  -0.061939  -0.098942   0.077509  -0.181333  -0.002753
     3  H   -0.016085   0.004560  -0.001408  -0.006363   0.008248  -0.000002
     4  H    0.008248   0.000077  -0.005035   0.025830  -0.049125   0.000132
     5  C   -0.054541   0.011864   0.567667  -0.493490   0.138124   0.009686
     6  H    0.009136  -0.000073  -0.032629  -0.019801   0.001694   0.000005
     7  C    0.044630  -0.005867  -0.175047  -1.313767  -1.254288  -0.003251
     8  H   -0.000598  -0.000006  -0.002740  -0.037673  -0.021823  -0.000146
     9  C    0.120210  -0.018547   0.045233  -1.226039  -0.140087  -0.009063
    10  H    0.005028  -0.000185  -0.000025   0.045937   0.017309   0.000004
    11  C   -0.369674   0.061793   0.011222  -0.838280  -1.058297   0.009204
    12  H    0.006398  -0.000173   0.000011  -0.003153  -0.001701   0.000100
    13  C   -0.013453  -0.002192   0.003143   0.416055   0.918587   0.005526
    14  C   -0.000151  -0.000012   0.000133   0.125054  -0.026074  -0.000866
    15  C    0.002996  -0.002630  -0.008454   0.843741   0.316509  -0.000950
    16  C   -0.012727   0.000351  -0.002909   0.466741  -0.805317  -0.008998
    17  C   -0.002251  -0.000016  -0.000213   0.383573  -0.129587  -0.002940
    18  C    0.001586  -0.000177  -0.000919   0.027091   0.137244   0.001283
    19  H    0.000000   0.000000   0.000000  -0.000721   0.000458   0.000000
    20  H    0.000000   0.000000   0.000000   0.000138   0.000240   0.000000
    21  O    0.001193   0.000008   0.000012  -0.064260   0.014043   0.000125
    22  H   -0.000400   0.000000   0.000000   0.008471  -0.005463  -0.000001
    23  O   -0.001696   0.000006   0.000047  -0.017622  -0.008978  -0.000007
    24  H   -0.000005   0.000000   0.000000   0.003331   0.000583   0.000000
    25  O   -0.000870  -0.000122   0.000051  -0.028382   0.000929  -0.000004
    26  H    0.020774  -0.000480   0.000000  -0.001348  -0.000213   0.000000
    27  C   -0.224215  -0.011520  -0.008806   0.070165  -0.087195  -0.000344
    28  H    0.008337   0.000052  -0.000003  -0.002138   0.005051   0.000000
    29  H   -0.000302  -0.000608   0.000002  -0.001451   0.000666   0.000000
    30  H   -0.011588   0.003105  -0.000004   0.000247  -0.000391   0.000000
    31  O    8.488264   0.244158  -0.001206  -0.016028  -0.016216   0.000005
    32  H    0.244158   0.328514   0.000009   0.001522   0.000070   0.000000
    33  H   -0.001206   0.000009   0.568761  -0.042779  -0.006791  -0.000030
    34  C   -0.016028   0.001522  -0.042779  10.232829  -0.348735  -0.178219
    35  C   -0.016216   0.000070  -0.006791  -0.348735   9.255473   0.565238
    36  H    0.000005   0.000000  -0.000030  -0.178219   0.565238   0.540977
    37  H   -0.000180   0.000001   0.000162  -0.132215   0.568434  -0.036641
    38  C    0.010336  -0.000199  -0.018221  -1.390772  -1.386721  -0.037599
    39  H    0.000007   0.000000  -0.000007  -0.281267  -0.056500   0.000212
    40  H    0.000000   0.000000  -0.000059  -0.123547  -0.022497   0.003262
    41  H   -0.000009   0.000000   0.000487  -0.018200   0.015157   0.000213
    42  C    0.000088   0.000000   0.000008   0.024324  -0.010583  -0.000030
    43  H    0.000000   0.000000   0.000000  -0.000140  -0.000006   0.000000
    44  H    0.000000   0.000000   0.000000   0.000096  -0.000034   0.000000
    45  C   -0.000003   0.000000   0.000000   0.003576   0.001707   0.000000
    46  H    0.000000   0.000000   0.000000  -0.000006  -0.000002   0.000000
    47  H    0.000000   0.000000   0.000000   0.000044   0.000000   0.000000
    48  H    0.000000   0.000000   0.000000  -0.000035  -0.000011   0.000000
             37         38         39         40         41         42
     1  C   -0.016965  -0.032481   0.000033  -0.000143   0.001373   0.004067
     2  C    0.003015   0.099807   0.000173   0.000235  -0.003766  -0.001172
     3  H    0.000125  -0.003558   0.000000   0.000000  -0.000001   0.000001
     4  H    0.000457   0.010712   0.000001   0.000001  -0.000006  -0.000004
     5  C   -0.033821  -0.180226   0.009561  -0.010675   0.014408   0.010131
     6  H   -0.000047   0.005628   0.000016   0.000003  -0.000087   0.000000
     7  C   -0.013631   1.029753   0.120506  -0.003074  -0.061193  -0.024065
     8  H   -0.000108   0.060713  -0.000632   0.000636   0.001235  -0.000306
     9  C    0.015114   0.170199   0.053538  -0.009003  -0.017472   0.043049
    10  H   -0.000043   0.000304  -0.000036   0.000002   0.000005  -0.000388
    11  C   -0.030934   0.322588   0.013960  -0.001190  -0.009132  -0.017005
    12  H    0.001589   0.001914  -0.000007   0.000000   0.000001  -0.000118
    13  C   -0.007264  -0.455502  -0.019525   0.004088  -0.002537  -0.701504
    14  C   -0.000151  -0.025670  -0.000513  -0.000636   0.000399  -1.762087
    15  C   -0.002279  -0.231787  -0.040860   0.001989   0.021761   0.192105
    16  C    0.012726   0.128823  -0.003180   0.001368  -0.001970  -0.107346
    17  C    0.002286  -0.042095  -0.010844   0.001138   0.000503  -0.423543
    18  C   -0.001491   0.095148   0.000240   0.003303   0.007736   0.402944
    19  H    0.000000   0.000145   0.000000   0.000000   0.000000  -0.053564
    20  H    0.000000   0.000126  -0.000023   0.000000   0.000000  -0.037010
    21  O    0.000144  -0.003333   0.000192  -0.000069  -0.000032   0.010619
    22  H    0.000000   0.000096  -0.000001   0.000000   0.000000  -0.002612
    23  O    0.000019   0.002828  -0.000084   0.000026   0.000001   0.005696
    24  H    0.000000  -0.001069  -0.000074   0.000001   0.000004  -0.000536
    25  O    0.000429   0.000553   0.000036  -0.000002  -0.000005  -0.003090
    26  H   -0.000004  -0.000093   0.000000   0.000000   0.000000   0.000005
    27  C    0.006871   0.036502   0.000056   0.000140  -0.000175   0.000178
    28  H    0.000190  -0.000572   0.000000   0.000000   0.000000   0.000000
    29  H    0.000002  -0.000107   0.000000   0.000000   0.000000   0.000000
    30  H    0.000002   0.000040   0.000000   0.000000   0.000000   0.000000
    31  O   -0.000180   0.010336   0.000007   0.000000  -0.000009   0.000088
    32  H    0.000001  -0.000199   0.000000   0.000000   0.000000   0.000000
    33  H    0.000162  -0.018221  -0.000007  -0.000059   0.000487   0.000008
    34  C   -0.132215  -1.390772  -0.281267  -0.123547  -0.018200   0.024324
    35  C    0.568434  -1.386721  -0.056500  -0.022497   0.015157  -0.010583
    36  H   -0.036641  -0.037599   0.000212   0.003262   0.000213  -0.000030
    37  H    0.545917  -0.027942  -0.000206   0.000186  -0.000189  -0.000038
    38  C   -0.027942   7.117051   0.562793   0.510236   0.399672  -0.014721
    39  H   -0.000206   0.562793   0.538347  -0.026887  -0.028791  -0.003033
    40  H    0.000186   0.510236  -0.026887   0.544508  -0.027122   0.000014
    41  H   -0.000189   0.399672  -0.028791  -0.027122   0.537811   0.000261
    42  C   -0.000038  -0.014721  -0.003033   0.000014   0.000261   7.469868
    43  H    0.000000  -0.000056   0.000000   0.000000   0.000000   0.539705
    44  H    0.000000  -0.000044   0.000000   0.000000   0.000000   0.529665
    45  C    0.000002  -0.002281  -0.000153   0.000004   0.000002   0.141762
    46  H    0.000000   0.000000   0.000000   0.000000   0.000000  -0.049807
    47  H    0.000000  -0.000014   0.000000   0.000000   0.000000  -0.034762
    48  H    0.000000   0.000005   0.000000   0.000000   0.000000  -0.037492
             43         44         45         46         47         48
     1  C   -0.000005   0.000000  -0.000479   0.000000   0.000000  -0.000008
     2  C    0.000001  -0.000001   0.000020   0.000000   0.000000   0.000000
     3  H    0.000000   0.000000   0.000000   0.000000   0.000000   0.000000
     4  H    0.000000   0.000000   0.000000   0.000000   0.000000   0.000000
     5  C    0.000014   0.000009  -0.000271   0.000001  -0.000001   0.000001
     6  H    0.000000   0.000000   0.000000   0.000000   0.000000   0.000000
     7  C    0.000494   0.000068   0.001377   0.000012  -0.000077   0.000048
     8  H    0.000000   0.000000  -0.000008   0.000000   0.000000   0.000000
     9  C    0.000601  -0.000201  -0.013556   0.000195  -0.000896   0.000451
    10  H    0.000000   0.000000   0.000057   0.000000   0.000000   0.000000
    11  C   -0.000180  -0.000134  -0.007504   0.000033  -0.000109  -0.000018
    12  H    0.000000   0.000000   0.000007   0.000000   0.000000   0.000000
    13  C   -0.008843  -0.007358  -0.014719   0.001537  -0.004656  -0.003526
    14  C   -0.214551  -0.204436   0.100316  -0.039011   0.013336   0.018243
    15  C    0.038769  -0.021556  -0.004817   0.001041  -0.026485   0.014592
    16  C   -0.023520   0.027363  -0.035130   0.005304   0.005039  -0.032802
    17  C   -0.079008   0.080323   0.024944   0.007328   0.038056  -0.060073
    18  C    0.087870  -0.061389  -0.012850   0.009703  -0.053838   0.038716
    19  H    0.000118   0.002122   0.003227  -0.000032   0.000009   0.000172
    20  H    0.002415   0.000098   0.003382  -0.000037   0.000189   0.000016
    21  O    0.000028   0.000020   0.000758  -0.000001   0.000008   0.000044
    22  H    0.000000   0.000000   0.000119   0.000000   0.000000   0.000000
    23  O    0.000055   0.000039  -0.000525   0.000000   0.000037   0.000010
    24  H   -0.000001   0.000000   0.000189   0.000000   0.000000   0.000000
    25  O    0.000000   0.000000   0.000051   0.000000   0.000000   0.000001
    26  H    0.000000   0.000000   0.000000   0.000000   0.000000   0.000000
    27  C    0.000000   0.000000  -0.000027   0.000000   0.000000   0.000000
    28  H    0.000000   0.000000   0.000000   0.000000   0.000000   0.000000
    29  H    0.000000   0.000000   0.000000   0.000000   0.000000   0.000000
    30  H    0.000000   0.000000   0.000000   0.000000   0.000000   0.000000
    31  O    0.000000   0.000000  -0.000003   0.000000   0.000000   0.000000
    32  H    0.000000   0.000000   0.000000   0.000000   0.000000   0.000000
    33  H    0.000000   0.000000   0.000000   0.000000   0.000000   0.000000
    34  C   -0.000140   0.000096   0.003576  -0.000006   0.000044  -0.000035
    35  C   -0.000006  -0.000034   0.001707  -0.000002   0.000000  -0.000011
    36  H    0.000000   0.000000   0.000000   0.000000   0.000000   0.000000
    37  H    0.000000   0.000000   0.000002   0.000000   0.000000   0.000000
    38  C   -0.000056  -0.000044  -0.002281   0.000000  -0.000014   0.000005
    39  H    0.000000   0.000000  -0.000153   0.000000   0.000000   0.000000
    40  H    0.000000   0.000000   0.000004   0.000000   0.000000   0.000000
    41  H    0.000000   0.000000   0.000002   0.000000   0.000000   0.000000
    42  C    0.539705   0.529665   0.141762  -0.049807  -0.034762  -0.037492
    43  H    0.567369  -0.033459  -0.025393  -0.003312  -0.004930   0.004901
    44  H   -0.033459   0.565179  -0.024729  -0.003325   0.004872  -0.004955
    45  C   -0.025393  -0.024729   5.190254   0.422423   0.420071   0.417177
    46  H   -0.003312  -0.003325   0.422423   0.550168  -0.026989  -0.026894
    47  H   -0.004930   0.004872   0.420071  -0.026989   0.542365  -0.028633
    48  H    0.004901  -0.004955   0.417177  -0.026894  -0.028633   0.542844
 Mulliken atomic charges:
              1
     1  C    0.207368
     2  C   -0.373217
     3  H    0.157765
     4  H    0.164833
     5  C   -0.471941
     6  H    0.155178
     7  C    0.258422
     8  H    0.148027
     9  C    0.067328
    10  H    0.163086
    11  C    0.141584
    12  H    0.182361
    13  C    0.461064
    14  C   -0.017689
    15  C    0.293425
    16  C   -0.361546
    17  C   -0.913358
    18  C    0.032258
    19  H    0.147572
    20  H    0.150571
    21  O   -0.613155
    22  H    0.446522
    23  O   -0.618661
    24  H    0.450245
    25  O   -0.648046
    26  H    0.416224
    27  C   -0.272066
    28  H    0.166685
    29  H    0.164683
    30  H    0.163653
    31  O   -0.681234
    32  H    0.419395
    33  H    0.150258
    34  C    0.225580
    35  C   -0.529174
    36  H    0.143622
    37  H    0.146475
    38  C   -0.710909
    39  H    0.172953
    40  H    0.153765
    41  H    0.169656
    42  C   -0.089674
    43  H    0.151065
    44  H    0.151769
    45  C   -0.588979
    46  H    0.151670
    47  H    0.157363
    48  H    0.157224
 Sum of Mulliken atomic charges =   0.00000
 Mulliken charges with hydrogens summed into heavy atoms:
              1
     1  C    0.207368
     2  C   -0.050619
     5  C   -0.166504
     7  C    0.406449
     9  C    0.230414
    11  C    0.323945
    13  C    0.461064
    14  C   -0.017689
    15  C    0.293425
    16  C   -0.361546
    17  C   -0.765786
    18  C    0.182829
    21  O   -0.166633
    23  O   -0.168416
    25  O   -0.231821
    27  C    0.222955
    31  O   -0.261839
    34  C    0.225580
    35  C   -0.239078
    38  C   -0.214535
    42  C    0.213159
    45  C   -0.122723
 Sum of Mulliken charges with hydrogens summed into heavy atoms =   0.00000
 Electronic spatial extent (au):  <R**2>=           7209.2659
 Charge=              0.0000 electrons
 Dipole moment (field-independent basis, Debye):
    X=              2.2800    Y=              2.7448    Z=              3.6269  Tot=              5.0879
 Quadrupole moment (field-independent basis, Debye-Ang):
   XX=           -102.2075   YY=           -137.0447   ZZ=           -135.1157
   XY=             -7.8897   XZ=             -4.0139   YZ=              1.0049
 Traceless Quadrupole moment (field-independent basis, Debye-Ang):
   XX=             22.5818   YY=            -12.2554   ZZ=            -10.3264
   XY=             -7.8897   XZ=             -4.0139   YZ=              1.0049
 Octapole moment (field-independent basis, Debye-Ang**2):
  XXX=             58.5720  YYY=              1.9208  ZZZ=             34.9191  XYY=              3.1956
  XXY=             -8.2538  XXZ=             40.4288  XZZ=             -3.7551  YZZ=             11.9410
  YYZ=             22.1854  XYZ=            -14.0604
 Hexadecapole moment (field-independent basis, Debye-Ang**3):
 XXXX=          -5947.7576 YYYY=          -2015.8747 ZZZZ=          -1069.2083 XXXY=           -174.9792
 XXXZ=            149.0614 YYYX=            -52.6826 YYYZ=              0.4254 ZZZX=            -42.1003
 ZZZY=             27.7367 XXYY=          -1467.4022 XXZZ=          -1208.4464 YYZZ=           -504.7532
 XXYZ=             50.6800 YYXZ=              6.5821 ZZXY=            -64.9590
 N-N= 1.982961265078D+03 E-N=-6.299112146263D+03  KE= 9.931498923331D+02

 Test job not archived.
 1\1\GINC-COMPUTE-8-17\SP\RB3LYP\6-31+G(d,p)\C18H26O4\LPASSAGLIA.IQUIR\
 23-Dec-2022\0\\# B3LYP/6-31+G** geom=allcheck test scrf=(pcm,solvent=w
 ater,smd,dovacuum)\\comment\\0,1\C,0,1.545280438,2.547094039,-1.522895
 379\C,0,0.87483376,3.552604985,-0.581565043\H,0,1.472106441,4.47231152
 7,-0.532663137\H,0,-0.106097691,3.843249382,-0.971482713\C,0,0.7281861
 51,3.015731723,0.83885089\H,0,1.729337932,2.954801345,1.287013201\C,0,
 0.072550153,1.622681958,0.938147121\H,0,0.312950528,1.305464462,1.9617
 45105\C,0,0.762169494,0.593591183,-0.022715773\H,0,1.810249611,0.50456
 0328,0.304889589\C,0,0.850293956,1.164111175,-1.461789098\H,0,-0.14178
 2187,1.248870647,-1.911756374\C,0,0.209491529,-0.834011334,0.153611034
 \C,0,-0.918597236,-3.40425934,0.705842185\C,0,0.40910841,-1.494028136,
 1.384778883\C,0,-0.506311897,-1.553800268,-0.814947958\C,0,-1.08205272
 5,-2.799501039,-0.541353663\C,0,-0.144394568,-2.749622652,1.664606688\
 H,0,-1.640821337,-3.303600107,-1.326942068\H,0,0.020894558,-3.22377975
 1,2.627777444\O,0,-0.653266439,-1.138357274,-2.108548239\H,0,0.2337857
 82,-0.820583086,-2.39089001\O,0,1.187266686,-0.89614921,2.343402978\H,
 0,1.263574977,-1.495281888,3.103430157\O,0,1.601465059,0.241379996,-2.
 283159787\H,0,2.534805608,0.391860438,-2.019288573\C,0,1.563578724,3.0
 94200069,-2.955293283\H,0,0.550305029,3.213323053,-3.352419784\H,0,2.1
 26403189,2.436180652,-3.626479114\H,0,2.064557318,4.068492341,-2.99250
 3058\O,0,2.915809407,2.360272274,-1.125873247\H,0,3.351755671,3.231000
 358,-1.147714633\H,0,0.172955194,3.742427801,1.445401346\C,0,-1.460144
 481,1.68523913,0.897538569\C,0,-2.209738346,2.059705946,-0.152604041\H
 ,0,-3.295113388,2.064924994,-0.092717571\H,0,-1.79758378,2.360156109,-
 1.105477411\C,0,-2.141930237,1.281014923,2.18324358\H,0,-1.896565992,0
 .245897146,2.43926266\H,0,-3.232743432,1.353971705,2.116857781\H,0,-1.
 817653521,1.93068138,3.002931987\C,0,-1.518656849,-4.756402794,0.98671
 0962\H,0,-1.782102204,-4.828990519,2.048979403\H,0,-2.459550683,-4.864
 780869,0.43346002\C,0,-0.570563834,-5.885992565,0.614151922\H,0,-1.033
 039225,-6.854506566,0.829097433\H,0,0.364542874,-5.823257942,1.1810016
 99\H,0,-0.319548427,-5.85889573,-0.451652678\\Version=EM64L-G09RevC.01
 \State=1-A\HF=-1002.542468\RMSD=3.612e-09\Dipole=0.9283323,1.0911606,1
 .3980247\Quadrupole=-6.7609295,9.8267192,-3.0657897,6.2371876,-2.52855
 2,-11.6041552\PG=C01 [X(C18H26O4)]\\@


 WHEN A MATHEMATICIAN ENGAGED IN INVESTIGATING
 PHYSICAL ACTIONS AND RESULTS HAS ARRIVED AT HIS
 CONCLUSIONS, MAY THEY NOT BE EXPRESSED IN COMMON
 LANGUAGE AS FULLY, CLEARLY, AND DEFINITELY AS IN
 MATHEMATICAL FORMULAE?
           - LETTER FROM M. FARADAY TO J.C. MAXWELL, 1857.
 Job cpu time:  0 days  2 hours 24 minutes 39.8 seconds.
 File lengths (MBytes):  RWF=    239 Int=      0 D2E=      0 Chk=     19 Scr=      1
 Normal termination of Gaussian 09 at Fri Dec 23 15:45:32 2022.
