 Entering Gaussian System, Link 0=g09
 Input=/home/lpassaglia.iquir/Link1/04_RSSR_THC_010.gjc
 Output=/home/lpassaglia.iquir/Link1/04_RSSR_THC_010.log
 Initial command:
 /share/apps/Gaussian09/EM64T.SSE4.2-enabled/g09/l1.exe /tmp/Gau-21309.inp -scrdir=/tmp/
 Entering Link 1 = /share/apps/Gaussian09/EM64T.SSE4.2-enabled/g09/l1.exe PID=     21318.
  
 Copyright (c) 1988,1990,1992,1993,1995,1998,2003,2009,2011,
            Gaussian, Inc.  All Rights Reserved.
  
 This is part of the Gaussian(R) 09 program.  It is based on
 the Gaussian(R) 03 system (copyright 2003, Gaussian, Inc.),
 the Gaussian(R) 98 system (copyright 1998, Gaussian, Inc.),
 the Gaussian(R) 94 system (copyright 1995, Gaussian, Inc.),
 the Gaussian 92(TM) system (copyright 1992, Gaussian, Inc.),
 the Gaussian 90(TM) system (copyright 1990, Gaussian, Inc.),
 the Gaussian 88(TM) system (copyright 1988, Gaussian, Inc.),
 the Gaussian 86(TM) system (copyright 1986, Carnegie Mellon
 University), and the Gaussian 82(TM) system (copyright 1983,
 Carnegie Mellon University). Gaussian is a federally registered
 trademark of Gaussian, Inc.
  
 This software contains proprietary and confidential information,
 including trade secrets, belonging to Gaussian, Inc.
  
 This software is provided under written license and may be
 used, copied, transmitted, or stored only in accord with that
 written license.
  
 The following legend is applicable only to US Government
 contracts under FAR:
  
                    RESTRICTED RIGHTS LEGEND
  
 Use, reproduction and disclosure by the US Government is
 subject to restrictions as set forth in subparagraphs (a)
 and (c) of the Commercial Computer Software - Restricted
 Rights clause in FAR 52.227-19.
  
 Gaussian, Inc.
 340 Quinnipiac St., Bldg. 40, Wallingford CT 06492
  
  
 ---------------------------------------------------------------
 Warning -- This program may not be used in any manner that
 competes with the business of Gaussian, Inc. or will provide
 assistance to any competitor of Gaussian, Inc.  The licensee
 of this program is prohibited from giving any competitor of
 Gaussian, Inc. access to this program.  By using this program,
 the user acknowledges that Gaussian, Inc. is engaged in the
 business of creating and licensing software in the field of
 computational chemistry and represents and warrants to the
 licensee that it is not a competitor of Gaussian, Inc. and that
 it will not use this program in any manner prohibited above.
 ---------------------------------------------------------------
  

 Cite this work as:
 Gaussian 09, Revision C.01,
 M. J. Frisch, G. W. Trucks, H. B. Schlegel, G. E. Scuseria, 
 M. A. Robb, J. R. Cheeseman, G. Scalmani, V. Barone, B. Mennucci, 
 G. A. Petersson, H. Nakatsuji, M. Caricato, X. Li, H. P. Hratchian, 
 A. F. Izmaylov, J. Bloino, G. Zheng, J. L. Sonnenberg, M. Hada, 
 M. Ehara, K. Toyota, R. Fukuda, J. Hasegawa, M. Ishida, T. Nakajima, 
 Y. Honda, O. Kitao, H. Nakai, T. Vreven, J. A. Montgomery, Jr., 
 J. E. Peralta, F. Ogliaro, M. Bearpark, J. J. Heyd, E. Brothers, 
 K. N. Kudin, V. N. Staroverov, T. Keith, R. Kobayashi, J. Normand, 
 K. Raghavachari, A. Rendell, J. C. Burant, S. S. Iyengar, J. Tomasi, 
 M. Cossi, N. Rega, J. M. Millam, M. Klene, J. E. Knox, J. B. Cross, 
 V. Bakken, C. Adamo, J. Jaramillo, R. Gomperts, R. E. Stratmann, 
 O. Yazyev, A. J. Austin, R. Cammi, C. Pomelli, J. W. Ochterski, 
 R. L. Martin, K. Morokuma, V. G. Zakrzewski, G. A. Voth, 
 P. Salvador, J. J. Dannenberg, S. Dapprich, A. D. Daniels, 
 O. Farkas, J. B. Foresman, J. V. Ortiz, J. Cioslowski, 
 and D. J. Fox, Gaussian, Inc., Wallingford CT, 2010.
 
 ******************************************
 Gaussian 09:  EM64L-G09RevC.01 23-Sep-2011
                23-Dec-2022 
 ******************************************
 %chk=04_RSSR_THC_010_optB_NMR
 %nprocshared=4
 Will use up to    4 processors via shared memory.
 ------------------------------------------------
 # mPW1PW91/6-31+G** scrf=(PCM,solvent=water) nmr
 ------------------------------------------------
 1/38=1/1;
 2/12=2,17=6,18=5,40=1/2;
 3/5=1,6=6,7=111,11=2,16=1,25=1,30=1,70=2201,72=1,74=-7/1,2,8,3;
 4//1;
 5/5=2,38=5,53=1/2;
 8/6=1,10=90,11=11/1;
 10/13=100,45=16/2;
 6/7=2,8=2,9=2,10=2,28=1/1;
 99/9=1/99;
 -------
 comment
 -------
 Charge =  0 Multiplicity = 1
 Symbolic Z-Matrix:
 6                     1.49217   2.54794  -1.38269 
 6                     0.835     3.47272  -0.35498 
 1                     1.40568   4.40629  -0.27317 
 1                    -0.17814   3.74173  -0.67711 
 6                     0.78362   2.8274    1.02668 
 1                     1.80745   2.65234   1.3833 
 6                     0.01901   1.48326   1.02632 
 1                     0.16183   1.07396   2.03409 
 6                     0.73396   0.50136   0.02072 
 1                     1.78342   0.4223    0.3442 
 6                     0.82991   1.14686  -1.39274 
 1                    -0.15443   1.23134  -1.85959 
 6                     0.23067  -0.95114   0.14459 
 6                    -0.91001  -3.54714   0.57442 
 6                     0.34972  -1.63658   1.37361 
 6                    -0.39645  -1.67359  -0.88572 
 6                    -0.97455  -2.93156  -0.67524 
 6                    -0.22215  -2.89368   1.59513 
 1                    -1.46605  -3.43133  -1.50715 
 1                    -0.11458  -3.3606    2.57135 
 8                    -0.47866  -1.23253  -2.17735 
 1                     0.3998   -0.84966  -2.39952 
 8                     1.05371  -1.14092   2.44053 
 1                     1.7865   -0.60523   2.09954 
 8                     1.6287    0.28496  -2.23677 
 1                     2.55635   0.51804  -2.01409 
 6                     1.45912   3.18579  -2.77611 
 1                     0.43252   3.31668  -3.13322 
 1                     2.0073    2.57879  -3.505 
 1                     1.94757   4.16702  -2.76615 
 8                     2.87741   2.35866  -1.03313 
 1                     3.30737   3.23336  -1.05548 
 1                     0.3475    3.53539   1.73961 
 6                    -1.49913   1.70898   0.92028 
 6                    -2.30994   1.25891  -0.05198 
 1                    -3.38124   1.44179  -0.02198 
 1                    -1.97609   0.67154  -0.89659 
 6                    -2.12476   2.44869   2.08355 
 1                    -1.7906    2.02041   3.03423 
 1                    -3.21879   2.38918   2.07155 
 1                    -1.85679   3.5089    2.06006 
 6                    -1.51805  -4.90542   0.79832 
 1                    -1.86045  -4.98941   1.83698 
 1                    -2.41343  -5.01591   0.17446 
 6                    -0.53551  -6.02475   0.48943 
 1                    -1.00506  -6.99846   0.66124 
 1                     0.35368  -5.95985   1.12569 
 1                    -0.2051   -5.98681  -0.55416 
 
                          Input orientation:                          
 ---------------------------------------------------------------------
 Center     Atomic      Atomic             Coordinates (Angstroms)
 Number     Number       Type             X           Y           Z
 ---------------------------------------------------------------------
      1          6           0        1.492165    2.547939   -1.382688
      2          6           0        0.834996    3.472724   -0.354979
      3          1           0        1.405683    4.406287   -0.273168
      4          1           0       -0.178137    3.741731   -0.677107
      5          6           0        0.783620    2.827398    1.026685
      6          1           0        1.807446    2.652339    1.383299
      7          6           0        0.019012    1.483259    1.026315
      8          1           0        0.161827    1.073956    2.034092
      9          6           0        0.733959    0.501356    0.020721
     10          1           0        1.783424    0.422298    0.344203
     11          6           0        0.829907    1.146856   -1.392742
     12          1           0       -0.154426    1.231344   -1.859586
     13          6           0        0.230673   -0.951143    0.144590
     14          6           0       -0.910010   -3.547137    0.574423
     15          6           0        0.349716   -1.636577    1.373612
     16          6           0       -0.396452   -1.673591   -0.885719
     17          6           0       -0.974546   -2.931559   -0.675241
     18          6           0       -0.222147   -2.893678    1.595130
     19          1           0       -1.466048   -3.431326   -1.507148
     20          1           0       -0.114580   -3.360604    2.571352
     21          8           0       -0.478658   -1.232531   -2.177346
     22          1           0        0.399800   -0.849657   -2.399517
     23          8           0        1.053713   -1.140916    2.440531
     24          1           0        1.786495   -0.605229    2.099537
     25          8           0        1.628701    0.284958   -2.236771
     26          1           0        2.556346    0.518035   -2.014089
     27          6           0        1.459119    3.185794   -2.776106
     28          1           0        0.432522    3.316683   -3.133218
     29          1           0        2.007298    2.578786   -3.504999
     30          1           0        1.947575    4.167024   -2.766151
     31          8           0        2.877415    2.358655   -1.033130
     32          1           0        3.307368    3.233356   -1.055476
     33          1           0        0.347496    3.535390    1.739608
     34          6           0       -1.499131    1.708982    0.920284
     35          6           0       -2.309938    1.258906   -0.051976
     36          1           0       -3.381236    1.441793   -0.021976
     37          1           0       -1.976094    0.671541   -0.896588
     38          6           0       -2.124761    2.448687    2.083546
     39          1           0       -1.790596    2.020410    3.034227
     40          1           0       -3.218791    2.389183    2.071545
     41          1           0       -1.856792    3.508900    2.060065
     42          6           0       -1.518053   -4.905422    0.798320
     43          1           0       -1.860453   -4.989414    1.836982
     44          1           0       -2.413431   -5.015912    0.174465
     45          6           0       -0.535510   -6.024752    0.489429
     46          1           0       -1.005060   -6.998463    0.661237
     47          1           0        0.353676   -5.959847    1.125687
     48          1           0       -0.205099   -5.986809   -0.554159
 ---------------------------------------------------------------------
                    Distance matrix (angstroms):
                    1          2          3          4          5
     1  C    0.000000
     2  C    1.530779   0.000000
     3  H    2.166096   1.097231   0.000000
     4  H    2.170920   1.096618   1.764451   0.000000
     5  C    2.526898   1.525805   2.137632   2.159604   0.000000
     6  H    2.785854   2.154135   2.445737   3.061795   1.098198
     7  C    3.017784   2.555734   3.486489   2.835703   1.546395
     8  H    3.951811   3.451797   4.239700   3.818796   2.115669
     9  C    2.594790   2.996729   3.973169   3.437865   2.534739
    10  H    2.754148   3.270087   4.049198   3.988663   2.692563
    11  C    1.549749   2.546888   3.494117   2.874311   2.946183
    12  H    2.161508   2.875166   3.876973   2.775042   3.428976
    13  C    4.020885   4.492814   5.500657   4.781776   3.919339
    14  C    6.837447   7.292961   8.326932   7.431660   6.611174
    15  C    5.139315   5.415578   6.351627   5.780163   4.498412
    16  C    4.651362   5.318149   6.370857   5.423734   5.030781
    17  C    6.050623   6.662721   7.724709   6.720645   6.257259
    18  C    6.435639   6.741776   7.709076   7.013818   5.836557
    19  H    6.672191   7.368053   8.437875   7.334878   7.117089
    20  H    7.288823   7.493963   8.409940   7.810230   6.440817
    21  O    4.336770   5.214032   6.242828   5.204259   5.323738
    22  H    3.710911   4.801303   5.758308   4.937768   5.040527
    23  O    5.330750   5.398925   6.185427   5.922615   4.221307
    24  H    4.706909   4.853834   5.557882   5.519566   3.733591
    25  O    2.422640   3.785890   4.570649   4.200773   4.222358
    26  H    2.377321   3.800773   4.412860   4.433637   4.209753
    27  C    1.532829   2.516687   2.785167   2.719461   3.878913
    28  H    2.185902   2.811573   3.211567   2.566330   4.203268
    29  H    2.184152   3.477937   3.761174   3.758396   4.700570
    30  H    2.177798   2.744747   2.562393   3.010586   4.187481
    31  O    1.441157   2.423326   2.633692   3.372840   2.974313
    32  H    1.967695   2.580817   2.367315   3.542648   3.296893
    33  H    3.469014   2.151483   2.435054   2.481810   1.095316
    34  C    3.867218   3.191430   4.139773   2.903231   2.544234
    35  C    4.229467   3.857903   4.874502   3.331634   3.632324
    36  H    5.179299   4.691715   5.636126   3.997344   4.512828
    37  H    3.973158   4.005270   5.076750   3.564672   3.995337
    38  C    5.010667   3.969284   4.674434   3.616976   3.117540
    39  H    5.528467   4.526551   5.181454   4.397383   3.362744
    40  H    5.843804   4.847192   5.563465   4.316254   4.159695
    41  H    4.898112   3.616555   4.110112   3.219348   2.916178
    42  C    8.328914   8.778398   9.818566   8.873868   8.071330
    43  H    8.855394   9.147563  10.168558   9.240332   8.291577
    44  H    8.653915   9.104369  10.176632   9.078438   8.512634
    45  C    9.005960   9.632931  10.637498   9.842394   8.966009
    46  H   10.077081  10.680087  11.694149  10.854803   9.994022
    47  H    8.942623   9.560200  10.512861   9.881979   8.798314
    48  H    8.741230   9.518626  10.520933   9.729355   9.009267
                    6          7          8          9         10
     6  H    0.000000
     7  C    2.166260   0.000000
     8  H    2.371263   1.097059   0.000000
     9  C    2.763281   1.576865   2.169993   0.000000
    10  H    2.460362   2.168885   2.431041   1.101030   0.000000
    11  C    3.305823   2.573433   3.492111   1.556841   2.109776
    12  H    4.047774   2.902063   3.909670   2.204011   3.044093
    13  C    4.123797   2.597798   2.770557   1.542204   2.082600
    14  C    6.817064   5.135384   4.963262   4.404488   4.802500
    15  C    4.529887   3.156479   2.796163   2.559046   2.711857
    16  C    5.359038   3.714053   4.047961   2.613399   3.264555
    17  C    6.569398   4.834570   4.967492   3.897211   4.460271
    18  C    5.909520   4.420326   4.010267   3.862532   4.072202
    19  H    7.488754   5.725119   5.957175   4.758193   5.370008
    20  H    6.423484   5.086059   4.475530   4.705366   4.782568
    21  O    5.744274   4.229259   4.844204   3.050950   3.770103
    22  H    5.343702   4.162190   4.838782   2.791855   3.325701
    23  O    4.009320   3.155457   2.422047   2.941901   2.714905
    24  H    3.335445   2.938977   2.337412   2.579504   2.033967
    25  O    4.329128   3.830765   4.584159   2.437963   2.589252
    26  H    4.081464   4.076001   4.736089   2.731634   2.483569
    27  C    4.207915   4.408054   5.411176   3.943894   4.180718
    28  H    4.767672   4.564444   5.639520   4.238426   4.721742
    29  H    4.892934   5.068163   6.029246   4.285768   4.417795
    30  H    4.419484   5.030383   5.983168   4.761999   4.870751
    31  O    2.658987   3.630165   4.293335   3.025651   2.615978
    32  H    2.921467   4.267316   4.909468   3.904416   3.490495
    33  H    1.743041   2.197255   2.485931   3.508460   3.701404
    34  C    3.469547   1.538490   2.098239   2.693374   3.572476
    35  C    4.577611   2.576248   3.239678   3.137591   4.196723
    36  H    5.510231   3.558415   4.112908   4.221501   5.277041
    37  H    4.841139   2.887367   3.649867   2.866148   3.966819
    38  C    3.999259   2.577896   2.668485   4.027359   4.733442
    39  H    4.008841   2.755889   2.389142   4.214513   4.750138
    40  H    5.079960   3.520877   3.627645   4.836735   5.645751
    41  H    3.823395   2.947965   3.162981   4.462761   5.071732
    42  C    8.277736   6.574937   6.332621   5.908424   6.284153
    43  H    8.488563   6.788598   6.394758   6.338638   6.692746
    44  H    8.836242   6.991541   6.868527   6.353735   6.871429
    45  C    9.032185   7.547581   7.298214   6.664933   6.852956
    46  H   10.078172   8.551118   8.271052   7.725395   7.933716
    47  H    8.737824   7.451288   7.094814   6.566026   6.586856
    48  H    9.079591   7.638720   7.529149   6.580928   6.770372
                   11         12         13         14         15
    11  C    0.000000
    12  H    1.092700   0.000000
    13  C    2.669096   2.988022   0.000000
    14  C    5.378719   5.415644   2.867943   0.000000
    15  C    3.953581   4.351173   1.412263   2.424015   0.000000
    16  C    3.117042   3.073376   1.405971   2.430213   2.379646
    17  C    4.517115   4.405115   2.459008   1.394547   2.761964
    18  C    5.134209   5.381027   2.466283   1.393559   1.398713
    19  H    5.122914   4.856445   3.429054   2.157668   3.849273
    20  H    6.076454   6.381284   3.437132   2.157598   2.149981
    21  O    2.826557   2.505350   2.444118   3.621560   3.668618
    22  H    2.276983   2.220194   2.551742   4.223307   3.854641
    23  O    4.469673   5.057492   2.446376   3.623323   1.370988
    24  H    4.022547   4.776488   2.522312   4.272228   1.911801
    25  O    1.446833   2.053645   3.025444   5.388212   4.285203
    26  H    1.939608   2.807306   3.496733   5.936468   4.581276
    27  C    2.543004   2.695072   5.210930   7.884870   6.458033
    28  H    2.809861   2.513022   5.385082   7.915871   6.697250
    29  H    2.810392   3.032497   5.379247   7.917027   6.657155
    30  H    3.500978   3.722698   6.133172   8.878823   7.305654
    31  O    2.406256   3.338550   4.398527   7.197722   5.305050
    32  H    3.256539   4.079052   5.330689   8.149720   6.193903
    33  H    3.968556   4.302877   4.763057   7.287055   5.184902
    34  C    3.330238   3.124747   3.266525   5.300328   3.849222
    35  C    3.415968   2.813262   3.373079   5.044822   4.182091
    36  H    4.438435   3.719328   4.335870   5.599292   5.034285
    37  H    2.888898   2.135232   2.930354   4.593219   3.986303
    38  C    4.744407   4.573011   4.567982   6.301030   4.828708
    39  H    5.218063   5.220065   4.611470   6.150093   4.551059
    40  H    5.471436   5.117100   5.173948   6.543069   5.424768
    41  H    4.971868   4.842414   5.283799   7.272633   5.640552
    42  C    6.851550   6.825236   4.372840   1.504920   3.808526
    43  H    7.437941   7.434580   4.852280   2.139523   4.042409
    44  H    7.138283   6.947566   4.849178   2.139519   4.526902
    45  C    7.539158   7.636363   5.142709   2.507200   4.563056
    46  H    8.598381   8.649154   6.193871   3.453726   5.576084
    47  H    7.554767   7.802772   5.105369   2.778842   4.330374
    48  H    7.256972   7.335424   5.102556   2.778956   4.790474
                   16         17         18         19         20
    16  C    0.000000
    17  C    1.400349   0.000000
    18  C    2.770127   2.392095   0.000000
    19  H    2.149382   1.087848   3.385334   0.000000
    20  H    3.857046   3.385851   1.087475   4.297166   0.000000
    21  O    1.367330   2.321405   4.129985   2.501761   5.216453
    22  H    1.898544   3.032536   4.530126   3.307979   5.592762
    23  O    3.667515   4.126532   2.326950   5.213382   2.511779
    24  H    3.849469   4.553521   3.086433   5.619079   3.380648
    25  O    3.124500   4.422811   5.311575   4.890868   6.280701
    26  H    3.846487   5.114628   5.690894   5.659868   6.572972
    27  C    5.534467   6.910743   7.674264   7.345280   8.598090
    28  H    5.535456   6.860176   7.832907   7.196130   8.799295
    29  H    5.542685   6.874797   7.805741   7.223364   8.757897
    30  H    6.568353   7.956166   8.577993   8.424537   9.455506
    31  O    5.196051   6.553782   6.640936   7.253568   7.392851
    32  H    6.150222   7.515687   7.551406   8.210207   8.267038
    33  H    5.880415   7.028565   6.455872   7.897184   6.961325
    34  C    3.989906   4.935130   4.823959   5.684742   5.508513
    35  C    3.599458   4.442041   4.931103   4.982766   5.748158
    36  H    4.400068   5.034394   5.602783   5.442515   6.360771
    37  H    2.827548   3.746255   4.689965   4.179289   5.634717
    38  C    5.366261   6.154750   5.692042   6.921094   6.166574
    39  H    5.563745   6.240840   5.355305   7.102876   5.654962
    40  H    5.763432   6.394667   6.092246   7.053899   6.553319
    41  H    6.137462   7.052642   6.624290   7.813094   7.105406
    42  C    3.812966   2.522482   2.522180   2.736942   2.738584
    43  H    4.533330   3.366134   2.671077   3.710310   2.498078
    44  H    4.045158   2.671501   3.365099   2.497252   3.710773
    45  C    4.565411   3.334224   3.335326   3.402658   3.407238
    46  H    5.578328   4.280983   4.281866   4.199866   4.204226
    47  H    4.793791   3.765374   3.154892   4.078803   3.010860
    48  H    4.330173   3.152977   3.766590   3.004775   4.083378
                   21         22         23         24         25
    21  O    0.000000
    22  H    0.983687   0.000000
    23  O    4.866348   4.892699   0.000000
    24  H    4.880180   4.714251   0.969643   0.000000
    25  O    2.597550   1.680487   4.923504   4.429549   0.000000
    26  H    3.507475   2.582601   4.985346   4.333165   0.982058
    27  C    4.861593   4.189134   6.789556   6.184733   2.955417
    28  H    4.737012   4.230576   7.163989   6.678051   3.380209
    29  H    4.740124   3.944663   7.077771   6.449615   2.648279
    30  H    5.948822   5.262805   7.488842   6.817277   3.930949
    31  O    5.046689   4.277717   5.257301   4.448407   2.703379
    32  H    5.961269   5.189547   6.036165   5.196336   3.592552
    33  H    6.225603   6.030235   4.780991   4.398295   5.293240
    34  C    4.391944   4.601483   4.117048   4.188264   4.666709
    35  C    3.752072   4.159287   4.825545   4.988465   4.608122
    36  H    4.496953   5.019928   5.692372   5.949501   5.598487
    37  H    2.740100   3.196515   4.858096   4.976343   3.865240
    38  C    5.866534   6.111492   4.807846   4.962316   6.118442
    39  H    6.281982   6.523856   4.293781   4.534668   6.518191
    40  H    6.219182   6.601113   5.554462   5.832682   6.818177
    41  H    6.506617   6.631523   5.498780   5.495558   6.403535
    42  C    4.839945   5.509406   4.845858   5.577173   6.786302
    43  H    5.669070   6.339894   4.864933   5.708786   7.522544
    44  H    4.856782   5.647772   5.672014   6.387441   7.088873
    45  C    5.484552   6.000202   5.494023   6.111905   7.206138
    46  H    6.448304   7.010682   6.458738   7.122845   8.269424
    47  H    5.826690   6.208319   5.043903   5.627902   7.206206
    48  H    5.031176   5.491956   5.833992   6.322180   6.747524
                   26         27         28         29         30
    26  H    0.000000
    27  C    2.983540   0.000000
    28  H    3.687208   1.094789   0.000000
    29  H    2.602106   1.095557   1.778380   0.000000
    30  H    3.775091   1.096129   1.775726   1.752701   0.000000
    31  O    2.110272   2.394511   3.362393   2.629771   2.671733
    32  H    2.975893   2.525639   3.548055   2.849352   2.376380
    33  H    5.298462   4.663646   4.878473   5.583542   4.822974
    34  C    5.145463   4.959386   4.769366   5.712681   5.613515
    35  C    5.299009   5.033843   4.609727   5.683659   5.826690
    36  H    6.330618   5.835735   5.266857   6.516173   6.584345
    37  H    4.670694   4.653465   4.219089   5.129211   5.577530
    38  C    6.513892   6.083070   5.874328   6.951451   6.561719
    39  H    6.829241   6.758605   6.682810   7.582695   7.226774
    40  H    7.317500   6.783594   6.425099   7.644986   7.297627
    41  H    6.709679   5.872666   5.678740   6.838585   6.180509
    42  C    7.343314   9.333159   9.320126   9.325236  10.345304
    43  H    8.041820   9.956614   9.947455  10.038621  10.932989
    44  H    7.753259   9.537845   9.405974   9.526843  10.582623
    45  C    7.657366   9.973787  10.065936   9.820499  10.983479
    46  H    8.737204  11.027538  11.084528  10.869937  12.047122
    47  H    7.528141  10.004435  10.207766   9.853221  10.965419
    48  H    7.215953   9.583492   9.675385   9.325856  10.612598
                   31         32         33         34         35
    31  O    0.000000
    32  H    0.974916   0.000000
    33  H    3.933608   4.082226   0.000000
    34  C    4.836533   5.415697   2.723433   0.000000
    35  C    5.392656   6.038178   3.931172   1.343602   0.000000
    36  H    6.405761   7.001089   4.624908   2.121689   1.087210
    37  H    5.140189   5.873935   4.533236   2.145880   1.081582
    38  C    5.894365   6.322752   2.722365   1.513854   2.451596
    39  H    6.200656   6.647267   2.922780   2.156547   3.220909
    40  H    6.841321   7.285715   3.760635   2.178373   2.571552
    41  H    5.770930   6.037472   2.227617   2.160261   3.119059
    42  C    8.685688   9.641627   8.695609   6.615556   6.272881
    43  H    9.202122  10.133441   8.806634   6.770480   6.543065
    44  H    9.156177  10.113888   9.121248   6.827620   6.279756
    45  C    9.178658  10.142338   9.681889   7.805437   7.516209
    46  H   10.271327  11.235402  10.674941   8.725297   8.390204
    47  H    8.956965   9.899330   9.515065   7.892149   7.784094
    48  H    8.909438   9.879281   9.810149   7.941896   7.561940
                   36         37         38         39         40
    36  H    0.000000
    37  H    1.825557   0.000000
    38  C    2.650620   3.472974   0.000000
    39  H    3.493610   4.159948   1.094934   0.000000
    40  H    2.303642   3.647521   1.095713   1.761389   0.000000
    41  H    3.306321   4.099589   1.093806   1.780162   1.763218
    42  C    6.665694   5.846798   7.490182   7.282905   7.597690
    43  H    6.865051   6.287463   7.446878   7.111674   7.506251
    44  H    6.532778   5.803925   7.710263   7.620761   7.686544
    45  C    8.006809   6.988324   8.767331   8.530878   8.972035
    46  H    8.794937   7.886615   9.619009   9.358858   9.747691
    47  H    8.369645   7.313873   8.818366   8.480857   9.130360
    48  H    8.096616   6.898356   9.044345   8.916607   9.280836
                   41         42         43         44         45
    41  H    0.000000
    42  C    8.515137   0.000000
    43  H    8.501242   1.096864   0.000000
    44  H    8.748586   1.096862   1.752270   0.000000
    45  C    9.752087   1.521087   2.154832   2.154890   0.000000
    46  H   10.634230   2.159345   2.479990   2.480114   1.094581
    47  H    9.768131   2.173097   2.519930   3.074528   1.095303
    48  H    9.986528   2.173119   3.074500   2.519973   1.095302
                   46         47         48
    46  H    0.000000
    47  H    1.772175   0.000000
    48  H    1.772165   1.770548   0.000000
 Stoichiometry    C18H26O4
 Framework group  C1[X(C18H26O4)]
 Deg. of freedom   138
 Full point group                 C1      NOp   1
 Largest Abelian subgroup         C1      NOp   1
 Largest concise Abelian subgroup C1      NOp   1
                         Standard orientation:                         
 ---------------------------------------------------------------------
 Center     Atomic      Atomic             Coordinates (Angstroms)
 Number     Number       Type             X           Y           Z
 ---------------------------------------------------------------------
      1          6           0        3.110595   -1.031750    0.162716
      2          6           0        3.645270    0.400799    0.090526
      3          1           0        4.655043    0.444993    0.517519
      4          1           0        3.722594    0.726647   -0.953704
      5          6           0        2.759741    1.368750    0.869620
      6          1           0        2.768091    1.092345    1.932432
      7          6           0        1.297430    1.371968    0.366658
      8          1           0        0.752667    2.004403    1.078556
      9          6           0        0.717808   -0.088006    0.504555
     10          1           0        0.829947   -0.377024    1.561040
     11          6           0        1.619972   -1.104329   -0.255011
     12          1           0        1.555172   -0.963468   -1.336655
     13          6           0       -0.809297   -0.146403    0.297349
     14          6           0       -3.634537    0.040877   -0.158770
     15          6           0       -1.664305    0.599686    1.138061
     16          6           0       -1.453957   -0.874786   -0.717848
     17          6           0       -2.829409   -0.769450   -0.958708
     18          6           0       -3.039519    0.711117    0.908347
     19          1           0       -3.266737   -1.341287   -1.774281
     20          1           0       -3.641665    1.319240    1.579323
     21          8           0       -0.811584   -1.760062   -1.538356
     22          1           0       -0.197458   -2.275772   -0.968679
     23          8           0       -1.224580    1.254505    2.259428
     24          1           0       -0.476960    0.759067    2.627958
     25          8           0        1.144421   -2.440852    0.029391
     26          1           0        1.544250   -2.661604    0.898784
     27          6           0        3.971250   -1.968764   -0.692176
     28          1           0        3.920219   -1.703941   -1.753226
     29          1           0        3.658048   -3.012330   -0.577633
     30          1           0        5.020468   -1.928012   -0.377563
     31          8           0        3.192085   -1.500503    1.523070
     32          1           0        4.131930   -1.486848    1.781848
     33          1           0        3.198695    2.371456    0.829415
     34          6           0        1.173814    2.116634   -0.973918
     35          6           0        0.734646    1.605868   -2.136464
     36          1           0        0.650346    2.223476   -3.027239
     37          1           0        0.411148    0.581869   -2.265288
     38          6           0        1.514138    3.591004   -0.927354
     39          1           0        1.007151    4.074870   -0.086094
     40          1           0        1.201173    4.116866   -1.836260
     41          1           0        2.592827    3.738366   -0.821875
     42          6           0       -5.115230    0.143712   -0.407278
     43          1           0       -5.470183    1.139002   -0.113141
     44          1           0       -5.315620    0.056207   -1.482124
     45          6           0       -5.892788   -0.922901    0.348662
     46          1           0       -6.964313   -0.822968    0.148774
     47          1           0       -5.739645   -0.835140    1.429650
     48          1           0       -5.583658   -1.929259    0.046388
 ---------------------------------------------------------------------
 Rotational constants (GHZ):      0.4736605      0.1844591      0.1633239
 Standard basis: 6-31+G(d,p) (6D, 7F)
 There are   548 symmetry adapted basis functions of A   symmetry.
 Integral buffers will be    131072 words long.
 Raffenetti 2 integral format.
 Two-electron integral symmetry is turned on.
   548 basis functions,   886 primitive gaussians,   548 cartesian basis functions
    83 alpha electrons       83 beta electrons
       nuclear repulsion energy      1977.2698822928 Hartrees.
 NAtoms=   48 NActive=   48 NUniq=   48 SFac= 1.00D+00 NAtFMM=   60 NAOKFM=F Big=F
 ------------------------------------------------------------------------------
 Polarizable Continuum Model (PCM)
 =================================
 Model                : PCM.
 Atomic radii         : UFF (Universal Force Field).
 Polarization charges : Total charges.
 Charge compensation  : None.
 Solution method      : Matrix inversion.
 Cavity type          : Scaled VdW (van der Waals Surface) (Alpha=1.100).
 Cavity algorithm     : GePol (No added spheres)
                        Default sphere list used, NSphG=   48.
                        Lebedev-Laikov grids with approx.  5.0 points / Ang**2.
                        Smoothing algorithm: Karplus/York (Gamma=1.0000).
                        Polarization charges: spherical gaussians, with
                                              point-specific exponents (IZeta= 3).
                        Self-potential: point-specific (ISelfS= 7).
                        Self-field    : sphere-specific E.n sum rule (ISelfD= 2).
 Solvent              : Water, Eps=  78.355300 Eps(inf)=   1.777849
 ------------------------------------------------------------------------------
 One-electron integrals computed using PRISM.
 NBasis=   548 RedAO= T  NBF=   548
 NBsUse=   545 1.00D-06 NBFU=   545
 Harris functional with IExCor=  908 diagonalized for initial guess.
 ExpMin= 4.38D-02 ExpMax= 5.48D+03 ExpMxC= 8.25D+02 IAcc=2 IRadAn=         4 AccDes= 0.00D+00
 HarFok:  IExCor=  908 AccDes= 0.00D+00 IRadAn=         4 IDoV= 1
 ScaDFX=  1.000000  1.000000  1.000000  1.000000
 FoFCou: FMM=F IPFlag=           0 FMFlag=      100000 FMFlg1=           0
         NFxFlg=           0 DoJE=T BraDBF=F KetDBF=T FulRan=T
         Omega=  0.000000  0.000000  1.000000  0.000000  0.000000 ICntrl=     500 IOpCl=  0
         NMat0=    1 NMatS0=    1 NMatT0=    0 NMatD0=    1 NMtDS0=    0 NMtDT0=    0
         I1Cent=           4 NGrid=           0.
 Petite list used in FoFCou.
 Initial guess orbital symmetries:
       Occupied  (A) (A) (A) (A) (A) (A) (A) (A) (A) (A) (A) (A)
                 (A) (A) (A) (A) (A) (A) (A) (A) (A) (A) (A) (A)
                 (A) (A) (A) (A) (A) (A) (A) (A) (A) (A) (A) (A)
                 (A) (A) (A) (A) (A) (A) (A) (A) (A) (A) (A) (A)
                 (A) (A) (A) (A) (A) (A) (A) (A) (A) (A) (A) (A)
                 (A) (A) (A) (A) (A) (A) (A) (A) (A) (A) (A) (A)
                 (A) (A) (A) (A) (A) (A) (A) (A) (A) (A) (A)
       Virtual   (A) (A) (A) (A) (A) (A) (A) (A) (A) (A) (A) (A)
                 (A) (A) (A) (A) (A) (A) (A) (A) (A) (A) (A) (A)
                 (A) (A) (A) (A) (A) (A) (A) (A) (A) (A) (A) (A)
                 (A) (A) (A) (A) (A) (A) (A) (A) (A) (A) (A) (A)
                 (A) (A) (A) (A) (A) (A) (A) (A) (A) (A) (A) (A)
                 (A) (A) (A) (A) (A) (A) (A) (A) (A) (A) (A) (A)
                 (A) (A) (A) (A) (A) (A) (A) (A) (A) (A) (A) (A)
                 (A) (A) (A) (A) (A) (A) (A) (A) (A) (A) (A) (A)
                 (A) (A) (A) (A) (A) (A) (A) (A) (A) (A) (A) (A)
                 (A) (A) (A) (A) (A) (A) (A) (A) (A) (A) (A) (A)
                 (A) (A) (A) (A) (A) (A) (A) (A) (A) (A) (A) (A)
                 (A) (A) (A) (A) (A) (A) (A) (A) (A) (A) (A) (A)
                 (A) (A) (A) (A) (A) (A) (A) (A) (A) (A) (A) (A)
                 (A) (A) (A) (A) (A) (A) (A) (A) (A) (A) (A) (A)
                 (A) (A) (A) (A) (A) (A) (A) (A) (A) (A) (A) (A)
                 (A) (A) (A) (A) (A) (A) (A) (A) (A) (A) (A) (A)
                 (A) (A) (A) (A) (A) (A) (A) (A) (A) (A) (A) (A)
                 (A) (A) (A) (A) (A) (A) (A) (A) (A) (A) (A) (A)
                 (A) (A) (A) (A) (A) (A) (A) (A) (A) (A) (A) (A)
                 (A) (A) (A) (A) (A) (A) (A) (A) (A) (A) (A) (A)
                 (A) (A) (A) (A) (A) (A) (A) (A) (A) (A) (A) (A)
                 (A) (A) (A) (A) (A) (A) (A) (A) (A) (A) (A) (A)
                 (A) (A) (A) (A) (A) (A) (A) (A) (A) (A) (A) (A)
                 (A) (A) (A) (A) (A) (A) (A) (A) (A) (A) (A) (A)
                 (A) (A) (A) (A) (A) (A) (A) (A) (A) (A) (A) (A)
                 (A) (A) (A) (A) (A) (A) (A) (A) (A) (A) (A) (A)
                 (A) (A) (A) (A) (A) (A) (A) (A) (A) (A) (A) (A)
                 (A) (A) (A) (A) (A) (A) (A) (A) (A) (A) (A) (A)
                 (A) (A) (A) (A) (A) (A) (A) (A) (A) (A) (A) (A)
                 (A) (A) (A) (A) (A) (A) (A) (A) (A) (A) (A) (A)
                 (A) (A) (A) (A) (A) (A) (A) (A) (A) (A) (A) (A)
                 (A) (A) (A) (A) (A) (A) (A) (A) (A) (A) (A) (A)
                 (A) (A) (A) (A) (A) (A) (A) (A) (A) (A) (A) (A)
                 (A) (A) (A) (A) (A) (A) (A) (A) (A) (A) (A) (A)
                 (A) (A) (A) (A) (A) (A) (A) (A) (A) (A) (A) (A)
                 (A) (A) (A) (A) (A) (A) (A) (A) (A) (A) (A) (A)
                 (A) (A) (A) (A) (A) (A) (A) (A) (A) (A) (A) (A)
                 (A) (A) (A) (A) (A) (A) (A) (A) (A) (A) (A) (A)
                 (A) (A) (A) (A) (A) (A)
 The electronic state of the initial guess is 1-A.
 Requested convergence on RMS density matrix=1.00D-08 within 128 cycles.
 Requested convergence on MAX density matrix=1.00D-06.
 Requested convergence on             energy=1.00D-06.
 No special actions if energy rises.
 CoulSu:  requested number of processors reduced to:   3 ShMem   1 Linda.
 CoulSu:  requested number of processors reduced to:   3 ShMem   1 Linda.
 Error on total polarization charges =  0.01916
 SCF Done:  E(RmPW1PW91) =  -1002.29996286     A.U. after   14 cycles
             Convg  =    0.3913D-08             -V/T =  2.0094
 Range of M.O.s used for correlation:     1   545
 NBasis=   548 NAE=    83 NBE=    83 NFC=     0 NFV=     0
 NROrb=    545 NOA=    83 NOB=    83 NVA=   462 NVB=   462

 **** Warning!!: The largest alpha MO coefficient is  0.14559758D+03

 NEqPCM:  Using equilibrium solvation (IEInf=0, Eps=  78.3553, EpsInf=   1.7778)
          Differentiating once with respect to magnetic field using GIAOs.
          Electric field/nuclear overlap derivatives assumed to be zero.
 FoFCou: FMM=F IPFlag=           0 FMFlag=    10101102 FMFlg1=           0
         NFxFlg=    40000000 DoJE=F BraDBF=F KetDBF=T FulRan=T
         Omega=  0.000000  0.000000  1.000000  0.000000  0.000000 ICntrl=    6100 IOpCl=  0
         NMat0=    1 NMatS0=    1 NMatT0=    0 NMatD0=    1 NMtDS0=    0 NMtDT0=    0
         I1Cent=           7 NGrid=        2977.
 Symmetry not used in FoFCou.
          There are     3 degrees of freedom in the 1st order CPHF.  IDoFFX=0.
      3 vectors produced by pass  0 Test12= 1.28D-12 3.33D-08 XBig12= 7.25D+02 4.56D+00.
 AX will form     3 AO Fock derivatives at one time.
      3 vectors produced by pass  1 Test12= 1.28D-12 3.33D-08 XBig12= 1.85D+00 2.82D-01.
      3 vectors produced by pass  2 Test12= 1.28D-12 3.33D-08 XBig12= 8.45D-03 2.90D-02.
      3 vectors produced by pass  3 Test12= 1.28D-12 3.33D-08 XBig12= 3.53D-05 1.33D-03.
      3 vectors produced by pass  4 Test12= 1.28D-12 3.33D-08 XBig12= 1.03D-07 7.34D-05.
      3 vectors produced by pass  5 Test12= 1.28D-12 3.33D-08 XBig12= 4.71D-10 5.60D-06.
      3 vectors produced by pass  6 Test12= 1.28D-12 3.33D-08 XBig12= 2.29D-12 2.97D-07.
 Inverted reduced A of dimension    21 with in-core refinement.
 Calculating GIAO nuclear magnetic shielding tensors.
 SCF GIAO Magnetic shielding tensor (ppm):
      1  C    Isotropic =   122.1503   Anisotropy =    39.6591
   XX=   105.6392   YX=    -0.2002   ZX=     3.4989
   XY=    -1.9979   YY=   114.9583   ZY=   -12.2206
   XZ=     7.0119   YZ=    -4.2845   ZZ=   145.8533
   Eigenvalues:   104.9636   112.8976   148.5897
      2  C    Isotropic =   161.3623   Anisotropy =    33.4167
   XX=   156.1383   YX=     5.6005   ZX=     1.8381
   XY=     4.0034   YY=   182.7610   ZY=    -1.2558
   XZ=     4.1032   YZ=     2.7085   ZZ=   145.1877
   Eigenvalues:   144.4275   156.0194   183.6402
      3  H    Isotropic =    30.2278   Anisotropy =     9.2894
   XX=    36.2177   YX=     0.0614   ZX=     1.3605
   XY=     1.1454   YY=    29.0834   ZY=     1.4259
   XZ=     1.0001   YZ=     1.1858   ZZ=    25.3823
   Eigenvalues:    24.8882    29.3744    36.4207
      4  H    Isotropic =    29.7635   Anisotropy =     6.1036
   XX=    29.0788   YX=    -1.0748   ZX=    -2.9732
   XY=     0.2067   YY=    29.8602   ZY=    -3.1117
   XZ=    -3.1844   YZ=    -2.2872   ZZ=    30.3514
   Eigenvalues:    25.5044    29.9534    33.8325
      5  C    Isotropic =   170.4753   Anisotropy =    22.6979
   XX=   184.5385   YX=    -1.4020   ZX=     3.8100
   XY=    -6.1167   YY=   166.2503   ZY=     1.5578
   XZ=     2.1761   YZ=    -0.6763   ZZ=   160.6371
   Eigenvalues:   160.1236   165.6950   185.6072
      6  H    Isotropic =    29.4063   Anisotropy =     7.0367
   XX=    27.5121   YX=    -0.9357   ZX=     2.3416
   XY=    -0.5687   YY=    27.4927   ZY=     2.1443
   XZ=     1.5584   YZ=     1.1254   ZZ=    33.2141
   Eigenvalues:    25.8730    28.2485    34.0975
      7  C    Isotropic =   148.5231   Anisotropy =    20.7928
   XX=   149.1484   YX=    -4.5194   ZX=     2.1893
   XY=     2.4899   YY=   152.1612   ZY=    -8.8500
   XZ=    -0.4698   YZ=   -18.0983   ZZ=   144.2597
   Eigenvalues:   134.1686   149.0157   162.3850
      8  H    Isotropic =    28.3667   Anisotropy =     8.0417
   XX=    30.3241   YX=    -1.0544   ZX=    -4.7606
   XY=     0.3593   YY=    29.3543   ZY=     2.9587
   XZ=    -4.5010   YZ=     1.9956   ZZ=    25.4217
   Eigenvalues:    22.0966    29.2756    33.7278
      9  C    Isotropic =   148.8090   Anisotropy =    32.8824
   XX=   141.5390   YX=    -1.7990   ZX=    -3.6559
   XY=    10.0427   YY=   170.1479   ZY=    -0.2546
   XZ=     2.7011   YZ=     0.0794   ZZ=   134.7401
   Eigenvalues:   134.7055   140.9909   170.7306
     10  H    Isotropic =    28.4059   Anisotropy =     4.9206
   XX=    30.9445   YX=    -1.1870   ZX=    -0.9717
   XY=    -2.8936   YY=    25.1578   ZY=    -0.0925
   XZ=    -0.0259   YZ=     0.2103   ZZ=    29.1152
   Eigenvalues:    24.5089    29.0225    31.6862
     11  C    Isotropic =   122.4517   Anisotropy =    40.2178
   XX=   121.9437   YX=    11.2813   ZX=    -6.4573
   XY=    14.7367   YY=   142.2215   ZY=    -1.2369
   XZ=    -4.6926   YZ=    -5.7968   ZZ=   103.1900
   Eigenvalues:   101.6578   116.4338   149.2636
     12  H    Isotropic =    26.4799   Anisotropy =     2.0518
   XX=    26.4875   YX=    -1.1207   ZX=     0.1433
   XY=    -0.0546   YY=    25.7012   ZY=    -0.4283
   XZ=     1.5798   YZ=     0.5506   ZZ=    27.2511
   Eigenvalues:    25.2589    26.3331    27.8478
     13  C    Isotropic =    81.3596   Anisotropy =   127.2479
   XX=    34.2355   YX=    11.0111   ZX=    -4.7470
   XY=    14.6803   YY=   121.8185   ZY=   -55.7774
   XZ=   -16.0897   YZ=   -57.6979   ZZ=    88.0250
   Eigenvalues:    32.1329    45.7544   166.1916
     14  C    Isotropic =    50.2368   Anisotropy =   190.1697
   XX=   -26.2083   YX=    26.1546   ZX=   -26.1500
   XY=    23.4310   YY=   109.8807   ZY=   -80.4307
   XZ=   -23.2472   YZ=   -79.1742   ZZ=    67.0380
   Eigenvalues:   -32.6482     6.3421   177.0166
     15  C    Isotropic =    45.2427   Anisotropy =   117.9961
   XX=    39.1444   YX=    -0.0448   ZX=   -32.9058
   XY=    -0.5911   YY=    77.6065   ZY=   -72.7377
   XZ=   -25.6402   YZ=   -59.9973   ZZ=    18.9771
   Eigenvalues:   -32.9207    44.7419   123.9068
     16  C    Isotropic =    42.1183   Anisotropy =   121.5990
   XX=    25.7956   YX=    40.7856   ZX=    12.9887
   XY=    34.0295   YY=    57.0829   ZY=   -58.8622
   XZ=     9.1291   YZ=   -77.0471   ZZ=    43.4765
   Eigenvalues:   -36.5825    39.7532   123.1844
     17  C    Isotropic =    84.4414   Anisotropy =   111.6620
   XX=    73.9009   YX=    -8.5026   ZX=   -32.6647
   XY=   -19.0749   YY=   103.1420   ZY=   -73.0720
   XZ=   -22.1969   YZ=   -61.4597   ZZ=    76.2814
   Eigenvalues:     7.5366    86.9050   158.8828
     18  C    Isotropic =    87.2147   Anisotropy =   112.6333
   XX=    64.8022   YX=    32.5780   ZX=    18.7761
   XY=    21.2052   YY=   115.0461   ZY=   -58.3760
   XZ=    26.9652   YZ=   -63.6700   ZZ=    81.7956
   Eigenvalues:    12.3284    87.0121   162.3035
     19  H    Isotropic =    24.6737   Anisotropy =     8.0460
   XX=    29.4073   YX=    -1.7841   ZX=    -1.1860
   XY=    -0.9815   YY=    21.7670   ZY=     1.4269
   XZ=    -1.5865   YZ=     1.8084   ZZ=    22.8469
   Eigenvalues:    20.5890    23.3944    30.0377
     20  H    Isotropic =    24.7041   Anisotropy =     7.6827
   XX=    28.4918   YX=     1.2288   ZX=     2.3855
   XY=     1.4863   YY=    22.2722   ZY=     2.2865
   XZ=     1.9131   YZ=     1.9672   ZZ=    23.3483
   Eigenvalues:    20.6068    23.6796    29.8259
     21  O    Isotropic =   235.3152   Anisotropy =    60.9427
   XX=   205.1678   YX=     4.2972   ZX=   -31.2029
   XY=    -5.8331   YY=   263.4796   ZY=   -29.9426
   XZ=   -21.3116   YZ=    -8.5757   ZZ=   237.2983
   Eigenvalues:   189.0018   241.0003   275.9437
     22  H    Isotropic =    23.0854   Anisotropy =    25.5717
   XX=    28.4065   YX=    -5.9362   ZX=    11.6554
   XY=    -9.4959   YY=    20.5811   ZY=    -2.3036
   XZ=    12.9745   YZ=    -1.5240   ZZ=    20.2685
   Eigenvalues:    10.3015    18.8215    40.1331
     23  O    Isotropic =   238.5674   Anisotropy =    77.2144
   XX=   200.1377   YX=    25.9076   ZX=    -0.1184
   XY=    21.1617   YY=   249.7633   ZY=   -28.2182
   XZ=     5.8802   YZ=   -30.7008   ZZ=   265.8013
   Eigenvalues:   188.0377   237.6208   290.0437
     24  H    Isotropic =    27.5366   Anisotropy =    12.1650
   XX=    30.4607   YX=    -5.3553   ZX=     2.3536
   XY=    -7.1869   YY=    23.0652   ZY=     0.9373
   XZ=     5.6396   YZ=     0.3842   ZZ=    29.0838
   Eigenvalues:    18.8045    28.1587    35.6466
     25  O    Isotropic =   288.1894   Anisotropy =    46.5256
   XX=   267.3710   YX=   -15.0253   ZX=    12.5094
   XY=    -7.8422   YY=   301.6685   ZY=   -11.1322
   XZ=    13.9205   YZ=   -17.9638   ZZ=   295.5288
   Eigenvalues:   261.2815   284.0803   319.2065
     26  H    Isotropic =    27.8204   Anisotropy =    15.4330
   XX=    26.0400   YX=     2.5777   ZX=     6.8312
   XY=    -0.1839   YY=    26.2539   ZY=    -5.9457
   XZ=     7.7883   YZ=    -6.3689   ZZ=    31.1675
   Eigenvalues:    18.0072    27.3450    38.1091
     27  C    Isotropic =   167.8300   Anisotropy =    46.6019
   XX=   162.9293   YX=   -18.5500   ZX=   -15.1697
   XY=   -18.3612   YY=   163.3029   ZY=    15.3092
   XZ=    -9.8125   YZ=    14.3942   ZZ=   177.2580
   Eigenvalues:   144.5503   160.0419   198.8980
     28  H    Isotropic =    30.4290   Anisotropy =     9.7473
   XX=    28.2971   YX=    -1.5972   ZX=    -3.1104
   XY=    -1.4163   YY=    27.1485   ZY=     1.7746
   XZ=    -2.1266   YZ=     0.6416   ZZ=    35.8413
   Eigenvalues:    26.0772    28.2825    36.9272
     29  H    Isotropic =    29.6630   Anisotropy =     8.3585
   XX=    29.2162   YX=    -1.9811   ZX=    -1.3646
   XY=    -0.7755   YY=    34.2823   ZY=     1.5315
   XZ=    -1.0733   YZ=     2.8312   ZZ=    25.4904
   Eigenvalues:    24.7960    28.9576    35.2353
     30  H    Isotropic =    30.6568   Anisotropy =     9.3645
   XX=    35.9571   YX=    -2.2434   ZX=     0.0338
   XY=    -3.2340   YY=    28.4965   ZY=     0.6633
   XZ=    -0.7645   YZ=     1.2799   ZZ=    27.5169
   Eigenvalues:    26.7253    28.3454    36.8998
     31  O    Isotropic =   271.3194   Anisotropy =    74.9761
   XX=   299.7027   YX=    -5.1637   ZX=    35.0067
   XY=     6.2054   YY=   232.5281   ZY=    -7.6056
   XZ=    22.4908   YZ=   -15.3794   ZZ=   281.7274
   Eigenvalues:   229.1696   263.4852   321.3035
     32  H    Isotropic =    30.5357   Anisotropy =    18.0162
   XX=    38.2337   YX=    -1.4739   ZX=     6.4453
   XY=    -1.6083   YY=    23.4423   ZY=    -2.5311
   XZ=     7.5757   YZ=    -1.9727   ZZ=    29.9309
   Eigenvalues:    22.6947    26.3659    42.5464
     33  H    Isotropic =    29.8983   Anisotropy =     9.7626
   XX=    29.5935   YX=     3.1232   ZX=     2.3183
   XY=     2.4989   YY=    34.9805   ZY=     0.9922
   XZ=     1.6259   YZ=     0.7596   ZZ=    25.1209
   Eigenvalues:    24.3722    28.9160    36.4067
     34  C    Isotropic =    49.3565   Anisotropy =   169.4738
   XX=   148.6403   YX=   -33.5181   ZX=   -24.4065
   XY=   -32.7535   YY=   -30.8653   ZY=    51.3589
   XZ=   -20.1834   YZ=    48.8773   ZZ=    30.2945
   Eigenvalues:   -60.6246    46.3551   162.3390
     35  C    Isotropic =    85.2253   Anisotropy =   115.8590
   XX=   151.1585   YX=   -29.4296   ZX=   -12.3813
   XY=   -24.1207   YY=    24.7305   ZY=    44.4196
   XZ=    -9.0620   YZ=    51.6223   ZZ=    79.7869
   Eigenvalues:    -5.1789    98.3901   162.4646
     36  H    Isotropic =    26.2974   Anisotropy =     4.4395
   XX=    25.4711   YX=     0.3552   ZX=     2.3546
   XY=     1.3246   YY=    24.8302   ZY=     0.9676
   XZ=     0.6046   YZ=    -0.4038   ZZ=    28.5910
   Eigenvalues:    24.1447    25.4904    29.2571
     37  H    Isotropic =    26.4578   Anisotropy =     5.5568
   XX=    25.4218   YX=     1.1102   ZX=     0.9415
   XY=     1.8694   YY=    23.9917   ZY=    -2.0431
   XZ=     0.9913   YZ=     1.7872   ZZ=    29.9599
   Eigenvalues:    22.9971    26.2139    30.1624
     38  C    Isotropic =   170.4807   Anisotropy =    40.1106
   XX=   150.7239   YX=     9.0991   ZX=     2.4124
   XY=     5.2682   YY=   196.0926   ZY=     0.8344
   XZ=    -0.5470   YZ=     0.4381   ZZ=   164.6257
   Eigenvalues:   149.5684   164.6526   197.2211
     39  H    Isotropic =    30.2064   Anisotropy =     7.9472
   XX=    27.2707   YX=    -1.7246   ZX=    -1.5722
   XY=    -1.5848   YY=    34.1165   ZY=     3.0399
   XZ=    -2.5417   YZ=     1.0642   ZZ=    29.2320
   Eigenvalues:    25.9587    29.1560    35.5045
     40  H    Isotropic =    29.8159   Anisotropy =     8.5456
   XX=    26.3920   YX=    -0.1141   ZX=     1.3998
   XY=    -0.1272   YY=    32.4268   ZY=    -4.8274
   XZ=     1.6476   YZ=    -2.6902   ZZ=    30.6289
   Eigenvalues:    25.6550    28.2797    35.5130
     41  H    Isotropic =    29.5924   Anisotropy =     7.9091
   XX=    32.1012   YX=     2.8413   ZX=     1.1349
   XY=     3.5850   YY=    31.0591   ZY=    -1.5149
   XZ=     0.6925   YZ=    -2.1981   ZZ=    25.6168
   Eigenvalues:    24.5312    29.3809    34.8651
     42  C    Isotropic =   165.1388   Anisotropy =    27.9356
   XX=   183.1081   YX=    -6.8479   ZX=     8.2916
   XY=     3.8633   YY=   155.2573   ZY=     2.3321
   XZ=    -0.2860   YZ=     0.9638   ZZ=   157.0510
   Eigenvalues:   153.8753   157.7785   183.7625
     43  H    Isotropic =    29.2146   Anisotropy =     7.2829
   XX=    30.0514   YX=    -2.2201   ZX=    -0.3275
   XY=    -2.4249   YY=    32.6765   ZY=     1.4455
   XZ=     1.4473   YZ=     0.5621   ZZ=    24.9159
   Eigenvalues:    24.6382    28.9358    34.0698
     44  H    Isotropic =    29.1750   Anisotropy =     7.4289
   XX=    29.6375   YX=     0.4245   ZX=     1.9036
   XY=    -1.3112   YY=    24.5159   ZY=    -1.3748
   XZ=     1.5252   YZ=    -0.2569   ZZ=    33.3716
   Eigenvalues:    24.4247    28.9728    34.1276
     45  C    Isotropic =   176.8342   Anisotropy =    29.8913
   XX=   184.4299   YX=     7.1884   ZX=    -3.6335
   XY=    16.6654   YY=   176.0017   ZY=    -6.4640
   XZ=   -11.2905   YZ=    -7.7074   ZZ=   170.0711
   Eigenvalues:   165.3301   168.4108   196.7618
     46  H    Isotropic =    30.2963   Anisotropy =    11.9734
   XX=    37.9530   YX=     1.0524   ZX=     0.5494
   XY=     2.7997   YY=    26.7131   ZY=    -0.3133
   XZ=    -0.8884   YZ=    -0.5623   ZZ=    26.2229
   Eigenvalues:    25.8920    26.7184    38.2786
     47  H    Isotropic =    30.5757   Anisotropy =     7.5591
   XX=    29.4961   YX=     1.5857   ZX=    -1.3224
   XY=     2.5499   YY=    27.1946   ZY=    -1.2675
   XZ=    -1.8606   YZ=     0.0873   ZZ=    35.0363
   Eigenvalues:    25.9684    30.1435    35.6150
     48  H    Isotropic =    30.5885   Anisotropy =     7.2643
   XX=    29.6088   YX=     0.9753   ZX=    -1.1317
   XY=     1.4714   YY=    35.0755   ZY=     1.9333
   XZ=    -1.8518   YZ=     0.4688   ZZ=    27.0812
   Eigenvalues:    26.1004    30.2337    35.4314
 End of Minotr Frequency-dependent properties file   721 does not exist.
 End of Minotr Frequency-dependent properties file   722 does not exist.

 **********************************************************************

            Population analysis using the SCF density.

 **********************************************************************

 Orbital symmetries:
       Occupied  (A) (A) (A) (A) (A) (A) (A) (A) (A) (A) (A) (A)
                 (A) (A) (A) (A) (A) (A) (A) (A) (A) (A) (A) (A)
                 (A) (A) (A) (A) (A) (A) (A) (A) (A) (A) (A) (A)
                 (A) (A) (A) (A) (A) (A) (A) (A) (A) (A) (A) (A)
                 (A) (A) (A) (A) (A) (A) (A) (A) (A) (A) (A) (A)
                 (A) (A) (A) (A) (A) (A) (A) (A) (A) (A) (A) (A)
                 (A) (A) (A) (A) (A) (A) (A) (A) (A) (A) (A)
       Virtual   (A) (A) (A) (A) (A) (A) (A) (A) (A) (A) (A) (A)
                 (A) (A) (A) (A) (A) (A) (A) (A) (A) (A) (A) (A)
                 (A) (A) (A) (A) (A) (A) (A) (A) (A) (A) (A) (A)
                 (A) (A) (A) (A) (A) (A) (A) (A) (A) (A) (A) (A)
                 (A) (A) (A) (A) (A) (A) (A) (A) (A) (A) (A) (A)
                 (A) (A) (A) (A) (A) (A) (A) (A) (A) (A) (A) (A)
                 (A) (A) (A) (A) (A) (A) (A) (A) (A) (A) (A) (A)
                 (A) (A) (A) (A) (A) (A) (A) (A) (A) (A) (A) (A)
                 (A) (A) (A) (A) (A) (A) (A) (A) (A) (A) (A) (A)
                 (A) (A) (A) (A) (A) (A) (A) (A) (A) (A) (A) (A)
                 (A) (A) (A) (A) (A) (A) (A) (A) (A) (A) (A) (A)
                 (A) (A) (A) (A) (A) (A) (A) (A) (A) (A) (A) (A)
                 (A) (A) (A) (A) (A) (A) (A) (A) (A) (A) (A) (A)
                 (A) (A) (A) (A) (A) (A) (A) (A) (A) (A) (A) (A)
                 (A) (A) (A) (A) (A) (A) (A) (A) (A) (A) (A) (A)
                 (A) (A) (A) (A) (A) (A) (A) (A) (A) (A) (A) (A)
                 (A) (A) (A) (A) (A) (A) (A) (A) (A) (A) (A) (A)
                 (A) (A) (A) (A) (A) (A) (A) (A) (A) (A) (A) (A)
                 (A) (A) (A) (A) (A) (A) (A) (A) (A) (A) (A) (A)
                 (A) (A) (A) (A) (A) (A) (A) (A) (A) (A) (A) (A)
                 (A) (A) (A) (A) (A) (A) (A) (A) (A) (A) (A) (A)
                 (A) (A) (A) (A) (A) (A) (A) (A) (A) (A) (A) (A)
                 (A) (A) (A) (A) (A) (A) (A) (A) (A) (A) (A) (A)
                 (A) (A) (A) (A) (A) (A) (A) (A) (A) (A) (A) (A)
                 (A) (A) (A) (A) (A) (A) (A) (A) (A) (A) (A) (A)
                 (A) (A) (A) (A) (A) (A) (A) (A) (A) (A) (A) (A)
                 (A) (A) (A) (A) (A) (A) (A) (A) (A) (A) (A) (A)
                 (A) (A) (A) (A) (A) (A) (A) (A) (A) (A) (A) (A)
                 (A) (A) (A) (A) (A) (A) (A) (A) (A) (A) (A) (A)
                 (A) (A) (A) (A) (A) (A) (A) (A) (A) (A) (A) (A)
                 (A) (A) (A) (A) (A) (A) (A) (A) (A) (A) (A) (A)
                 (A) (A) (A) (A) (A) (A) (A) (A) (A) (A) (A) (A)
                 (A) (A) (A) (A) (A) (A) (A) (A) (A) (A) (A) (A)
                 (A) (A) (A) (A) (A) (A) (A) (A) (A) (A) (A) (A)
                 (A) (A) (A) (A) (A) (A) (A) (A) (A) (A) (A) (A)
                 (A) (A) (A) (A) (A) (A) (A) (A) (A) (A) (A) (A)
                 (A) (A) (A) (A) (A) (A) (A) (A) (A) (A) (A) (A)
                 (A) (A) (A) (A) (A) (A) (A) (A) (A) (A) (A) (A)
                 (A) (A) (A) (A) (A) (A)
 The electronic state is 1-A.
 Alpha  occ. eigenvalues --  -19.28203 -19.27242 -19.26260 -19.25966 -10.32077
 Alpha  occ. eigenvalues --  -10.31922 -10.31864 -10.31390 -10.28039 -10.26907
 Alpha  occ. eigenvalues --  -10.26787 -10.26774 -10.26269 -10.24831 -10.24821
 Alpha  occ. eigenvalues --  -10.24703 -10.24417 -10.24158 -10.24092 -10.24041
 Alpha  occ. eigenvalues --  -10.23659 -10.23656  -1.09878  -1.09238  -1.07724
 Alpha  occ. eigenvalues --   -1.05570  -0.88625  -0.87053  -0.82181  -0.82055
 Alpha  occ. eigenvalues --   -0.78700  -0.77427  -0.75995  -0.73940  -0.71158
 Alpha  occ. eigenvalues --   -0.70396  -0.67508  -0.63905  -0.63414  -0.62810
 Alpha  occ. eigenvalues --   -0.62030  -0.61196  -0.55542  -0.54422  -0.53697
 Alpha  occ. eigenvalues --   -0.53543  -0.50505  -0.50045  -0.49389  -0.48585
 Alpha  occ. eigenvalues --   -0.47783  -0.47463  -0.46388  -0.45186  -0.45105
 Alpha  occ. eigenvalues --   -0.44462  -0.43753  -0.43670  -0.42883  -0.42785
 Alpha  occ. eigenvalues --   -0.42266  -0.41311  -0.40128  -0.39716  -0.39191
 Alpha  occ. eigenvalues --   -0.38916  -0.38462  -0.38139  -0.37737  -0.37399
 Alpha  occ. eigenvalues --   -0.35893  -0.35328  -0.35287  -0.34970  -0.34557
 Alpha  occ. eigenvalues --   -0.33291  -0.33076  -0.31291  -0.30824  -0.29430
 Alpha  occ. eigenvalues --   -0.26214  -0.24268  -0.23369
 Alpha virt. eigenvalues --   -0.00604  -0.00367   0.00012   0.00629   0.01419
 Alpha virt. eigenvalues --    0.01646   0.01748   0.02551   0.03391   0.03689
 Alpha virt. eigenvalues --    0.04033   0.04279   0.04674   0.04700   0.05151
 Alpha virt. eigenvalues --    0.05745   0.06092   0.06822   0.07025   0.07215
 Alpha virt. eigenvalues --    0.07734   0.07985   0.08354   0.09196   0.09491
 Alpha virt. eigenvalues --    0.09682   0.09719   0.10318   0.10442   0.10855
 Alpha virt. eigenvalues --    0.11404   0.11940   0.12137   0.12589   0.12940
 Alpha virt. eigenvalues --    0.13160   0.13484   0.13841   0.14202   0.14473
 Alpha virt. eigenvalues --    0.15122   0.15242   0.15605   0.15719   0.16095
 Alpha virt. eigenvalues --    0.16419   0.16673   0.17046   0.17434   0.17589
 Alpha virt. eigenvalues --    0.17875   0.18620   0.18873   0.19147   0.19399
 Alpha virt. eigenvalues --    0.19531   0.20247   0.20524   0.20718   0.20826
 Alpha virt. eigenvalues --    0.20992   0.21125   0.21714   0.21947   0.22053
 Alpha virt. eigenvalues --    0.22238   0.22505   0.22920   0.23243   0.23465
 Alpha virt. eigenvalues --    0.23870   0.24138   0.24402   0.24764   0.25050
 Alpha virt. eigenvalues --    0.25303   0.25445   0.25778   0.26002   0.26333
 Alpha virt. eigenvalues --    0.26653   0.26864   0.27172   0.27818   0.28042
 Alpha virt. eigenvalues --    0.28174   0.28432   0.28743   0.29055   0.29296
 Alpha virt. eigenvalues --    0.29588   0.30117   0.30262   0.30867   0.31172
 Alpha virt. eigenvalues --    0.31538   0.32111   0.32352   0.32753   0.33027
 Alpha virt. eigenvalues --    0.33721   0.33890   0.34370   0.35191   0.35224
 Alpha virt. eigenvalues --    0.35920   0.36388   0.36733   0.37137   0.37367
 Alpha virt. eigenvalues --    0.37920   0.38234   0.39096   0.39291   0.39951
 Alpha virt. eigenvalues --    0.39969   0.40845   0.41520   0.41679   0.42304
 Alpha virt. eigenvalues --    0.43162   0.43778   0.44206   0.45063   0.45607
 Alpha virt. eigenvalues --    0.46132   0.46831   0.47799   0.48206   0.48873
 Alpha virt. eigenvalues --    0.49309   0.49921   0.50590   0.52616   0.52838
 Alpha virt. eigenvalues --    0.55029   0.60539   0.62692   0.65352   0.67803
 Alpha virt. eigenvalues --    0.68119   0.68887   0.69628   0.70326   0.70966
 Alpha virt. eigenvalues --    0.71513   0.72440   0.72780   0.73437   0.73664
 Alpha virt. eigenvalues --    0.74519   0.75059   0.75522   0.76046   0.76179
 Alpha virt. eigenvalues --    0.76436   0.77600   0.78293   0.78791   0.79424
 Alpha virt. eigenvalues --    0.79857   0.81106   0.81933   0.82278   0.84136
 Alpha virt. eigenvalues --    0.85231   0.86436   0.86494   0.88151   0.88269
 Alpha virt. eigenvalues --    0.89051   0.89590   0.90684   0.91055   0.91673
 Alpha virt. eigenvalues --    0.92151   0.92684   0.93793   0.94654   0.95158
 Alpha virt. eigenvalues --    0.95731   0.96955   0.98103   0.99007   1.00309
 Alpha virt. eigenvalues --    1.01030   1.01312   1.01643   1.01870   1.03554
 Alpha virt. eigenvalues --    1.04212   1.05493   1.05860   1.07329   1.08905
 Alpha virt. eigenvalues --    1.10101   1.10608   1.11080   1.12478   1.13205
 Alpha virt. eigenvalues --    1.13417   1.13779   1.14543   1.14753   1.15315
 Alpha virt. eigenvalues --    1.15993   1.16853   1.17254   1.17793   1.18686
 Alpha virt. eigenvalues --    1.19866   1.20330   1.20809   1.21213   1.21548
 Alpha virt. eigenvalues --    1.22577   1.24011   1.24332   1.25521   1.27000
 Alpha virt. eigenvalues --    1.27030   1.28730   1.29547   1.30318   1.30365
 Alpha virt. eigenvalues --    1.31994   1.32627   1.33176   1.33895   1.34630
 Alpha virt. eigenvalues --    1.36008   1.36374   1.37643   1.38162   1.39371
 Alpha virt. eigenvalues --    1.40141   1.40545   1.40956   1.42610   1.44124
 Alpha virt. eigenvalues --    1.45276   1.45536   1.47151   1.48147   1.48646
 Alpha virt. eigenvalues --    1.49557   1.50858   1.51331   1.53278   1.54280
 Alpha virt. eigenvalues --    1.55629   1.56860   1.57088   1.58325   1.59539
 Alpha virt. eigenvalues --    1.59979   1.60317   1.63113   1.63524   1.64892
 Alpha virt. eigenvalues --    1.65695   1.68093   1.70211   1.71441   1.72358
 Alpha virt. eigenvalues --    1.74353   1.76229   1.77865   1.78570   1.80249
 Alpha virt. eigenvalues --    1.81240   1.81661   1.82197   1.83588   1.84355
 Alpha virt. eigenvalues --    1.85074   1.85710   1.87039   1.87950   1.88476
 Alpha virt. eigenvalues --    1.88599   1.90125   1.90801   1.91430   1.92419
 Alpha virt. eigenvalues --    1.93508   1.93760   1.94175   1.95245   1.95851
 Alpha virt. eigenvalues --    1.95964   1.97260   1.97836   1.99036   1.99693
 Alpha virt. eigenvalues --    2.02254   2.02376   2.02732   2.05300   2.05902
 Alpha virt. eigenvalues --    2.06056   2.06759   2.07023   2.07938   2.09082
 Alpha virt. eigenvalues --    2.09397   2.10106   2.12413   2.13161   2.13435
 Alpha virt. eigenvalues --    2.13631   2.14502   2.15339   2.15612   2.17188
 Alpha virt. eigenvalues --    2.17820   2.18378   2.19179   2.19666   2.20425
 Alpha virt. eigenvalues --    2.21931   2.22938   2.23611   2.24477   2.25401
 Alpha virt. eigenvalues --    2.26302   2.27051   2.27849   2.29527   2.30194
 Alpha virt. eigenvalues --    2.30823   2.31342   2.31947   2.33649   2.34667
 Alpha virt. eigenvalues --    2.35895   2.37876   2.38967   2.40007   2.40941
 Alpha virt. eigenvalues --    2.42189   2.43452   2.45016   2.45432   2.47810
 Alpha virt. eigenvalues --    2.49286   2.49930   2.51000   2.51451   2.52908
 Alpha virt. eigenvalues --    2.53495   2.53942   2.54864   2.55393   2.56364
 Alpha virt. eigenvalues --    2.57817   2.58733   2.59573   2.59686   2.60577
 Alpha virt. eigenvalues --    2.61296   2.62199   2.62885   2.63665   2.64587
 Alpha virt. eigenvalues --    2.65762   2.66174   2.68618   2.69608   2.70699
 Alpha virt. eigenvalues --    2.70756   2.71550   2.72036   2.73023   2.74271
 Alpha virt. eigenvalues --    2.74896   2.76574   2.77651   2.78122   2.79353
 Alpha virt. eigenvalues --    2.79772   2.80937   2.82472   2.82586   2.84320
 Alpha virt. eigenvalues --    2.85497   2.86276   2.87268   2.88366   2.88866
 Alpha virt. eigenvalues --    2.89120   2.89990   2.90180   2.91482   2.91988
 Alpha virt. eigenvalues --    2.93083   2.94129   2.95602   2.96901   2.97593
 Alpha virt. eigenvalues --    2.99310   3.02115   3.04285   3.04899   3.08177
 Alpha virt. eigenvalues --    3.09109   3.10310   3.12249   3.14295   3.16788
 Alpha virt. eigenvalues --    3.18378   3.27448   3.29049   3.29122   3.30042
 Alpha virt. eigenvalues --    3.31865   3.36321   3.36585   3.39020   3.40116
 Alpha virt. eigenvalues --    3.42423   3.45264   3.46089   3.47537   3.48537
 Alpha virt. eigenvalues --    3.49353   3.50452   3.51492   3.52306   3.53158
 Alpha virt. eigenvalues --    3.54640   3.55869   3.58171   3.59720   3.59777
 Alpha virt. eigenvalues --    3.62170   3.62603   3.67356   3.72507   3.77685
 Alpha virt. eigenvalues --    4.35311   4.37475   4.39467   4.42455   4.46536
 Alpha virt. eigenvalues --    4.49990   4.50167   4.54116   4.54954   4.57338
 Alpha virt. eigenvalues --    4.60701   4.62758   4.65456   4.69320   4.70949
 Alpha virt. eigenvalues --    4.72394   4.76206   4.78043   4.86278   4.91390
 Alpha virt. eigenvalues --    4.98885   5.02804
          Condensed to atoms (all electrons):
              1          2          3          4          5          6
     1  C   12.674101  -1.524920   0.047153  -0.044501   0.059407  -0.020255
     2  C   -1.524920   7.344040   0.288319   0.399463   0.199265  -0.040839
     3  H    0.047153   0.288319   0.529632  -0.024368  -0.013165  -0.003697
     4  H   -0.044501   0.399463  -0.024368   0.515071  -0.065967   0.004455
     5  C    0.059407   0.199265  -0.013165  -0.065967   6.944071   0.457881
     6  H   -0.020255  -0.040839  -0.003697   0.004455   0.457881   0.524904
     7  C    0.231446  -0.909509   0.059929   0.039482  -1.169935  -0.064708
     8  H   -0.009508   0.039024  -0.000154  -0.000091  -0.012416  -0.006613
     9  C    0.829398   0.471894   0.008936  -0.040469   0.826632  -0.036841
    10  H    0.005894   0.003780  -0.000070   0.000077  -0.064422   0.002808
    11  C   -2.693612  -0.289146  -0.000990   0.032127   0.695328   0.011331
    12  H   -0.036447   0.022055  -0.000072   0.001192  -0.010188   0.000031
    13  C    0.385349  -0.023090   0.003824  -0.010837  -0.148960  -0.027391
    14  C   -0.052211   0.009410   0.000007  -0.000135  -0.041614  -0.000096
    15  C    0.088324  -0.015110   0.000866   0.000489  -0.309665   0.019506
    16  C   -0.768876   0.119148   0.000444  -0.003928  -0.257408  -0.005386
    17  C   -0.069352  -0.004868   0.000053  -0.000618  -0.095102  -0.000702
    18  C    0.098384  -0.016665   0.000034   0.000334  -0.058996   0.004625
    19  H   -0.000267   0.000044   0.000000   0.000000   0.000032   0.000000
    20  H   -0.000154   0.000045   0.000000   0.000000   0.000160   0.000000
    21  O    0.029808   0.000464  -0.000008  -0.000035   0.017576  -0.000028
    22  H    0.009979  -0.000725   0.000001   0.000000  -0.005281   0.000000
    23  O   -0.004059   0.004981  -0.000004  -0.000005   0.037403  -0.000650
    24  H    0.000033  -0.002541   0.000000   0.000000  -0.027675   0.000135
    25  O    0.003064  -0.011385  -0.000638   0.000277   0.015803  -0.000214
    26  H   -0.046723   0.015244  -0.000008  -0.000031  -0.005309  -0.000017
    27  C   -3.177902   0.336474  -0.065228   0.013214  -0.329964   0.003193
    28  H   -0.129937   0.025445   0.000299   0.001126   0.005586  -0.000001
    29  H   -0.102180   0.018535  -0.000050   0.000074  -0.010781   0.000003
    30  H   -0.065567  -0.011368   0.002385   0.000125   0.008011   0.000003
    31  O    0.358741   0.120665  -0.013543   0.009710  -0.059591   0.009050
    32  H    0.105130  -0.097051   0.004193   0.000041   0.018582  -0.000041
    33  H    0.039461  -0.041517  -0.003170  -0.003335   0.396261  -0.026405
    34  C    0.099263  -0.155177   0.003253  -0.007983  -0.376065   0.009101
    35  C   -0.252716   0.038383   0.004997  -0.013557  -0.245931   0.001552
    36  H   -0.008360   0.004399   0.000000   0.000029  -0.001779   0.000002
    37  H   -0.006506   0.018817   0.000000   0.000009  -0.006156  -0.000005
    38  C   -0.007811   0.002488  -0.003200   0.013222   0.159180   0.004661
    39  H    0.002647  -0.009947   0.000000  -0.000001   0.025131  -0.000053
    40  H   -0.001325   0.001061   0.000000  -0.000015   0.008768  -0.000002
    41  H    0.000179   0.013953  -0.000042   0.000249  -0.041049   0.000066
    42  C    0.001373   0.000490   0.000000  -0.000001   0.002277   0.000004
    43  H   -0.000006   0.000000   0.000000   0.000000   0.000017   0.000000
    44  H    0.000004  -0.000002   0.000000   0.000000   0.000012   0.000000
    45  C   -0.000218  -0.000067   0.000000   0.000000  -0.000143   0.000000
    46  H    0.000000   0.000000   0.000000   0.000000   0.000000   0.000000
    47  H    0.000002   0.000000   0.000000   0.000000   0.000001   0.000000
    48  H   -0.000005   0.000000   0.000000   0.000000   0.000002   0.000000
              7          8          9         10         11         12
     1  C    0.231446  -0.009508   0.829398   0.005894  -2.693612  -0.036447
     2  C   -0.909509   0.039024   0.471894   0.003780  -0.289146   0.022055
     3  H    0.059929  -0.000154   0.008936  -0.000070  -0.000990  -0.000072
     4  H    0.039482  -0.000091  -0.040469   0.000077   0.032127   0.001192
     5  C   -1.169935  -0.012416   0.826632  -0.064422   0.695328  -0.010188
     6  H   -0.064708  -0.006613  -0.036841   0.002808   0.011331   0.000031
     7  C   13.153590   0.096782  -1.773906   0.215026  -1.944534   0.121028
     8  H    0.096782   0.561283   0.036071  -0.006810   0.012956  -0.000177
     9  C   -1.773906   0.036071  17.224989   0.259025  -2.883064   0.019381
    10  H    0.215026  -0.006810   0.259025   0.564296  -0.262440   0.004457
    11  C   -1.944534   0.012956  -2.883064  -0.262440  21.845214   0.305413
    12  H    0.121028  -0.000177   0.019381   0.004457   0.305413   0.511220
    13  C   -0.859492   0.067062   2.809077  -0.127893  -3.250536   0.047184
    14  C   -0.021224   0.004463  -1.780789   0.013330  -0.978533  -0.000748
    15  C    0.909115  -0.006660  -2.529041   0.139019  -3.445173   0.026470
    16  C   -0.527616   0.029659  -1.878038   0.018496  -0.824542  -0.109176
    17  C   -0.488316   0.008347  -2.349733   0.003974  -1.146391  -0.033296
    18  C    0.809515  -0.030324  -0.481532   0.041687  -0.391901   0.009597
    19  H    0.002563   0.000000   0.006808   0.000002  -0.001526   0.000003
    20  H   -0.002455   0.000015   0.002271  -0.000003   0.001654   0.000000
    21  O    0.015094  -0.000261  -0.071773  -0.002123   0.308294  -0.004130
    22  H   -0.009409   0.000006  -0.020573   0.000074  -0.086569  -0.002425
    23  O   -0.097793   0.000124   0.244821  -0.006648   0.066306  -0.000012
    24  H    0.027442  -0.001533   0.005859   0.010084   0.026101   0.000007
    25  O    0.070235  -0.000652  -0.292687  -0.013634   0.502203  -0.050603
    26  H    0.022545  -0.000004  -0.020087   0.003890   0.039833   0.005593
    27  C   -0.144088   0.002790  -1.706586   0.001452   1.850533  -0.020488
    28  H   -0.002170   0.000000   0.009072  -0.000002   0.062769   0.002052
    29  H    0.006141   0.000000  -0.011662   0.000006  -0.029462   0.000318
    30  H   -0.004230   0.000000  -0.001692   0.000001   0.022867   0.000068
    31  O    0.014852  -0.000937   0.153822   0.007888  -0.346203   0.008001
    32  H    0.001613  -0.000005  -0.031851  -0.000163   0.051563  -0.000169
    33  H   -0.103871  -0.003376   0.013086   0.000093   0.017991   0.000008
    34  C   -2.166924   0.082005  -0.841095   0.016115  -0.626932  -0.024185
    35  C    0.147834  -0.032207  -0.050036  -0.000021  -0.219415   0.004325
    36  H    0.046997  -0.000138  -0.019767   0.000002   0.019160   0.000024
    37  H   -0.001884  -0.000023   0.047266  -0.000101  -0.022600   0.001177
    38  C   -0.024903  -0.010152   0.060452   0.005334  -0.067832   0.005390
    39  H   -0.022934   0.005186  -0.007182  -0.000005  -0.004401  -0.000001
    40  H    0.017950   0.000066  -0.008050   0.000001  -0.000988   0.000000
    41  H    0.054308  -0.000360   0.011702   0.000001   0.003324   0.000002
    42  C    0.004305  -0.000097  -0.075443   0.000865  -0.090437   0.000128
    43  H    0.000478   0.000000   0.001169   0.000000  -0.000106   0.000000
    44  H    0.000070   0.000000  -0.000273   0.000000  -0.000221   0.000000
    45  C    0.000178   0.000011  -0.020644   0.000051  -0.007981   0.000005
    46  H    0.000013   0.000000   0.000205   0.000000   0.000023   0.000000
    47  H   -0.000075   0.000000  -0.000483   0.000000  -0.000041   0.000000
    48  H    0.000018   0.000000   0.000443   0.000000  -0.000008   0.000000
             13         14         15         16         17         18
     1  C    0.385349  -0.052211   0.088324  -0.768876  -0.069352   0.098384
     2  C   -0.023090   0.009410  -0.015110   0.119148  -0.004868  -0.016665
     3  H    0.003824   0.000007   0.000866   0.000444   0.000053   0.000034
     4  H   -0.010837  -0.000135   0.000489  -0.003928  -0.000618   0.000334
     5  C   -0.148960  -0.041614  -0.309665  -0.257408  -0.095102  -0.058996
     6  H   -0.027391  -0.000096   0.019506  -0.005386  -0.000702   0.004625
     7  C   -0.859492  -0.021224   0.909115  -0.527616  -0.488316   0.809515
     8  H    0.067062   0.004463  -0.006660   0.029659   0.008347  -0.030324
     9  C    2.809077  -1.780789  -2.529041  -1.878038  -2.349733  -0.481532
    10  H   -0.127893   0.013330   0.139019   0.018496   0.003974   0.041687
    11  C   -3.250536  -0.978533  -3.445173  -0.824542  -1.146391  -0.391901
    12  H    0.047184  -0.000748   0.026470  -0.109176  -0.033296   0.009597
    13  C   14.822653  -0.810817  -0.060882  -0.718564  -3.427474  -1.769942
    14  C   -0.810817  11.480917  -0.164625  -1.199042   2.297367  -1.253587
    15  C   -0.060882  -0.164625  10.344362  -0.612578   0.575083   0.548447
    16  C   -0.718564  -1.199042  -0.612578  12.238353   2.208100  -2.023068
    17  C   -3.427474   2.297367   0.575083   2.208100  12.611800  -3.909911
    18  C   -1.769942  -1.253587   0.548447  -2.023068  -3.909911  14.070866
    19  H    0.113684   0.011825  -0.020761   0.004137   0.206592   0.034935
    20  H    0.097063   0.046966   0.067639   0.004315   0.027264   0.104973
    21  O   -0.219298   0.067893  -0.072505   0.068606  -0.059140  -0.004046
    22  H   -0.122125   0.000735   0.008147   0.153044   0.094456  -0.018791
    23  O   -0.025694   0.081497  -0.037099   0.053639   0.024894  -0.275932
    24  H   -0.155325  -0.016565   0.085755  -0.006143  -0.005181   0.073969
    25  O   -0.204620  -0.010851  -0.136620   0.122736   0.066120  -0.039465
    26  H   -0.021124  -0.000597   0.016827  -0.013170  -0.005410   0.004515
    27  C   -0.523457  -0.008694  -0.121621   0.056389  -0.025330  -0.001797
    28  H   -0.001583  -0.000077  -0.000201  -0.002049  -0.000524   0.000009
    29  H   -0.001119  -0.000003  -0.000012   0.000137   0.000190   0.000009
    30  H   -0.000023   0.000002   0.000082  -0.000229  -0.000033   0.000005
    31  O   -0.014240  -0.000957   0.003755  -0.018856  -0.005160   0.002404
    32  H   -0.004021  -0.000042  -0.001240  -0.002276  -0.000138  -0.000006
    33  H    0.000147   0.000068  -0.011069  -0.000297  -0.000084  -0.001172
    34  C    0.421895   0.166694   0.395368   0.428993   0.457211   0.005656
    35  C    0.139237  -0.003349  -0.040576  -0.101821  -0.213597   0.026455
    36  H   -0.022184  -0.000078  -0.002863   0.017347   0.003505  -0.001804
    37  H    0.042063  -0.005021   0.012924  -0.053430  -0.041084   0.008696
    38  C   -0.034450   0.006035   0.000015   0.074124   0.034553  -0.040516
    39  H    0.005843   0.001071   0.009112   0.003250   0.001293  -0.000888
    40  H   -0.002958   0.000063   0.002868  -0.000420  -0.000272   0.001265
    41  H    0.001208  -0.000159  -0.003050  -0.001037  -0.000131  -0.000181
    42  C   -0.669158  -1.730439   0.142987  -0.135950  -0.165012   0.486841
    43  H   -0.004194  -0.279305   0.057661  -0.030464  -0.105024   0.158712
    44  H   -0.002745  -0.238475  -0.023625   0.044553   0.139674  -0.090034
    45  C   -0.040603   0.050615  -0.004658  -0.035397   0.105028  -0.028928
    46  H    0.002668   0.017037   0.000262   0.003941   0.002751   0.013156
    47  H   -0.004218  -0.048027  -0.008059   0.001934   0.017717  -0.012401
    48  H   -0.001830  -0.056237   0.006843  -0.012746  -0.014712   0.020433
             19         20         21         22         23         24
     1  C   -0.000267  -0.000154   0.029808   0.009979  -0.004059   0.000033
     2  C    0.000044   0.000045   0.000464  -0.000725   0.004981  -0.002541
     3  H    0.000000   0.000000  -0.000008   0.000001  -0.000004   0.000000
     4  H    0.000000   0.000000  -0.000035   0.000000  -0.000005   0.000000
     5  C    0.000032   0.000160   0.017576  -0.005281   0.037403  -0.027675
     6  H    0.000000   0.000000  -0.000028   0.000000  -0.000650   0.000135
     7  C    0.002563  -0.002455   0.015094  -0.009409  -0.097793   0.027442
     8  H    0.000000   0.000015  -0.000261   0.000006   0.000124  -0.001533
     9  C    0.006808   0.002271  -0.071773  -0.020573   0.244821   0.005859
    10  H    0.000002  -0.000003  -0.002123   0.000074  -0.006648   0.010084
    11  C   -0.001526   0.001654   0.308294  -0.086569   0.066306   0.026101
    12  H    0.000003   0.000000  -0.004130  -0.002425  -0.000012   0.000007
    13  C    0.113684   0.097063  -0.219298  -0.122125  -0.025694  -0.155325
    14  C    0.011825   0.046966   0.067893   0.000735   0.081497  -0.016565
    15  C   -0.020761   0.067639  -0.072505   0.008147  -0.037099   0.085755
    16  C    0.004137   0.004315   0.068606   0.153044   0.053639  -0.006143
    17  C    0.206592   0.027264  -0.059140   0.094456   0.024894  -0.005181
    18  C    0.034935   0.104973  -0.004046  -0.018791  -0.275932   0.073969
    19  H    0.514866  -0.000133  -0.006226   0.000196   0.000114   0.000000
    20  H   -0.000133   0.513764   0.000078   0.000000  -0.007172   0.000111
    21  O   -0.006226   0.000078   8.363667   0.202761  -0.001106  -0.000204
    22  H    0.000196   0.000000   0.202761   0.320035  -0.000041  -0.000005
    23  O    0.000114  -0.007172  -0.001106  -0.000041   8.287033   0.209112
    24  H    0.000000   0.000111  -0.000204  -0.000005   0.209112   0.375081
    25  O   -0.000011   0.000001  -0.011546   0.032769  -0.000303  -0.000194
    26  H    0.000000   0.000000   0.000384   0.000400  -0.000044   0.000017
    27  C   -0.000007   0.000004   0.003861  -0.008314  -0.000517   0.000017
    28  H    0.000000   0.000000   0.000095  -0.000011   0.000000   0.000000
    29  H    0.000000   0.000000   0.000111  -0.000028   0.000000   0.000000
    30  H    0.000000   0.000000   0.000001   0.000000   0.000000   0.000000
    31  O    0.000000   0.000000   0.001529  -0.000673   0.000028   0.000011
    32  H    0.000000   0.000000   0.000019  -0.000001  -0.000004   0.000000
    33  H    0.000000   0.000000   0.000005   0.000000   0.000337  -0.000019
    34  C   -0.003674   0.001346   0.013020   0.007090  -0.071212   0.015729
    35  C    0.002993  -0.000201  -0.087111   0.003299   0.025983  -0.004541
    36  H    0.000000   0.000000   0.000186  -0.000001  -0.000033   0.000000
    37  H   -0.000002   0.000000   0.002827  -0.000199   0.000006  -0.000001
    38  C   -0.000155  -0.000013   0.001141   0.000191   0.004538   0.000059
    39  H    0.000000   0.000000   0.000001   0.000000  -0.000622   0.000008
    40  H    0.000000   0.000000  -0.000006   0.000000  -0.000049   0.000000
    41  H    0.000000   0.000000   0.000004   0.000000   0.000070  -0.000001
    42  C   -0.040971  -0.035337   0.005191   0.000173  -0.005912   0.000151
    43  H    0.000086   0.001822   0.000037   0.000000   0.000055   0.000000
    44  H    0.001759   0.000086   0.000014   0.000000   0.000039   0.000000
    45  C    0.004949   0.005824   0.000283   0.000129   0.000847   0.000110
    46  H   -0.000026  -0.000029   0.000000   0.000000   0.000001   0.000000
    47  H    0.000006   0.000145   0.000005   0.000000   0.000008   0.000000
    48  H    0.000146   0.000010   0.000024   0.000000   0.000007   0.000000
             25         26         27         28         29         30
     1  C    0.003064  -0.046723  -3.177902  -0.129937  -0.102180  -0.065567
     2  C   -0.011385   0.015244   0.336474   0.025445   0.018535  -0.011368
     3  H   -0.000638  -0.000008  -0.065228   0.000299  -0.000050   0.002385
     4  H    0.000277  -0.000031   0.013214   0.001126   0.000074   0.000125
     5  C    0.015803  -0.005309  -0.329964   0.005586  -0.010781   0.008011
     6  H   -0.000214  -0.000017   0.003193  -0.000001   0.000003   0.000003
     7  C    0.070235   0.022545  -0.144088  -0.002170   0.006141  -0.004230
     8  H   -0.000652  -0.000004   0.002790   0.000000   0.000000   0.000000
     9  C   -0.292687  -0.020087  -1.706586   0.009072  -0.011662  -0.001692
    10  H   -0.013634   0.003890   0.001452  -0.000002   0.000006   0.000001
    11  C    0.502203   0.039833   1.850533   0.062769  -0.029462   0.022867
[...]
    16  C    0.129375  -0.022764   0.158315   0.001049   0.002897  -0.001441
    17  C    0.065831  -0.006238  -0.013248  -0.000221   0.000261  -0.000074
    18  C   -0.046815   0.004290  -0.009820   0.000013  -0.000036   0.000011
    19  H   -0.000006   0.000000  -0.000028   0.000000   0.000000   0.000000
    20  H   -0.000001   0.000000   0.000005   0.000000   0.000000   0.000000
    21  O   -0.013687   0.001840   0.006643   0.000038   0.000132  -0.000003
    22  H    0.032764  -0.000054  -0.006425  -0.000009  -0.000039   0.000000
    23  O   -0.000587  -0.000013  -0.000488   0.000000   0.000000   0.000000
    24  H   -0.000127   0.000012  -0.000064   0.000000   0.000000   0.000000
    25  O    8.439635   0.239078   0.011251  -0.002170   0.005329  -0.001009
    26  H    0.239078   0.315297   0.000991   0.000136   0.000281   0.000042
    27  C    0.011251   0.000991   8.360986   0.438657   0.512459   0.456351
    28  H   -0.002170   0.000136   0.438657   0.528376  -0.026142  -0.025953
    29  H    0.005329   0.000281   0.512459  -0.026142   0.531576  -0.029621
    30  H   -0.001009   0.000042   0.456351  -0.025953  -0.029621   0.532853
    31  O   -0.001485   0.026667  -0.210029   0.008301   0.000293  -0.011548
    32  H   -0.000344  -0.000576  -0.005245   0.000059  -0.000749   0.003136
    33  H    0.000085   0.000000  -0.004008  -0.000003   0.000002  -0.000004
    34  C   -0.041816   0.000738   0.044904  -0.001477  -0.001964   0.001040
    35  C   -0.001673  -0.000192   0.068282   0.001872   0.000742   0.000160
    36  H    0.000054   0.000000   0.000703   0.000000   0.000000   0.000000
    37  H   -0.000101  -0.000004   0.004663  -0.000004   0.000001   0.000000
    38  C    0.000642   0.000334  -0.036511  -0.000046  -0.000035  -0.000110
    39  H    0.000002   0.000000   0.000054   0.000000   0.000000   0.000000
    40  H    0.000000   0.000000  -0.000008   0.000000   0.000000   0.000000
    41  H   -0.000001   0.000000  -0.000716   0.000000   0.000000   0.000000
    42  C   -0.003240   0.000004  -0.000151   0.000000  -0.000001   0.000000
    43  H    0.000000   0.000000   0.000000   0.000000   0.000000   0.000000
    44  H    0.000000   0.000000   0.000000   0.000000   0.000000   0.000000
    45  C   -0.000053   0.000002  -0.000021   0.000000   0.000000   0.000000
    46  H    0.000000   0.000000   0.000000   0.000000   0.000000   0.000000
    47  H    0.000000   0.000000   0.000000   0.000000   0.000000   0.000000
    48  H    0.000000   0.000000   0.000000   0.000000   0.000000   0.000000
             31         32         33         34         35         36
     1  C    0.302076   0.035625   0.059283  -0.101054  -0.229010  -0.004554
     2  C    0.117778  -0.062947  -0.115894  -0.065605   0.092735   0.002293
     3  H   -0.014807   0.004000  -0.002975  -0.003585   0.009489   0.000000
     4  H    0.008302   0.000081  -0.003632  -0.024206  -0.020883   0.000041
     5  C   -0.044474   0.008653   0.515512  -0.361226  -0.502008  -0.000096
     6  H    0.009763  -0.000067  -0.031101  -0.021331  -0.002544   0.000003
     7  C   -0.003192  -0.000456  -0.104641  -2.795260  -0.338969   0.050175
     8  H   -0.000857  -0.000005  -0.003957   0.098178  -0.027112  -0.000149
     9  C    0.161347  -0.024026   0.022384  -0.570085  -0.110838  -0.014575
    10  H    0.007681  -0.000153   0.000134   0.007777   0.004550   0.000003
    11  C   -0.394712   0.059106   0.033276  -0.591291  -0.391017   0.013715
    12  H    0.007502  -0.000163   0.000014  -0.034978   0.002507   0.000048
    13  C   -0.004080  -0.003715  -0.006122   0.421541   0.214455  -0.018742
    14  C   -0.000252  -0.000034  -0.000026   0.104043  -0.001022  -0.000308
    15  C    0.007486  -0.001551  -0.013324   0.360932   0.062417  -0.001838
    16  C   -0.016583  -0.000637  -0.002995   0.404613  -0.082417   0.009474
    17  C   -0.002733  -0.000066  -0.000341   0.388555  -0.176131  -0.000170
    18  C    0.002355  -0.000056  -0.001164  -0.013801   0.049087  -0.001278
    19  H    0.000000   0.000000   0.000000  -0.002175   0.001862   0.000000
    20  H    0.000000   0.000000   0.000000   0.001019  -0.000416   0.000000
    21  O    0.001249   0.000010   0.000012   0.001304  -0.084924   0.000487
    22  H   -0.000526   0.000000   0.000000   0.007578   0.003310  -0.000003
    23  O    0.000058  -0.000004   0.000453  -0.045506   0.026542  -0.000038
    24  H   -0.000034   0.000000  -0.000024   0.008019  -0.003843   0.000000
    25  O   -0.001485  -0.000344   0.000085  -0.041816  -0.001673   0.000054
    26  H    0.026667  -0.000576   0.000000   0.000738  -0.000192   0.000000
    27  C   -0.210029  -0.005245  -0.004008   0.044904   0.068282   0.000703
    28  H    0.008301   0.000059  -0.000003  -0.001477   0.001872   0.000000
    29  H    0.000293  -0.000749   0.000002  -0.001964   0.000742   0.000000
    30  H   -0.011548   0.003136  -0.000004   0.001040   0.000160   0.000000
    31  O    8.499044   0.240569  -0.001490  -0.003476  -0.008737   0.000002
    32  H    0.240569   0.326511   0.000011   0.000003   0.000444   0.000000
    33  H   -0.001490   0.000011   0.569332  -0.059913  -0.013343  -0.000005
    34  C   -0.003476   0.000003  -0.059913  10.949864  -0.794627  -0.178875
    35  C   -0.008737   0.000444  -0.013343  -0.794627   8.995542   0.532200
    36  H    0.000002   0.000000  -0.000005  -0.178875   0.532200   0.541948
    37  H   -0.000046   0.000000   0.000002  -0.192990   0.618875  -0.037250
    38  C    0.007420  -0.000486   0.014090  -0.919522  -1.104142  -0.040513
    39  H   -0.000008   0.000000  -0.000026  -0.122898  -0.024994   0.000239
    40  H   -0.000001   0.000000   0.000033  -0.116495  -0.038531   0.002767
    41  H    0.000035   0.000000   0.000486  -0.160236  -0.015945   0.000342
    42  C    0.000086   0.000000   0.000001   0.001010  -0.015487  -0.000406
    43  H    0.000000   0.000000   0.000000  -0.000201  -0.000043   0.000000
    44  H    0.000000   0.000000   0.000000  -0.000089   0.000026   0.000000
    45  C   -0.000005   0.000000   0.000000   0.000853  -0.000481  -0.000001
    46  H    0.000000   0.000000   0.000000  -0.000005   0.000000   0.000000
    47  H    0.000000   0.000000   0.000000   0.000014   0.000002   0.000000
    48  H    0.000000   0.000000   0.000000  -0.000003  -0.000012   0.000000
             37         38         39         40         41         42
     1  C   -0.015967   0.036195   0.002178  -0.001046  -0.000177  -0.000905
     2  C    0.023489  -0.070342  -0.008443   0.000426   0.015451   0.000419
     3  H    0.000001  -0.003511   0.000000   0.000000  -0.000044   0.000000
     4  H   -0.000029   0.014691   0.000002  -0.000013   0.000266  -0.000001
     5  C   -0.007156   0.226688   0.007432   0.015004  -0.046350   0.008464
     6  H   -0.000006   0.007092  -0.000046  -0.000002   0.000065   0.000011
     7  C   -0.031647   0.162070  -0.040731   0.015078   0.084307   0.022826
     8  H    0.000005  -0.008364   0.005012   0.000138  -0.000463   0.000018
     9  C    0.026893  -0.061206  -0.007147  -0.011429   0.008621  -0.085522
    10  H   -0.000099   0.004459  -0.000006   0.000001   0.000001   0.000271
    11  C   -0.026007  -0.173742  -0.002521  -0.003429  -0.000495  -0.084463
    12  H    0.000858   0.004463  -0.000001   0.000000   0.000003  -0.000056
    13  C    0.018245  -0.014917   0.003735  -0.002198   0.002140  -0.727732
    14  C   -0.002050   0.018700   0.001228   0.000301  -0.000265  -1.764403
    15  C    0.012217   0.055642   0.007515   0.004680  -0.003015   0.128785
    16  C   -0.016201   0.070483   0.003327  -0.000767  -0.001616  -0.197822
    17  C   -0.020424   0.045240   0.001182  -0.000176  -0.000155  -0.256936
    18  C    0.003835  -0.005472  -0.001823   0.002152  -0.000180   0.491422
    19  H   -0.000004  -0.000106   0.000000   0.000000   0.000000  -0.050890
    20  H    0.000000   0.000028   0.000000   0.000000   0.000000  -0.035488
    21  O    0.000267  -0.000616   0.000003  -0.000007   0.000006   0.005365
    22  H   -0.000099   0.000272   0.000000   0.000000   0.000000   0.000050
    23  O    0.000002  -0.001504  -0.000424  -0.000065   0.000060  -0.002266
    24  H   -0.000001   0.000511   0.000005   0.000000   0.000000  -0.000355
    25  O   -0.000101   0.000642   0.000002   0.000000  -0.000001  -0.003240
    26  H   -0.000004   0.000334   0.000000   0.000000   0.000000   0.000004
    27  C    0.004663  -0.036511   0.000054  -0.000008  -0.000716  -0.000151
    28  H   -0.000004  -0.000046   0.000000   0.000000   0.000000   0.000000
    29  H    0.000001  -0.000035   0.000000   0.000000   0.000000  -0.000001
    30  H    0.000000  -0.000110   0.000000   0.000000   0.000000   0.000000
    31  O   -0.000046   0.007420  -0.000008  -0.000001   0.000035   0.000086
    32  H    0.000000  -0.000486   0.000000   0.000000   0.000000   0.000000
    33  H    0.000002   0.014090  -0.000026   0.000033   0.000486   0.000001
    34  C   -0.192990  -0.919522  -0.122898  -0.116495  -0.160236   0.001010
    35  C    0.618875  -1.104142  -0.024994  -0.038531  -0.015945  -0.015487
    36  H   -0.037250  -0.040513   0.000239   0.002767   0.000342  -0.000406
    37  H    0.547148  -0.055744  -0.000206   0.000247  -0.000195   0.000612
    38  C   -0.055744   6.964843   0.528578   0.491212   0.465138   0.014549
    39  H   -0.000206   0.528578   0.538899  -0.026586  -0.030444   0.000096
    40  H    0.000247   0.491212  -0.026586   0.534219  -0.026764   0.000012
    41  H   -0.000195   0.465138  -0.030444  -0.026764   0.538458  -0.000002
    42  C    0.000612   0.014549   0.000096   0.000012  -0.000002   7.443332
    43  H    0.000000   0.000013   0.000000   0.000000   0.000000   0.555331
    44  H    0.000000   0.000012   0.000000   0.000000   0.000000   0.527744
    45  C   -0.000019   0.000325   0.000002   0.000000   0.000000   0.206496
    46  H    0.000000   0.000000   0.000000   0.000000   0.000000  -0.051567
    47  H    0.000000   0.000000   0.000000   0.000000   0.000000  -0.040178
    48  H    0.000000   0.000000   0.000000   0.000000   0.000000  -0.028810
             43         44         45         46         47         48
     1  C   -0.000004   0.000001  -0.000166   0.000000   0.000001  -0.000009
     2  C    0.000000  -0.000001  -0.000107   0.000000   0.000000   0.000000
     3  H    0.000000   0.000000   0.000000   0.000000   0.000000   0.000000
     4  H    0.000000   0.000000   0.000000   0.000000   0.000000   0.000000
     5  C    0.000014   0.000014  -0.000157   0.000001  -0.000001   0.000001
     6  H    0.000000   0.000000   0.000000   0.000000   0.000000   0.000000
     7  C    0.000521   0.000141   0.003372   0.000011  -0.000042   0.000015
     8  H    0.000000   0.000000   0.000020   0.000000   0.000000   0.000000
     9  C   -0.000059  -0.000351  -0.028019   0.000229  -0.000915   0.000258
    10  H    0.000000   0.000000   0.000067   0.000000   0.000000   0.000000
    11  C   -0.000187  -0.000190  -0.008803   0.000029  -0.000089  -0.000009
    12  H    0.000000   0.000000   0.000005   0.000000   0.000000   0.000000
    13  C   -0.009858  -0.006528  -0.067754   0.001848  -0.004069  -0.003923
    14  C   -0.230986  -0.201599   0.109499  -0.037876   0.021916   0.007386
    15  C    0.035515  -0.017833  -0.024406  -0.000304  -0.026336   0.015731
    16  C   -0.025783   0.025455  -0.059080   0.006702   0.005413  -0.037798
    17  C   -0.079842   0.081071   0.091076   0.003612   0.040973  -0.054072
    18  C    0.096308  -0.066985  -0.040902   0.013989  -0.059487   0.038562
    19  H    0.000114   0.002133   0.002701  -0.000032   0.000009   0.000171
    20  H    0.002211   0.000116   0.003159  -0.000035   0.000188   0.000016
    21  O    0.000031   0.000017   0.000340  -0.000001   0.000007   0.000046
    22  H    0.000000   0.000000   0.000158   0.000000   0.000000   0.000000
    23  O    0.000046   0.000034   0.000784   0.000000   0.000023   0.000008
    24  H    0.000000   0.000000   0.000105   0.000000   0.000000   0.000000
    25  O    0.000000   0.000000  -0.000053   0.000000   0.000000   0.000000
    26  H    0.000000   0.000000   0.000002   0.000000   0.000000   0.000000
    27  C    0.000000   0.000000  -0.000021   0.000000   0.000000   0.000000
    28  H    0.000000   0.000000   0.000000   0.000000   0.000000   0.000000
    29  H    0.000000   0.000000   0.000000   0.000000   0.000000   0.000000
    30  H    0.000000   0.000000   0.000000   0.000000   0.000000   0.000000
    31  O    0.000000   0.000000  -0.000005   0.000000   0.000000   0.000000
    32  H    0.000000   0.000000   0.000000   0.000000   0.000000   0.000000
    33  H    0.000000   0.000000   0.000000   0.000000   0.000000   0.000000
    34  C   -0.000201  -0.000089   0.000853  -0.000005   0.000014  -0.000003
    35  C   -0.000043   0.000026  -0.000481   0.000000   0.000002  -0.000012
    36  H    0.000000   0.000000  -0.000001   0.000000   0.000000   0.000000
    37  H    0.000000   0.000000  -0.000019   0.000000   0.000000   0.000000
    38  C    0.000013   0.000012   0.000325   0.000000   0.000000   0.000000
    39  H    0.000000   0.000000   0.000002   0.000000   0.000000   0.000000
    40  H    0.000000   0.000000   0.000000   0.000000   0.000000   0.000000
    41  H    0.000000   0.000000   0.000000   0.000000   0.000000   0.000000
    42  C    0.555331   0.527744   0.206496  -0.051567  -0.040178  -0.028810
    43  H    0.567193  -0.033432  -0.024564  -0.003341  -0.004943   0.004900
    44  H   -0.033432   0.565915  -0.023798  -0.003365   0.004871  -0.004969
    45  C   -0.024564  -0.023798   5.191905   0.422244   0.418652   0.417976
    46  H   -0.003341  -0.003365   0.422244   0.550209  -0.026997  -0.026936
    47  H   -0.004943   0.004871   0.418652  -0.026997   0.542202  -0.028625
    48  H    0.004900  -0.004969   0.417976  -0.026936  -0.028625   0.542972
 Mulliken atomic charges:
              1
     1  C    0.125693
     2  C   -0.300594
     3  H    0.159258
     4  H    0.165924
     5  C   -0.556745
     6  H    0.157996
     7  C    0.249036
     8  H    0.158573
     9  C   -0.094576
    10  H    0.160344
    11  C   -0.120992
    12  H    0.186174
    13  C    0.261094
    14  C    0.148433
    15  C    0.401596
    16  C   -0.188342
    17  C   -0.661415
    18  C   -0.072863
    19  H    0.147801
    20  H    0.150202
    21  O   -0.634008
    22  H    0.456782
    23  O   -0.582400
    24  H    0.419776
    25  O   -0.664960
    26  H    0.425087
    27  C   -0.279571
    28  H    0.168072
    29  H    0.165682
    30  H    0.164716
    31  O   -0.688937
    32  H    0.423073
    33  H    0.149874
    34  C    0.422707
    35  C   -0.695761
    36  H    0.144311
    37  H    0.148892
    38  C   -0.636799
    39  H    0.166813
    40  H    0.161244
    41  H    0.171685
    42  C   -0.060222
    43  H    0.151048
    44  H    0.151590
    45  C   -0.591408
    46  H    0.151587
    47  H    0.157409
    48  H    0.157124
 Sum of Mulliken atomic charges =   0.00000
 Mulliken charges with hydrogens summed into heavy atoms:
              1
     1  C    0.125693
     2  C    0.024588
     5  C   -0.248875
     7  C    0.407609
     9  C    0.065769
    11  C    0.065182
    13  C    0.261094
    14  C    0.148433
    15  C    0.401596
    16  C   -0.188342
    17  C   -0.513614
    18  C    0.077338
    21  O   -0.177226
    23  O   -0.162624
    25  O   -0.239872
    27  C    0.218898
    31  O   -0.265865
    34  C    0.422707
    35  C   -0.402558
    38  C   -0.137057
    42  C    0.242415
    45  C   -0.125289
 Sum of Mulliken charges with hydrogens summed into heavy atoms =   0.00000
 Electronic spatial extent (au):  <R**2>=           7326.7320
 Charge=              0.0000 electrons
 Dipole moment (field-independent basis, Debye):
    X=              6.6245    Y=              0.8416    Z=              2.8736  Tot=              7.2698
 Quadrupole moment (field-independent basis, Debye-Ang):
   XX=           -108.5955   YY=           -139.1415   ZZ=           -137.2515
   XY=             -1.3896   XZ=              6.0671   YZ=             -5.7022
 Traceless Quadrupole moment (field-independent basis, Debye-Ang):
   XX=             19.7340   YY=            -10.8120   ZZ=             -8.9220
   XY=             -1.3896   XZ=              6.0671   YZ=             -5.7022
 Octapole moment (field-independent basis, Debye-Ang**2):
  XXX=             80.8798  YYY=             -3.3337  ZZZ=             23.5584  XYY=             27.7971
  XXY=            -19.0448  XXZ=             17.7728  XZZ=             23.6169  YZZ=             -5.5224
  YYZ=              7.8634  XYZ=             -1.6227
 Hexadecapole moment (field-independent basis, Debye-Ang**3):
 XXXX=          -6060.4846 YYYY=          -2082.9222 ZZZZ=          -1087.5526 XXXY=           -176.6583
 XXXZ=            198.7691 YYYX=            -19.2698 YYYZ=            -45.0651 ZZZX=             53.6218
 ZZZY=            -28.8178 XXYY=          -1468.2062 XXZZ=          -1301.1140 YYZZ=           -547.2729
 XXYZ=             -1.5699 YYXZ=             19.2247 ZZXY=            -12.8249
 N-N= 1.977282710428D+03 E-N=-6.286811052836D+03  KE= 9.931254293893D+02

 Test job not archived.
 1\1\GINC-COMPUTE-8-17\SP\RB3LYP\6-31+G(d,p)\C18H26O4\LPASSAGLIA.IQUIR\
 23-Dec-2022\0\\# B3LYP/6-31+G** geom=allcheck test scrf=(pcm,solvent=w
 ater,smd,dovacuum)\\comment\\0,1\C,0,1.49216537,2.54793874,-1.38268776
 5\C,0,0.834996149,3.472723749,-0.354979034\H,0,1.405682559,4.406287018
 ,-0.273168117\H,0,-0.178137202,3.741731155,-0.677107437\C,0,0.78361999
 1,2.827398082,1.026684968\H,0,1.807446349,2.652339423,1.383298804\C,0,
 0.019012022,1.483258775,1.026315256\H,0,0.161826924,1.073956004,2.0340
 92154\C,0,0.733958684,0.50135593,0.020720852\H,0,1.783423704,0.4222979
 63,0.344202518\C,0,0.829906509,1.146855997,-1.392742126\H,0,-0.1544264
 9,1.231344393,-1.859586098\C,0,0.230672621,-0.95114333,0.144590161\C,0
 ,-0.910010136,-3.547137248,0.574423219\C,0,0.349715728,-1.636577397,1.
 373611856\C,0,-0.396452317,-1.673590903,-0.885719182\C,0,-0.974545801,
 -2.931559178,-0.675240606\C,0,-0.222147179,-2.893677532,1.59512959\H,0
 ,-1.466048091,-3.431326435,-1.507148496\H,0,-0.114579731,-3.360603891,
 2.571352133\O,0,-0.478657546,-1.23253095,-2.177345787\H,0,0.399799589,
 -0.849657199,-2.399517474\O,0,1.05371288,-1.140916266,2.440531183\H,0,
 1.786495247,-0.605229495,2.099537352\O,0,1.628700931,0.284957988,-2.23
 6771437\H,0,2.556345874,0.518035324,-2.014089473\C,0,1.459119254,3.185
 793758,-2.776105741\H,0,0.432521707,3.316682526,-3.133217778\H,0,2.007
 298405,2.578785965,-3.504998997\H,0,1.947574649,4.16702362,-2.76615117
 \O,0,2.877414577,2.358655357,-1.033130474\H,0,3.30736821,3.233355888,-
 1.055476436\H,0,0.347495803,3.535390175,1.739608128\C,0,-1.499130537,1
 .708982189,0.920283569\C,0,-2.309938359,1.258906162,-0.051975991\H,0,-
 3.381235975,1.441792707,-0.02197612\H,0,-1.976093794,0.671541285,-0.89
 6588334\C,0,-2.12476085,2.448686688,2.083545734\H,0,-1.790596465,2.020
 409986,3.034226803\H,0,-3.218791241,2.389183406,2.071545017\H,0,-1.856
 791742,3.508899841,2.060064694\C,0,-1.518052746,-4.905422387,0.7983204
 38\H,0,-1.860453106,-4.989413952,1.836981831\H,0,-2.413431262,-5.01591
 2079,0.174464678\C,0,-0.535509599,-6.02475247,0.489428865\H,0,-1.00506
 0366,-6.998463209,0.661237102\H,0,0.353676279,-5.959846728,1.125686619
 \H,0,-0.205099479,-5.986809446,-0.554159451\\Version=EM64L-G09RevC.01\
 State=1-A\HF=-1002.5400896\RMSD=2.600e-09\Dipole=1.387002,2.4685902,0.
 4036243\Quadrupole=-0.2318676,11.4572519,-11.2253843,7.6836879,-2.4642
 863,-2.7474416\PG=C01 [X(C18H26O4)]\\@


 EVERYTHING'S GOT A MORAL, IF ONLY YOU CAN FIND IT.

                                    -- LEWIS CARROL, ALICE IN WONDERLAND
 Job cpu time:  0 days  2 hours 19 minutes 45.5 seconds.
 File lengths (MBytes):  RWF=    238 Int=      0 D2E=      0 Chk=     19 Scr=      1
 Normal termination of Gaussian 09 at Fri Dec 23 15:43:30 2022.
