 Entering Gaussian System, Link 0=g09
 Input=/home/eluciano.iquir/todos_optB3L_MPW_B_PCM/01_epoxido28_002_optB3L_nmr_MPW_B_PCM.gjc
 Output=/home/eluciano.iquir/todos_optB3L_MPW_B_PCM/01_epoxido28_002_optB3L_nmr_MPW_B_PCM.log
 Initial command:
 /share/apps/Gaussian09/EM64T.SSE4.2-enabled/g09/l1.exe /tmp/Gau-19278.inp -scrdir=/tmp/
 Entering Link 1 = /share/apps/Gaussian09/EM64T.SSE4.2-enabled/g09/l1.exe PID=     19279.
  
 Copyright (c) 1988,1990,1992,1993,1995,1998,2003,2009,2011,
            Gaussian, Inc.  All Rights Reserved.
  
 This is part of the Gaussian(R) 09 program.  It is based on
 the Gaussian(R) 03 system (copyright 2003, Gaussian, Inc.),
 the Gaussian(R) 98 system (copyright 1998, Gaussian, Inc.),
 the Gaussian(R) 94 system (copyright 1995, Gaussian, Inc.),
 the Gaussian 92(TM) system (copyright 1992, Gaussian, Inc.),
 the Gaussian 90(TM) system (copyright 1990, Gaussian, Inc.),
 the Gaussian 88(TM) system (copyright 1988, Gaussian, Inc.),
 the Gaussian 86(TM) system (copyright 1986, Carnegie Mellon
 University), and the Gaussian 82(TM) system (copyright 1983,
 Carnegie Mellon University). Gaussian is a federally registered
 trademark of Gaussian, Inc.
  
 This software contains proprietary and confidential information,
 including trade secrets, belonging to Gaussian, Inc.
  
 This software is provided under written license and may be
 used, copied, transmitted, or stored only in accord with that
 written license.
  
 The following legend is applicable only to US Government
 contracts under FAR:
  
                    RESTRICTED RIGHTS LEGEND
  
 Use, reproduction and disclosure by the US Government is
 subject to restrictions as set forth in subparagraphs (a)
 and (c) of the Commercial Computer Software - Restricted
 Rights clause in FAR 52.227-19.
  
 Gaussian, Inc.
 340 Quinnipiac St., Bldg. 40, Wallingford CT 06492
  
  
 ---------------------------------------------------------------
 Warning -- This program may not be used in any manner that
 competes with the business of Gaussian, Inc. or will provide
 assistance to any competitor of Gaussian, Inc.  The licensee
 of this program is prohibited from giving any competitor of
 Gaussian, Inc. access to this program.  By using this program,
 the user acknowledges that Gaussian, Inc. is engaged in the
 business of creating and licensing software in the field of
 computational chemistry and represents and warrants to the
 licensee that it is not a competitor of Gaussian, Inc. and that
 it will not use this program in any manner prohibited above.
 ---------------------------------------------------------------
  

 Cite this work as:
 Gaussian 09, Revision C.01,
 M. J. Frisch, G. W. Trucks, H. B. Schlegel, G. E. Scuseria, 
 M. A. Robb, J. R. Cheeseman, G. Scalmani, V. Barone, B. Mennucci, 
 G. A. Petersson, H. Nakatsuji, M. Caricato, X. Li, H. P. Hratchian, 
 A. F. Izmaylov, J. Bloino, G. Zheng, J. L. Sonnenberg, M. Hada, 
 M. Ehara, K. Toyota, R. Fukuda, J. Hasegawa, M. Ishida, T. Nakajima, 
 Y. Honda, O. Kitao, H. Nakai, T. Vreven, J. A. Montgomery, Jr., 
 J. E. Peralta, F. Ogliaro, M. Bearpark, J. J. Heyd, E. Brothers, 
 K. N. Kudin, V. N. Staroverov, T. Keith, R. Kobayashi, J. Normand, 
 K. Raghavachari, A. Rendell, J. C. Burant, S. S. Iyengar, J. Tomasi, 
 M. Cossi, N. Rega, J. M. Millam, M. Klene, J. E. Knox, J. B. Cross, 
 V. Bakken, C. Adamo, J. Jaramillo, R. Gomperts, R. E. Stratmann, 
 O. Yazyev, A. J. Austin, R. Cammi, C. Pomelli, J. W. Ochterski, 
 R. L. Martin, K. Morokuma, V. G. Zakrzewski, G. A. Voth, 
 P. Salvador, J. J. Dannenberg, S. Dapprich, A. D. Daniels, 
 O. Farkas, J. B. Foresman, J. V. Ortiz, J. Cioslowski, 
 and D. J. Fox, Gaussian, Inc., Wallingford CT, 2010.
 
 ******************************************
 Gaussian 09:  EM64L-G09RevC.01 23-Sep-2011
                 6-Dec-2022 
 ******************************************
 %nprocshared=4
 Will use up to    4 processors via shared memory.
 %mem=80MW
 -----------------------------------------------------
 # mPW1PW91/6-31+g** scrf=(PCM,solvent=chloroform) nmr
 -----------------------------------------------------
 1/38=1/1;
 2/12=2,17=6,18=5,40=1/2;
 3/5=1,6=6,7=111,11=2,16=1,25=1,30=1,70=2201,72=7,74=-7/1,2,8,3;
 4//1;
 5/5=2,38=5,53=7/2;
 8/6=1,10=90,11=11/1;
 10/13=100,45=16/2;
 6/7=2,8=2,9=2,10=2,28=1/1;
 99/9=1/99;
 -------
 comment
 -------
 Charge =  0 Multiplicity = 1
 Symbolic Z-Matrix:
 1                    -0.22259  -0.72039   0.81592 
 6                    -0.43803  -0.06246  -0.03694 
 6                    -2.26652  -1.66311  -0.74206 
 6                    -2.75203   0.21135   0.9352 
 6                    -3.29139  -0.71587  -0.14587 
 6                    -1.49501   0.95129   0.44861 
 6                    -1.00139  -0.90611  -1.18661 
 1                    -2.70979  -2.21535  -1.57764 
 1                    -3.51778   0.9586    1.18654 
 1                    -1.08173   1.53581   1.28439 
 1                    -0.23874  -1.61468  -1.52817 
 1                    -2.00176  -2.40162   0.02591 
 1                    -1.22813  -0.2376   -2.02442 
 6                    -4.51914  -0.34924  -0.85954 
 1                    -5.00258   0.6056   -0.65513 
 1                    -4.70289  -0.7595   -1.85268 
 8                    -4.56157  -1.30816   0.21272 
 8                    -2.38943  -0.54271   2.09052 
 1                    -3.17226  -1.06881   2.3248 
 8                    -1.95128   1.81849  -0.58143 
 6                    -1.17911   2.98982  -0.7975 
 1                    -1.00359   3.52845   0.14698 
 1                    -1.76821   3.6297   -1.46141 
 1                    -0.21392   2.76704  -1.26241 
 8                     0.74429   0.61478  -0.45861 
 14                    2.26445   0.58188   0.26307 
 6                     3.12127   2.11979  -0.41179 
 1                     4.13825   2.22775  -0.01701 
 1                     2.55984   3.01918  -0.1333 
 1                     3.18656   2.09696  -1.50531 
 6                     3.23188  -1.00698  -0.22233 
 6                     2.09234   0.70396   2.14462 
 1                     3.07139   0.65147   2.63613 
 1                     1.47117  -0.09541   2.56502 
 1                     1.6335    1.65864   2.42841 
 6                     2.55398  -2.26517   0.36222 
 1                     2.5015   -2.23457   1.45734 
 1                     3.1216   -3.16688   0.08892 
 1                     1.53433  -2.3992   -0.01847 
 6                     4.67211  -0.9217    0.32982 
 1                     4.69101  -0.84315   1.42383 
 1                     5.21985  -0.0633   -0.07753 
 1                     5.23816  -1.82528   0.06033 
 6                     3.29138  -1.13695  -1.75931 
 1                     3.83107  -2.0511   -2.04738 
 1                     3.81508  -0.29107  -2.22101 
 1                     2.29029  -1.18843  -2.20238 
 
                          Input orientation:                          
 ---------------------------------------------------------------------
 Center     Atomic      Atomic             Coordinates (Angstroms)
 Number     Number       Type             X           Y           Z
 ---------------------------------------------------------------------
      1          1           0       -0.222594   -0.720388    0.815920
      2          6           0       -0.438034   -0.062457   -0.036935
      3          6           0       -2.266524   -1.663114   -0.742063
      4          6           0       -2.752032    0.211352    0.935199
      5          6           0       -3.291388   -0.715867   -0.145866
      6          6           0       -1.495010    0.951288    0.448610
      7          6           0       -1.001391   -0.906113   -1.186607
      8          1           0       -2.709789   -2.215345   -1.577643
      9          1           0       -3.517776    0.958600    1.186544
     10          1           0       -1.081725    1.535811    1.284392
     11          1           0       -0.238741   -1.614678   -1.528167
     12          1           0       -2.001763   -2.401623    0.025913
     13          1           0       -1.228127   -0.237596   -2.024416
     14          6           0       -4.519142   -0.349243   -0.859537
     15          1           0       -5.002578    0.605598   -0.655125
     16          1           0       -4.702895   -0.759498   -1.852676
     17          8           0       -4.561569   -1.308161    0.212723
     18          8           0       -2.389429   -0.542711    2.090518
     19          1           0       -3.172264   -1.068806    2.324799
     20          8           0       -1.951279    1.818492   -0.581434
     21          6           0       -1.179114    2.989819   -0.797503
     22          1           0       -1.003591    3.528445    0.146977
     23          1           0       -1.768208    3.629703   -1.461414
     24          1           0       -0.213920    2.767038   -1.262405
     25          8           0        0.744293    0.614776   -0.458614
     26         14           0        2.264449    0.581877    0.263072
     27          6           0        3.121266    2.119792   -0.411788
     28          1           0        4.138249    2.227754   -0.017005
     29          1           0        2.559837    3.019175   -0.133301
     30          1           0        3.186565    2.096956   -1.505314
     31          6           0        3.231883   -1.006977   -0.222332
     32          6           0        2.092344    0.703957    2.144622
     33          1           0        3.071389    0.651467    2.636126
     34          1           0        1.471172   -0.095405    2.565020
     35          1           0        1.633500    1.658638    2.428414
     36          6           0        2.553975   -2.265173    0.362219
     37          1           0        2.501500   -2.234573    1.457338
     38          1           0        3.121604   -3.166882    0.088922
     39          1           0        1.534329   -2.399198   -0.018473
     40          6           0        4.672115   -0.921704    0.329815
     41          1           0        4.691013   -0.843152    1.423827
     42          1           0        5.219855   -0.063299   -0.077527
     43          1           0        5.238159   -1.825284    0.060326
     44          6           0        3.291376   -1.136949   -1.759306
     45          1           0        3.831070   -2.051097   -2.047377
     46          1           0        3.815084   -0.291065   -2.221006
     47          1           0        2.290293   -1.188430   -2.202380
 ---------------------------------------------------------------------
                    Distance matrix (angstroms):
                    1          2          3          4          5
     1  H    0.000000
     2  C    1.098476   0.000000
     3  C    2.737461   2.530353   0.000000
     4  C    2.698226   2.524798   2.561747   0.000000
     5  C    3.215983   2.929239   1.517588   1.522938   0.000000
     6  C    2.132712   1.542929   2.974564   1.537654   2.521861
     7  C    2.156649   1.533255   1.539880   2.969096   2.522582
     8  H    3.761672   3.488492   1.095279   3.493568   2.153294
     9  H    3.716798   3.467603   3.486910   1.099053   2.151838
    10  H    2.459269   2.171337   3.967794   2.160105   3.463857
    11  H    2.508936   2.161685   2.175364   3.964743   3.469477
    12  H    2.572179   2.814409   1.097853   2.866591   2.129416
    13  H    3.051507   2.145927   2.180550   3.359042   2.831031
    14  C    4.626579   4.173052   2.610430   2.580314   1.466669
    15  H    5.174018   4.654408   3.555363   2.783796   2.221213
    16  H    5.214981   4.687411   2.825931   3.538455   2.215278
    17  O    4.419958   4.314817   2.510944   2.470894   1.446637
    18  O    2.520187   2.926541   3.048594   1.426483   2.417628
    19  H    3.331466   3.750539   3.252570   1.935559   2.498588
    20  O    3.374442   2.474744   3.499537   2.350379   2.899756
    21  C    4.157367   3.231726   4.778632   3.632658   4.314909
    22  H    4.371501   3.639815   5.416427   3.831637   4.830523
    23  H    5.147666   4.174991   5.364671   4.289148   4.789021
    24  H    4.059760   3.091609   4.910212   4.219361   4.779968
    25  O    2.083739   1.426308   3.786046   3.785466   4.260885
    26  Si   2.861279   2.794385   5.155579   5.074852   5.720026
    27  C    4.555797   4.191818   6.591490   6.320771   7.016681
    28  H    5.329377   5.117405   7.528989   7.242137   7.992560
    29  H    4.756813   4.300346   6.751902   6.102583   6.941724
    30  H    4.994789   4.467317   6.667598   6.691677   7.191936
    31  C    3.618496   3.794045   5.561755   6.215420   6.530211
    32  C    3.025417   3.427739   5.738964   5.017304   6.020532
    33  H    4.005678   4.468892   6.727760   6.082687   7.077712
    34  H    2.513722   3.227433   5.231145   4.537165   5.515057
    35  H    3.421255   3.651214   6.024628   4.853578   6.043154
    36  C    3.209601   3.736763   4.981880   5.883468   6.068506
    37  H    3.181959   3.948645   5.281854   5.818486   6.199539
    38  H    4.206842   4.724862   5.655420   6.828488   6.869430
    39  H    2.569318   3.057927   3.938513   5.108557   5.112473
    40  C    4.922906   5.194847   7.059980   7.534472   7.980352
    41  H    4.952591   5.389845   7.332853   7.533237   8.136268
    42  H    5.554301   5.658035   7.684197   8.040649   8.536497
    43  H    5.622414   5.944425   7.549198   8.291950   8.603865
    44  C    4.376448   4.246127   5.674671   6.752855   6.790676
    45  H    5.138234   5.120724   6.247802   7.573088   7.491862
    46  H    5.070511   4.786590   6.407476   7.303497   7.415430
    47  H    3.955224   3.660701   4.808579   6.101543   5.967221
                    6          7          8          9         10
     6  C    0.000000
     7  C    2.523397   0.000000
     8  H    3.950817   2.187606   0.000000
     9  H    2.153180   3.929528   4.285732   0.000000
    10  H    1.100456   3.474951   4.991293   2.505412   0.000000
    11  H    3.474196   1.095611   2.543487   4.974282   4.306587
    12  H    3.417233   2.169677   1.762780   3.864771   4.234811
    13  H    2.756906   1.095558   2.511259   4.121121   3.756942
    14  C    3.542316   3.576542   2.696622   2.626716   4.468299
    15  H    3.693341   4.310132   3.750419   2.391860   4.472148
    16  H    4.302701   3.763811   2.483466   3.686899   5.312486
    17  O    3.816351   3.846379   2.730839   2.678813   4.620169
    18  O    2.393299   3.577465   4.044223   2.084291   2.584605
    19  H    3.227080   4.131480   4.093591   2.350612   3.498118
    20  O    1.421694   2.948219   4.223696   2.513777   2.077821
    21  C    2.410020   3.919346   5.481361   3.678537   2.541242
    22  H    2.640874   4.630740   6.235106   3.742450   2.295737
    23  H    3.301020   4.608379   5.921543   4.148188   3.520667
    24  H    2.804588   3.757379   5.581476   4.492579   2.958915
    25  O    2.439421   2.427033   4.603531   4.581484   2.687139
    26  Si   3.782119   3.870581   5.996309   5.867610   3.626288
    27  C    4.838976   5.172306   7.358929   6.926753   4.569813
    28  H    5.794805   6.132291   8.310977   7.853280   5.424071
    29  H    4.588743   5.403673   7.566722   6.551743   4.179856
    30  H    5.200723   5.163233   7.305352   7.313696   5.129877
    31  C    5.160279   4.342880   6.212929   7.169820   5.229073
    32  C    3.975769   4.822925   6.740776   5.697035   3.392151
    33  H    5.072191   5.798869   7.706911   6.753719   4.456187
    34  H    3.791173   4.565689   6.255896   5.282114   3.289097
    35  H    3.769289   5.156450   7.065437   5.344898   2.948952
    36  C    5.171785   4.109323   5.610059   6.923755   5.340056
    37  H    5.209543   4.585357   6.030673   6.819191   5.204345
    38  H    6.196921   4.872077   6.139056   7.893399   6.419692
    39  H    4.541015   3.166025   4.525191   6.184710   4.901581
    40  C    6.446367   5.872687   7.733331   8.446528   6.329081
    41  H    6.514441   6.262730   8.103308   8.407546   6.245271
    42  H    6.811433   6.375288   8.352299   8.887539   6.642431
    43  H    7.293537   6.428974   8.124344   9.256607   7.261972
    44  C    5.669666   4.336948   6.099994   7.709339   5.960852
    45  H    6.603892   5.040297   6.559761   8.574500   6.935571
    46  H    6.071852   4.964544   6.833062   8.181925   6.293173
    47  H    5.092608   3.456397   5.142535   7.058910   5.563234
                   11         12         13         14         15
    11  H    0.000000
    12  H    2.478446   0.000000
    13  H    1.766777   3.079834   0.000000
    14  C    4.513339   3.366524   3.492877   0.000000
    15  H    5.327849   4.302567   4.102733   1.089594   0.000000
    16  H    4.556897   3.677198   3.517938   1.090137   1.840496
    17  O    4.670278   2.789832   4.154845   1.439120   2.147120
    18  O    4.343898   2.805073   4.286537   3.643615   3.960520
    19  H    4.873282   2.903679   4.835933   3.531550   3.877322
    20  O    3.951676   4.263894   2.613933   3.371993   3.284352
    21  C    4.756003   5.515652   3.453104   4.723237   4.508177
    22  H    5.462858   6.014708   4.352979   5.329975   5.017798
    23  H    5.463264   6.216396   3.945207   4.874618   4.500718
    24  H    4.389838   5.618826   3.261457   5.329957   5.288843
    25  O    2.660971   4.107828   2.658705   5.365987   5.750237
    26  Si   3.781448   5.211342   4.254671   6.938612   7.324843
    27  C    5.146087   6.846912   5.203371   8.041918   8.267336
    28  H    6.017137   7.689780   6.237439   9.072000   9.305552
    29  H    5.590195   7.086508   5.341493   7.873094   7.955361
    30  H    5.050690   7.035667   5.020867   8.110415   8.367140
    31  C    3.757624   5.421966   4.871462   7.804936   8.402027
    32  C    4.929443   5.558351   5.412294   7.337980   7.627986
    33  H    5.782189   6.470815   6.402884   8.416486   8.719139
    34  H    4.688942   4.881289   5.326289   6.904773   7.264309
    35  H    5.465749   5.955910   5.622482   7.259285   7.392877
    36  C    3.434526   4.570172   4.910335   7.429163   8.147258
    37  H    4.099565   4.728241   5.479110   7.629665   8.297003
    38  H    4.039336   5.180587   5.653943   8.198760   8.988189
    39  H    2.457321   3.536371   4.040729   6.446256   7.222553
    40  C    5.296113   6.842745   6.389308   9.285552   9.843904
    41  H    5.797585   7.012578   6.877012   9.501824  10.019313
    42  H    5.857252   7.591457   6.737747   9.774526  10.260564
    43  H    5.706496   7.262907   6.977088   9.911093  10.549585
    44  C    3.569787   5.727454   4.615737   7.901535   8.546658
    45  H    4.125943   6.200269   5.374457   8.604261   9.328973
    46  H    4.320356   6.583222   5.047324   8.444898   9.000397
    47  H    2.651842   4.985867   3.648977   6.991128   7.668018
                   16         17         18         19         20
    16  H    0.000000
    17  O    2.141700   0.000000
    18  O    4.576888   2.971569   0.000000
    19  H    4.459798   2.539355   0.971851   0.000000
    20  O    3.979130   4.149730   3.592573   4.274750   0.000000
    21  C    5.252409   5.561851   4.720625   5.494893   1.419483
    22  H    6.005824   6.004689   4.719344   5.529988   2.086297
    23  H    5.294389   5.915074   5.514633   6.195383   2.021971
    24  H    5.738970   6.138836   5.189352   6.027730   2.093293
    25  O    5.788255   5.683357   4.202150   5.091292   2.954679
    26  Si   7.404023   7.083029   5.124728   6.044280   4.473787
    27  C    8.460731   8.436043   6.611975   7.567337   5.084316
    28  H    9.511004   9.393737   7.397818   8.354337   6.129309
    29  H    8.365518   8.340263   6.490581   7.457267   4.689630
    30  H    8.397831   8.635974   7.140697   8.070100   5.227670
    31  C    8.104318   7.811394   6.096226   6.892372   5.914169
    32  C    8.018439   7.214944   4.652247   5.557990   5.002445
    33  H    9.087335   8.244700   5.616430   6.483785   6.077979
    34  H    7.620772   6.587719   3.915287   4.750444   5.027559
    35  H    8.020288   7.217345   4.598268   5.526758   4.683522
    36  C    7.735307   7.181169   5.512816   6.170318   6.153382
    37  H    8.064450   7.231476   5.213876   5.856885   6.356978
    38  H    8.413566   7.905777   6.423717   7.000989   7.144052
    39  H    6.704915   6.197079   4.825999   5.423365   5.500482
    40  C    9.627066   9.242509   7.287600   8.095424   7.225538
    41  H    9.949270   9.343087   7.118104   7.917941   7.431384
    42  H   10.104297   9.864592   7.926630   8.786915   7.431031
    43  H   10.179392   9.814546   7.996673   8.742729   8.085603
    44  C    8.003721   8.098577   6.888092   7.646123   6.132491
    45  H    8.633348   8.723325   7.621812   8.314295   7.110434
    46  H    8.538797   8.782132   7.559666   8.372112   6.355263
    47  H    7.015052   7.266022   6.383238   7.095716   5.446098
                   21         22         23         24         25
    21  C    0.000000
    22  H    1.101349   0.000000
    23  H    1.094194   1.783764   0.000000
    24  H    1.094242   1.785967   1.788744   0.000000
    25  O    3.074926   3.451276   4.050686   2.489274   0.000000
    26  Si   4.333720   4.401798   5.340919   3.639275   1.683089
    27  C    4.404429   4.394425   5.223840   3.502277   2.813764
    28  H    5.428100   5.306336   6.240033   4.558862   3.783603
    29  H    3.797602   3.610531   4.568217   3.005358   3.030373
    30  H    4.511912   4.726165   5.186619   3.474379   3.042553
    31  C    5.980142   6.216565   6.930731   5.215218   2.978929
    32  C    4.958195   4.642535   6.038820   4.602498   2.932922
    33  H    5.943440   5.574794   7.005814   5.519732   3.872226
    34  H    5.277233   5.010357   6.370415   5.067770   3.189839
    35  H    4.482118   3.956688   5.530595   4.273600   3.196133
    36  C    6.549492   6.802104   7.533689   5.968567   3.498974
    37  H    6.776835   6.871323   7.819159   6.307664   3.857128
    38  H    7.562202   7.864350   8.515126   6.939972   4.500260
    39  H    6.083680   6.450222   7.023993   5.594080   3.146732
    40  C    7.127955   7.214631   8.087124   6.325766   4.290708
    41  H    7.354207   7.291757   8.369742   6.656402   4.609310
    42  H    7.126479   7.189041   8.024116   6.240245   4.542650
    43  H    8.068611   8.223708   9.008982   7.250118   5.139847
    44  C    6.159591   6.621673   6.957665   5.270211   3.353800
    45  H    7.216298   7.701975   7.997922   6.339759   4.377127
    46  H    6.142685   6.589054   6.864587   5.148183   3.654631
    47  H    5.609655   6.214343   6.343096   4.774973   2.946589
                   26         27         28         29         30
    26  Si   0.000000
    27  C    1.885406   0.000000
    28  H    2.509677   1.096250   0.000000
    29  H    2.486923   1.096197   1.769536   0.000000
    30  H    2.504586   1.095712   1.771405   1.767964   0.000000
    31  C    1.922499   3.134456   3.365582   4.082827   3.358943
    32  C    1.893345   3.098145   3.343698   3.281420   4.057068
    33  H    2.507465   3.383526   3.265268   3.679328   4.387964
    34  H    2.527244   4.060947   4.379180   4.262245   4.931190
    35  H    2.499243   3.239268   3.546510   3.044921   4.251864
    36  C    2.863451   4.488744   4.779135   5.307533   4.787068
    37  H    3.068364   4.778937   4.976444   5.489572   5.292331
    38  H    3.849446   5.310333   5.490618   6.215486   5.500345
    39  H    3.082069   4.805657   5.309340   5.515761   5.015574
    40  C    2.839378   3.493681   3.213158   4.495189   3.832345
    41  H    3.044055   3.822646   3.436860   4.678048   4.414461
    42  H    3.044123   3.046587   2.534257   4.071910   3.292347
    43  H    3.831251   4.501972   4.200345   5.538924   4.695129
    44  C    2.845866   3.528612   3.882529   4.522434   3.245557
    45  H    3.837320   4.535999   4.746086   5.566631   4.232678
    46  H    3.055673   3.093038   3.362515   4.109969   2.570972
    47  H    3.035310   3.852411   4.456581   4.696561   3.476056
                   31         32         33         34         35
    31  C    0.000000
    32  C    3.135014   0.000000
    33  H    3.308622   1.096750   0.000000
    34  H    3.420584   1.096161   1.767362   0.000000
    35  H    4.084946   1.096582   1.767785   1.766827   0.000000
    36  C    1.544123   3.493680   3.734322   3.276078   4.529098
    37  H    2.204936   3.045444   3.169155   2.620033   4.105302
    38  H    2.185001   4.502074   4.590268   4.276559   5.565368
    39  H    2.204887   3.823602   4.326200   3.462064   4.739528
    40  C    1.544800   3.548453   3.218115   3.990607   4.505049
    41  H    2.205842   3.109047   2.515301   3.496973   4.076338
    42  H    2.205341   3.912538   3.534220   4.586579   4.701782
    43  H    2.185101   4.542852   4.178987   4.843156   5.544287
    44  C    1.543607   4.479650   4.750437   4.806012   5.301024
    45  H    2.186321   5.309081   5.460418   5.537875   6.214833
    46  H    2.201670   4.797563   5.003317   5.332753   5.493429
    47  H    2.200024   4.745181   5.235119   4.959210   5.475530
                   36         37         38         39         40
    36  C    0.000000
    37  H    1.096802   0.000000
    38  H    1.099988   1.768132   0.000000
    39  H    1.096616   1.772157   1.766441   0.000000
    40  C    2.508481   2.776059   2.739149   3.485684   0.000000
    41  H    2.777784   2.594445   3.105598   3.803441   1.096991
    42  H    3.485476   3.802591   3.750012   4.363830   1.096725
    43  H    2.736692   3.099752   2.506094   3.748859   1.099767
    44  C    2.513467   3.489338   2.750527   2.776866   2.513403
    45  H    2.735499   3.752925   2.512388   3.084258   2.762956
    46  H    3.487198   4.362676   3.753266   3.807521   2.763855
    47  H    2.793935   3.812159   3.139334   2.609002   3.486579
                   41         42         43         44         45
    41  H    0.000000
    42  H    1.772543   0.000000
    43  H    1.767226   1.767464   0.000000
    44  C    3.489647   2.774912   2.752241   0.000000
    45  H    3.774638   3.124160   2.544269   1.099964   0.000000
    46  H    3.789045   2.572890   3.095714   1.096794   1.768648
    47  H    4.362574   3.789888   3.770323   1.095962   1.772629
                   46         47
    46  H    0.000000
    47  H    1.769350   0.000000
 Stoichiometry    C14H28O4Si
 Framework group  C1[X(C14H28O4Si)]
 Deg. of freedom   135
 Full point group                 C1      NOp   1
 Largest Abelian subgroup         C1      NOp   1
 Largest concise Abelian subgroup C1      NOp   1
                         Standard orientation:                         
 ---------------------------------------------------------------------
 Center     Atomic      Atomic             Coordinates (Angstroms)
 Number     Number       Type             X           Y           Z
 ---------------------------------------------------------------------
      1          1           0       -0.222594   -0.720388    0.815920
      2          6           0       -0.438034   -0.062457   -0.036935
      3          6           0       -2.266524   -1.663114   -0.742063
      4          6           0       -2.752032    0.211352    0.935199
      5          6           0       -3.291388   -0.715867   -0.145866
      6          6           0       -1.495010    0.951288    0.448610
      7          6           0       -1.001391   -0.906113   -1.186607
      8          1           0       -2.709789   -2.215345   -1.577643
      9          1           0       -3.517776    0.958600    1.186544
     10          1           0       -1.081725    1.535811    1.284392
     11          1           0       -0.238741   -1.614678   -1.528167
     12          1           0       -2.001763   -2.401623    0.025913
     13          1           0       -1.228127   -0.237596   -2.024416
     14          6           0       -4.519142   -0.349243   -0.859537
     15          1           0       -5.002578    0.605598   -0.655125
     16          1           0       -4.702895   -0.759498   -1.852676
     17          8           0       -4.561569   -1.308161    0.212723
     18          8           0       -2.389429   -0.542711    2.090518
     19          1           0       -3.172264   -1.068806    2.324799
     20          8           0       -1.951279    1.818492   -0.581434
     21          6           0       -1.179114    2.989819   -0.797503
     22          1           0       -1.003591    3.528445    0.146977
     23          1           0       -1.768208    3.629703   -1.461414
     24          1           0       -0.213920    2.767038   -1.262405
     25          8           0        0.744293    0.614776   -0.458614
     26         14           0        2.264449    0.581877    0.263072
     27          6           0        3.121266    2.119792   -0.411788
     28          1           0        4.138249    2.227754   -0.017005
     29          1           0        2.559837    3.019175   -0.133301
     30          1           0        3.186565    2.096956   -1.505314
     31          6           0        3.231883   -1.006977   -0.222332
     32          6           0        2.092344    0.703957    2.144622
     33          1           0        3.071389    0.651467    2.636126
     34          1           0        1.471172   -0.095405    2.565020
     35          1           0        1.633500    1.658638    2.428414
     36          6           0        2.553975   -2.265173    0.362219
     37          1           0        2.501500   -2.234573    1.457338
     38          1           0        3.121604   -3.166882    0.088922
     39          1           0        1.534329   -2.399198   -0.018473
     40          6           0        4.672115   -0.921704    0.329815
     41          1           0        4.691013   -0.843152    1.423827
     42          1           0        5.219855   -0.063299   -0.077527
     43          1           0        5.238159   -1.825284    0.060326
     44          6           0        3.291376   -1.136949   -1.759306
     45          1           0        3.831070   -2.051097   -2.047377
     46          1           0        3.815084   -0.291065   -2.221006
     47          1           0        2.290293   -1.188430   -2.202380
 ---------------------------------------------------------------------
 Rotational constants (GHZ):      0.6067901      0.1980093      0.1812303
 Standard basis: 6-31+G(d,p) (6D, 7F)
 There are   505 symmetry adapted basis functions of A   symmetry.
 Integral buffers will be    131072 words long.
 Raffenetti 2 integral format.
 Two-electron integral symmetry is turned on.
   505 basis functions,   828 primitive gaussians,   505 cartesian basis functions
    79 alpha electrons       79 beta electrons
       nuclear repulsion energy      1812.8956614798 Hartrees.
 NAtoms=   47 NActive=   47 NUniq=   47 SFac= 1.00D+00 NAtFMM=   60 NAOKFM=F Big=F
 ------------------------------------------------------------------------------
 Polarizable Continuum Model (PCM)
 =================================
 Model                : PCM.
 Atomic radii         : UFF (Universal Force Field).
 Polarization charges : Total charges.
 Charge compensation  : None.
 Solution method      : Matrix inversion.
 Cavity type          : Scaled VdW (van der Waals Surface) (Alpha=1.100).
 Cavity algorithm     : GePol (No added spheres)
                        Default sphere list used, NSphG=   47.
                        Lebedev-Laikov grids with approx.  5.0 points / Ang**2.
                        Smoothing algorithm: Karplus/York (Gamma=1.0000).
                        Polarization charges: spherical gaussians, with
                                              point-specific exponents (IZeta= 3).
                        Self-potential: point-specific (ISelfS= 7).
                        Self-field    : sphere-specific E.n sum rule (ISelfD= 2).
 Solvent              : Chloroform, Eps=   4.711300 Eps(inf)=   2.090627
 ------------------------------------------------------------------------------
 One-electron integrals computed using PRISM.
 NBasis=   505 RedAO= T  NBF=   505
 NBsUse=   505 1.00D-06 NBFU=   505
 Harris functional with IExCor=  908 diagonalized for initial guess.
 ExpMin= 3.31D-02 ExpMax= 1.61D+04 ExpMxC= 2.43D+03 IAcc=3 IRadAn=         5 AccDes= 0.00D+00
 HarFok:  IExCor=  908 AccDes= 0.00D+00 IRadAn=         5 IDoV= 1
 ScaDFX=  1.000000  1.000000  1.000000  1.000000
 FoFCou: FMM=F IPFlag=           0 FMFlag=      100000 FMFlg1=           0
         NFxFlg=           0 DoJE=T BraDBF=F KetDBF=T FulRan=T
         Omega=  0.000000  0.000000  1.000000  0.000000  0.000000 ICntrl=     500 IOpCl=  0
         NMat0=    1 NMatS0=    1 NMatT0=    0 NMatD0=    1 NMtDS0=    0 NMtDT0=    0
         I1Cent=           4 NGrid=           0.
 Petite list used in FoFCou.
 Initial guess orbital symmetries:
       Occupied  (A) (A) (A) (A) (A) (A) (A) (A) (A) (A) (A) (A)
                 (A) (A) (A) (A) (A) (A) (A) (A) (A) (A) (A) (A)
                 (A) (A) (A) (A) (A) (A) (A) (A) (A) (A) (A) (A)
                 (A) (A) (A) (A) (A) (A) (A) (A) (A) (A) (A) (A)
                 (A) (A) (A) (A) (A) (A) (A) (A) (A) (A) (A) (A)
                 (A) (A) (A) (A) (A) (A) (A) (A) (A) (A) (A) (A)
                 (A) (A) (A) (A) (A) (A) (A)
       Virtual   (A) (A) (A) (A) (A) (A) (A) (A) (A) (A) (A) (A)
                 (A) (A) (A) (A) (A) (A) (A) (A) (A) (A) (A) (A)
                 (A) (A) (A) (A) (A) (A) (A) (A) (A) (A) (A) (A)
                 (A) (A) (A) (A) (A) (A) (A) (A) (A) (A) (A) (A)
                 (A) (A) (A) (A) (A) (A) (A) (A) (A) (A) (A) (A)
                 (A) (A) (A) (A) (A) (A) (A) (A) (A) (A) (A) (A)
                 (A) (A) (A) (A) (A) (A) (A) (A) (A) (A) (A) (A)
                 (A) (A) (A) (A) (A) (A) (A) (A) (A) (A) (A) (A)
                 (A) (A) (A) (A) (A) (A) (A) (A) (A) (A) (A) (A)
                 (A) (A) (A) (A) (A) (A) (A) (A) (A) (A) (A) (A)
                 (A) (A) (A) (A) (A) (A) (A) (A) (A) (A) (A) (A)
                 (A) (A) (A) (A) (A) (A) (A) (A) (A) (A) (A) (A)
                 (A) (A) (A) (A) (A) (A) (A) (A) (A) (A) (A) (A)
                 (A) (A) (A) (A) (A) (A) (A) (A) (A) (A) (A) (A)
                 (A) (A) (A) (A) (A) (A) (A) (A) (A) (A) (A) (A)
                 (A) (A) (A) (A) (A) (A) (A) (A) (A) (A) (A) (A)
                 (A) (A) (A) (A) (A) (A) (A) (A) (A) (A) (A) (A)
                 (A) (A) (A) (A) (A) (A) (A) (A) (A) (A) (A) (A)
                 (A) (A) (A) (A) (A) (A) (A) (A) (A) (A) (A) (A)
                 (A) (A) (A) (A) (A) (A) (A) (A) (A) (A) (A) (A)
                 (A) (A) (A) (A) (A) (A) (A) (A) (A) (A) (A) (A)
                 (A) (A) (A) (A) (A) (A) (A) (A) (A) (A) (A) (A)
                 (A) (A) (A) (A) (A) (A) (A) (A) (A) (A) (A) (A)
                 (A) (A) (A) (A) (A) (A) (A) (A) (A) (A) (A) (A)
                 (A) (A) (A) (A) (A) (A) (A) (A) (A) (A) (A) (A)
                 (A) (A) (A) (A) (A) (A) (A) (A) (A) (A) (A) (A)
                 (A) (A) (A) (A) (A) (A) (A) (A) (A) (A) (A) (A)
                 (A) (A) (A) (A) (A) (A) (A) (A) (A) (A) (A) (A)
                 (A) (A) (A) (A) (A) (A) (A) (A) (A) (A) (A) (A)
                 (A) (A) (A) (A) (A) (A) (A) (A) (A) (A) (A) (A)
                 (A) (A) (A) (A) (A) (A) (A) (A) (A) (A) (A) (A)
                 (A) (A) (A) (A) (A) (A) (A) (A) (A) (A) (A) (A)
                 (A) (A) (A) (A) (A) (A) (A) (A) (A) (A) (A) (A)
                 (A) (A) (A) (A) (A) (A) (A) (A) (A) (A) (A) (A)
                 (A) (A) (A) (A) (A) (A) (A) (A) (A) (A) (A) (A)
                 (A) (A) (A) (A) (A) (A)
 The electronic state of the initial guess is 1-A.
 Requested convergence on RMS density matrix=1.00D-08 within 128 cycles.
 Requested convergence on MAX density matrix=1.00D-06.
 Requested convergence on             energy=1.00D-06.
 No special actions if energy rises.
 Error on total polarization charges =  0.01525
 SCF Done:  E(RmPW1PW91) =  -1140.62352209     A.U. after   13 cycles
             Convg  =    0.4337D-08             -V/T =  2.0080
 Range of M.O.s used for correlation:     1   505
 NBasis=   505 NAE=    79 NBE=    79 NFC=     0 NFV=     0
 NROrb=    505 NOA=    79 NOB=    79 NVA=   426 NVB=   426

 **** Warning!!: The largest alpha MO coefficient is  0.67942521D+02

 NEqPCM:  Using equilibrium solvation (IEInf=0, Eps=   4.7113, EpsInf=   2.0906)
          Differentiating once with respect to magnetic field using GIAOs.
          Electric field/nuclear overlap derivatives assumed to be zero.
 FoFCou: FMM=F IPFlag=           0 FMFlag=    10101102 FMFlg1=           0
         NFxFlg=    40000000 DoJE=F BraDBF=F KetDBF=T FulRan=T
         Omega=  0.000000  0.000000  1.000000  0.000000  0.000000 ICntrl=    6100 IOpCl=  0
         NMat0=    1 NMatS0=    1 NMatT0=    0 NMatD0=    1 NMtDS0=    0 NMtDT0=    0
         I1Cent=           7 NGrid=        3033.
 Symmetry not used in FoFCou.
          There are     3 degrees of freedom in the 1st order CPHF.  IDoFFX=0.
      3 vectors produced by pass  0 Test12= 1.12D-12 3.33D-08 XBig12= 2.00D+02 1.82D+00.
 AX will form     3 AO Fock derivatives at one time.
      3 vectors produced by pass  1 Test12= 1.12D-12 3.33D-08 XBig12= 4.46D-01 8.04D-02.
      3 vectors produced by pass  2 Test12= 1.12D-12 3.33D-08 XBig12= 9.35D-04 6.38D-03.
      3 vectors produced by pass  3 Test12= 1.12D-12 3.33D-08 XBig12= 4.78D-06 4.62D-04.
      3 vectors produced by pass  4 Test12= 1.12D-12 3.33D-08 XBig12= 1.84D-08 2.66D-05.
      3 vectors produced by pass  5 Test12= 1.12D-12 3.33D-08 XBig12= 5.87D-11 8.95D-07.
      3 vectors produced by pass  6 Test12= 1.12D-12 3.33D-08 XBig12= 1.98D-13 4.38D-08.
 Inverted reduced A of dimension    21 with in-core refinement.
 Calculating GIAO nuclear magnetic shielding tensors.
 SCF GIAO Magnetic shielding tensor (ppm):
      1  H    Isotropic =    27.0993   Anisotropy =     8.8794
   XX=    32.7770   YX=     2.0738   ZX=    -1.0850
   XY=     0.4310   YY=    24.0955   ZY=    -2.3424
   XZ=     0.2346   YZ=    -2.0075   ZZ=    24.4254
   Eigenvalues:    22.0412    26.2377    33.0189
      2  C    Isotropic =   122.1689   Anisotropy =    54.2850
   XX=   140.2780   YX=    15.2738   ZX=   -13.2573
   XY=    29.9944   YY=   122.2307   ZY=     0.1471
   XZ=   -16.2946   YZ=     0.5380   ZZ=   103.9978
   Eigenvalues:    95.2689   112.8789   158.3589
      3  C    Isotropic =   166.9262   Anisotropy =    26.3939
   XX=   181.7115   YX=     6.0420   ZX=    -8.1908
   XY=    -3.5382   YY=   165.8202   ZY=    13.2928
   XZ=    -9.2835   YZ=    11.7718   ZZ=   153.2470
   Eigenvalues:   143.7677   172.4888   184.5221
      4  C    Isotropic =   116.1726   Anisotropy =    23.2934
   XX=   109.1453   YX=     3.6668   ZX=     0.1525
   XY=    -6.7092   YY=   118.4798   ZY=   -17.2249
   XZ=    10.2810   YZ=    -4.5192   ZZ=   120.8926
   Eigenvalues:   106.0927   110.7235   131.7015
      5  C    Isotropic =   134.9504   Anisotropy =    55.2557
   XX=   108.0691   YX=     8.8525   ZX=   -21.9812
   XY=    13.6679   YY=   157.2704   ZY=    23.5699
   XZ=   -34.6298   YZ=    17.8546   ZZ=   139.5118
   Eigenvalues:    85.5471   147.5166   171.7876
      6  C    Isotropic =   113.1143   Anisotropy =    45.4350
   XX=    97.7946   YX=    -0.4765   ZX=    -0.0906
   XY=    -7.7289   YY=   115.5265   ZY=   -23.0650
   XZ=    19.0604   YZ=   -16.4069   ZZ=   126.0219
   Eigenvalues:    94.5421   101.3966   143.4043
      7  C    Isotropic =   166.9472   Anisotropy =    27.9255
   XX=   176.3982   YX=    11.8423   ZX=    -3.8746
   XY=    15.6749   YY=   161.9527   ZY=     7.3734
   XZ=     3.2619   YZ=    10.0684   ZZ=   162.4906
   Eigenvalues:   149.1201   166.1573   185.5641
      8  H    Isotropic =    30.5707   Anisotropy =    10.1325
   XX=    30.6133   YX=     2.4318   ZX=     1.9151
   XY=     1.8476   YY=    30.9107   ZY=     6.3366
   XZ=     0.6598   YZ=     5.4130   ZZ=    30.1880
   Eigenvalues:    24.6127    29.7736    37.3257
      9  H    Isotropic =    28.3357   Anisotropy =     5.2660
   XX=    27.5879   YX=    -3.0879   ZX=    -1.2299
   XY=    -2.4709   YY=    29.4519   ZY=     1.8125
   XZ=     0.2493   YZ=     0.5267   ZZ=    27.9675
   Eigenvalues:    25.5507    27.6101    31.8464
     10  H    Isotropic =    27.9585   Anisotropy =     2.1266
   XX=    28.2889   YX=    -0.6604   ZX=     0.1015
   XY=    -0.4632   YY=    26.9221   ZY=    -0.4875
   XZ=     1.5818   YZ=     2.0800   ZZ=    28.6644
   Eigenvalues:    26.2540    28.2452    29.3762
     11  H    Isotropic =    29.7460   Anisotropy =     9.5430
   XX=    34.6404   YX=    -2.1109   ZX=    -1.4126
   XY=    -1.9587   YY=    28.3982   ZY=     3.3953
   XZ=    -2.4166   YZ=     3.3331   ZZ=    26.1992
   Eigenvalues:    23.7465    29.3834    36.1079
     12  H    Isotropic =    29.2869   Anisotropy =     6.2883
   XX=    28.8196   YX=    -0.1438   ZX=    -0.5261
   XY=    -1.6325   YY=    32.6320   ZY=    -2.8842
   XZ=    -0.7468   YZ=    -1.7097   ZZ=    26.4092
   Eigenvalues:    25.4206    28.9610    33.4791
     13  H    Isotropic =    29.2649   Anisotropy =     3.9842
   XX=    28.4952   YX=     0.9856   ZX=     0.4169
   XY=    -0.1343   YY=    27.8030   ZY=    -0.9057
   XZ=     0.0537   YZ=    -1.7297   ZZ=    31.4965
   Eigenvalues:    27.2045    28.6692    31.9211
     14  C    Isotropic =   139.0240   Anisotropy =    34.4030
   XX=   123.9476   YX=     5.5988   ZX=   -14.5821
   XY=    11.4329   YY=   152.6390   ZY=    14.9615
   XZ=   -21.6016   YZ=    12.6740   ZZ=   140.4852
   Eigenvalues:   107.4654   147.6472   161.9593
     15  H    Isotropic =    28.8253   Anisotropy =     9.1155
   XX=    28.6510   YX=    -3.0826   ZX=     2.3984
   XY=    -5.1765   YY=    32.1371   ZY=    -1.5726
   XZ=    -0.0693   YZ=     1.9523   ZZ=    25.6879
   Eigenvalues:    24.7058    26.8679    34.9023
     16  H    Isotropic =    28.7799   Anisotropy =     9.7729
   XX=    26.7926   YX=    -1.0900   ZX=     1.9429
   XY=     1.0563   YY=    25.8415   ZY=     3.4457
   XZ=     4.4336   YZ=     0.4276   ZZ=    33.7055
   Eigenvalues:    24.8141    26.2304    35.2952
     17  O    Isotropic =   315.0109   Anisotropy =   136.3373
   XX=   361.1550   YX=   -48.1417   ZX=    33.0025
   XY=   -72.7964   YY=   294.8497   ZY=   100.4853
   XZ=    48.2941   YZ=   106.2370   ZZ=   289.0281
   Eigenvalues:   162.7860   376.3444   405.9025
     18  O    Isotropic =   295.1193   Anisotropy =    55.2928
   XX=   302.8760   YX=    34.1040   ZX=   -10.1929
   XY=    22.6845   YY=   292.7514   ZY=   -25.4389
   XZ=     0.2529   YZ=    -8.5595   ZZ=   289.7306
   Eigenvalues:   264.5140   288.8628   331.9812
     19  H    Isotropic =    29.9435   Anisotropy =    18.5865
   XX=    33.5985   YX=     8.1363   ZX=    -4.0028
   XY=     9.1953   YY=    25.9356   ZY=    -4.9098
   XZ=    -3.1413   YZ=    -6.1733   ZZ=    30.2964
   Eigenvalues:    19.4836    28.0123    42.3345
     20  O    Isotropic =   311.5859   Anisotropy =    46.2998
   XX=   315.5607   YX=    -1.1432   ZX=    20.1682
   XY=    -0.3215   YY=   300.3800   ZY=    -8.1990
   XZ=    23.7894   YZ=   -21.4923   ZZ=   318.8171
   Eigenvalues:   286.8646   305.4407   342.4525
     21  C    Isotropic =   135.4118   Anisotropy =    84.8807
   XX=   123.2702   YX=    34.4160   ZX=    -6.1164
   XY=    34.0584   YY=   171.1340   ZY=   -13.2221
   XZ=    -5.4757   YZ=   -15.8491   ZZ=   111.8313
   Eigenvalues:   104.8268   109.4097   191.9990
     22  H    Isotropic =    28.2602   Anisotropy =     8.8514
   XX=    27.0276   YX=     1.6019   ZX=     1.1845
   XY=     1.7493   YY=    33.2844   ZY=     3.5918
   XZ=    -0.5221   YZ=     0.5772   ZZ=    24.4685
   Eigenvalues:    23.9998    26.6196    34.1611
     23  H    Isotropic =    27.8935   Anisotropy =    10.8416
   XX=    25.3911   YX=     0.8170   ZX=     0.2078
   XY=    -1.5715   YY=    32.7779   ZY=    -5.3812
   XZ=     1.4602   YZ=    -3.9801   ZZ=    25.5115
   Eigenvalues:    23.0703    25.4890    35.1212
     24  H    Isotropic =    27.1904   Anisotropy =     7.1519
   XX=    30.0194   YX=    -0.3048   ZX=    -2.2160
   XY=     2.1853   YY=    28.9033   ZY=    -4.1014
   XZ=    -1.7555   YZ=    -2.6702   ZZ=    22.6486
   Eigenvalues:    20.9305    28.6825    31.9584
     25  O    Isotropic =   281.0501   Anisotropy =    38.8027
   XX=   276.6126   YX=     6.4606   ZX=     7.4924
   XY=    18.3545   YY=   282.9192   ZY=    18.1129
   XZ=    12.9377   YZ=    12.2881   ZZ=   283.6184
   Eigenvalues:   266.5809   269.6508   306.9185
     26  Si   Isotropic =   377.7997   Anisotropy =    36.9876
   XX=   395.8944   YX=     1.2285   ZX=    18.9518
   XY=     6.7529   YY=   366.8921   ZY=     8.8500
   XZ=     7.9462   YZ=    -1.3611   ZZ=   370.6126
   Eigenvalues:   363.5163   367.4248   402.4581
     27  C    Isotropic =   198.8262   Anisotropy =     7.2278
   XX=   202.6173   YX=     0.1336   ZX=    -0.2899
   XY=     3.2201   YY=   198.6257   ZY=    -4.8343
   XZ=    -0.0832   YZ=    -3.3007   ZZ=   195.2356
   Eigenvalues:   192.4634   200.3704   203.6448
     28  H    Isotropic =    31.6286   Anisotropy =    10.7027
   XX=    37.2439   YX=     2.8631   ZX=     2.5586
   XY=     2.7192   YY=    30.4324   ZY=     0.0732
   XZ=     2.5827   YZ=     0.0975   ZZ=    27.2095
   Eigenvalues:    26.4898    29.6323    38.7638
     29  H    Isotropic =    31.5686   Anisotropy =     9.5837
   XX=    30.7151   YX=    -2.6762   ZX=    -1.2423
   XY=    -2.5310   YY=    36.8148   ZY=     1.1773
   XZ=    -1.1958   YZ=     0.9049   ZZ=    27.1759
   Eigenvalues:    26.7907    29.9574    37.9577
     30  H    Isotropic =    31.2923   Anisotropy =     8.8579
   XX=    27.7362   YX=     0.8456   ZX=    -2.0376
   XY=     1.0237   YY=    29.8698   ZY=    -2.1529
   XZ=    -1.8891   YZ=    -1.3360   ZZ=    36.2707
   Eigenvalues:    27.1800    29.4992    37.1975
     31  C    Isotropic =   171.6238   Anisotropy =     7.7863
   XX=   175.4520   YX=     1.0896   ZX=     2.4064
   XY=     0.9993   YY=   170.0304   ZY=     2.0129
   XZ=     2.6351   YZ=     2.2552   ZZ=   169.3891
   Eigenvalues:   167.3301   170.7266   176.8147
     32  C    Isotropic =   201.4841   Anisotropy =     7.7543
   XX=   204.0260   YX=    -3.6643   ZX=     0.4984
   XY=    -5.3291   YY=   198.7984   ZY=     1.0010
   XZ=    -1.3805   YZ=    -0.7314   ZZ=   201.6279
   Eigenvalues:   196.2090   201.5896   206.6536
     33  H    Isotropic =    31.5283   Anisotropy =    10.7530
   XX=    35.0489   YX=    -0.9448   ZX=     4.9885
   XY=    -1.2026   YY=    26.9846   ZY=     1.0703
   XZ=     4.4753   YZ=     1.1184   ZZ=    32.5516
   Eigenvalues:    26.1433    29.7447    38.6970
     34  H    Isotropic =    30.9806   Anisotropy =     7.8665
   XX=    30.8693   YX=     3.4568   ZX=    -2.0397
   XY=     3.1372   YY=    30.6064   ZY=    -2.0433
   XZ=    -2.3219   YZ=    -2.7260   ZZ=    31.4662
   Eigenvalues:    27.4207    29.2962    36.2250
     35  H    Isotropic =    31.5527   Anisotropy =     9.8900
   XX=    29.8497   YX=    -3.4070   ZX=    -0.9304
   XY=    -3.2755   YY=    34.2822   ZY=     3.8153
   XZ=    -1.2714   YZ=     3.9745   ZZ=    30.5263
   Eigenvalues:    27.4536    29.0585    38.1461
     36  C    Isotropic =   170.2971   Anisotropy =    38.1429
   XX=   167.0636   YX=    11.2992   ZX=    -8.6426
   XY=    15.5850   YY=   181.3737   ZY=   -13.2675
   XZ=    -9.4974   YZ=    -9.5087   ZZ=   162.4541
   Eigenvalues:   155.3435   159.8222   195.7257
     37  H    Isotropic =    30.4324   Anisotropy =     7.4622
   XX=    27.3645   YX=    -0.3494   ZX=    -2.1924
   XY=    -0.0286   YY=    30.1099   ZY=    -3.2000
   XZ=    -1.7756   YZ=    -1.7080   ZZ=    33.8228
   Eigenvalues:    26.5528    29.3372    35.4072
     38  H    Isotropic =    30.9203   Anisotropy =     9.4343
   XX=    29.0251   YX=    -1.8178   ZX=    -0.5405
   XY=    -2.6044   YY=    36.6083   ZY=     0.3486
   XZ=    -0.4926   YZ=    -0.2176   ZZ=    27.1275
   Eigenvalues:    26.9650    28.5860    37.2098
     39  H    Isotropic =    30.3936   Anisotropy =     9.4005
   XX=    36.1144   YX=     1.0313   ZX=     1.6487
   XY=     2.3006   YY=    30.1082   ZY=     0.1440
   XZ=     0.8567   YZ=    -0.5747   ZZ=    24.9584
   Eigenvalues:    24.7884    29.7320    36.6606
     40  C    Isotropic =   169.3644   Anisotropy =    40.2961
   XX=   190.4418   YX=     5.9686   ZX=    14.7945
   XY=     1.8358   YY=   157.2992   ZY=     0.4265
   XZ=    12.7547   YZ=     2.1673   ZZ=   160.3521
   Eigenvalues:   154.9768   156.8878   196.2284
     41  H    Isotropic =    30.6863   Anisotropy =     8.7706
   XX=    31.2738   YX=    -1.2553   ZX=     4.4469
   XY=    -1.1643   YY=    26.6554   ZY=     1.1186
   XZ=     2.6518   YZ=     1.0857   ZZ=    34.1296
   Eigenvalues:    25.7982    29.7274    36.5334
     42  H    Isotropic =    30.7106   Anisotropy =     9.1557
   XX=    34.9542   YX=     3.6606   ZX=    -0.9630
   XY=     2.5907   YY=    31.2724   ZY=    -1.2555
   XZ=     0.0841   YZ=    -0.8087   ZZ=    25.9053
   Eigenvalues:    25.7111    29.6064    36.8144
     43  H    Isotropic =    30.9897   Anisotropy =    10.0124
   XX=    34.6373   YX=    -5.0844   ZX=    -0.0580
   XY=    -3.9220   YY=    30.9605   ZY=     0.7631
   XZ=     0.4398   YZ=     0.2799   ZZ=    27.3713
   Eigenvalues:    27.0433    28.2611    37.6646
     44  C    Isotropic =   170.3533   Anisotropy =    36.8815
   XX=   157.5263   YX=    -0.3964   ZX=    -2.3968
   XY=     0.2251   YY=   158.6608   ZY=     3.9665
   XZ=     0.8744   YZ=    -1.2035   ZZ=   194.8727
   Eigenvalues:   157.5078   158.6111   194.9409
     45  H    Isotropic =    31.0045   Anisotropy =     9.5679
   XX=    29.4628   YX=    -2.9553   ZX=    -2.2783
   XY=    -2.8691   YY=    31.6709   ZY=     3.3128
   XZ=    -2.7739   YZ=     4.1684   ZZ=    31.8798
   Eigenvalues:    27.4506    28.1798    37.3831
     46  H    Isotropic =    30.5621   Anisotropy =     8.7262
   XX=    28.0822   YX=     1.4689   ZX=    -3.4048
   XY=     1.3488   YY=    30.6887   ZY=    -1.9147
   XZ=    -3.8879   YZ=    -3.2187   ZZ=    32.9155
   Eigenvalues:    26.1242    29.1826    36.3796
     47  H    Isotropic =    30.2954   Anisotropy =     7.8777
   XX=    32.9260   YX=    -1.0526   ZX=     2.1512
   XY=    -0.5250   YY=    25.7168   ZY=     1.7605
   XZ=     3.6596   YZ=     1.7762   ZZ=    32.2436
   Eigenvalues:    24.9595    30.3795    35.5472
 End of Minotr Frequency-dependent properties file   721 does not exist.
 End of Minotr Frequency-dependent properties file   722 does not exist.

 **********************************************************************

            Population analysis using the SCF density.

 **********************************************************************

 Orbital symmetries:
       Occupied  (A) (A) (A) (A) (A) (A) (A) (A) (A) (A) (A) (A)
                 (A) (A) (A) (A) (A) (A) (A) (A) (A) (A) (A) (A)
                 (A) (A) (A) (A) (A) (A) (A) (A) (A) (A) (A) (A)
                 (A) (A) (A) (A) (A) (A) (A) (A) (A) (A) (A) (A)
                 (A) (A) (A) (A) (A) (A) (A) (A) (A) (A) (A) (A)
                 (A) (A) (A) (A) (A) (A) (A) (A) (A) (A) (A) (A)
                 (A) (A) (A) (A) (A) (A) (A)
       Virtual   (A) (A) (A) (A) (A) (A) (A) (A) (A) (A) (A) (A)
                 (A) (A) (A) (A) (A) (A) (A) (A) (A) (A) (A) (A)
                 (A) (A) (A) (A) (A) (A) (A) (A) (A) (A) (A) (A)
                 (A) (A) (A) (A) (A) (A) (A) (A) (A) (A) (A) (A)
                 (A) (A) (A) (A) (A) (A) (A) (A) (A) (A) (A) (A)
                 (A) (A) (A) (A) (A) (A) (A) (A) (A) (A) (A) (A)
                 (A) (A) (A) (A) (A) (A) (A) (A) (A) (A) (A) (A)
                 (A) (A) (A) (A) (A) (A) (A) (A) (A) (A) (A) (A)
                 (A) (A) (A) (A) (A) (A) (A) (A) (A) (A) (A) (A)
                 (A) (A) (A) (A) (A) (A) (A) (A) (A) (A) (A) (A)
                 (A) (A) (A) (A) (A) (A) (A) (A) (A) (A) (A) (A)
                 (A) (A) (A) (A) (A) (A) (A) (A) (A) (A) (A) (A)
                 (A) (A) (A) (A) (A) (A) (A) (A) (A) (A) (A) (A)
                 (A) (A) (A) (A) (A) (A) (A) (A) (A) (A) (A) (A)
                 (A) (A) (A) (A) (A) (A) (A) (A) (A) (A) (A) (A)
                 (A) (A) (A) (A) (A) (A) (A) (A) (A) (A) (A) (A)
                 (A) (A) (A) (A) (A) (A) (A) (A) (A) (A) (A) (A)
                 (A) (A) (A) (A) (A) (A) (A) (A) (A) (A) (A) (A)
                 (A) (A) (A) (A) (A) (A) (A) (A) (A) (A) (A) (A)
                 (A) (A) (A) (A) (A) (A) (A) (A) (A) (A) (A) (A)
                 (A) (A) (A) (A) (A) (A) (A) (A) (A) (A) (A) (A)
                 (A) (A) (A) (A) (A) (A) (A) (A) (A) (A) (A) (A)
                 (A) (A) (A) (A) (A) (A) (A) (A) (A) (A) (A) (A)
                 (A) (A) (A) (A) (A) (A) (A) (A) (A) (A) (A) (A)
                 (A) (A) (A) (A) (A) (A) (A) (A) (A) (A) (A) (A)
                 (A) (A) (A) (A) (A) (A) (A) (A) (A) (A) (A) (A)
                 (A) (A) (A) (A) (A) (A) (A) (A) (A) (A) (A) (A)
                 (A) (A) (A) (A) (A) (A) (A) (A) (A) (A) (A) (A)
                 (A) (A) (A) (A) (A) (A) (A) (A) (A) (A) (A) (A)
                 (A) (A) (A) (A) (A) (A) (A) (A) (A) (A) (A) (A)
                 (A) (A) (A) (A) (A) (A) (A) (A) (A) (A) (A) (A)
                 (A) (A) (A) (A) (A) (A) (A) (A) (A) (A) (A) (A)
                 (A) (A) (A) (A) (A) (A) (A) (A) (A) (A) (A) (A)
                 (A) (A) (A) (A) (A) (A) (A) (A) (A) (A) (A) (A)
                 (A) (A) (A) (A) (A) (A) (A) (A) (A) (A) (A) (A)
                 (A) (A) (A) (A) (A) (A)
 The electronic state is 1-A.
 Alpha  occ. eigenvalues --  -66.30434 -19.26794 -19.25967 -19.25462 -19.23456
 Alpha  occ. eigenvalues --  -10.31477 -10.30943 -10.30464 -10.30420 -10.30305
 Alpha  occ. eigenvalues --  -10.28380 -10.25419 -10.24813 -10.24712 -10.23663
 Alpha  occ. eigenvalues --  -10.23631 -10.23396 -10.22467 -10.22341  -5.33831
 Alpha  occ. eigenvalues --   -3.67741  -3.67471  -3.67419  -1.11311  -1.07478
 Alpha  occ. eigenvalues --   -1.06151  -1.03022  -0.84558  -0.82312  -0.77954
 Alpha  occ. eigenvalues --   -0.74792  -0.72126  -0.70622  -0.70262  -0.69727
 Alpha  occ. eigenvalues --   -0.69597  -0.68814  -0.64839  -0.62451  -0.57424
 Alpha  occ. eigenvalues --   -0.57239  -0.54024  -0.53791  -0.52839  -0.50291
 Alpha  occ. eigenvalues --   -0.48508  -0.48269  -0.47974  -0.46577  -0.44818
 Alpha  occ. eigenvalues --   -0.44701  -0.44594  -0.44155  -0.43257  -0.42816
 Alpha  occ. eigenvalues --   -0.42486  -0.41223  -0.40895  -0.40220  -0.39917
 Alpha  occ. eigenvalues --   -0.39626  -0.39338  -0.38935  -0.38880  -0.37352
 Alpha  occ. eigenvalues --   -0.37197  -0.36266  -0.35857  -0.34965  -0.33865
 Alpha  occ. eigenvalues --   -0.33648  -0.33232  -0.31696  -0.31408  -0.30843
 Alpha  occ. eigenvalues --   -0.29670  -0.28532  -0.27771  -0.25568
 Alpha virt. eigenvalues --   -0.00186   0.00927   0.01217   0.01468   0.02083
 Alpha virt. eigenvalues --    0.02940   0.03217   0.03752   0.04093   0.04391
 Alpha virt. eigenvalues --    0.04549   0.05394   0.05710   0.06174   0.06461
 Alpha virt. eigenvalues --    0.06728   0.07288   0.07609   0.07771   0.08010
 Alpha virt. eigenvalues --    0.08441   0.08896   0.08966   0.09632   0.09830
 Alpha virt. eigenvalues --    0.10117   0.10183   0.10641   0.10775   0.11097
 Alpha virt. eigenvalues --    0.11696   0.11943   0.12505   0.12797   0.12897
 Alpha virt. eigenvalues --    0.13185   0.13452   0.13518   0.13855   0.14441
 Alpha virt. eigenvalues --    0.14654   0.15255   0.15815   0.16105   0.16158
 Alpha virt. eigenvalues --    0.16630   0.16923   0.17263   0.17744   0.18358
 Alpha virt. eigenvalues --    0.18827   0.18956   0.19342   0.19425   0.19894
 Alpha virt. eigenvalues --    0.19993   0.20249   0.20618   0.20813   0.21396
 Alpha virt. eigenvalues --    0.21524   0.22190   0.22422   0.22876   0.23032
 Alpha virt. eigenvalues --    0.23213   0.23428   0.23862   0.24074   0.24585
 Alpha virt. eigenvalues --    0.24733   0.24800   0.25211   0.25762   0.26041
 Alpha virt. eigenvalues --    0.26137   0.26836   0.27126   0.27487   0.27678
 Alpha virt. eigenvalues --    0.28274   0.28539   0.29217   0.29426   0.29898
 Alpha virt. eigenvalues --    0.30174   0.30532   0.30925   0.31202   0.31310
 Alpha virt. eigenvalues --    0.31629   0.32093   0.32823   0.33261   0.33574
 Alpha virt. eigenvalues --    0.34071   0.34548   0.34740   0.35437   0.36232
 Alpha virt. eigenvalues --    0.36543   0.37253   0.37329   0.37885   0.38319
 Alpha virt. eigenvalues --    0.38487   0.39198   0.40481   0.40625   0.40935
 Alpha virt. eigenvalues --    0.41138   0.42820   0.43738   0.44232   0.44849
 Alpha virt. eigenvalues --    0.45040   0.45374   0.46337   0.47571   0.48471
 Alpha virt. eigenvalues --    0.49254   0.50270   0.51468   0.52898   0.54236
 Alpha virt. eigenvalues --    0.54318   0.58547   0.62503   0.65075   0.66044
 Alpha virt. eigenvalues --    0.66645   0.67685   0.69451   0.70296   0.71322
 Alpha virt. eigenvalues --    0.71854   0.72983   0.73054   0.74422   0.75425
 Alpha virt. eigenvalues --    0.76069   0.76473   0.77306   0.78530   0.79553
 Alpha virt. eigenvalues --    0.79746   0.80271   0.81030   0.81720   0.82091
 Alpha virt. eigenvalues --    0.83430   0.83625   0.84548   0.85391   0.86057
 Alpha virt. eigenvalues --    0.86627   0.87259   0.87857   0.88244   0.90231
 Alpha virt. eigenvalues --    0.90540   0.90924   0.91793   0.93274   0.93433
 Alpha virt. eigenvalues --    0.94311   0.95483   0.96528   0.98244   0.98340
 Alpha virt. eigenvalues --    0.98719   0.99441   1.00024   1.00195   1.01599
 Alpha virt. eigenvalues --    1.03301   1.03570   1.04591   1.04854   1.05473
 Alpha virt. eigenvalues --    1.06064   1.06396   1.07051   1.07515   1.07900
 Alpha virt. eigenvalues --    1.08628   1.09439   1.10310   1.11125   1.11864
 Alpha virt. eigenvalues --    1.12199   1.13652   1.14993   1.15948   1.16168
 Alpha virt. eigenvalues --    1.16795   1.17724   1.20145   1.20635   1.21508
 Alpha virt. eigenvalues --    1.22443   1.23035   1.23928   1.24979   1.25702
 Alpha virt. eigenvalues --    1.28180   1.29349   1.30010   1.30964   1.31962
 Alpha virt. eigenvalues --    1.32730   1.34617   1.35009   1.36461   1.36690
 Alpha virt. eigenvalues --    1.39250   1.40549   1.41642   1.42848   1.44016
 Alpha virt. eigenvalues --    1.44832   1.46307   1.47270   1.48047   1.49091
 Alpha virt. eigenvalues --    1.49890   1.51083   1.51506   1.51759   1.54221
 Alpha virt. eigenvalues --    1.55925   1.58478   1.59139   1.61575   1.62941
 Alpha virt. eigenvalues --    1.65537   1.65912   1.66106   1.68015   1.69256
 Alpha virt. eigenvalues --    1.70454   1.71928   1.72304   1.74682   1.75954
 Alpha virt. eigenvalues --    1.77417   1.78398   1.79527   1.80565   1.80851
 Alpha virt. eigenvalues --    1.83653   1.84935   1.85265   1.85933   1.87512
 Alpha virt. eigenvalues --    1.89617   1.90095   1.90802   1.92003   1.92567
 Alpha virt. eigenvalues --    1.93710   1.94390   1.95113   1.95811   1.97366
 Alpha virt. eigenvalues --    1.97570   1.98102   1.98652   1.99461   2.00262
 Alpha virt. eigenvalues --    2.02899   2.03077   2.05828   2.05985   2.06388
 Alpha virt. eigenvalues --    2.07037   2.07870   2.08306   2.09130   2.09659
 Alpha virt. eigenvalues --    2.10646   2.10991   2.11561   2.12321   2.12786
 Alpha virt. eigenvalues --    2.13398   2.14318   2.14579   2.14764   2.15788
 Alpha virt. eigenvalues --    2.16078   2.16951   2.17180   2.17842   2.18645
 Alpha virt. eigenvalues --    2.19181   2.19642   2.20029   2.21244   2.21370
 Alpha virt. eigenvalues --    2.21901   2.23578   2.24803   2.25548   2.25681
 Alpha virt. eigenvalues --    2.28153   2.28954   2.30005   2.30094   2.34976
 Alpha virt. eigenvalues --    2.35708   2.36066   2.37268   2.37913   2.38819
 Alpha virt. eigenvalues --    2.39531   2.40334   2.41319   2.42685   2.43972
 Alpha virt. eigenvalues --    2.44876   2.45927   2.48818   2.49882   2.54258
 Alpha virt. eigenvalues --    2.54937   2.56182   2.56756   2.57702   2.58929
 Alpha virt. eigenvalues --    2.59621   2.61350   2.62630   2.64333   2.65767
 Alpha virt. eigenvalues --    2.66902   2.67456   2.68251   2.69306   2.70480
 Alpha virt. eigenvalues --    2.71187   2.72916   2.73068   2.73925   2.74825
 Alpha virt. eigenvalues --    2.76143   2.76521   2.77463   2.78237   2.78914
 Alpha virt. eigenvalues --    2.80984   2.82356   2.83749   2.84798   2.85341
 Alpha virt. eigenvalues --    2.85522   2.86216   2.86750   2.88105   2.88349
 Alpha virt. eigenvalues --    2.88646   2.88919   2.89149   2.90069   2.90988
 Alpha virt. eigenvalues --    2.91829   2.92894   2.94446   2.97925   2.98046
 Alpha virt. eigenvalues --    2.98567   2.98903   3.00901   3.03431   3.05270
 Alpha virt. eigenvalues --    3.11922   3.14706   3.18298   3.23593   3.27578
 Alpha virt. eigenvalues --    3.27831   3.27982   3.30587   3.31272   3.31714
 Alpha virt. eigenvalues --    3.32916   3.38179   3.39330   3.40464   3.47154
 Alpha virt. eigenvalues --    3.47664   3.48249   3.48671   3.49030   3.49193
 Alpha virt. eigenvalues --    3.49934   3.50253   3.50804   3.51181   3.51305
 Alpha virt. eigenvalues --    3.52637   3.52960   3.55328   3.56028   3.56823
 Alpha virt. eigenvalues --    3.57319   3.60665   3.64007   4.37531   4.42681
 Alpha virt. eigenvalues --    4.46665   4.48430   4.51072   4.55039   4.59525
 Alpha virt. eigenvalues --    4.60666   4.63460   4.64478   4.66441   4.69380
 Alpha virt. eigenvalues --    4.70748   4.72543   4.77001   4.85902   4.93175
 Alpha virt. eigenvalues --    5.05499
          Condensed to atoms (all electrons):
              1          2          3          4          5          6
     1  H    0.587768   0.239388  -0.023925  -0.004180   0.027731   0.070562
     2  C    0.239388  12.190568   1.461610  -0.303623  -0.236469  -3.782110
     3  C   -0.023925   1.461610   9.097319  -1.757441  -0.702731  -0.935485
     4  C   -0.004180  -0.303623  -1.757441  10.690451  -2.155799  -1.125521
     5  C    0.027731  -0.236469  -0.702731  -2.155799  13.104679  -0.767846
     6  C    0.070562  -3.782110  -0.935485  -1.125521  -0.767846  12.098624
     7  C   -0.045403  -1.532845  -0.444716   0.294297  -0.794571  -1.116822
     8  H   -0.000057   0.035088   0.376408   0.035726  -0.129608   0.005976
     9  H   -0.000145   0.018562  -0.002899   0.179365   0.023208   0.043262
    10  H   -0.002389   0.081667  -0.016782   0.098862   0.035127   0.125326
    11  H   -0.005044  -0.005241   0.050147  -0.001467   0.022711   0.033162
    12  H    0.002830  -0.016359   0.416719  -0.023029   0.067201  -0.006904
    13  H    0.004864  -0.138181  -0.073085  -0.014215   0.059897   0.002402
    14  C   -0.002930  -0.510184  -0.678419   0.016540  -2.195556   0.783383
    15  H   -0.000001  -0.008107  -0.033569   0.077468  -0.178281   0.008847
    16  H   -0.000002   0.000184   0.057558  -0.027064  -0.104092   0.006060
    17  O   -0.000532  -0.071912  -0.196252  -0.059620   0.103288   0.103131
    18  O   -0.003704   0.052209  -0.119893   0.064533   0.184277  -0.104209
    19  H    0.000056  -0.051247  -0.060158   0.148958  -0.113645   0.062568
    20  O    0.011581  -0.148501  -0.088922  -0.073471   0.125806   0.306939
    21  C    0.005574  -0.210290  -0.075185   0.098663  -0.071395  -0.044951
    22  H    0.000028   0.010641  -0.001247   0.016779  -0.009935  -0.028150
    23  H    0.000008  -0.006680   0.000933  -0.000904  -0.004347   0.020476
    24  H   -0.000162   0.019249   0.001526  -0.009434   0.006476  -0.022905
    25  O   -0.063208   0.132071  -0.027951   0.064529  -0.000951   0.039581
    26  Si   0.070007  -1.014338   0.047136  -0.233459   0.035549   0.392245
    27  C   -0.000652  -0.016927  -0.001171  -0.002873   0.000801   0.015341
    28  H    0.000002   0.006815   0.000023   0.000063  -0.000014  -0.001561
    29  H   -0.000003  -0.017275   0.000066   0.000232   0.000010   0.008065
    30  H   -0.000002  -0.007403   0.000133   0.000042  -0.000031   0.001454
    31  C   -0.029868   0.091152   0.048739  -0.002936  -0.023872   0.002209
    32  C   -0.001623  -0.000105  -0.002659   0.050523  -0.010264  -0.005214
    33  H   -0.000024   0.007158  -0.000022   0.000142  -0.000080  -0.000513
    34  H    0.001395  -0.011453  -0.001967  -0.000800   0.000670   0.009440
    35  H   -0.000089  -0.016315  -0.000546   0.001544   0.000316   0.010645
    36  C    0.002877   0.034435  -0.020064   0.015723   0.003603  -0.059334
    37  H    0.000014   0.000292  -0.000202  -0.000620   0.000558   0.001696
    38  H    0.000041  -0.000223  -0.000488   0.000085   0.000157   0.000688
    39  H    0.000173   0.016079   0.004482   0.000712  -0.002210  -0.007057
    40  C   -0.000960  -0.006043   0.014461  -0.003494  -0.004217   0.017373
    41  H    0.000000  -0.000534   0.000072   0.000030  -0.000018  -0.000111
    42  H    0.000000   0.000657   0.000007  -0.000005  -0.000002  -0.000129
    43  H    0.000001  -0.000499  -0.000007   0.000003   0.000008   0.000247
    44  C   -0.000109   0.047123  -0.007300   0.008957   0.001745  -0.022683
    45  H    0.000002   0.003409   0.000050  -0.000007   0.000086   0.000981
    46  H   -0.000001  -0.002076   0.000014  -0.000034   0.000014  -0.000168
    47  H    0.000008  -0.006143   0.001013   0.000273  -0.000702  -0.005441
              7          8          9         10         11         12
     1  H   -0.045403  -0.000057  -0.000145  -0.002389  -0.005044   0.002830
     2  C   -1.532845   0.035088   0.018562   0.081667  -0.005241  -0.016359
     3  C   -0.444716   0.376408  -0.002899  -0.016782   0.050147   0.416719
     4  C    0.294297   0.035726   0.179365   0.098862  -0.001467  -0.023029
     5  C   -0.794571  -0.129608   0.023208   0.035127   0.022711   0.067201
     6  C   -1.116822   0.005976   0.043262   0.125326   0.033162  -0.006904
     7  C    8.715028  -0.027345  -0.015335   0.002733   0.236032  -0.066839
     8  H   -0.027345   0.528636  -0.000088   0.000012  -0.002660  -0.026659
     9  H   -0.015335  -0.000088   0.577421  -0.006816   0.000012  -0.000206
    10  H    0.002733   0.000012  -0.006816   0.582458  -0.000142  -0.000037
    11  H    0.236032  -0.002660   0.000012  -0.000142   0.546882  -0.004175
    12  H   -0.066839  -0.026659  -0.000206  -0.000037  -0.004175   0.514419
    13  H    0.471281  -0.003748  -0.000091  -0.000017  -0.026141   0.004179
    14  C    0.354658   0.028113   0.067592  -0.006047  -0.007995  -0.034276
    15  H    0.010243   0.000182   0.002054  -0.000011   0.000000  -0.000132
    16  H    0.014132   0.001292   0.000141   0.000000  -0.000008   0.000034
    17  O    0.096770   0.007913   0.001972  -0.000506  -0.000424  -0.014440
    18  O   -0.013625  -0.000261  -0.041777  -0.000273   0.000271   0.001910
    19  H    0.008843  -0.000019  -0.005864   0.000044  -0.000006   0.000459
    20  O   -0.042118   0.001048  -0.004925  -0.046959  -0.001236   0.000184
    21  C    0.034935   0.000099   0.000530  -0.000726  -0.001548   0.000306
    22  H   -0.010692   0.000000  -0.000035   0.009947   0.000001   0.000000
    23  H   -0.003077   0.000000  -0.000028   0.000077  -0.000001   0.000000
    24  H    0.022509   0.000000   0.000005  -0.001631  -0.000006   0.000000
    25  O   -0.096210  -0.000667  -0.000595  -0.001477   0.001136  -0.000069
    26  Si   0.087307  -0.001408   0.003641  -0.001887  -0.011432  -0.003592
    27  C    0.002186  -0.000015   0.000001  -0.001519   0.000510   0.000022
    28  H   -0.000891   0.000000   0.000000   0.000000   0.000000   0.000000
    29  H    0.001809   0.000000   0.000000  -0.000009   0.000000   0.000000
    30  H    0.002418   0.000000   0.000000   0.000000   0.000001   0.000000
    31  C   -0.125533   0.000207   0.000170   0.002046   0.017275  -0.001202
    32  C   -0.021344   0.000027  -0.000650   0.001160   0.000066   0.000493
    33  H   -0.001810   0.000000   0.000000   0.000017   0.000000   0.000000
    34  H    0.000352   0.000000   0.000000   0.000184   0.000002   0.000000
    35  H    0.001850   0.000000   0.000000   0.000120   0.000000   0.000000
    36  C    0.061196  -0.000220  -0.000059  -0.000897  -0.002066   0.000629
    37  H    0.001098   0.000000   0.000000   0.000000  -0.000005  -0.000002
    38  H    0.003438   0.000000   0.000000   0.000000  -0.000018   0.000000
    39  H   -0.019114  -0.000004   0.000000   0.000000   0.002181   0.000116
    40  C   -0.060778  -0.000007   0.000010  -0.000040   0.002611  -0.000044
    41  H   -0.000190   0.000000   0.000000   0.000000   0.000000   0.000000
    42  H   -0.000177   0.000000   0.000000   0.000000   0.000000   0.000000
    43  H    0.000042   0.000000   0.000000   0.000000   0.000000   0.000000
    44  C    0.052599   0.000115  -0.000052   0.000030  -0.006745   0.000180
    45  H   -0.000680   0.000000   0.000000   0.000000  -0.000001   0.000000
    46  H    0.001413   0.000000   0.000000   0.000000   0.000001   0.000000
    47  H    0.001413   0.000000   0.000000   0.000000   0.001188   0.000002
             13         14         15         16         17         18
     1  H    0.004864  -0.002930  -0.000001  -0.000002  -0.000532  -0.003704
     2  C   -0.138181  -0.510184  -0.008107   0.000184  -0.071912   0.052209
     3  C   -0.073085  -0.678419  -0.033569   0.057558  -0.196252  -0.119893
     4  C   -0.014215   0.016540   0.077468  -0.027064  -0.059620   0.064533
     5  C    0.059897  -2.195556  -0.178281  -0.104092   0.103288   0.184277
     6  C    0.002402   0.783383   0.008847   0.006060   0.103131  -0.104209
     7  C    0.471281   0.354658   0.010243   0.014132   0.096770  -0.013625
     8  H   -0.003748   0.028113   0.000182   0.001292   0.007913  -0.000261
     9  H   -0.000091   0.067592   0.002054   0.000141   0.001972  -0.041777
    10  H   -0.000017  -0.006047  -0.000011   0.000000  -0.000506  -0.000273
    11  H   -0.026141  -0.007995   0.000000  -0.000008  -0.000424   0.000271
    12  H    0.004179  -0.034276  -0.000132   0.000034  -0.014440   0.001910
    13  H    0.510714  -0.003125  -0.000065  -0.000060  -0.001135   0.000245
    14  C   -0.003125   7.113059   0.472709   0.422850   0.129637   0.023655
    15  H   -0.000065   0.472709   0.529751  -0.033663  -0.026220   0.000909
    16  H   -0.000060   0.422850  -0.033663   0.522705  -0.031534  -0.000575
    17  O   -0.001135   0.129637  -0.026220  -0.031534   8.326853  -0.025639
    18  O    0.000245   0.023655   0.000909  -0.000575  -0.025639   8.255282
    19  H    0.000003   0.026231  -0.000018   0.000011   0.015454   0.200868
    20  O    0.009943  -0.003080   0.003337  -0.000728  -0.001600   0.018508
    21  C    0.007360   0.018098   0.001705   0.000029   0.000606   0.000509
    22  H   -0.000010  -0.000483   0.000001   0.000000   0.000008  -0.000283
    23  H    0.000024  -0.000974   0.000004   0.000000   0.000006   0.000044
    24  H   -0.000049   0.002073   0.000000   0.000000  -0.000001   0.000097
    25  O    0.002854   0.007026   0.000041  -0.000017   0.000284  -0.001959
    26  Si   0.003003   0.019709   0.000005   0.000373   0.001773   0.007348
    27  C    0.000011  -0.000224   0.000002  -0.000002  -0.000013   0.000274
    28  H    0.000000   0.000000   0.000000   0.000000   0.000000   0.000000
    29  H    0.000000   0.000004   0.000000   0.000000   0.000000  -0.000001
    30  H   -0.000001   0.000001   0.000000   0.000000   0.000000  -0.000001
    31  C   -0.005486  -0.004868  -0.000004  -0.000001  -0.000085   0.001335
    32  C    0.000086  -0.002866  -0.000004  -0.000008  -0.000206  -0.003841
    33  H    0.000000  -0.000001   0.000000   0.000000   0.000000  -0.000013
    34  H    0.000000   0.000047   0.000000   0.000000  -0.000001   0.001020
    35  H    0.000000   0.000010   0.000000   0.000000   0.000000   0.000112
    36  C    0.001266   0.001107  -0.000001   0.000007  -0.000063  -0.001300
    37  H    0.000000  -0.000002   0.000000   0.000000   0.000000  -0.000031
    38  H    0.000000   0.000006   0.000000   0.000000   0.000000   0.000002
    39  H    0.000040  -0.000208   0.000000   0.000000  -0.000001  -0.000042
    40  C   -0.000191  -0.000537   0.000000   0.000000  -0.000003   0.000061
    41  H    0.000000   0.000000   0.000000   0.000000   0.000000   0.000000
    42  H    0.000000   0.000000   0.000000   0.000000   0.000000   0.000000
    43  H    0.000000   0.000000   0.000000   0.000000   0.000000   0.000000
    44  C    0.000675   0.000629   0.000000  -0.000005   0.000014  -0.000773
    45  H    0.000000   0.000002   0.000000   0.000000   0.000000   0.000000
    46  H    0.000000   0.000001   0.000000   0.000000   0.000000   0.000000
    47  H    0.000063  -0.000048   0.000000   0.000000   0.000000  -0.000003
             19         20         21         22         23         24
     1  H    0.000056   0.011581   0.005574   0.000028   0.000008  -0.000162
     2  C   -0.051247  -0.148501  -0.210290   0.010641  -0.006680   0.019249
     3  C   -0.060158  -0.088922  -0.075185  -0.001247   0.000933   0.001526
     4  C    0.148958  -0.073471   0.098663   0.016779  -0.000904  -0.009434
     5  C   -0.113645   0.125806  -0.071395  -0.009935  -0.004347   0.006476
     6  C    0.062568   0.306939  -0.044951  -0.028150   0.020476  -0.022905
     7  C    0.008843  -0.042118   0.034935  -0.010692  -0.003077   0.022509
     8  H   -0.000019   0.001048   0.000099   0.000000   0.000000   0.000000
     9  H   -0.005864  -0.004925   0.000530  -0.000035  -0.000028   0.000005
    10  H    0.000044  -0.046959  -0.000726   0.009947   0.000077  -0.001631
    11  H   -0.000006  -0.001236  -0.001548   0.000001  -0.000001  -0.000006
    12  H    0.000459   0.000184   0.000306   0.000000   0.000000   0.000000
    13  H    0.000003   0.009943   0.007360  -0.000010   0.000024  -0.000049
    14  C    0.026231  -0.003080   0.018098  -0.000483  -0.000974   0.002073
    15  H   -0.000018   0.003337   0.001705   0.000001   0.000004   0.000000
    16  H    0.000011  -0.000728   0.000029   0.000000   0.000000   0.000000
    17  O    0.015454  -0.001600   0.000606   0.000008   0.000006  -0.000001
    18  O    0.200868   0.018508   0.000509  -0.000283   0.000044   0.000097
    19  H    0.388425  -0.000589  -0.000445   0.000001   0.000000   0.000000
    20  O   -0.000589   8.303503   0.015641  -0.050856  -0.078006  -0.051048
    21  C   -0.000445   0.015641   5.118069   0.414020   0.433663   0.403894
    22  H    0.000001  -0.050856   0.414020   0.573459  -0.026503  -0.042209
    23  H    0.000000  -0.078006   0.433663  -0.026503   0.536000  -0.031406
    24  H    0.000000  -0.051048   0.403894  -0.042209  -0.031406   0.545086
    25  O    0.000195   0.024058  -0.004165   0.000683   0.002153  -0.015962
    26  Si  -0.001907  -0.008847   0.017071   0.006125  -0.003190   0.001069
    27  C    0.000007   0.002712  -0.000367  -0.001189   0.000372   0.000275
    28  H    0.000000   0.000000  -0.000252   0.000000   0.000000   0.000000
    29  H    0.000000  -0.000003  -0.000096   0.000004   0.000001   0.000044
    30  H    0.000000  -0.000079  -0.000061   0.000000   0.000000   0.000029
    31  C   -0.000353  -0.005192  -0.005301  -0.000074  -0.000047   0.000757
    32  C    0.000543   0.005582  -0.003980  -0.000853   0.000402  -0.001809
    33  H    0.000000  -0.000007   0.000010   0.000001   0.000000   0.000000
    34  H    0.000003   0.000106   0.000518   0.000000   0.000000  -0.000001
    35  H    0.000000   0.000046   0.000223   0.000003   0.000000   0.000001
    36  C    0.000215   0.002558   0.005031   0.000049  -0.000013  -0.000205
    37  H    0.000000   0.000000   0.000024   0.000000   0.000000   0.000000
    38  H    0.000000   0.000000   0.000006   0.000000   0.000000   0.000000
    39  H    0.000000   0.000030   0.000019   0.000000   0.000000   0.000000
    40  C   -0.000017   0.000354   0.000045   0.000049  -0.000006  -0.000178
    41  H    0.000000   0.000000  -0.000002   0.000000   0.000000   0.000000
    42  H    0.000000   0.000000  -0.000008   0.000000   0.000000   0.000000
    43  H    0.000000   0.000000   0.000003   0.000000   0.000000   0.000000
    44  C    0.000043  -0.000828  -0.001029   0.000055   0.000013  -0.000400
    45  H    0.000000   0.000000   0.000011   0.000000   0.000000   0.000000
    46  H    0.000000  -0.000001   0.000024   0.000000   0.000000   0.000000
    47  H    0.000000   0.000021  -0.000137   0.000000   0.000000  -0.000001
             25         26         27         28         29         30
     1  H   -0.063208   0.070007  -0.000652   0.000002  -0.000003  -0.000002
     2  C    0.132071  -1.014338  -0.016927   0.006815  -0.017275  -0.007403
     3  C   -0.027951   0.047136  -0.001171   0.000023   0.000066   0.000133
     4  C    0.064529  -0.233459  -0.002873   0.000063   0.000232   0.000042
     5  C   -0.000951   0.035549   0.000801  -0.000014   0.000010  -0.000031
     6  C    0.039581   0.392245   0.015341  -0.001561   0.008065   0.001454
     7  C   -0.096210   0.087307   0.002186  -0.000891   0.001809   0.002418
     8  H   -0.000667  -0.001408  -0.000015   0.000000   0.000000   0.000000
     9  H   -0.000595   0.003641   0.000001   0.000000   0.000000   0.000000
    10  H   -0.001477  -0.001887  -0.001519   0.000000  -0.000009   0.000000
    11  H    0.001136  -0.011432   0.000510   0.000000   0.000000   0.000001
    12  H   -0.000069  -0.003592   0.000022   0.000000   0.000000   0.000000
    13  H    0.002854   0.003003   0.000011   0.000000   0.000000  -0.000001
    14  C    0.007026   0.019709  -0.000224   0.000000   0.000004   0.000001
    15  H    0.000041   0.000005   0.000002   0.000000   0.000000   0.000000
    16  H   -0.000017   0.000373  -0.000002   0.000000   0.000000   0.000000
    17  O    0.000284   0.001773  -0.000013   0.000000   0.000000   0.000000
    18  O   -0.001959   0.007348   0.000274   0.000000  -0.000001  -0.000001
    19  H    0.000195  -0.001907   0.000007   0.000000   0.000000   0.000000
    20  O    0.024058  -0.008847   0.002712   0.000000  -0.000003  -0.000079
    21  C   -0.004165   0.017071  -0.000367  -0.000252  -0.000096  -0.000061
    22  H    0.000683   0.006125  -0.001189   0.000000   0.000004   0.000000
    23  H    0.002153  -0.003190   0.000372   0.000000   0.000001   0.000000
    24  H   -0.015962   0.001069   0.000275   0.000000   0.000044   0.000029
    25  O    8.350779  -0.042335  -0.040621   0.009177  -0.002017  -0.006305
    26  Si  -0.042335  13.544740   0.260532  -0.039000  -0.013019  -0.014088
    27  C   -0.040621   0.260532   5.471779   0.402194   0.382828   0.395176
    28  H    0.009177  -0.039000   0.402194   0.491265  -0.021198  -0.021759
    29  H   -0.002017  -0.013019   0.382828  -0.021198   0.491581  -0.022211
    30  H   -0.006305  -0.014088   0.395176  -0.021759  -0.022211   0.487255
    31  C    0.002584   0.259122  -0.160302  -0.021858   0.017946  -0.022752
    32  C   -0.072351   0.258410  -0.001954  -0.005423  -0.010039   0.006059
    33  H    0.008685  -0.044868  -0.004042   0.000094   0.000100   0.000010
    34  H   -0.003829  -0.021022   0.007436   0.000010   0.000011  -0.000016
    35  H   -0.003506  -0.036024  -0.010595   0.000105   0.000423   0.000004
    36  C   -0.007710  -0.137463   0.008008   0.001149  -0.001661  -0.003034
    37  H   -0.001568  -0.014527  -0.000343   0.000001  -0.000001   0.000000
    38  H   -0.000680   0.009677  -0.001568   0.000000   0.000000   0.000000
    39  H    0.007940  -0.000448  -0.000222   0.000000  -0.000001   0.000002
    40  C    0.031756  -0.083945   0.057188   0.007524  -0.000917  -0.000960
    41  H    0.000583  -0.009407  -0.001006   0.000000  -0.000007   0.000017
    42  H    0.000098  -0.007676   0.004072   0.000226   0.000004   0.000041
    43  H   -0.000653   0.015081  -0.000357   0.000028   0.000000  -0.000008
    44  C   -0.000320  -0.187996  -0.043500   0.006918  -0.000172   0.017703
    45  H   -0.000830   0.006933   0.000315   0.000000   0.000000  -0.000007
    46  H   -0.002029   0.004086   0.001737   0.000055   0.000000   0.000107
    47  H    0.010428  -0.018237   0.001410   0.000006  -0.000006   0.000054
             31         32         33         34         35         36
     1  H   -0.029868  -0.001623  -0.000024   0.001395  -0.000089   0.002877
     2  C    0.091152  -0.000105   0.007158  -0.011453  -0.016315   0.034435
     3  C    0.048739  -0.002659  -0.000022  -0.001967  -0.000546  -0.020064
     4  C   -0.002936   0.050523   0.000142  -0.000800   0.001544   0.015723
     5  C   -0.023872  -0.010264  -0.000080   0.000670   0.000316   0.003603
     6  C    0.002209  -0.005214  -0.000513   0.009440   0.010645  -0.059334
     7  C   -0.125533  -0.021344  -0.001810   0.000352   0.001850   0.061196
     8  H    0.000207   0.000027   0.000000   0.000000   0.000000  -0.000220
     9  H    0.000170  -0.000650   0.000000   0.000000   0.000000  -0.000059
    10  H    0.002046   0.001160   0.000017   0.000184   0.000120  -0.000897
    11  H    0.017275   0.000066   0.000000   0.000002   0.000000  -0.002066
    12  H   -0.001202   0.000493   0.000000   0.000000   0.000000   0.000629
    13  H   -0.005486   0.000086   0.000000   0.000000   0.000000   0.001266
    14  C   -0.004868  -0.002866  -0.000001   0.000047   0.000010   0.001107
    15  H   -0.000004  -0.000004   0.000000   0.000000   0.000000  -0.000001
    16  H   -0.000001  -0.000008   0.000000   0.000000   0.000000   0.000007
    17  O   -0.000085  -0.000206   0.000000  -0.000001   0.000000  -0.000063
    18  O    0.001335  -0.003841  -0.000013   0.001020   0.000112  -0.001300
    19  H   -0.000353   0.000543   0.000000   0.000003   0.000000   0.000215
    20  O   -0.005192   0.005582  -0.000007   0.000106   0.000046   0.002558
    21  C   -0.005301  -0.003980   0.000010   0.000518   0.000223   0.005031
    22  H   -0.000074  -0.000853   0.000001   0.000000   0.000003   0.000049
    23  H   -0.000047   0.000402   0.000000   0.000000   0.000000  -0.000013
    24  H    0.000757  -0.001809   0.000000  -0.000001   0.000001  -0.000205
    25  O    0.002584  -0.072351   0.008685  -0.003829  -0.003506  -0.007710
    26  Si   0.259122   0.258410  -0.044868  -0.021022  -0.036024  -0.137463
    27  C   -0.160302  -0.001954  -0.004042   0.007436  -0.010595   0.008008
    28  H   -0.021858  -0.005423   0.000094   0.000010   0.000105   0.001149
    29  H    0.017946  -0.010039   0.000100   0.000011   0.000423  -0.001661
    30  H   -0.022752   0.006059   0.000010  -0.000016   0.000004  -0.003034
    31  C    8.330895  -0.154483  -0.014968  -0.034202   0.021374  -0.472888
    32  C   -0.154483   5.450462   0.401008   0.401062   0.394889   0.020303
    33  H   -0.014968   0.401008   0.489130  -0.022054  -0.020596   0.006885
    34  H   -0.034202   0.401062  -0.022054   0.489381  -0.022777   0.019510
    35  H    0.021374   0.394889  -0.020596  -0.022777   0.493908  -0.001817
    36  C   -0.472888   0.020303   0.006885   0.019510  -0.001817   5.980613
    37  H   -0.055027   0.005905   0.000060  -0.000091   0.000013   0.425168
    38  H   -0.160537   0.000427   0.000001   0.000001   0.000000   0.468258
    39  H   -0.104538  -0.002236   0.000013   0.000005  -0.000005   0.454178
    40  C   -0.405173   0.022201   0.003901   0.000964   0.000165  -0.180852
    41  H   -0.091559   0.003554   0.000586   0.000032  -0.000012  -0.017383
    42  H   -0.090291  -0.000179  -0.000007   0.000007  -0.000008   0.008988
    43  H   -0.142722   0.000629   0.000017  -0.000004   0.000000   0.010164
    44  C   -0.330551  -0.007451   0.003192  -0.003522  -0.001019  -0.040631
    45  H   -0.156766  -0.000961   0.000000   0.000000   0.000000   0.008957
    46  H   -0.066930  -0.000491   0.000000   0.000000  -0.000001   0.004301
    47  H   -0.079495  -0.000621   0.000000   0.000001  -0.000001  -0.007224
             37         38         39         40         41         42
     1  H    0.000014   0.000041   0.000173  -0.000960   0.000000   0.000000
     2  C    0.000292  -0.000223   0.016079  -0.006043  -0.000534   0.000657
     3  C   -0.000202  -0.000488   0.004482   0.014461   0.000072   0.000007
     4  C   -0.000620   0.000085   0.000712  -0.003494   0.000030  -0.000005
     5  C    0.000558   0.000157  -0.002210  -0.004217  -0.000018  -0.000002
     6  C    0.001696   0.000688  -0.007057   0.017373  -0.000111  -0.000129
     7  C    0.001098   0.003438  -0.019114  -0.060778  -0.000190  -0.000177
     8  H    0.000000   0.000000  -0.000004  -0.000007   0.000000   0.000000
     9  H    0.000000   0.000000   0.000000   0.000010   0.000000   0.000000
    10  H    0.000000   0.000000   0.000000  -0.000040   0.000000   0.000000
    11  H   -0.000005  -0.000018   0.002181   0.002611   0.000000   0.000000
    12  H   -0.000002   0.000000   0.000116  -0.000044   0.000000   0.000000
    13  H    0.000000   0.000000   0.000040  -0.000191   0.000000   0.000000
    14  C   -0.000002   0.000006  -0.000208  -0.000537   0.000000   0.000000
    15  H    0.000000   0.000000   0.000000   0.000000   0.000000   0.000000
    16  H    0.000000   0.000000   0.000000   0.000000   0.000000   0.000000
    17  O    0.000000   0.000000  -0.000001  -0.000003   0.000000   0.000000
    18  O   -0.000031   0.000002  -0.000042   0.000061   0.000000   0.000000
    19  H    0.000000   0.000000   0.000000  -0.000017   0.000000   0.000000
    20  O    0.000000   0.000000   0.000030   0.000354   0.000000   0.000000
    21  C    0.000024   0.000006   0.000019   0.000045  -0.000002  -0.000008
    22  H    0.000000   0.000000   0.000000   0.000049   0.000000   0.000000
    23  H    0.000000   0.000000   0.000000  -0.000006   0.000000   0.000000
    24  H    0.000000   0.000000   0.000000  -0.000178   0.000000   0.000000
    25  O   -0.001568  -0.000680   0.007940   0.031756   0.000583   0.000098
    26  Si  -0.014527   0.009677  -0.000448  -0.083945  -0.009407  -0.007676
    27  C   -0.000343  -0.001568  -0.000222   0.057188  -0.001006   0.004072
    28  H    0.000001   0.000000   0.000000   0.007524   0.000000   0.000226
    29  H   -0.000001   0.000000  -0.000001  -0.000917  -0.000007   0.000004
    30  H    0.000000   0.000000   0.000002  -0.000960   0.000017   0.000041
    31  C   -0.055027  -0.160537  -0.104538  -0.405173  -0.091559  -0.090291
    32  C    0.005905   0.000427  -0.002236   0.022201   0.003554  -0.000179
    33  H    0.000060   0.000001   0.000013   0.003901   0.000586  -0.000007
    34  H   -0.000091   0.000001   0.000005   0.000964   0.000032   0.000007
    35  H    0.000013   0.000000  -0.000005   0.000165  -0.000012  -0.000008
    36  C    0.425168   0.468258   0.454178  -0.180852  -0.017383   0.008988
    37  H    0.530472  -0.027202  -0.027629  -0.012440   0.002665   0.000019
    38  H   -0.027202   0.540424  -0.027973  -0.009140  -0.000325   0.000015
    39  H   -0.027629  -0.027973   0.540171   0.002768   0.000044  -0.000151
    40  C   -0.012440  -0.009140   0.002768   5.966030   0.461021   0.457725
    41  H    0.002665  -0.000325   0.000044   0.461021   0.534114  -0.027199
    42  H    0.000019   0.000015  -0.000151   0.457725  -0.027199   0.531204
    43  H   -0.000345   0.005716   0.000018   0.445006  -0.027812  -0.027534
    44  C    0.003559   0.028575  -0.004367  -0.194710   0.006364  -0.020789
    45  H    0.000038   0.005503  -0.000470  -0.001503  -0.000006  -0.000270
    46  H   -0.000149   0.000019   0.000042  -0.010744   0.000035   0.002757
    47  H    0.000009  -0.000298   0.002938   0.009153  -0.000147   0.000046
             43         44         45         46         47
     1  H    0.000001  -0.000109   0.000002  -0.000001   0.000008
     2  C   -0.000499   0.047123   0.003409  -0.002076  -0.006143
     3  C   -0.000007  -0.007300   0.000050   0.000014   0.001013
     4  C    0.000003   0.008957  -0.000007  -0.000034   0.000273
     5  C    0.000008   0.001745   0.000086   0.000014  -0.000702
     6  C    0.000247  -0.022683   0.000981  -0.000168  -0.005441
     7  C    0.000042   0.052599  -0.000680   0.001413   0.001413
     8  H    0.000000   0.000115   0.000000   0.000000   0.000000
     9  H    0.000000  -0.000052   0.000000   0.000000   0.000000
    10  H    0.000000   0.000030   0.000000   0.000000   0.000000
    11  H    0.000000  -0.006745  -0.000001   0.000001   0.001188
    12  H    0.000000   0.000180   0.000000   0.000000   0.000002
    13  H    0.000000   0.000675   0.000000   0.000000   0.000063
    14  C    0.000000   0.000629   0.000002   0.000001  -0.000048
    15  H    0.000000   0.000000   0.000000   0.000000   0.000000
    16  H    0.000000  -0.000005   0.000000   0.000000   0.000000
    17  O    0.000000   0.000014   0.000000   0.000000   0.000000
    18  O    0.000000  -0.000773   0.000000   0.000000  -0.000003
    19  H    0.000000   0.000043   0.000000   0.000000   0.000000
    20  O    0.000000  -0.000828   0.000000  -0.000001   0.000021
    21  C    0.000003  -0.001029   0.000011   0.000024  -0.000137
    22  H    0.000000   0.000055   0.000000   0.000000   0.000000
    23  H    0.000000   0.000013   0.000000   0.000000   0.000000
    24  H    0.000000  -0.000400   0.000000   0.000000  -0.000001
    25  O   -0.000653  -0.000320  -0.000830  -0.002029   0.010428
    26  Si   0.015081  -0.187996   0.006933   0.004086  -0.018237
    27  C   -0.000357  -0.043500   0.000315   0.001737   0.001410
    28  H    0.000028   0.006918   0.000000   0.000055   0.000006
    29  H    0.000000  -0.000172   0.000000   0.000000  -0.000006
    30  H   -0.000008   0.017703  -0.000007   0.000107   0.000054
    31  C   -0.142722  -0.330551  -0.156766  -0.066930  -0.079495
    32  C    0.000629  -0.007451  -0.000961  -0.000491  -0.000621
    33  H    0.000017   0.003192   0.000000   0.000000   0.000000
    34  H   -0.000004  -0.003522   0.000000   0.000000   0.000001
    35  H    0.000000  -0.001019   0.000000  -0.000001  -0.000001
    36  C    0.010164  -0.040631   0.008957   0.004301  -0.007224
    37  H   -0.000345   0.003559   0.000038  -0.000149   0.000009
    38  H    0.005716   0.028575   0.005503   0.000019  -0.000298
    39  H    0.000018  -0.004367  -0.000470   0.000042   0.002938
    40  C    0.445006  -0.194710  -0.001503  -0.010744   0.009153
    41  H   -0.027812   0.006364  -0.000006   0.000035  -0.000147
    42  H   -0.027534  -0.020789  -0.000270   0.002757   0.000046
    43  H    0.538832   0.012929   0.005186  -0.000321   0.000010
    44  C    0.012929   5.933062   0.480393   0.423371   0.444058
    45  H    0.005186   0.480393   0.542133  -0.027893  -0.027726
    46  H   -0.000321   0.423371  -0.027893   0.531980  -0.025933
    47  H    0.000010   0.444058  -0.027726  -0.025933   0.526398
 Mulliken atomic charges:
              1
     1  H    0.160102
     2  C   -0.327272
     3  C   -0.305329
     4  C   -0.064502
     5  C   -0.297280
     6  C   -0.133567
     7  C   -0.038465
     8  H    0.171926
     9  H    0.161619
    10  H    0.148355
    11  H    0.162176
    12  H    0.188287
    13  H    0.186689
    14  C   -0.035315
    15  H    0.172819
    16  H    0.172385
    17  O   -0.357525
    18  O   -0.495267
    19  H    0.381341
    20  O   -0.224961
    21  C   -0.156750
    22  H    0.140665
    23  H    0.161004
    24  H    0.174318
    25  O   -0.298655
    26  Si   0.899174
    27  C   -0.725725
    28  H    0.186302
    29  H    0.185503
    30  H    0.188211
    31  C   -0.025951
    32  C   -0.712177
    33  H    0.187995
    34  H    0.189582
    35  H    0.187557
    36  C   -0.590294
    37  H    0.168593
    38  H    0.165416
    39  H    0.164725
    40  C   -0.523466
    41  H    0.166600
    42  H    0.168557
    43  H    0.166344
    44  C   -0.597347
    45  H    0.163119
    46  H    0.166813
    47  H    0.173669
 Sum of Mulliken atomic charges =   0.00000
 Mulliken charges with hydrogens summed into heavy atoms:
              1
     2  C   -0.167170
     3  C    0.054884
     4  C    0.097117
     5  C   -0.297280
     6  C    0.014788
     7  C    0.310400
    14  C    0.309889
    17  O   -0.357525
    18  O   -0.113926
    20  O   -0.224961
    21  C    0.319238
    25  O   -0.298655
    26  Si   0.899174
    27  C   -0.165710
    31  C   -0.025951
    32  C   -0.147044
    36  C   -0.091560
    40  C   -0.021965
    44  C   -0.093746
 Sum of Mulliken charges with hydrogens summed into heavy atoms =   0.00000
 Electronic spatial extent (au):  <R**2>=           6567.5751
 Charge=              0.0000 electrons
 Dipole moment (field-independent basis, Debye):
    X=              1.3609    Y=              1.0429    Z=             -0.5932  Tot=              1.8143
 Quadrupole moment (field-independent basis, Debye-Ang):
   XX=           -127.7767   YY=           -122.9177   ZZ=           -126.5608
   XY=             -4.3848   XZ=              5.1842   YZ=              1.9076
 Traceless Quadrupole moment (field-independent basis, Debye-Ang):
   XX=             -2.0250   YY=              2.8340   ZZ=             -0.8091
   XY=             -4.3848   XZ=              5.1842   YZ=              1.9076
 Octapole moment (field-independent basis, Debye-Ang**2):
  XXX=             -3.2701  YYY=             23.8826  ZZZ=             -5.4045  XYY=             -7.0311
  XXY=             32.6387  XXZ=            -11.9328  XZZ=            -24.1519  YZZ=             -2.5695
  YYZ=              0.1461  XYZ=             -2.4654
 Hexadecapole moment (field-independent basis, Debye-Ang**3):
 XXXX=          -6337.3057 YYYY=          -1629.2490 ZZZZ=          -1022.3552 XXXY=           -144.0999
 XXXZ=             80.5863 YYYX=            -30.3916 YYYZ=            -18.3622 ZZZX=             -4.7307
 ZZZY=            -29.3203 XXYY=          -1368.1291 XXZZ=          -1128.8913 YYZZ=           -425.6190
 XXYZ=             12.7031 YYXZ=             -4.1897 ZZXY=             32.7906
 N-N= 1.812895661480D+03 E-N=-6.296470948500D+03  KE= 1.131543630860D+03
 1\1\GINC-COMPUTE-6-34\SP\RmPW1PW91\6-31+G(d,p)\C14H28O4Si1\ELUCIANO.IQ
 UIR\06-Dec-2022\0\\# mPW1PW91/6-31+g** scrf=(PCM,solvent=chloroform) n
 mr\\comment\\0,1\H,0,-0.222594,-0.720388,0.81592\C,0,-0.438034,-0.0624
 57,-0.036935\C,0,-2.266524,-1.663114,-0.742063\C,0,-2.752032,0.211352,
 0.935199\C,0,-3.291388,-0.715867,-0.145866\C,0,-1.49501,0.951288,0.448
 61\C,0,-1.001391,-0.906113,-1.186607\H,0,-2.709789,-2.215345,-1.577643
 \H,0,-3.517776,0.9586,1.186544\H,0,-1.081725,1.535811,1.284392\H,0,-0.
 238741,-1.614678,-1.528167\H,0,-2.001763,-2.401623,0.025913\H,0,-1.228
 127,-0.237596,-2.024416\C,0,-4.519142,-0.349243,-0.859537\H,0,-5.00257
 8,0.605598,-0.655125\H,0,-4.702895,-0.759498,-1.852676\O,0,-4.561569,-
 1.308161,0.212723\O,0,-2.389429,-0.542711,2.090518\H,0,-3.172264,-1.06
 8806,2.324799\O,0,-1.951279,1.818492,-0.581434\C,0,-1.179114,2.989819,
 -0.797503\H,0,-1.003591,3.528445,0.146977\H,0,-1.768208,3.629703,-1.46
 1414\H,0,-0.21392,2.767038,-1.262405\O,0,0.744293,0.614776,-0.458614\S
 i,0,2.264449,0.581877,0.263072\C,0,3.121266,2.119792,-0.411788\H,0,4.1
 38249,2.227754,-0.017005\H,0,2.559837,3.019175,-0.133301\H,0,3.186565,
 2.096956,-1.505314\C,0,3.231883,-1.006977,-0.222332\C,0,2.092344,0.703
 957,2.144622\H,0,3.071389,0.651467,2.636126\H,0,1.471172,-0.095405,2.5
 6502\H,0,1.6335,1.658638,2.428414\C,0,2.553975,-2.265173,0.362219\H,0,
 2.5015,-2.234573,1.457338\H,0,3.121604,-3.166882,0.088922\H,0,1.534329
 ,-2.399198,-0.018473\C,0,4.672115,-0.921704,0.329815\H,0,4.691013,-0.8
 43152,1.423827\H,0,5.219855,-0.063299,-0.077527\H,0,5.238159,-1.825284
 ,0.060326\C,0,3.291376,-1.136949,-1.759306\H,0,3.83107,-2.051097,-2.04
 7377\H,0,3.815084,-0.291065,-2.221006\H,0,2.290293,-1.18843,-2.20238\\
 Version=EM64L-G09RevC.01\State=1-A\HF=-1140.6235221\RMSD=4.337e-09\Dip
 ole=0.535434,0.4103188,-0.233402\Quadrupole=-1.5055204,2.1070323,-0.60
 15119,-3.2600015,3.854315,1.4182696\PG=C01 [X(C14H28O4Si1)]\\@


 "A LITTLE BIT GOES A LONG WAY"
 R.S. MULLIKEN AS QUOTED BY K. RUEDENBERG
 Job cpu time:  0 days  0 hours 41 minutes 20.2 seconds.
 File lengths (MBytes):  RWF=    298 Int=      0 D2E=      0 Chk=     16 Scr=      1
 Normal termination of Gaussian 09 at Tue Dec  6 21:20:46 2022.
