 Entering Gaussian System, Link 0=g09
 Input=/home/eluciano.iquir/todos_optB3L_MPW_B_PCM/01_epoxido28_010_optB3L_nmr_MPW_B_PCM.gjc
 Output=/home/eluciano.iquir/todos_optB3L_MPW_B_PCM/01_epoxido28_010_optB3L_nmr_MPW_B_PCM.log
 Initial command:
 /share/apps/Gaussian09/EM64T.SSE4.2-enabled/g09/l1.exe /tmp/Gau-35992.inp -scrdir=/tmp/
 Entering Link 1 = /share/apps/Gaussian09/EM64T.SSE4.2-enabled/g09/l1.exe PID=     35993.
  
 Copyright (c) 1988,1990,1992,1993,1995,1998,2003,2009,2011,
            Gaussian, Inc.  All Rights Reserved.
  
 This is part of the Gaussian(R) 09 program.  It is based on
 the Gaussian(R) 03 system (copyright 2003, Gaussian, Inc.),
 the Gaussian(R) 98 system (copyright 1998, Gaussian, Inc.),
 the Gaussian(R) 94 system (copyright 1995, Gaussian, Inc.),
 the Gaussian 92(TM) system (copyright 1992, Gaussian, Inc.),
 the Gaussian 90(TM) system (copyright 1990, Gaussian, Inc.),
 the Gaussian 88(TM) system (copyright 1988, Gaussian, Inc.),
 the Gaussian 86(TM) system (copyright 1986, Carnegie Mellon
 University), and the Gaussian 82(TM) system (copyright 1983,
 Carnegie Mellon University). Gaussian is a federally registered
 trademark of Gaussian, Inc.
  
 This software contains proprietary and confidential information,
 including trade secrets, belonging to Gaussian, Inc.
  
 This software is provided under written license and may be
 used, copied, transmitted, or stored only in accord with that
 written license.
  
 The following legend is applicable only to US Government
 contracts under FAR:
  
                    RESTRICTED RIGHTS LEGEND
  
 Use, reproduction and disclosure by the US Government is
 subject to restrictions as set forth in subparagraphs (a)
 and (c) of the Commercial Computer Software - Restricted
 Rights clause in FAR 52.227-19.
  
 Gaussian, Inc.
 340 Quinnipiac St., Bldg. 40, Wallingford CT 06492
  
  
 ---------------------------------------------------------------
 Warning -- This program may not be used in any manner that
 competes with the business of Gaussian, Inc. or will provide
 assistance to any competitor of Gaussian, Inc.  The licensee
 of this program is prohibited from giving any competitor of
 Gaussian, Inc. access to this program.  By using this program,
 the user acknowledges that Gaussian, Inc. is engaged in the
 business of creating and licensing software in the field of
 computational chemistry and represents and warrants to the
 licensee that it is not a competitor of Gaussian, Inc. and that
 it will not use this program in any manner prohibited above.
 ---------------------------------------------------------------
  

 Cite this work as:
 Gaussian 09, Revision C.01,
 M. J. Frisch, G. W. Trucks, H. B. Schlegel, G. E. Scuseria, 
 M. A. Robb, J. R. Cheeseman, G. Scalmani, V. Barone, B. Mennucci, 
 G. A. Petersson, H. Nakatsuji, M. Caricato, X. Li, H. P. Hratchian, 
 A. F. Izmaylov, J. Bloino, G. Zheng, J. L. Sonnenberg, M. Hada, 
 M. Ehara, K. Toyota, R. Fukuda, J. Hasegawa, M. Ishida, T. Nakajima, 
 Y. Honda, O. Kitao, H. Nakai, T. Vreven, J. A. Montgomery, Jr., 
 J. E. Peralta, F. Ogliaro, M. Bearpark, J. J. Heyd, E. Brothers, 
 K. N. Kudin, V. N. Staroverov, T. Keith, R. Kobayashi, J. Normand, 
 K. Raghavachari, A. Rendell, J. C. Burant, S. S. Iyengar, J. Tomasi, 
 M. Cossi, N. Rega, J. M. Millam, M. Klene, J. E. Knox, J. B. Cross, 
 V. Bakken, C. Adamo, J. Jaramillo, R. Gomperts, R. E. Stratmann, 
 O. Yazyev, A. J. Austin, R. Cammi, C. Pomelli, J. W. Ochterski, 
 R. L. Martin, K. Morokuma, V. G. Zakrzewski, G. A. Voth, 
 P. Salvador, J. J. Dannenberg, S. Dapprich, A. D. Daniels, 
 O. Farkas, J. B. Foresman, J. V. Ortiz, J. Cioslowski, 
 and D. J. Fox, Gaussian, Inc., Wallingford CT, 2010.
 
 ******************************************
 Gaussian 09:  EM64L-G09RevC.01 23-Sep-2011
                 6-Dec-2022 
 ******************************************
 %nprocshared=4
 Will use up to    4 processors via shared memory.
 %mem=80MW
 -----------------------------------------------------
 # mPW1PW91/6-31+g** scrf=(PCM,solvent=chloroform) nmr
 -----------------------------------------------------
 1/38=1/1;
 2/12=2,17=6,18=5,40=1/2;
 3/5=1,6=6,7=111,11=2,16=1,25=1,30=1,70=2201,72=7,74=-7/1,2,8,3;
 4//1;
 5/5=2,38=5,53=7/2;
 8/6=1,10=90,11=11/1;
 10/13=100,45=16/2;
 6/7=2,8=2,9=2,10=2,28=1/1;
 99/9=1/99;
 -------
 comment
 -------
 Charge =  0 Multiplicity = 1
 Symbolic Z-Matrix:
 1                     0.08107   0.47255  -2.06422 
 6                     0.49233  -0.04875  -1.18918 
 6                     1.7574   -2.10099  -0.43022 
 6                     2.26251   0.20135   0.63971 
 6                     2.75469  -1.20665   0.27739 
 6                     1.57319   0.86081  -0.57581 
 6                     1.11432  -1.38166  -1.62422 
 1                     0.97348  -2.38149   0.28319 
 1                     1.53246   0.13855   1.45261 
 1                     2.33992   1.03435  -1.35091 
 1                     1.87078  -1.19207  -2.39671 
 1                     2.26082  -3.0191   -0.75152 
 1                     0.33705  -2.00971  -2.07268 
 6                     3.89354  -1.77524   1.00651 
 1                     4.33038  -1.22446   1.83668 
 1                     4.02336  -2.85686   1.033 
 8                     4.09297  -1.17659  -0.29378 
 8                     3.34366   0.98931   1.12043 
 1                     4.08931   0.77642   0.52722 
 8                     0.95376   2.09401  -0.24119 
 6                     1.79562   3.2397   -0.25703 
 1                     2.54744   3.20278   0.5364 
 1                     1.14234   4.1043   -0.11005 
 1                     2.30416   3.34224  -1.22872 
 8                    -0.54259  -0.32715  -0.25508 
 14                   -1.95269   0.53562   0.08614 
 6                    -1.7409    1.47267   1.71016 
 1                    -2.63819   2.04842   1.96829 
 1                    -0.89999   2.16739   1.62133 
 1                    -1.52888   0.7948    2.54526 
 6                    -3.31408  -0.80817   0.25169 
 6                    -2.34066   1.74521  -1.31319 
 1                    -3.26795   2.29333  -1.1073 
 1                    -2.46121   1.24609  -2.28173 
 1                    -1.53206   2.47744  -1.40676 
 6                    -3.49234  -1.54715  -1.09119 
 1                    -3.82488  -0.87229  -1.88947 
 1                    -4.24951  -2.33965  -0.99823 
 1                    -2.55846  -2.01944  -1.41807 
 6                    -4.65512  -0.15584   0.65064 
 1                    -4.99658   0.57336  -0.09492 
 1                    -4.5896    0.35933   1.61662 
 1                    -5.44207  -0.9189    0.74132 
 6                    -2.90931  -1.83292   1.33269 
 1                    -3.67303  -2.61974   1.4231 
 1                    -2.80413  -1.36787   2.32046 
 1                    -1.95804  -2.31945   1.089 
 
                          Input orientation:                          
 ---------------------------------------------------------------------
 Center     Atomic      Atomic             Coordinates (Angstroms)
 Number     Number       Type             X           Y           Z
 ---------------------------------------------------------------------
      1          1           0        0.081070    0.472546   -2.064223
      2          6           0        0.492334   -0.048746   -1.189182
      3          6           0        1.757400   -2.100986   -0.430224
      4          6           0        2.262508    0.201350    0.639708
      5          6           0        2.754693   -1.206652    0.277388
      6          6           0        1.573191    0.860813   -0.575808
      7          6           0        1.114316   -1.381657   -1.624220
      8          1           0        0.973484   -2.381494    0.283192
      9          1           0        1.532462    0.138550    1.452612
     10          1           0        2.339924    1.034349   -1.350910
     11          1           0        1.870784   -1.192074   -2.396706
     12          1           0        2.260823   -3.019101   -0.751522
     13          1           0        0.337047   -2.009708   -2.072679
     14          6           0        3.893544   -1.775235    1.006513
     15          1           0        4.330376   -1.224455    1.836676
     16          1           0        4.023358   -2.856860    1.032998
     17          8           0        4.092972   -1.176587   -0.293776
     18          8           0        3.343658    0.989312    1.120428
     19          1           0        4.089313    0.776419    0.527216
     20          8           0        0.953763    2.094006   -0.241187
     21          6           0        1.795615    3.239703   -0.257027
     22          1           0        2.547437    3.202776    0.536397
     23          1           0        1.142343    4.104299   -0.110053
     24          1           0        2.304163    3.342244   -1.228717
     25          8           0       -0.542586   -0.327149   -0.255082
     26         14           0       -1.952686    0.535620    0.086141
     27          6           0       -1.740901    1.472665    1.710161
     28          1           0       -2.638191    2.048416    1.968288
     29          1           0       -0.899985    2.167393    1.621333
     30          1           0       -1.528883    0.794798    2.545256
     31          6           0       -3.314079   -0.808166    0.251694
     32          6           0       -2.340659    1.745212   -1.313188
     33          1           0       -3.267953    2.293332   -1.107304
     34          1           0       -2.461214    1.246093   -2.281728
     35          1           0       -1.532064    2.477441   -1.406758
     36          6           0       -3.492342   -1.547147   -1.091189
     37          1           0       -3.824883   -0.872292   -1.889465
     38          1           0       -4.249507   -2.339646   -0.998227
     39          1           0       -2.558455   -2.019436   -1.418067
     40          6           0       -4.655117   -0.155843    0.650644
     41          1           0       -4.996578    0.573356   -0.094922
     42          1           0       -4.589596    0.359326    1.616618
     43          1           0       -5.442069   -0.918896    0.741319
     44          6           0       -2.909314   -1.832920    1.332693
     45          1           0       -3.673031   -2.619735    1.423100
     46          1           0       -2.804126   -1.367870    2.320461
     47          1           0       -1.958036   -2.319454    1.089001
 ---------------------------------------------------------------------
                    Distance matrix (angstroms):
                    1          2          3          4          5
     1  H    0.000000
     2  C    1.098444   0.000000
     3  C    3.478951   2.527469   0.000000
     4  C    3.484747   2.557519   2.588559   0.000000
     5  C    3.930790   2.934253   1.514972   1.534924   0.000000
     6  C    2.143025   1.540057   2.971091   1.545163   2.529486
     7  C    2.167780   1.533875   1.535128   2.991593   2.517454
     8  H    3.801619   2.800197   1.096436   2.908568   2.133774
     9  H    3.819191   2.845351   2.934483   1.094406   2.164386
    10  H    2.434514   2.147752   3.319235   2.159269   2.800977
    11  H    2.466694   2.159962   2.169338   3.363761   2.816431
    12  H    4.320429   3.484553   1.095264   3.508109   2.141853
    13  H    2.495432   2.156398   2.173337   3.994148   3.465938
    14  C    5.386733   4.401144   2.594887   2.588767   1.466933
    15  H    6.012772   5.026796   3.539399   2.782397   2.216861
    16  H    6.018252   5.029087   2.801237   3.550763   2.214417
    17  O    4.685027   3.877934   2.515557   2.474005   1.455377
    18  O    4.588413   3.813386   3.804034   1.421570   2.424841
    19  H    4.782667   4.070034   3.825437   1.918483   2.403372
    20  O    2.591175   2.388095   4.275456   2.463927   3.795604
    21  C    3.723275   3.658053   5.343633   3.202142   4.579902
    22  H    4.505591   4.215859   5.448707   3.016690   4.421888
    23  H    4.258487   4.339909   6.243906   4.129155   5.563810
    24  H    3.724967   3.844880   5.528589   3.654855   4.812877
    25  O    2.073994   1.421658   2.909830   2.991406   3.453853
    26  Si   2.960440   2.818875   4.580727   4.264509   5.023097
    27  C    4.308804   3.963360   5.439700   4.334674   5.426043
    28  H    5.112621   4.916085   6.503201   5.403113   6.522102
    29  H    4.173523   3.840419   5.430436   3.851010   5.152382
    30  H    4.893168   4.329308   5.295158   4.284617   5.243858
    31  C    4.304734   4.140244   5.277906   5.680493   6.081895
    32  C    2.836988   3.355520   5.689196   5.233207   6.099676
    33  H    3.930256   4.430778   6.709891   6.165585   7.102079
    34  H    2.666250   3.404954   5.694533   5.651533   6.306403
    35  H    2.655949   3.244557   5.721554   4.875181   5.897896
    36  C    4.218439   4.258222   5.320094   6.258717   6.404248
    37  H    4.134682   4.450504   5.899234   6.678754   6.935263
    38  H    5.272444   5.269700   6.038420   7.179543   7.209000
    39  H    3.687083   3.639137   4.428215   5.692804   5.636021
    40  C    5.495165   5.467420   6.787653   6.926849   7.493251
    41  H    5.447093   5.631392   7.271915   7.305642   7.961736
    42  H    5.947817   5.819368   7.108239   6.923196   7.627870
    43  H    6.349192   6.300884   7.389330   7.786256   8.214922
    44  C    5.079036   4.595034   4.995794   5.600556   5.795417
    45  H    5.984722   5.548357   5.761379   6.618372   6.680202
    46  H    5.562099   4.992427   5.376918   5.564006   5.924577
    47  H    4.679320   4.043581   4.019980   4.936528   4.909874
                    6          7          8          9         10
     6  C    0.000000
     7  C    2.517619   0.000000
     8  H    3.407357   2.158177   0.000000
     9  H    2.153558   3.457278   2.833835   0.000000
    10  H    1.103982   2.722847   4.025597   3.051915   0.000000
    11  H    2.760177   1.097689   3.066223   4.086841   2.504145
    12  H    3.944293   2.181124   1.770429   3.919117   4.098290
    13  H    3.465338   1.095313   2.468482   4.297872   3.714667
    14  C    3.851821   3.847047   3.068794   3.071854   3.983082
    15  H    4.215506   4.727109   3.875665   3.135859   4.384609
    16  H    4.734202   4.207084   3.176462   3.918306   4.863998
    17  O    3.252666   3.268719   3.393508   3.366848   3.013129
    18  O    2.455256   4.257294   4.204881   2.028441   2.667775
    19  H    2.748573   4.258706   4.443012   2.792977   2.579583
    20  O    1.420010   3.744168   4.506158   2.650973   2.067801
    21  C    2.410438   4.867274   5.706627   3.550953   2.521198
    22  H    2.769647   5.266795   5.807367   3.355459   2.882198
    23  H    3.304960   5.691151   6.499897   4.280336   3.521153
    24  H    2.667979   4.887474   6.067763   4.248376   2.311404
    25  O    2.447577   2.394128   2.609318   2.727438   3.370961
    26  Si   3.602185   4.000973   4.136527   3.764461   4.554157
    27  C    4.072250   5.236174   4.925309   3.544164   5.120099
    28  H    5.061478   6.225177   5.958846   4.616043   6.068528
    29  H    3.556850   5.214094   5.098321   3.171982   4.540377
    30  H    4.400939   5.395182   4.633315   3.316077   5.495922
    31  C    5.230264   4.843411   4.567226   5.082070   6.158811
    32  C    4.079720   4.670214   5.528262   5.023154   4.734407
    33  H    5.076542   5.742563   6.463533   5.851516   5.752623
    34  H    4.397161   4.485733   5.615635   5.578655   4.895118
    35  H    3.598135   4.684363   5.722146   4.799763   4.132545
    36  C    5.632363   4.640346   4.746437   5.878873   6.383330
    37  H    5.819669   4.972474   5.479275   6.394719   6.475351
    38  H    6.657716   5.484543   5.378050   6.751239   7.411399
    39  H    5.106440   3.733431   3.936999   5.443648   5.772714
    40  C    6.428810   6.321707   6.063802   6.246275   7.372474
    41  H    6.593614   6.595745   6.672012   6.724008   7.457498
    42  H    6.560348   6.787390   6.343341   6.128233   7.568363
    43  H    7.356362   6.985421   6.596089   7.090008   8.291683
    44  C    5.566994   5.013639   4.059373   4.861116   6.555719
    45  H    6.605505   5.808415   4.790224   5.891194   7.563272
    46  H    5.702307   5.560116   4.410015   4.672094   6.760982
    47  H    5.035400   4.204804   3.040886   4.284574   5.972740
                   11         12         13         14         15
    11  H    0.000000
    12  H    2.489335   0.000000
    13  H    1.768012   2.542684   0.000000
    14  C    4.001691   2.702530   4.710103   0.000000
    15  H    4.896138   3.768630   5.643258   1.087820   0.000000
    16  H    4.378123   2.513437   4.894056   1.089709   1.845238
    17  O    3.059522   2.638401   4.238580   1.445304   2.144173
    18  O    4.392953   4.554569   5.313169   2.821005   2.527328
    19  H    4.164872   4.402785   5.348033   2.603649   2.403392
    20  O    4.035531   5.302142   4.535986   5.016981   5.170224
    21  C    4.921842   6.295520   5.742850   5.580989   5.544124
    22  H    5.326881   6.360239   6.234027   5.178186   4.946713
    23  H    5.814721   7.239151   6.471591   6.586710   6.507605
    24  H    4.702346   6.379365   5.764131   5.806115   5.861477
    25  O    3.340509   3.918183   2.628387   4.834028   5.378324
    26  Si   4.875282   5.575964   4.047478   6.353388   6.755672
    27  C    6.083704   6.499972   5.545689   6.541479   6.644612
    28  H    7.062917   7.554961   6.453668   7.629474   7.699996
    29  H    5.925185   6.520803   5.711755   6.237006   6.237602
    30  H    6.318891   6.306857   5.715966   6.194797   6.237819
    31  C    5.834742   6.080642   4.491896   7.311279   7.818130
    32  C    5.247658   6.647389   4.674009   7.525945   7.952564
    33  H    6.341706   7.675669   5.695975   8.503440   8.875610
    34  H    4.972332   6.544543   4.298163   7.766846   8.318086
    35  H    5.101442   6.710238   4.906275   7.303859   7.654548
    36  C    5.531146   5.948187   3.980139   7.681386   8.358914
    37  H    5.727144   6.552825   4.318442   8.293136   8.973093
    38  H    6.382055   6.550337   4.722265   8.405166   9.104654
    39  H    4.610902   4.966795   2.968593   6.896848   7.660375
    40  C    7.276503   7.615415   5.981221   8.707966   9.126209
    41  H    7.454905   8.124453   6.247503   9.260848   9.693052
    42  H    7.762095   7.996880   6.595077   8.768822   9.062157
    43  H    7.962389   8.122437   6.519711   9.378556   9.838387
    44  C    6.096592   5.699236   4.708150   6.810918   7.282674
    45  H    6.882080   6.332385   5.354748   7.624945   8.134640
    46  H    6.643595   6.149581   5.438621   6.837484   7.152324
    47  H    5.299151   4.655728   3.919129   5.877412   6.426676
                   16         17         18         19         20
    16  H    0.000000
    17  O    2.142077   0.000000
    18  O    3.906747   2.693058   0.000000
    19  H    3.668907   2.118555   0.976333   0.000000
    20  O    5.962972   4.533672   2.964109   3.486854   0.000000
    21  C    6.617785   4.978234   3.059098   3.455988   1.421825
    22  H    6.256528   4.717699   2.423733   2.874835   2.091364
    23  H    7.620010   6.052084   4.007869   4.490605   2.023373
    24  H    6.819082   4.949120   3.483579   3.585180   2.087317
    25  O    5.376470   4.712901   4.327585   4.825385   2.846269
    26  Si   6.936754   6.294916   5.415427   6.062861   3.314085
    27  C    7.240858   6.713298   5.141416   5.989617   3.384529
    28  H    8.325427   7.799111   6.133766   6.996712   4.217344
    29  H    7.058935   6.307096   4.432526   5.293864   2.628830
    30  H    6.815344   6.599372   5.080318   5.969669   3.951675
    31  C    7.658039   7.436241   6.950618   7.576083   5.184593
    32  C    8.196607   7.139168   6.229393   6.757972   3.481962
    33  H    9.179792   8.178348   7.097652   7.687785   4.314253
    34  H    8.358906   7.264894   6.733286   7.142840   4.067534
    35  H    8.078978   6.799388   5.689803   6.183333   2.772168
    36  C    7.919171   7.636110   7.619434   8.093188   5.809333
    37  H    8.606636   8.082775   7.994561   8.437600   5.860990
    38  H    8.534265   8.452568   8.557267   9.031764   6.877819
    39  H    7.073137   6.798228   7.094467   7.469521   5.535443
    40  C    9.097121   8.857929   8.093978   8.794851   6.108741
    41  H    9.715855   9.258605   8.438580   9.109429   6.143316
    42  H    9.212353   9.021952   7.973682   8.756953   6.098310
    43  H    9.666183   9.594521   8.998554   9.683345   7.137896
    44  C    7.014286   7.218600   6.863651   7.512538   5.728980
    45  H    7.709916   8.083387   7.896249   8.520003   6.811492
    46  H    7.105575   7.378400   6.692655   7.438629   5.715624
    47  H    6.005749   6.311332   6.249550   6.816925   5.452211
                   21         22         23         24         25
    21  C    0.000000
    22  H    1.093673   0.000000
    23  H    1.093568   1.790232   0.000000
    24  H    1.101507   1.787250   1.783806   0.000000
    25  O    4.264929   4.757631   4.743179   4.745144   0.000000
    26  Si   4.634608   5.250482   4.727914   5.265620   1.687953
    27  C    4.415790   4.770833   4.307177   5.338059   2.921895
    28  H    5.101943   5.502145   4.778974   6.026748   3.870174
    29  H    3.456059   3.759498   3.304604   4.446305   3.141880
    30  H    4.988250   5.142981   5.013872   5.951856   3.173868
    31  C    6.538579   7.108170   6.642505   7.140179   2.858211
    32  C    4.523024   5.425766   4.375400   4.912435   2.940635
    33  H    5.220949   6.111268   4.870813   5.671282   3.875671
    34  H    5.118055   6.070998   5.086368   5.311450   3.203673
    35  H    3.602273   4.576493   3.388298   3.936524   3.189224
    36  C    7.181382   7.854281   7.374400   7.584493   3.299777
    37  H    7.152856   7.943390   7.253006   7.467537   3.707002
    38  H    8.259662   8.903480   8.448984   8.676842   4.282951
    39  H    6.925639   7.560526   7.273715   7.240754   2.877516
    40  C    7.346124   7.947966   7.234502   8.012502   4.214570
    41  H    7.298601   8.014024   7.081959   7.890060   4.546934
    42  H    7.251071   7.758178   7.061256   8.032288   4.511408
    43  H    8.406825   8.992351   8.325371   9.057730   5.034671
    44  C    7.098949   7.467828   7.331303   7.779684   3.223318
    45  H    8.189135   8.566335   8.411362   8.848965   4.227521
    46  H    7.002199   7.260366   7.171238   7.802337   3.582050
    47  H    6.841485   7.148404   7.232889   7.456070   2.789146
                   26         27         28         29         30
    26  Si   0.000000
    27  C    1.886888   0.000000
    28  H    2.510169   1.096927   0.000000
    29  H    2.475415   1.094384   1.776483   0.000000
    30  H    2.508790   1.096284   1.770597   1.770074   0.000000
    31  C    1.920042   3.131167   3.400526   4.069117   3.319163
    32  C    1.889909   3.094290   3.308858   3.296239   4.055842
    33  H    2.498758   3.308095   3.148944   3.615051   4.314066
    34  H    2.523921   4.062679   4.328704   4.303500   4.936870
    35  H    2.485224   3.281520   3.577501   3.108856   4.295313
    36  C    2.845095   4.475977   4.797713   5.279763   4.750117
    37  H    3.064369   4.774842   4.982071   5.488207   5.264746
    38  H    3.836456   5.306806   5.536392   6.196353   5.457363
    39  H    3.026204   4.759094   5.293503   5.433048   4.968688
    40  C    2.846035   3.502466   3.265415   4.521137   3.777117
    41  H    3.049506   3.829689   3.463326   4.718957   4.363999
    42  H    3.053970   3.059957   2.604742   4.108815   3.227998
    43  H    3.836752   4.511858   4.262878   5.561486   4.637236
    44  C    2.842360   3.526268   3.942367   4.485891   3.206369
    45  H    3.834490   4.534674   4.812459   5.535854   4.185169
    46  H    3.056208   3.093793   3.438396   4.075858   2.520696
    47  H    3.026087   3.848786   4.507110   4.640544   3.464595
                   31         32         33         34         35
    31  C    0.000000
    32  C    3.148991   0.000000
    33  H    3.386487   1.096676   0.000000
    34  H    3.371288   1.096231   1.768279   0.000000
    35  H    4.089163   1.094870   1.771124   1.773446   0.000000
    36  C    1.543115   3.495037   3.847062   3.206680   4.487715
    37  H    2.202180   3.063714   3.308039   2.549709   4.087877
    38  H    2.186952   4.519841   4.737070   4.207480   5.545784
    39  H    2.196872   3.772401   4.381772   3.379208   4.612538
    40  C    1.543719   3.581531   3.318594   3.921408   4.573899
    41  H    2.204438   3.148226   2.640337   3.415079   4.165250
    42  H    2.202952   3.944890   3.592613   4.529180   4.793299
    43  H    2.186398   4.575720   4.296812   4.765657   5.606913
    44  C    1.543540   4.486322   4.807095   4.769188   5.289671
    45  H    2.186966   5.321208   5.541233   5.489889   6.210720
    46  H    2.202979   4.807233   5.036776   5.303823   5.504246
    47  H    2.196344   4.736921   5.274223   4.932355   5.424064
                   36         37         38         39         40
    36  C    0.000000
    37  H    1.096931   0.000000
    38  H    1.099998   1.768541   0.000000
    39  H    1.096381   1.772567   1.771569   0.000000
    40  C    2.514310   2.766720   2.766277   3.485475   0.000000
    41  H    2.784207   2.585179   3.140009   3.797068   1.097358
    42  H    3.488671   3.793980   3.773264   4.358137   1.096721
    43  H    2.748494   3.088444   2.542982   3.766877   1.099893
    44  C    2.509341   3.484735   2.736070   2.779311   2.515076
    45  H    2.739479   3.748293   2.504715   3.110445   2.762598
    46  H    3.484987   4.360163   3.747955   3.802826   2.771907
    47  H    2.775569   3.801402   3.099640   2.595362   3.485343
                   41         42         43         44         45
    41  H    0.000000
    42  H    1.772234   0.000000
    43  H    1.767647   1.768251   0.000000
    44  C    3.490690   2.776671   2.756812   0.000000
    45  H    3.775182   3.122874   2.546993   1.100234   0.000000
    46  H    3.795956   2.581957   3.107090   1.096823   1.768451
    47  H    4.359216   3.792011   3.771065   1.095916   1.772850
                   46         47
    46  H    0.000000
    47  H    1.771405   0.000000
 Stoichiometry    C14H28O4Si
 Framework group  C1[X(C14H28O4Si)]
 Deg. of freedom   135
 Full point group                 C1      NOp   1
 Largest Abelian subgroup         C1      NOp   1
 Largest concise Abelian subgroup C1      NOp   1
                         Standard orientation:                         
 ---------------------------------------------------------------------
 Center     Atomic      Atomic             Coordinates (Angstroms)
 Number     Number       Type             X           Y           Z
 ---------------------------------------------------------------------
      1          1           0        0.081070    0.472546   -2.064223
      2          6           0        0.492334   -0.048746   -1.189182
      3          6           0        1.757400   -2.100986   -0.430224
      4          6           0        2.262508    0.201350    0.639708
      5          6           0        2.754693   -1.206652    0.277388
      6          6           0        1.573191    0.860813   -0.575808
      7          6           0        1.114316   -1.381657   -1.624220
      8          1           0        0.973484   -2.381494    0.283192
      9          1           0        1.532462    0.138550    1.452612
     10          1           0        2.339924    1.034349   -1.350910
     11          1           0        1.870784   -1.192074   -2.396706
     12          1           0        2.260823   -3.019101   -0.751522
     13          1           0        0.337047   -2.009708   -2.072679
     14          6           0        3.893544   -1.775235    1.006513
     15          1           0        4.330376   -1.224455    1.836676
     16          1           0        4.023358   -2.856860    1.032998
     17          8           0        4.092972   -1.176587   -0.293776
     18          8           0        3.343658    0.989312    1.120428
     19          1           0        4.089313    0.776419    0.527216
     20          8           0        0.953763    2.094006   -0.241187
     21          6           0        1.795615    3.239703   -0.257027
     22          1           0        2.547437    3.202776    0.536397
     23          1           0        1.142343    4.104299   -0.110053
     24          1           0        2.304163    3.342244   -1.228717
     25          8           0       -0.542586   -0.327149   -0.255082
     26         14           0       -1.952686    0.535620    0.086141
     27          6           0       -1.740901    1.472665    1.710161
     28          1           0       -2.638191    2.048416    1.968288
     29          1           0       -0.899985    2.167393    1.621333
     30          1           0       -1.528883    0.794798    2.545256
     31          6           0       -3.314079   -0.808166    0.251694
     32          6           0       -2.340659    1.745212   -1.313188
     33          1           0       -3.267953    2.293332   -1.107304
     34          1           0       -2.461214    1.246093   -2.281728
     35          1           0       -1.532064    2.477441   -1.406758
     36          6           0       -3.492342   -1.547147   -1.091189
     37          1           0       -3.824883   -0.872292   -1.889465
     38          1           0       -4.249507   -2.339646   -0.998227
     39          1           0       -2.558455   -2.019436   -1.418067
     40          6           0       -4.655117   -0.155843    0.650644
     41          1           0       -4.996578    0.573356   -0.094922
     42          1           0       -4.589596    0.359326    1.616618
     43          1           0       -5.442069   -0.918896    0.741319
     44          6           0       -2.909314   -1.832920    1.332693
     45          1           0       -3.673031   -2.619735    1.423100
     46          1           0       -2.804126   -1.367870    2.320461
     47          1           0       -1.958036   -2.319454    1.089001
 ---------------------------------------------------------------------
 Rotational constants (GHZ):      0.5595460      0.2211943      0.1894390
 Standard basis: 6-31+G(d,p) (6D, 7F)
 There are   505 symmetry adapted basis functions of A   symmetry.
 Integral buffers will be    131072 words long.
 Raffenetti 2 integral format.
 Two-electron integral symmetry is turned on.
   505 basis functions,   828 primitive gaussians,   505 cartesian basis functions
    79 alpha electrons       79 beta electrons
       nuclear repulsion energy      1831.4831527974 Hartrees.
 NAtoms=   47 NActive=   47 NUniq=   47 SFac= 1.00D+00 NAtFMM=   60 NAOKFM=F Big=F
 ------------------------------------------------------------------------------
 Polarizable Continuum Model (PCM)
 =================================
 Model                : PCM.
 Atomic radii         : UFF (Universal Force Field).
 Polarization charges : Total charges.
 Charge compensation  : None.
 Solution method      : Matrix inversion.
 Cavity type          : Scaled VdW (van der Waals Surface) (Alpha=1.100).
 Cavity algorithm     : GePol (No added spheres)
                        Default sphere list used, NSphG=   47.
                        Lebedev-Laikov grids with approx.  5.0 points / Ang**2.
                        Smoothing algorithm: Karplus/York (Gamma=1.0000).
                        Polarization charges: spherical gaussians, with
                                              point-specific exponents (IZeta= 3).
                        Self-potential: point-specific (ISelfS= 7).
                        Self-field    : sphere-specific E.n sum rule (ISelfD= 2).
 Solvent              : Chloroform, Eps=   4.711300 Eps(inf)=   2.090627
 ------------------------------------------------------------------------------
 One-electron integrals computed using PRISM.
 NBasis=   505 RedAO= T  NBF=   505
 NBsUse=   505 1.00D-06 NBFU=   505
 Harris functional with IExCor=  908 diagonalized for initial guess.
 ExpMin= 3.31D-02 ExpMax= 1.61D+04 ExpMxC= 2.43D+03 IAcc=3 IRadAn=         5 AccDes= 0.00D+00
 HarFok:  IExCor=  908 AccDes= 0.00D+00 IRadAn=         5 IDoV= 1
 ScaDFX=  1.000000  1.000000  1.000000  1.000000
 FoFCou: FMM=F IPFlag=           0 FMFlag=      100000 FMFlg1=           0
         NFxFlg=           0 DoJE=T BraDBF=F KetDBF=T FulRan=T
         Omega=  0.000000  0.000000  1.000000  0.000000  0.000000 ICntrl=     500 IOpCl=  0
         NMat0=    1 NMatS0=    1 NMatT0=    0 NMatD0=    1 NMtDS0=    0 NMtDT0=    0
         I1Cent=           4 NGrid=           0.
 Petite list used in FoFCou.
 Initial guess orbital symmetries:
       Occupied  (A) (A) (A) (A) (A) (A) (A) (A) (A) (A) (A) (A)
                 (A) (A) (A) (A) (A) (A) (A) (A) (A) (A) (A) (A)
                 (A) (A) (A) (A) (A) (A) (A) (A) (A) (A) (A) (A)
                 (A) (A) (A) (A) (A) (A) (A) (A) (A) (A) (A) (A)
                 (A) (A) (A) (A) (A) (A) (A) (A) (A) (A) (A) (A)
                 (A) (A) (A) (A) (A) (A) (A) (A) (A) (A) (A) (A)
                 (A) (A) (A) (A) (A) (A) (A)
       Virtual   (A) (A) (A) (A) (A) (A) (A) (A) (A) (A) (A) (A)
                 (A) (A) (A) (A) (A) (A) (A) (A) (A) (A) (A) (A)
                 (A) (A) (A) (A) (A) (A) (A) (A) (A) (A) (A) (A)
                 (A) (A) (A) (A) (A) (A) (A) (A) (A) (A) (A) (A)
                 (A) (A) (A) (A) (A) (A) (A) (A) (A) (A) (A) (A)
                 (A) (A) (A) (A) (A) (A) (A) (A) (A) (A) (A) (A)
                 (A) (A) (A) (A) (A) (A) (A) (A) (A) (A) (A) (A)
                 (A) (A) (A) (A) (A) (A) (A) (A) (A) (A) (A) (A)
                 (A) (A) (A) (A) (A) (A) (A) (A) (A) (A) (A) (A)
                 (A) (A) (A) (A) (A) (A) (A) (A) (A) (A) (A) (A)
                 (A) (A) (A) (A) (A) (A) (A) (A) (A) (A) (A) (A)
                 (A) (A) (A) (A) (A) (A) (A) (A) (A) (A) (A) (A)
                 (A) (A) (A) (A) (A) (A) (A) (A) (A) (A) (A) (A)
                 (A) (A) (A) (A) (A) (A) (A) (A) (A) (A) (A) (A)
                 (A) (A) (A) (A) (A) (A) (A) (A) (A) (A) (A) (A)
                 (A) (A) (A) (A) (A) (A) (A) (A) (A) (A) (A) (A)
                 (A) (A) (A) (A) (A) (A) (A) (A) (A) (A) (A) (A)
                 (A) (A) (A) (A) (A) (A) (A) (A) (A) (A) (A) (A)
                 (A) (A) (A) (A) (A) (A) (A) (A) (A) (A) (A) (A)
                 (A) (A) (A) (A) (A) (A) (A) (A) (A) (A) (A) (A)
                 (A) (A) (A) (A) (A) (A) (A) (A) (A) (A) (A) (A)
                 (A) (A) (A) (A) (A) (A) (A) (A) (A) (A) (A) (A)
                 (A) (A) (A) (A) (A) (A) (A) (A) (A) (A) (A) (A)
                 (A) (A) (A) (A) (A) (A) (A) (A) (A) (A) (A) (A)
                 (A) (A) (A) (A) (A) (A) (A) (A) (A) (A) (A) (A)
                 (A) (A) (A) (A) (A) (A) (A) (A) (A) (A) (A) (A)
                 (A) (A) (A) (A) (A) (A) (A) (A) (A) (A) (A) (A)
                 (A) (A) (A) (A) (A) (A) (A) (A) (A) (A) (A) (A)
                 (A) (A) (A) (A) (A) (A) (A) (A) (A) (A) (A) (A)
                 (A) (A) (A) (A) (A) (A) (A) (A) (A) (A) (A) (A)
                 (A) (A) (A) (A) (A) (A) (A) (A) (A) (A) (A) (A)
                 (A) (A) (A) (A) (A) (A) (A) (A) (A) (A) (A) (A)
                 (A) (A) (A) (A) (A) (A) (A) (A) (A) (A) (A) (A)
                 (A) (A) (A) (A) (A) (A) (A) (A) (A) (A) (A) (A)
                 (A) (A) (A) (A) (A) (A) (A) (A) (A) (A) (A) (A)
                 (A) (A) (A) (A) (A) (A)
 The electronic state of the initial guess is 1-A.
 Requested convergence on RMS density matrix=1.00D-08 within 128 cycles.
 Requested convergence on MAX density matrix=1.00D-06.
 Requested convergence on             energy=1.00D-06.
 No special actions if energy rises.
 Error on total polarization charges =  0.01539
 SCF Done:  E(RmPW1PW91) =  -1140.62596123     A.U. after   13 cycles
             Convg  =    0.4666D-08             -V/T =  2.0080
 Range of M.O.s used for correlation:     1   505
 NBasis=   505 NAE=    79 NBE=    79 NFC=     0 NFV=     0
 NROrb=    505 NOA=    79 NOB=    79 NVA=   426 NVB=   426

 **** Warning!!: The largest alpha MO coefficient is  0.73651133D+02

 NEqPCM:  Using equilibrium solvation (IEInf=0, Eps=   4.7113, EpsInf=   2.0906)
          Differentiating once with respect to magnetic field using GIAOs.
          Electric field/nuclear overlap derivatives assumed to be zero.
 FoFCou: FMM=F IPFlag=           0 FMFlag=    10101102 FMFlg1=           0
         NFxFlg=    40000000 DoJE=F BraDBF=F KetDBF=T FulRan=T
         Omega=  0.000000  0.000000  1.000000  0.000000  0.000000 ICntrl=    6100 IOpCl=  0
         NMat0=    1 NMatS0=    1 NMatT0=    0 NMatD0=    1 NMtDS0=    0 NMtDT0=    0
         I1Cent=           7 NGrid=        3007.
 Symmetry not used in FoFCou.
          There are     3 degrees of freedom in the 1st order CPHF.  IDoFFX=0.
      3 vectors produced by pass  0 Test12= 1.12D-12 3.33D-08 XBig12= 1.55D+02 2.98D+00.
 AX will form     3 AO Fock derivatives at one time.
      3 vectors produced by pass  1 Test12= 1.12D-12 3.33D-08 XBig12= 3.94D-01 1.03D-01.
      3 vectors produced by pass  2 Test12= 1.12D-12 3.33D-08 XBig12= 9.46D-04 5.14D-03.
      3 vectors produced by pass  3 Test12= 1.12D-12 3.33D-08 XBig12= 5.03D-06 2.53D-04.
      3 vectors produced by pass  4 Test12= 1.12D-12 3.33D-08 XBig12= 1.80D-08 1.53D-05.
      3 vectors produced by pass  5 Test12= 1.12D-12 3.33D-08 XBig12= 6.22D-11 1.06D-06.
      2 vectors produced by pass  6 Test12= 1.12D-12 3.33D-08 XBig12= 2.36D-13 6.93D-08.
 Inverted reduced A of dimension    20 with in-core refinement.
 Calculating GIAO nuclear magnetic shielding tensors.
 SCF GIAO Magnetic shielding tensor (ppm):
      1  H    Isotropic =    27.3974   Anisotropy =     3.8705
   XX=    28.3753   YX=    -1.2005   ZX=    -1.9542
   XY=    -1.6057   YY=    24.8319   ZY=    -1.4980
   XZ=    -0.2206   YZ=    -2.4047   ZZ=    28.9849
   Eigenvalues:    23.4625    28.7519    29.9777
      2  C    Isotropic =   121.5925   Anisotropy =    36.8373
   XX=   130.5903   YX=    13.7644   ZX=   -19.3101
   XY=     5.4431   YY=   116.1515   ZY=     4.3203
   XZ=   -19.0634   YZ=    -1.3523   ZZ=   118.0357
   Eigenvalues:   100.8374   117.7894   146.1507
      3  C    Isotropic =   167.3896   Anisotropy =    29.6594
   XX=   170.6012   YX=     5.3720   ZX=     9.8778
   XY=     3.5142   YY=   170.8880   ZY=    10.7439
   XZ=    14.6845   YZ=    15.0436   ZZ=   160.6797
   Eigenvalues:   148.7067   166.2997   187.1625
      4  C    Isotropic =   123.8344   Anisotropy =    38.6377
   XX=   130.9908   YX=     8.6769   ZX=    18.9088
   XY=    18.3003   YY=   129.4515   ZY=     3.0628
   XZ=    18.2264   YZ=    -1.2011   ZZ=   111.0610
   Eigenvalues:    98.5897   123.3207   149.5929
      5  C    Isotropic =   134.3079   Anisotropy =    59.5238
   XX=   112.6170   YX=    20.3524   ZX=   -21.1167
   XY=    24.2637   YY=   155.2450   ZY=    23.2236
   XZ=   -17.3813   YZ=    28.1788   ZZ=   135.0618
   Eigenvalues:    86.1397   142.7936   173.9904
      6  C    Isotropic =   110.0969   Anisotropy =    34.4488
   XX=   107.7254   YX=    -5.7511   ZX=    -1.0786
   XY=   -13.1743   YY=   124.4117   ZY=     7.2855
   XZ=   -13.5254   YZ=    13.1727   ZZ=    98.1537
   Eigenvalues:    93.2742   103.9538   133.0627
      7  C    Isotropic =   164.0333   Anisotropy =    18.9152
   XX=   163.7813   YX=    -4.9582   ZX=    -5.0121
   XY=    -9.0618   YY=   170.2956   ZY=     9.3895
   XZ=    -1.5399   YZ=     0.4488   ZZ=   158.0231
   Eigenvalues:   156.1440   159.3125   176.6435
      8  H    Isotropic =    28.9734   Anisotropy =     7.3357
   XX=    32.1736   YX=     1.1632   ZX=    -1.8847
   XY=     1.9340   YY=    28.7241   ZY=    -3.4352
   XZ=    -1.5420   YZ=    -2.9574   ZZ=    26.0225
   Eigenvalues:    23.8602    29.1961    33.8638
      9  H    Isotropic =    27.3135   Anisotropy =     5.5384
   XX=    30.9380   YX=     0.4907   ZX=     0.0445
   XY=     0.7766   YY=    24.2763   ZY=    -0.7991
   XZ=    -0.4685   YZ=     1.3452   ZZ=    26.7263
   Eigenvalues:    24.1830    26.7518    31.0058
     10  H    Isotropic =    28.7389   Anisotropy =     3.2987
   XX=    28.4757   YX=    -0.1585   ZX=    -0.8402
   XY=    -2.1498   YY=    30.3788   ZY=     0.5315
   XZ=    -1.9508   YZ=    -1.3881   ZZ=    27.3623
   Eigenvalues:    26.1688    29.1099    30.9381
     11  H    Isotropic =    29.8479   Anisotropy =     8.8348
   XX=    29.6318   YX=    -1.2592   ZX=    -3.3325
   XY=    -1.1199   YY=    26.0955   ZY=     1.2639
   XZ=    -3.0789   YZ=     0.4832   ZZ=    33.8162
   Eigenvalues:    25.7308    28.0750    35.7378
     12  H    Isotropic =    30.4686   Anisotropy =    10.6472
   XX=    28.5564   YX=    -2.5610   ZX=     1.7452
   XY=    -2.6423   YY=    36.2308   ZY=     3.0416
   XZ=     1.9132   YZ=     2.9887   ZZ=    26.6186
   Eigenvalues:    24.2253    29.6136    37.5667
     13  H    Isotropic =    29.8238   Anisotropy =     9.0479
   XX=    30.7048   YX=     0.9193   ZX=     3.4412
   XY=     1.9698   YY=    29.2910   ZY=     4.0671
   XZ=     3.5416   YZ=     3.9189   ZZ=    29.4756
   Eigenvalues:    24.9308    28.6849    35.8557
     14  C    Isotropic =   146.4592   Anisotropy =    31.5524
   XX=   129.6190   YX=    21.6524   ZX=   -16.8865
   XY=    16.6600   YY=   157.6846   ZY=    12.3023
   XZ=   -20.2018   YZ=     4.7049   ZZ=   152.0740
   Eigenvalues:   110.0213   161.8622   167.4942
     15  H    Isotropic =    28.5358   Anisotropy =     9.1657
   XX=    25.6784   YX=    -2.0346   ZX=     4.8016
   XY=     1.2112   YY=    28.5453   ZY=     2.7941
   XZ=     5.6012   YZ=     0.1279   ZZ=    31.3838
   Eigenvalues:    22.3994    28.5618    34.6463
     16  H    Isotropic =    29.0194   Anisotropy =    11.3046
   XX=    25.3893   YX=    -0.0257   ZX=     2.0160
   XY=    -3.7280   YY=    35.2343   ZY=    -3.8898
   XZ=     1.6620   YZ=    -1.7779   ZZ=    26.4348
   Eigenvalues:    23.9948    26.5077    36.5559
     17  O    Isotropic =   312.4729   Anisotropy =   124.6259
   XX=   317.1759   YX=   -19.8807   ZX=    80.9238
   XY=   -40.7129   YY=   373.6822   ZY=    52.7517
   XZ=    93.0838   YZ=    60.6731   ZZ=   246.5607
   Eigenvalues:   168.0562   373.8056   395.5569
     18  O    Isotropic =   308.9350   Anisotropy =    41.0207
   XX=   334.1989   YX=    15.2515   ZX=    -3.5909
   XY=   -16.8959   YY=   279.1240   ZY=    -0.6370
   XZ=   -10.0790   YZ=     4.4747   ZZ=   313.4821
   Eigenvalues:   279.0136   311.5093   336.2821
     19  H    Isotropic =    29.7624   Anisotropy =    14.0553
   XX=    35.4470   YX=    -0.7368   ZX=    -6.9454
   XY=     0.5720   YY=    29.4330   ZY=     4.6244
   XZ=    -6.6698   YZ=     4.2059   ZZ=    24.4072
   Eigenvalues:    19.5506    30.6040    39.1326
     20  O    Isotropic =   295.0599   Anisotropy =    70.6007
   XX=   311.5621   YX=   -39.1252   ZX=   -11.8759
   XY=   -28.2842   YY=   295.1786   ZY=     6.4856
   XZ=   -14.5585   YZ=    11.9903   ZZ=   278.4390
   Eigenvalues:   268.5513   274.5013   342.1270
     21  C    Isotropic =   136.4666   Anisotropy =    85.7328
   XX=   129.3167   YX=    37.6027   ZX=    -2.7820
   XY=    36.5391   YY=   172.2043   ZY=    -1.6548
   XZ=    -3.3812   YZ=     1.2037   ZZ=   107.8789
   Eigenvalues:   105.3324   110.4456   193.6219
     22  H    Isotropic =    27.0769   Anisotropy =     8.9411
   XX=    27.2935   YX=     2.4572   ZX=     4.3164
   XY=     3.5516   YY=    30.3887   ZY=     1.7908
   XZ=     2.9850   YZ=    -0.0510   ZZ=    23.5485
   Eigenvalues:    21.2338    26.9593    33.0376
     23  H    Isotropic =    27.8199   Anisotropy =    10.6136
   XX=    25.5778   YX=     2.3863   ZX=    -0.0431
   XY=    -0.7698   YY=    34.8114   ZY=     0.6404
   XZ=    -0.3726   YZ=     0.2114   ZZ=    23.0704
   Eigenvalues:    23.0324    25.5316    34.8956
     24  H    Isotropic =    28.3103   Anisotropy =    10.3437
   XX=    27.7630   YX=     3.4962   ZX=    -2.6220
   XY=     4.5923   YY=    30.2736   ZY=    -4.7516
   XZ=    -1.1814   YZ=    -2.4347   ZZ=    26.8942
   Eigenvalues:    24.3158    25.4089    35.2060
     25  O    Isotropic =   290.2654   Anisotropy =    21.0251
   XX=   286.1887   YX=    -2.8414   ZX=    17.9829
   XY=     3.6716   YY=   304.1943   ZY=    -3.5172
   XZ=    12.2392   YZ=     0.9468   ZZ=   280.4133
   Eigenvalues:   267.8731   298.6410   304.2821
     26  Si   Isotropic =   378.3600   Anisotropy =    32.5802
   XX=   397.3691   YX=   -17.0236   ZX=     4.3894
   XY=     0.2220   YY=   373.9961   ZY=     4.0797
   XZ=    -0.3700   YZ=     5.6959   ZZ=   363.7147
   Eigenvalues:   361.0102   373.9897   400.0801
     27  C    Isotropic =   198.7218   Anisotropy =     8.5248
   XX=   202.0531   YX=    -2.7844   ZX=     0.0354
   XY=    -3.3637   YY=   192.8688   ZY=     5.2753
   XZ=    -1.2768   YZ=     2.5967   ZZ=   201.2434
   Eigenvalues:   190.6878   201.0725   204.4049
     28  H    Isotropic =    31.7343   Anisotropy =    10.9064
   XX=    34.2226   YX=    -3.9641   ZX=    -2.9731
   XY=    -3.5538   YY=    31.4190   ZY=     3.7062
   XZ=    -2.8878   YZ=     3.5915   ZZ=    29.5615
   Eigenvalues:    26.7251    29.4727    39.0053
     29  H    Isotropic =    30.8683   Anisotropy =    10.1584
   XX=    34.1492   YX=     4.9276   ZX=    -2.2883
   XY=     5.0754   YY=    30.2729   ZY=     1.3723
   XZ=    -1.5483   YZ=     1.5097   ZZ=    28.1830
   Eigenvalues:    25.1289    29.8354    37.6406
     30  H    Isotropic =    31.3161   Anisotropy =     8.1962
   XX=    28.4260   YX=    -0.0972   ZX=     1.3277
   XY=     0.3317   YY=    30.1120   ZY=    -2.4062
   XZ=     1.4054   YZ=    -3.1612   ZZ=    35.4102
   Eigenvalues:    27.8628    29.3052    36.7802
     31  C    Isotropic =   172.6208   Anisotropy =     7.5865
   XX=   174.8599   YX=    -3.9913   ZX=    -0.7510
   XY=    -2.0004   YY=   172.9712   ZY=     1.4214
   XZ=    -2.2515   YZ=     1.8462   ZZ=   170.0313
   Eigenvalues:   169.2958   170.8881   177.6785
     32  C    Isotropic =   201.2146   Anisotropy =     4.7476
   XX=   202.9762   YX=    -1.2562   ZX=     1.8133
   XY=    -0.1532   YY=   198.0687   ZY=    -0.7218
   XZ=     1.3460   YZ=     2.0567   ZZ=   202.5990
   Eigenvalues:   197.7929   201.4713   204.3797
     33  H    Isotropic =    31.6925   Anisotropy =    10.6799
   XX=    35.4291   YX=    -5.0010   ZX=    -0.3215
   XY=    -4.5932   YY=    31.9945   ZY=    -1.2071
   XZ=    -0.5996   YZ=    -0.9522   ZZ=    27.6541
   Eigenvalues:    26.8871    29.3781    38.8124
     34  H    Isotropic =    31.4594   Anisotropy =     8.8970
   XX=    28.3807   YX=     0.5735   ZX=     2.0258
   XY=     0.6141   YY=    29.3663   ZY=     1.2344
   XZ=     1.9915   YZ=     1.6564   ZZ=    36.6313
   Eigenvalues:    27.8658    29.1217    37.3908
     35  H    Isotropic =    31.0458   Anisotropy =     9.6030
   XX=    33.9173   YX=     3.8874   ZX=     0.3762
   XY=     4.2508   YY=    32.2344   ZY=    -2.5902
   XZ=     0.3138   YZ=    -2.8789   ZZ=    26.9858
   Eigenvalues:    25.2981    30.3915    37.4478
     36  C    Isotropic =   170.4280   Anisotropy =    37.4460
   XX=   157.0993   YX=     3.7528   ZX=     3.7863
   XY=     2.1513   YY=   165.8563   ZY=    16.3605
   XZ=     0.4087   YZ=    11.8576   ZZ=   188.3284
   Eigenvalues:   155.8803   160.0117   195.3920
     37  H    Isotropic =    30.6417   Anisotropy =     8.3483
   XX=    28.2218   YX=     0.8252   ZX=     3.0665
   XY=     1.1565   YY=    28.9562   ZY=    -0.9192
   XZ=     3.2605   YZ=    -2.2945   ZZ=    34.7472
   Eigenvalues:    26.0938    29.6241    36.2073
     38  H    Isotropic =    31.0538   Anisotropy =     9.8178
   XX=    31.2538   YX=     4.4474   ZX=     1.1974
   XY=     4.8340   YY=    32.7663   ZY=     1.9238
   XZ=     1.9025   YZ=     2.6272   ZZ=    29.1412
   Eigenvalues:    27.2314    28.3310    37.5989
     39  H    Isotropic =    30.4127   Anisotropy =     7.7578
   XX=    32.4491   YX=    -0.7046   ZX=    -1.7909
   XY=    -1.4483   YY=    29.4413   ZY=     4.0999
   XZ=    -2.9770   YZ=     4.3715   ZZ=    29.3477
   Eigenvalues:    25.0277    30.6258    35.5845
     40  C    Isotropic =   170.3693   Anisotropy =    38.9838
   XX=   185.1306   YX=   -17.6741   ZX=    -8.8421
   XY=   -13.2560   YY=   165.9187   ZY=     3.9961
   XZ=    -8.2541   YZ=     5.4564   ZZ=   160.0585
   Eigenvalues:   157.3145   157.4348   196.3585
     41  H    Isotropic =    30.7256   Anisotropy =     9.0488
   XX=    33.3416   YX=    -3.7511   ZX=     1.7741
   XY=    -3.1281   YY=    31.0859   ZY=    -3.5416
   XZ=     0.5872   YZ=    -2.7994   ZZ=    27.7493
   Eigenvalues:    25.7347    29.6841    36.7581
     42  H    Isotropic =    30.7003   Anisotropy =     8.8445
   XX=    31.1944   YX=    -1.1848   ZX=    -3.6052
   XY=    -0.6983   YY=    29.1384   ZY=     4.6286
   XZ=    -2.2199   YZ=     4.1064   ZZ=    31.7682
   Eigenvalues:    25.6831    29.8212    36.5967
     43  H    Isotropic =    30.9419   Anisotropy =    10.2256
   XX=    36.4971   YX=     3.3743   ZX=    -1.8376
   XY=     2.1336   YY=    29.0634   ZY=    -0.3006
   XZ=    -1.9541   YZ=    -0.4867   ZZ=    27.2653
   Eigenvalues:    26.8759    28.1909    37.7590
     44  C    Isotropic =   170.3296   Anisotropy =    37.6900
   XX=   161.9542   YX=    -3.4906   ZX=     7.8631
   XY=    -8.1391   YY=   172.4664   ZY=   -19.1008
   XZ=    11.1141   YZ=   -15.3466   ZZ=   176.5683
   Eigenvalues:   155.8152   159.7174   195.4563
     45  H    Isotropic =    31.0472   Anisotropy =     9.8029
   XX=    30.0881   YX=     3.2236   ZX=    -0.8917
   XY=     3.9833   YY=    34.0146   ZY=    -3.1770
   XZ=    -1.4172   YZ=    -3.5493   ZZ=    29.0388
   Eigenvalues:    27.0897    28.4694    37.5825
     46  H    Isotropic =    30.5003   Anisotropy =     8.2629
   XX=    27.2198   YX=     1.5377   ZX=     1.3468
   XY=     1.2107   YY=    28.4868   ZY=    -1.5432
   XZ=     1.1338   YZ=     0.0790   ZZ=    35.7942
   Eigenvalues:    26.1258    29.3661    36.0089
     47  H    Isotropic =    30.2432   Anisotropy =     8.2153
   XX=    33.7124   YX=    -2.6421   ZX=    -1.0429
   XY=    -3.3572   YY=    30.8035   ZY=    -2.4293
   XZ=     0.0689   YZ=    -3.0676   ZZ=    26.2138
   Eigenvalues:    24.5748    30.4347    35.7201
 End of Minotr Frequency-dependent properties file   721 does not exist.
 End of Minotr Frequency-dependent properties file   722 does not exist.

 **********************************************************************

            Population analysis using the SCF density.

 **********************************************************************

 Orbital symmetries:
       Occupied  (A) (A) (A) (A) (A) (A) (A) (A) (A) (A) (A) (A)
                 (A) (A) (A) (A) (A) (A) (A) (A) (A) (A) (A) (A)
                 (A) (A) (A) (A) (A) (A) (A) (A) (A) (A) (A) (A)
                 (A) (A) (A) (A) (A) (A) (A) (A) (A) (A) (A) (A)
                 (A) (A) (A) (A) (A) (A) (A) (A) (A) (A) (A) (A)
                 (A) (A) (A) (A) (A) (A) (A) (A) (A) (A) (A) (A)
                 (A) (A) (A) (A) (A) (A) (A)
       Virtual   (A) (A) (A) (A) (A) (A) (A) (A) (A) (A) (A) (A)
                 (A) (A) (A) (A) (A) (A) (A) (A) (A) (A) (A) (A)
                 (A) (A) (A) (A) (A) (A) (A) (A) (A) (A) (A) (A)
                 (A) (A) (A) (A) (A) (A) (A) (A) (A) (A) (A) (A)
                 (A) (A) (A) (A) (A) (A) (A) (A) (A) (A) (A) (A)
                 (A) (A) (A) (A) (A) (A) (A) (A) (A) (A) (A) (A)
                 (A) (A) (A) (A) (A) (A) (A) (A) (A) (A) (A) (A)
                 (A) (A) (A) (A) (A) (A) (A) (A) (A) (A) (A) (A)
                 (A) (A) (A) (A) (A) (A) (A) (A) (A) (A) (A) (A)
                 (A) (A) (A) (A) (A) (A) (A) (A) (A) (A) (A) (A)
                 (A) (A) (A) (A) (A) (A) (A) (A) (A) (A) (A) (A)
                 (A) (A) (A) (A) (A) (A) (A) (A) (A) (A) (A) (A)
                 (A) (A) (A) (A) (A) (A) (A) (A) (A) (A) (A) (A)
                 (A) (A) (A) (A) (A) (A) (A) (A) (A) (A) (A) (A)
                 (A) (A) (A) (A) (A) (A) (A) (A) (A) (A) (A) (A)
                 (A) (A) (A) (A) (A) (A) (A) (A) (A) (A) (A) (A)
                 (A) (A) (A) (A) (A) (A) (A) (A) (A) (A) (A) (A)
                 (A) (A) (A) (A) (A) (A) (A) (A) (A) (A) (A) (A)
                 (A) (A) (A) (A) (A) (A) (A) (A) (A) (A) (A) (A)
                 (A) (A) (A) (A) (A) (A) (A) (A) (A) (A) (A) (A)
                 (A) (A) (A) (A) (A) (A) (A) (A) (A) (A) (A) (A)
                 (A) (A) (A) (A) (A) (A) (A) (A) (A) (A) (A) (A)
                 (A) (A) (A) (A) (A) (A) (A) (A) (A) (A) (A) (A)
                 (A) (A) (A) (A) (A) (A) (A) (A) (A) (A) (A) (A)
                 (A) (A) (A) (A) (A) (A) (A) (A) (A) (A) (A) (A)
                 (A) (A) (A) (A) (A) (A) (A) (A) (A) (A) (A) (A)
                 (A) (A) (A) (A) (A) (A) (A) (A) (A) (A) (A) (A)
                 (A) (A) (A) (A) (A) (A) (A) (A) (A) (A) (A) (A)
                 (A) (A) (A) (A) (A) (A) (A) (A) (A) (A) (A) (A)
                 (A) (A) (A) (A) (A) (A) (A) (A) (A) (A) (A) (A)
                 (A) (A) (A) (A) (A) (A) (A) (A) (A) (A) (A) (A)
                 (A) (A) (A) (A) (A) (A) (A) (A) (A) (A) (A) (A)
                 (A) (A) (A) (A) (A) (A) (A) (A) (A) (A) (A) (A)
                 (A) (A) (A) (A) (A) (A) (A) (A) (A) (A) (A) (A)
                 (A) (A) (A) (A) (A) (A) (A) (A) (A) (A) (A) (A)
                 (A) (A) (A) (A) (A) (A)
 The electronic state is 1-A.
 Alpha  occ. eigenvalues --  -66.30032 -19.27168 -19.25296 -19.25223 -19.23096
 Alpha  occ. eigenvalues --  -10.31896 -10.30682 -10.30624 -10.30302 -10.30220
 Alpha  occ. eigenvalues --  -10.28269 -10.25461 -10.25024 -10.24360 -10.23391
 Alpha  occ. eigenvalues --  -10.23180 -10.23123 -10.22020 -10.21571  -5.33388
 Alpha  occ. eigenvalues --   -3.67311  -3.67015  -3.66983  -1.11564  -1.07332
 Alpha  occ. eigenvalues --   -1.05287  -1.02840  -0.84526  -0.81930  -0.77446
 Alpha  occ. eigenvalues --   -0.75386  -0.71770  -0.70186  -0.70057  -0.69921
 Alpha  occ. eigenvalues --   -0.69219  -0.68970  -0.63763  -0.62012  -0.59229
 Alpha  occ. eigenvalues --   -0.56384  -0.55030  -0.52497  -0.51888  -0.50987
 Alpha  occ. eigenvalues --   -0.48205  -0.48150  -0.47589  -0.46450  -0.45674
 Alpha  occ. eigenvalues --   -0.44557  -0.44347  -0.43928  -0.42794  -0.41959
 Alpha  occ. eigenvalues --   -0.41447  -0.41020  -0.40633  -0.40342  -0.39774
 Alpha  occ. eigenvalues --   -0.39396  -0.38918  -0.38527  -0.38473  -0.38076
 Alpha  occ. eigenvalues --   -0.36989  -0.36463  -0.35336  -0.33963  -0.33799
 Alpha  occ. eigenvalues --   -0.33463  -0.32844  -0.32509  -0.31327  -0.30572
 Alpha  occ. eigenvalues --   -0.29721  -0.28880  -0.26540  -0.25520
 Alpha virt. eigenvalues --   -0.00058   0.00802   0.01270   0.01518   0.02465
 Alpha virt. eigenvalues --    0.02902   0.03259   0.03791   0.03967   0.04568
 Alpha virt. eigenvalues --    0.04914   0.05685   0.05803   0.06047   0.06361
 Alpha virt. eigenvalues --    0.07055   0.07149   0.07637   0.07978   0.08226
 Alpha virt. eigenvalues --    0.08300   0.08740   0.09004   0.09391   0.09685
 Alpha virt. eigenvalues --    0.10011   0.10342   0.10608   0.11470   0.11894
 Alpha virt. eigenvalues --    0.11960   0.12062   0.12470   0.13107   0.13130
 Alpha virt. eigenvalues --    0.13382   0.14082   0.14282   0.14434   0.14996
 Alpha virt. eigenvalues --    0.15069   0.15557   0.15643   0.16168   0.16539
 Alpha virt. eigenvalues --    0.16608   0.17068   0.17649   0.17745   0.17834
 Alpha virt. eigenvalues --    0.18234   0.18547   0.18677   0.19111   0.20016
 Alpha virt. eigenvalues --    0.20163   0.20330   0.20756   0.21123   0.21399
 Alpha virt. eigenvalues --    0.21687   0.21943   0.22417   0.22521   0.22902
 Alpha virt. eigenvalues --    0.22995   0.23274   0.24053   0.24342   0.24423
 Alpha virt. eigenvalues --    0.24602   0.24959   0.25429   0.25914   0.26267
 Alpha virt. eigenvalues --    0.26483   0.26870   0.27251   0.27762   0.27880
 Alpha virt. eigenvalues --    0.28083   0.28294   0.28720   0.29335   0.29603
 Alpha virt. eigenvalues --    0.30077   0.30490   0.31078   0.31313   0.31564
 Alpha virt. eigenvalues --    0.31703   0.32194   0.32577   0.33167   0.33424
 Alpha virt. eigenvalues --    0.33828   0.34355   0.35141   0.35467   0.36474
 Alpha virt. eigenvalues --    0.36903   0.37110   0.37810   0.38411   0.38632
 Alpha virt. eigenvalues --    0.39192   0.39548   0.40067   0.40788   0.41274
 Alpha virt. eigenvalues --    0.41852   0.42975   0.43523   0.43646   0.44760
 Alpha virt. eigenvalues --    0.45549   0.45791   0.46741   0.48210   0.48549
 Alpha virt. eigenvalues --    0.49220   0.51165   0.52050   0.53833   0.54888
 Alpha virt. eigenvalues --    0.55106   0.59105   0.62362   0.64205   0.66003
 Alpha virt. eigenvalues --    0.66907   0.68960   0.69993   0.71325   0.71985
 Alpha virt. eigenvalues --    0.72720   0.73159   0.73644   0.74270   0.75364
 Alpha virt. eigenvalues --    0.75622   0.76998   0.77397   0.78534   0.79120
 Alpha virt. eigenvalues --    0.79546   0.79615   0.80921   0.81447   0.82151
 Alpha virt. eigenvalues --    0.82743   0.84002   0.85171   0.85824   0.86037
 Alpha virt. eigenvalues --    0.87101   0.88272   0.88455   0.89527   0.90293
 Alpha virt. eigenvalues --    0.90703   0.91801   0.92951   0.93451   0.93709
 Alpha virt. eigenvalues --    0.94472   0.96321   0.96780   0.98051   0.98672
 Alpha virt. eigenvalues --    0.99091   1.00196   1.00471   1.01758   1.02894
 Alpha virt. eigenvalues --    1.02986   1.04055   1.05036   1.05277   1.06129
 Alpha virt. eigenvalues --    1.06390   1.07010   1.07168   1.07797   1.08283
 Alpha virt. eigenvalues --    1.08916   1.09685   1.10057   1.11005   1.11582
 Alpha virt. eigenvalues --    1.14378   1.14729   1.15391   1.16648   1.16859
 Alpha virt. eigenvalues --    1.17757   1.18708   1.19324   1.20026   1.22341
 Alpha virt. eigenvalues --    1.23069   1.23840   1.24196   1.24934   1.25431
 Alpha virt. eigenvalues --    1.27281   1.28911   1.29782   1.31680   1.33385
 Alpha virt. eigenvalues --    1.33670   1.35448   1.35900   1.36563   1.37418
 Alpha virt. eigenvalues --    1.39312   1.39755   1.41097   1.42767   1.42917
 Alpha virt. eigenvalues --    1.44072   1.45378   1.47393   1.48002   1.48373
 Alpha virt. eigenvalues --    1.49767   1.52017   1.52747   1.54517   1.54978
 Alpha virt. eigenvalues --    1.55599   1.58542   1.59361   1.61657   1.63402
 Alpha virt. eigenvalues --    1.64103   1.66427   1.66811   1.68488   1.69633
 Alpha virt. eigenvalues --    1.69971   1.72365   1.73036   1.75436   1.76732
 Alpha virt. eigenvalues --    1.77049   1.79026   1.79886   1.81474   1.82540
 Alpha virt. eigenvalues --    1.82990   1.83798   1.85147   1.85935   1.87152
 Alpha virt. eigenvalues --    1.89573   1.90944   1.91889   1.92441   1.93567
 Alpha virt. eigenvalues --    1.95010   1.95645   1.96033   1.96871   1.97189
 Alpha virt. eigenvalues --    1.97798   1.99647   2.00509   2.01311   2.02159
 Alpha virt. eigenvalues --    2.02956   2.04103   2.06213   2.06392   2.07007
 Alpha virt. eigenvalues --    2.07457   2.07748   2.08938   2.09623   2.09886
 Alpha virt. eigenvalues --    2.10313   2.10931   2.11965   2.12649   2.12680
 Alpha virt. eigenvalues --    2.14464   2.14844   2.15628   2.16026   2.16368
 Alpha virt. eigenvalues --    2.16668   2.17063   2.17474   2.18036   2.19112
 Alpha virt. eigenvalues --    2.19348   2.19915   2.19925   2.21002   2.22012
 Alpha virt. eigenvalues --    2.22272   2.23244   2.25447   2.25523   2.26855
 Alpha virt. eigenvalues --    2.27338   2.30016   2.30872   2.31161   2.36083
 Alpha virt. eigenvalues --    2.36266   2.38084   2.39234   2.39679   2.40562
 Alpha virt. eigenvalues --    2.41728   2.42583   2.43356   2.44072   2.45654
 Alpha virt. eigenvalues --    2.46020   2.47874   2.49757   2.51743   2.53475
 Alpha virt. eigenvalues --    2.54947   2.56843   2.57135   2.57988   2.59053
 Alpha virt. eigenvalues --    2.59834   2.60593   2.62195   2.63248   2.65328
 Alpha virt. eigenvalues --    2.67136   2.67637   2.68625   2.69910   2.70814
 Alpha virt. eigenvalues --    2.71025   2.72810   2.73225   2.74109   2.75619
 Alpha virt. eigenvalues --    2.75980   2.76922   2.78467   2.78513   2.79477
 Alpha virt. eigenvalues --    2.80465   2.81474   2.83396   2.84208   2.85281
 Alpha virt. eigenvalues --    2.86294   2.87232   2.87536   2.88391   2.88491
 Alpha virt. eigenvalues --    2.89208   2.89509   2.89783   2.90603   2.91545
 Alpha virt. eigenvalues --    2.92078   2.93653   2.94887   2.95769   2.98335
 Alpha virt. eigenvalues --    2.99247   2.99934   3.01631   3.03924   3.06512
 Alpha virt. eigenvalues --    3.11907   3.12701   3.20204   3.24644   3.27593
 Alpha virt. eigenvalues --    3.28661   3.29588   3.30486   3.30741   3.31485
 Alpha virt. eigenvalues --    3.32101   3.37382   3.37919   3.39794   3.45306
 Alpha virt. eigenvalues --    3.47964   3.48022   3.48664   3.49056   3.49730
 Alpha virt. eigenvalues --    3.50476   3.50765   3.51258   3.51489   3.52115
 Alpha virt. eigenvalues --    3.52572   3.53723   3.55691   3.55947   3.56695
 Alpha virt. eigenvalues --    3.57365   3.60565   3.62936   4.36825   4.41951
 Alpha virt. eigenvalues --    4.45771   4.50430   4.53855   4.56313   4.59079
 Alpha virt. eigenvalues --    4.61963   4.63134   4.65718   4.67191   4.68710
 Alpha virt. eigenvalues --    4.70959   4.75885   4.80278   4.84077   4.94339
 Alpha virt. eigenvalues --    4.99312
          Condensed to atoms (all electrons):
              1          2          3          4          5          6
     1  H    0.595900   0.219731  -0.008212   0.027750   0.031328   0.042127
     2  C    0.219731  11.012998   0.412697  -1.823896   0.469599  -3.583977
     3  C   -0.008212   0.412697   8.555510  -2.622423  -0.423188  -0.149628
     4  C    0.027750  -1.823896  -2.622423  13.795975  -3.777050   0.295770
     5  C    0.031328   0.469599  -0.423188  -3.777050  11.033813  -0.107577
     6  C    0.042127  -3.583977  -0.149628   0.295770  -0.107577  10.311062
     7  C   -0.016929  -1.259938   0.247254  -0.076775  -0.019890   0.463989
     8  H   -0.000058  -0.060977   0.383399   0.031681  -0.053422   0.038086
     9  H   -0.000203   0.066510  -0.014528   0.348812  -0.007133  -0.142017
    10  H   -0.004550   0.117441  -0.015702  -0.212698   0.112243   0.264786
    11  H   -0.002245  -0.106312  -0.037942   0.005977   0.004069   0.026831
    12  H   -0.000108   0.060334   0.329948   0.067242  -0.036453  -0.000087
    13  H   -0.004938  -0.031457  -0.052575   0.002518   0.034547   0.014300
    14  C    0.005835   0.288083  -0.325672   0.438670  -1.792386  -0.753689
    15  H    0.000000  -0.004440  -0.038533   0.126102  -0.141163   0.005221
    16  H    0.000000   0.006855   0.046801  -0.025204  -0.140163  -0.012824
    17  O   -0.000388  -0.001169  -0.044244  -0.293443   0.287336   0.007162
    18  O   -0.000570   0.080791   0.094761   0.112963   0.122475  -0.160331
    19  H   -0.000009   0.024908   0.004012   0.057322  -0.053784  -0.070732
    20  O    0.002213  -0.107079   0.022145  -0.332072   0.119648   0.330469
    21  C   -0.007428   0.082434   0.019376   0.067546  -0.104949  -0.161941
    22  H    0.000023  -0.034625  -0.006256   0.047443  -0.030284   0.041177
    23  H   -0.000023  -0.004982   0.000246   0.000176   0.002676   0.005137
    24  H   -0.000080   0.051335   0.002624  -0.032327   0.014029  -0.050482
    25  O   -0.049222   0.084825  -0.046258  -0.048937   0.120290  -0.162802
    26  Si   0.027009  -0.485508   0.001643  -0.336810   0.170012   0.305427
    27  C   -0.002876   0.119205   0.002544   0.056759  -0.014781  -0.141593
    28  H    0.000002   0.004368   0.000020  -0.000491  -0.000250  -0.000826
    29  H    0.000000  -0.009446   0.000442   0.004620  -0.001476  -0.002182
    30  H   -0.000003   0.006737  -0.000388  -0.004067   0.003637  -0.007246
    31  C    0.003326  -0.054050  -0.021812  -0.015600   0.024116   0.062566
    32  C   -0.004934   0.110158  -0.003375   0.039453  -0.004578  -0.098599
    33  H    0.000065  -0.001881  -0.000020   0.000145   0.000098   0.001832
    34  H   -0.000092  -0.013744   0.000040   0.000094  -0.000479   0.010130
    35  H   -0.000212  -0.008780   0.000356   0.000597  -0.000579   0.008027
    36  C   -0.006077  -0.048255   0.054339  -0.003065  -0.027583   0.014712
    37  H    0.000002   0.000600  -0.000636   0.000031  -0.000009   0.000923
    38  H    0.000000   0.000152  -0.000014   0.000052  -0.000094  -0.000119
    39  H    0.000011  -0.002826   0.004906   0.000710  -0.000725  -0.000732
    40  C    0.000669  -0.011543   0.000410  -0.007134   0.006573   0.009569
    41  H    0.000000   0.000559  -0.000013  -0.000028   0.000016   0.000048
    42  H    0.000000  -0.000236   0.000012  -0.000023   0.000010  -0.000084
    43  H    0.000000  -0.000440  -0.000048   0.000002   0.000017   0.000020
    44  C    0.001682   0.053022  -0.042023   0.025805  -0.004103  -0.040659
    45  H    0.000000  -0.000089   0.000046   0.000076  -0.000258   0.000410
    46  H    0.000000   0.000483   0.001210  -0.000817  -0.000083  -0.000613
    47  H   -0.000005  -0.003279  -0.003164   0.002359  -0.000135   0.001632
              7          8          9         10         11         12
     1  H   -0.016929  -0.000058  -0.000203  -0.004550  -0.002245  -0.000108
     2  C   -1.259938  -0.060977   0.066510   0.117441  -0.106312   0.060334
     3  C    0.247254   0.383399  -0.014528  -0.015702  -0.037942   0.329948
     4  C   -0.076775   0.031681   0.348812  -0.212698   0.005977   0.067242
     5  C   -0.019890  -0.053422  -0.007133   0.112243   0.004069  -0.036453
     6  C    0.463989   0.038086  -0.142017   0.264786   0.026831  -0.000087
     7  C    6.581366  -0.025593   0.012766   0.003098   0.415474  -0.063712
     8  H   -0.025593   0.512553   0.000159  -0.000005   0.004362  -0.023722
     9  H    0.012766   0.000159   0.527109   0.004861  -0.000011  -0.000079
    10  H    0.003098  -0.000005   0.004861   0.588255   0.000470  -0.000043
    11  H    0.415474   0.004362  -0.000011   0.000470   0.527163  -0.003885
    12  H   -0.063712  -0.023722  -0.000079  -0.000043  -0.003885   0.527150
    13  H    0.373910  -0.003383   0.000001   0.000063  -0.023230  -0.001476
    14  C   -0.144598  -0.014345   0.030618   0.023328  -0.001727  -0.020313
    15  H   -0.004392   0.000217  -0.000194  -0.000026   0.000002   0.000088
    16  H    0.002763  -0.000203   0.000199   0.000007  -0.000016   0.000624
    17  O    0.035674   0.008465   0.010606   0.004799   0.003091  -0.001290
    18  O   -0.007567  -0.000163  -0.050023  -0.002159   0.000126  -0.000670
    19  H   -0.004103  -0.000036   0.006882   0.003064  -0.000037  -0.000010
    20  O    0.038905  -0.000686   0.000169  -0.053494  -0.001280   0.000111
    21  C   -0.007060   0.000128  -0.003167  -0.008680   0.000231   0.000269
    22  H    0.002694   0.000000  -0.000006  -0.001402   0.000000   0.000000
    23  H   -0.001120   0.000000  -0.000003   0.000002   0.000000   0.000000
    24  H    0.001409   0.000000   0.000020   0.009866  -0.000001   0.000000
    25  O   -0.040041   0.008090   0.011223   0.015923   0.012523  -0.001621
    26  Si   0.132343   0.000903   0.012452   0.004503  -0.001953  -0.004590
    27  C   -0.026562  -0.000263  -0.001722  -0.001247   0.000017   0.000121
    28  H    0.000106   0.000000   0.000003   0.000000   0.000000   0.000000
    29  H   -0.000723   0.000000   0.000065   0.000001   0.000000   0.000000
    30  H    0.001413   0.000000   0.000224   0.000001   0.000000   0.000000
    31  C   -0.015180   0.001166  -0.000946   0.000164   0.000025   0.000137
    32  C   -0.058173   0.000409   0.000225  -0.000013   0.000620   0.000139
    33  H    0.000849   0.000000   0.000000   0.000000   0.000000   0.000000
    34  H    0.000180   0.000000   0.000000   0.000001   0.000001   0.000000
    35  H   -0.002129   0.000000  -0.000002  -0.000012   0.000000   0.000000
    36  C    0.002459   0.000048   0.000212   0.000051   0.000313  -0.000267
    37  H   -0.000191   0.000000   0.000000   0.000000   0.000000   0.000000
    38  H    0.000499   0.000000   0.000000   0.000000   0.000000   0.000000
    39  H   -0.003869   0.000029   0.000000   0.000000   0.000002  -0.000001
    40  C   -0.006574   0.000177   0.000293   0.000025   0.000033  -0.000008
    41  H    0.000012   0.000000   0.000000   0.000000   0.000000   0.000000
    42  H   -0.000094   0.000000   0.000000   0.000000   0.000000   0.000000
    43  H   -0.000006   0.000000   0.000000   0.000000   0.000000   0.000000
    44  C    0.026513  -0.001999  -0.001391  -0.000151  -0.000180   0.000475
    45  H   -0.000131  -0.000002   0.000000   0.000000   0.000000   0.000000
    46  H   -0.000685  -0.000009   0.000000   0.000000   0.000000   0.000000
    47  H    0.003323   0.000738  -0.000003   0.000000   0.000001  -0.000002
             13         14         15         16         17         18
     1  H   -0.004938   0.005835   0.000000   0.000000  -0.000388  -0.000570
     2  C   -0.031457   0.288083  -0.004440   0.006855  -0.001169   0.080791
     3  C   -0.052575  -0.325672  -0.038533   0.046801  -0.044244   0.094761
     4  C    0.002518   0.438670   0.126102  -0.025204  -0.293443   0.112963
     5  C    0.034547  -1.792386  -0.141163  -0.140163   0.287336   0.122475
     6  C    0.014300  -0.753689   0.005221  -0.012824   0.007162  -0.160331
     7  C    0.373910  -0.144598  -0.004392   0.002763   0.035674  -0.007567
     8  H   -0.003383  -0.014345   0.000217  -0.000203   0.008465  -0.000163
     9  H    0.000001   0.030618  -0.000194   0.000199   0.010606  -0.050023
    10  H    0.000063   0.023328  -0.000026   0.000007   0.004799  -0.002159
    11  H   -0.023230  -0.001727   0.000002  -0.000016   0.003091   0.000126
    12  H   -0.001476  -0.020313   0.000088   0.000624  -0.001290  -0.000670
    13  H    0.527430   0.000963   0.000001  -0.000001  -0.000141   0.000073
    14  C    0.000963   7.514889   0.432402   0.489564   0.066745  -0.120008
    15  H    0.000001   0.432402   0.509190  -0.031685  -0.035504   0.000751
    16  H   -0.000001   0.489564  -0.031685   0.518257  -0.031555   0.000525
    17  O   -0.000141   0.066745  -0.035504  -0.031555   8.344288   0.008562
    18  O    0.000073  -0.120008   0.000751   0.000525   0.008562   8.236947
    19  H    0.000001   0.007956  -0.001661   0.000219   0.030732   0.250629
    20  O   -0.000510  -0.011879  -0.000030   0.000036   0.002683   0.006975
    21  C    0.000406  -0.013845   0.000402  -0.000069  -0.002153  -0.010091
    22  H    0.000000   0.004290   0.000001   0.000000   0.000143  -0.019172
    23  H    0.000000  -0.000055   0.000000   0.000000  -0.000008   0.001435
    24  H    0.000000  -0.000713   0.000000   0.000000  -0.000043   0.003613
    25  O   -0.007664   0.035311  -0.000113  -0.000039   0.000888  -0.003492
    26  Si  -0.000412  -0.012004  -0.000879   0.000014   0.001358  -0.016389
    27  C   -0.000110   0.001949   0.000063   0.000016   0.000133   0.002940
    28  H    0.000000  -0.000020   0.000000   0.000000   0.000000   0.000003
    29  H    0.000000   0.000087   0.000000   0.000000   0.000002   0.000083
    30  H    0.000000  -0.000066   0.000000   0.000000   0.000000  -0.000002
    31  C    0.000177   0.003062   0.000002   0.000010  -0.000170  -0.000513
    32  C   -0.000078   0.003303   0.000009   0.000001  -0.000057   0.000911
    33  H    0.000000   0.000005   0.000000   0.000000   0.000000  -0.000001
    34  H    0.000007  -0.000016   0.000000   0.000000   0.000000  -0.000001
    35  H   -0.000002   0.000034   0.000000   0.000000  -0.000001  -0.000016
    36  C    0.002260  -0.000514   0.000000   0.000002   0.000086   0.000053
    37  H   -0.000007  -0.000010   0.000000   0.000000   0.000000   0.000000
    38  H   -0.000003   0.000004   0.000000   0.000000   0.000000   0.000000
    39  H    0.000543   0.000028   0.000000   0.000000   0.000000   0.000000
    40  C    0.000064   0.001145  -0.000001   0.000001  -0.000004  -0.000003
    41  H    0.000000   0.000000   0.000000   0.000000   0.000000   0.000000
    42  H    0.000000   0.000002   0.000000   0.000000   0.000000   0.000000
    43  H    0.000000   0.000001   0.000000   0.000000   0.000000   0.000000
    44  C   -0.002983  -0.001864   0.000011  -0.000017  -0.000021   0.000177
    45  H    0.000000  -0.000008   0.000000   0.000000   0.000000   0.000000
    46  H    0.000001   0.000045   0.000000   0.000000   0.000000   0.000001
    47  H    0.000002  -0.000326   0.000000   0.000000   0.000000  -0.000001
             19         20         21         22         23         24
     1  H   -0.000009   0.002213  -0.007428   0.000023  -0.000023  -0.000080
     2  C    0.024908  -0.107079   0.082434  -0.034625  -0.004982   0.051335
     3  C    0.004012   0.022145   0.019376  -0.006256   0.000246   0.002624
     4  C    0.057322  -0.332072   0.067546   0.047443   0.000176  -0.032327
     5  C   -0.053784   0.119648  -0.104949  -0.030284   0.002676   0.014029
     6  C   -0.070732   0.330469  -0.161941   0.041177   0.005137  -0.050482
     7  C   -0.004103   0.038905  -0.007060   0.002694  -0.001120   0.001409
     8  H   -0.000036  -0.000686   0.000128   0.000000   0.000000   0.000000
     9  H    0.006882   0.000169  -0.003167  -0.000006  -0.000003   0.000020
    10  H    0.003064  -0.053494  -0.008680  -0.001402   0.000002   0.009866
    11  H   -0.000037  -0.001280   0.000231   0.000000   0.000000  -0.000001
    12  H   -0.000010   0.000111   0.000269   0.000000   0.000000   0.000000
    13  H    0.000001  -0.000510   0.000406   0.000000   0.000000   0.000000
    14  C    0.007956  -0.011879  -0.013845   0.004290  -0.000055  -0.000713
    15  H   -0.001661  -0.000030   0.000402   0.000001   0.000000   0.000000
    16  H    0.000219   0.000036  -0.000069   0.000000   0.000000   0.000000
    17  O    0.030732   0.002683  -0.002153   0.000143  -0.000008  -0.000043
    18  O    0.250629   0.006975  -0.010091  -0.019172   0.001435   0.003613
    19  H    0.360966  -0.001029  -0.001073  -0.000023  -0.000006  -0.000083
    20  O   -0.001029   8.374494  -0.047291  -0.060141  -0.069922  -0.060136
    21  C   -0.001073  -0.047291   5.134623   0.410374   0.428238   0.415537
    22  H   -0.000023  -0.060141   0.410374   0.538103  -0.029189  -0.041225
    23  H   -0.000006  -0.069922   0.428238  -0.029189   0.533742  -0.027082
    24  H   -0.000083  -0.060136   0.415537  -0.041225  -0.027082   0.572719
    25  O    0.000266   0.040514  -0.006738   0.000179  -0.000265  -0.000088
    26  Si   0.001754   0.104633  -0.062774   0.002756  -0.002022  -0.001808
    27  C   -0.000094  -0.041230   0.016712  -0.001167   0.000851   0.000074
    28  H    0.000000   0.000706   0.000055   0.000000  -0.000001   0.000000
    29  H    0.000000   0.000759   0.004906  -0.000011   0.000175  -0.000008
    30  H    0.000000   0.000007   0.000042   0.000000  -0.000001   0.000000
    31  C    0.000003   0.009363  -0.000489   0.000056  -0.000161  -0.000083
    32  C   -0.000014  -0.037042   0.015831  -0.000408   0.001429  -0.000556
    33  H    0.000000   0.000500  -0.000565   0.000000  -0.000003   0.000000
    34  H    0.000000  -0.000420  -0.000124   0.000000  -0.000001   0.000000
    35  H    0.000000   0.001301   0.003585  -0.000001   0.000141  -0.000009
    36  C    0.000004  -0.004010   0.000652  -0.000035   0.000018   0.000046
    37  H    0.000000  -0.000011  -0.000008   0.000000   0.000000   0.000000
    38  H    0.000000   0.000002   0.000004   0.000000   0.000000   0.000000
    39  H    0.000000  -0.000043  -0.000012   0.000000   0.000000   0.000000
    40  C    0.000003  -0.000849  -0.000420   0.000001   0.000006  -0.000002
    41  H    0.000000  -0.000002   0.000003   0.000000   0.000000   0.000000
    42  H    0.000000  -0.000002  -0.000002   0.000000   0.000000   0.000000
    43  H    0.000000   0.000002   0.000002   0.000000   0.000000   0.000000
    44  C   -0.000039   0.003068   0.000838   0.000048   0.000023  -0.000032
    45  H    0.000000   0.000004   0.000003   0.000000   0.000000   0.000000
    46  H    0.000000  -0.000024   0.000000   0.000000   0.000000   0.000000
    47  H    0.000000  -0.000061  -0.000035   0.000000   0.000000   0.000000
             25         26         27         28         29         30
     1  H   -0.049222   0.027009  -0.002876   0.000002   0.000000  -0.000003
     2  C    0.084825  -0.485508   0.119205   0.004368  -0.009446   0.006737
     3  C   -0.046258   0.001643   0.002544   0.000020   0.000442  -0.000388
     4  C   -0.048937  -0.336810   0.056759  -0.000491   0.004620  -0.004067
     5  C    0.120290   0.170012  -0.014781  -0.000250  -0.001476   0.003637
     6  C   -0.162802   0.305427  -0.141593  -0.000826  -0.002182  -0.007246
     7  C   -0.040041   0.132343  -0.026562   0.000106  -0.000723   0.001413
     8  H    0.008090   0.000903  -0.000263   0.000000   0.000000   0.000000
     9  H    0.011223   0.012452  -0.001722   0.000003   0.000065   0.000224
    10  H    0.015923   0.004503  -0.001247   0.000000   0.000001   0.000001
    11  H    0.012523  -0.001953   0.000017   0.000000   0.000000   0.000000
    12  H   -0.001621  -0.004590   0.000121   0.000000   0.000000   0.000000
    13  H   -0.007664  -0.000412  -0.000110   0.000000   0.000000   0.000000
    14  C    0.035311  -0.012004   0.001949  -0.000020   0.000087  -0.000066
    15  H   -0.000113  -0.000879   0.000063   0.000000   0.000000   0.000000
    16  H   -0.000039   0.000014   0.000016   0.000000   0.000000   0.000000
    17  O    0.000888   0.001358   0.000133   0.000000   0.000002   0.000000
    18  O   -0.003492  -0.016389   0.002940   0.000003   0.000083  -0.000002
    19  H    0.000266   0.001754  -0.000094   0.000000   0.000000   0.000000
    20  O    0.040514   0.104633  -0.041230   0.000706   0.000759   0.000007
    21  C   -0.006738  -0.062774   0.016712   0.000055   0.004906   0.000042
    22  H    0.000179   0.002756  -0.001167   0.000000  -0.000011   0.000000
    23  H   -0.000265  -0.002022   0.000851  -0.000001   0.000175  -0.000001
    24  H   -0.000088  -0.001808   0.000074   0.000000  -0.000008   0.000000
    25  O    8.370827   0.056254  -0.045223   0.009820  -0.002163  -0.010390
    26  Si   0.056254  13.250503   0.153176  -0.030801  -0.049921  -0.019203
    27  C   -0.045223   0.153176   5.562856   0.395461   0.410514   0.396710
    28  H    0.009820  -0.030801   0.395461   0.499561  -0.021712  -0.022819
    29  H   -0.002163  -0.049921   0.410514  -0.021712   0.473035  -0.021537
    30  H   -0.010390  -0.019203   0.396710  -0.022819  -0.021537   0.497426
    31  C   -0.038438   0.299957  -0.127827  -0.017418   0.012417  -0.014582
    32  C   -0.061079   0.173341   0.034852  -0.010906  -0.004319   0.006913
    33  H    0.009931  -0.030304  -0.008934   0.000143   0.000087   0.000023
    34  H   -0.004763  -0.020412   0.005166   0.000021   0.000002  -0.000017
    35  H   -0.004644  -0.054657  -0.008038   0.000114   0.000417   0.000004
    36  C    0.032315  -0.090947  -0.016874   0.000156  -0.001300  -0.002738
    37  H   -0.002564  -0.001104  -0.000342   0.000001  -0.000001   0.000000
    38  H   -0.000933   0.016791  -0.001492   0.000000   0.000000   0.000000
    39  H    0.008424  -0.009562  -0.000942   0.000000   0.000000   0.000002
    40  C    0.017373  -0.059445   0.021121   0.005500  -0.001227  -0.000949
    41  H    0.000726  -0.014363  -0.000291  -0.000005  -0.000005   0.000020
    42  H    0.000525  -0.011207   0.004215  -0.000022   0.000012   0.000024
    43  H   -0.000622   0.019603  -0.000028   0.000026   0.000000  -0.000007
    44  C   -0.012833  -0.130402  -0.019526   0.008877   0.002259   0.010922
    45  H   -0.000666   0.018319   0.000081  -0.000001   0.000000  -0.000006
    46  H   -0.003852   0.008172   0.000812   0.000056   0.000003   0.000199
    47  H    0.007020  -0.023637   0.000235   0.000005  -0.000006   0.000032
             31         32         33         34         35         36
     1  H    0.003326  -0.004934   0.000065  -0.000092  -0.000212  -0.006077
     2  C   -0.054050   0.110158  -0.001881  -0.013744  -0.008780  -0.048255
     3  C   -0.021812  -0.003375  -0.000020   0.000040   0.000356   0.054339
     4  C   -0.015600   0.039453   0.000145   0.000094   0.000597  -0.003065
     5  C    0.024116  -0.004578   0.000098  -0.000479  -0.000579  -0.027583
     6  C    0.062566  -0.098599   0.001832   0.010130   0.008027   0.014712
     7  C   -0.015180  -0.058173   0.000849   0.000180  -0.002129   0.002459
     8  H    0.001166   0.000409   0.000000   0.000000   0.000000   0.000048
     9  H   -0.000946   0.000225   0.000000   0.000000  -0.000002   0.000212
    10  H    0.000164  -0.000013   0.000000   0.000001  -0.000012   0.000051
    11  H    0.000025   0.000620   0.000000   0.000001   0.000000   0.000313
    12  H    0.000137   0.000139   0.000000   0.000000   0.000000  -0.000267
    13  H    0.000177  -0.000078   0.000000   0.000007  -0.000002   0.002260
    14  C    0.003062   0.003303   0.000005  -0.000016   0.000034  -0.000514
    15  H    0.000002   0.000009   0.000000   0.000000   0.000000   0.000000
    16  H    0.000010   0.000001   0.000000   0.000000   0.000000   0.000002
    17  O   -0.000170  -0.000057   0.000000   0.000000  -0.000001   0.000086
    18  O   -0.000513   0.000911  -0.000001  -0.000001  -0.000016   0.000053
    19  H    0.000003  -0.000014   0.000000   0.000000   0.000000   0.000004
    20  O    0.009363  -0.037042   0.000500  -0.000420   0.001301  -0.004010
    21  C   -0.000489   0.015831  -0.000565  -0.000124   0.003585   0.000652
    22  H    0.000056  -0.000408   0.000000   0.000000  -0.000001  -0.000035
    23  H   -0.000161   0.001429  -0.000003  -0.000001   0.000141   0.000018
    24  H   -0.000083  -0.000556   0.000000   0.000000  -0.000009   0.000046
    25  O   -0.038438  -0.061079   0.009931  -0.004763  -0.004644   0.032315
    26  Si   0.299957   0.173341  -0.030304  -0.020412  -0.054657  -0.090947
    27  C   -0.127827   0.034852  -0.008934   0.005166  -0.008038  -0.016874
    28  H   -0.017418  -0.010906   0.000143   0.000021   0.000114   0.000156
    29  H    0.012417  -0.004319   0.000087   0.000002   0.000417  -0.001300
    30  H   -0.014582   0.006913   0.000023  -0.000017   0.000004  -0.002738
    31  C    8.001682  -0.137524  -0.018785  -0.017184   0.014745  -0.300387
    32  C   -0.137524   5.554171   0.395813   0.397114   0.413912   0.020693
    33  H   -0.018785   0.395813   0.490847  -0.021540  -0.020427   0.005655
    34  H   -0.017184   0.397114  -0.021540   0.495012  -0.022998   0.010124
    35  H    0.014745   0.413912  -0.020427  -0.022998   0.473934   0.001004
    36  C   -0.300387   0.020693   0.005655   0.010124   0.001004   5.859908
    37  H   -0.063987   0.001176   0.000086   0.000051   0.000014   0.423493
    38  H   -0.157441   0.000627  -0.000002  -0.000003   0.000000   0.455931
    39  H   -0.108026  -0.000907   0.000011   0.000048  -0.000005   0.475572
    40  C   -0.395772   0.013047   0.008620   0.004516  -0.000592   0.018948
    41  H   -0.083815   0.003973   0.000274   0.000006  -0.000005  -0.011368
    42  H   -0.086122  -0.000663   0.000001   0.000008  -0.000005   0.004328
    43  H   -0.153656   0.001123   0.000010  -0.000005   0.000000   0.005595
    44  C   -0.283423  -0.030303   0.001262  -0.004126  -0.000479  -0.289586
    45  H   -0.163016  -0.001192   0.000000   0.000000   0.000000   0.002887
    46  H   -0.065492  -0.000453   0.000000   0.000000  -0.000001   0.000330
    47  H   -0.094155  -0.000707   0.000000   0.000002   0.000000  -0.002518
             37         38         39         40         41         42
     1  H    0.000002   0.000000   0.000011   0.000669   0.000000   0.000000
     2  C    0.000600   0.000152  -0.002826  -0.011543   0.000559  -0.000236
     3  C   -0.000636  -0.000014   0.004906   0.000410  -0.000013   0.000012
     4  C    0.000031   0.000052   0.000710  -0.007134  -0.000028  -0.000023
     5  C   -0.000009  -0.000094  -0.000725   0.006573   0.000016   0.000010
     6  C    0.000923  -0.000119  -0.000732   0.009569   0.000048  -0.000084
     7  C   -0.000191   0.000499  -0.003869  -0.006574   0.000012  -0.000094
     8  H    0.000000   0.000000   0.000029   0.000177   0.000000   0.000000
     9  H    0.000000   0.000000   0.000000   0.000293   0.000000   0.000000
    10  H    0.000000   0.000000   0.000000   0.000025   0.000000   0.000000
    11  H    0.000000   0.000000   0.000002   0.000033   0.000000   0.000000
    12  H    0.000000   0.000000  -0.000001  -0.000008   0.000000   0.000000
    13  H   -0.000007  -0.000003   0.000543   0.000064   0.000000   0.000000
    14  C   -0.000010   0.000004   0.000028   0.001145   0.000000   0.000002
    15  H    0.000000   0.000000   0.000000  -0.000001   0.000000   0.000000
    16  H    0.000000   0.000000   0.000000   0.000001   0.000000   0.000000
    17  O    0.000000   0.000000   0.000000  -0.000004   0.000000   0.000000
    18  O    0.000000   0.000000   0.000000  -0.000003   0.000000   0.000000
    19  H    0.000000   0.000000   0.000000   0.000003   0.000000   0.000000
    20  O   -0.000011   0.000002  -0.000043  -0.000849  -0.000002  -0.000002
    21  C   -0.000008   0.000004  -0.000012  -0.000420   0.000003  -0.000002
    22  H    0.000000   0.000000   0.000000   0.000001   0.000000   0.000000
    23  H    0.000000   0.000000   0.000000   0.000006   0.000000   0.000000
    24  H    0.000000   0.000000   0.000000  -0.000002   0.000000   0.000000
    25  O   -0.002564  -0.000933   0.008424   0.017373   0.000726   0.000525
    26  Si  -0.001104   0.016791  -0.009562  -0.059445  -0.014363  -0.011207
    27  C   -0.000342  -0.001492  -0.000942   0.021121  -0.000291   0.004215
    28  H    0.000001   0.000000   0.000000   0.005500  -0.000005  -0.000022
    29  H   -0.000001   0.000000   0.000000  -0.001227  -0.000005   0.000012
    30  H    0.000000   0.000000   0.000002  -0.000949   0.000020   0.000024
    31  C   -0.063987  -0.157441  -0.108026  -0.395772  -0.083815  -0.086122
    32  C    0.001176   0.000627  -0.000907   0.013047   0.003973  -0.000663
    33  H    0.000086  -0.000002   0.000011   0.008620   0.000274   0.000001
    34  H    0.000051  -0.000003   0.000048   0.004516   0.000006   0.000008
    35  H    0.000014   0.000000  -0.000005  -0.000592  -0.000005  -0.000005
    36  C    0.423493   0.455931   0.475572   0.018948  -0.011368   0.004328
    37  H    0.536383  -0.028017  -0.026802  -0.005961   0.002764   0.000031
    38  H   -0.028017   0.545195  -0.027385   0.008530  -0.000319  -0.000002
    39  H   -0.026802  -0.027385   0.525850  -0.000921   0.000035  -0.000147
    40  C   -0.005961   0.008530  -0.000921   5.681565   0.450249   0.460351
    41  H    0.002764  -0.000319   0.000035   0.450249   0.535145  -0.027266
    42  H    0.000031  -0.000002  -0.000147   0.460351  -0.027266   0.531728
    43  H   -0.000334   0.005361   0.000019   0.450441  -0.028062  -0.027728
    44  C    0.000770   0.016111  -0.008265  -0.132681   0.006074  -0.018573
    45  H    0.000038   0.005601  -0.000319   0.010765  -0.000007  -0.000316
    46  H   -0.000153   0.000026   0.000031  -0.002882   0.000033   0.002781
    47  H    0.000023  -0.000312   0.003084   0.000694  -0.000147   0.000038
             43         44         45         46         47
     1  H    0.000000   0.001682   0.000000   0.000000  -0.000005
     2  C   -0.000440   0.053022  -0.000089   0.000483  -0.003279
     3  C   -0.000048  -0.042023   0.000046   0.001210  -0.003164
     4  C    0.000002   0.025805   0.000076  -0.000817   0.002359
     5  C    0.000017  -0.004103  -0.000258  -0.000083  -0.000135
     6  C    0.000020  -0.040659   0.000410  -0.000613   0.001632
     7  C   -0.000006   0.026513  -0.000131  -0.000685   0.003323
     8  H    0.000000  -0.001999  -0.000002  -0.000009   0.000738
     9  H    0.000000  -0.001391   0.000000   0.000000  -0.000003
    10  H    0.000000  -0.000151   0.000000   0.000000   0.000000
    11  H    0.000000  -0.000180   0.000000   0.000000   0.000001
    12  H    0.000000   0.000475   0.000000   0.000000  -0.000002
    13  H    0.000000  -0.002983   0.000000   0.000001   0.000002
    14  C    0.000001  -0.001864  -0.000008   0.000045  -0.000326
    15  H    0.000000   0.000011   0.000000   0.000000   0.000000
    16  H    0.000000  -0.000017   0.000000   0.000000   0.000000
    17  O    0.000000  -0.000021   0.000000   0.000000   0.000000
    18  O    0.000000   0.000177   0.000000   0.000001  -0.000001
    19  H    0.000000  -0.000039   0.000000   0.000000   0.000000
    20  O    0.000002   0.003068   0.000004  -0.000024  -0.000061
    21  C    0.000002   0.000838   0.000003   0.000000  -0.000035
    22  H    0.000000   0.000048   0.000000   0.000000   0.000000
    23  H    0.000000   0.000023   0.000000   0.000000   0.000000
    24  H    0.000000  -0.000032   0.000000   0.000000   0.000000
    25  O   -0.000622  -0.012833  -0.000666  -0.003852   0.007020
    26  Si   0.019603  -0.130402   0.018319   0.008172  -0.023637
    27  C   -0.000028  -0.019526   0.000081   0.000812   0.000235
    28  H    0.000026   0.008877  -0.000001   0.000056   0.000005
    29  H    0.000000   0.002259   0.000000   0.000003  -0.000006
    30  H   -0.000007   0.010922  -0.000006   0.000199   0.000032
    31  C   -0.153656  -0.283423  -0.163016  -0.065492  -0.094155
    32  C    0.001123  -0.030303  -0.001192  -0.000453  -0.000707
    33  H    0.000010   0.001262   0.000000   0.000000   0.000000
    34  H   -0.000005  -0.004126   0.000000   0.000000   0.000002
    35  H    0.000000  -0.000479   0.000000  -0.000001   0.000000
    36  C    0.005595  -0.289586   0.002887   0.000330  -0.002518
    37  H   -0.000334   0.000770   0.000038  -0.000153   0.000023
    38  H    0.005361   0.016111   0.005601   0.000026  -0.000312
    39  H    0.000019  -0.008265  -0.000319   0.000031   0.003084
    40  C    0.450441  -0.132681   0.010765  -0.002882   0.000694
    41  H   -0.028062   0.006074  -0.000007   0.000033  -0.000147
    42  H   -0.027728  -0.018573  -0.000316   0.002781   0.000038
    43  H    0.542463   0.017488   0.005383  -0.000359   0.000012
    44  C    0.017488   6.060313   0.472155   0.415250   0.464760
    45  H    0.005383   0.472155   0.545556  -0.028306  -0.027728
    46  H   -0.000359   0.415250  -0.028306   0.536244  -0.026181
    47  H    0.000012   0.464760  -0.027728  -0.026181   0.522747
 Mulliken atomic charges:
              1
     1  H    0.151488
     2  C    0.385105
     3  C   -0.328084
     4  C    0.056214
     5  C    0.186044
     6  C   -0.612675
     7  C   -0.560965
     8  H    0.194258
     9  H    0.188019
    10  H    0.147230
    11  H    0.177487
    12  H    0.171697
    13  H    0.171703
    14  C   -0.134261
    15  H    0.184159
    16  H    0.175881
    17  O   -0.402565
    18  O   -0.533620
    19  H    0.384012
    20  O   -0.229462
    21  C   -0.163283
    22  H    0.176658
    23  H    0.160551
    24  H    0.143487
    25  O   -0.287797
    26  Si   0.710194
    27  C   -0.725421
    28  H    0.180269
    29  H    0.206150
    30  H    0.179685
    31  C    0.003080
    32  C   -0.733364
    33  H    0.186204
    34  H    0.183401
    35  H    0.205406
    36  C   -0.586669
    37  H    0.163753
    38  H    0.161250
    39  H    0.172183
    40  C   -0.543721
    41  H    0.165761
    42  H    0.168426
    43  H    0.163726
    44  C   -0.562244
    45  H    0.160720
    46  H    0.164232
    47  H    0.175696
 Sum of Mulliken atomic charges =   0.00000
 Mulliken charges with hydrogens summed into heavy atoms:
              1
     2  C    0.536593
     3  C    0.037871
     4  C    0.244233
     5  C    0.186044
     6  C   -0.465446
     7  C   -0.211775
    14  C    0.225779
    17  O   -0.402565
    18  O   -0.149608
    20  O   -0.229462
    21  C    0.317413
    25  O   -0.287797
    26  Si   0.710194
    27  C   -0.159317
    31  C    0.003080
    32  C   -0.158353
    36  C   -0.089482
    40  C   -0.045807
    44  C   -0.061596
 Sum of Mulliken charges with hydrogens summed into heavy atoms =   0.00000
 Electronic spatial extent (au):  <R**2>=           6280.3949
 Charge=              0.0000 electrons
 Dipole moment (field-independent basis, Debye):
    X=             -0.0572    Y=             -0.7474    Z=             -0.9563  Tot=              1.2150
 Quadrupole moment (field-independent basis, Debye-Ang):
   XX=           -129.5077   YY=           -120.5690   ZZ=           -125.7090
   XY=             -2.9312   XZ=              0.7094   YZ=             -4.7438
 Traceless Quadrupole moment (field-independent basis, Debye-Ang):
   XX=             -4.2458   YY=              4.6929   ZZ=             -0.4471
   XY=             -2.9312   XZ=              0.7094   YZ=             -4.7438
 Octapole moment (field-independent basis, Debye-Ang**2):
  XXX=             19.1436  YYY=             10.3947  ZZZ=             -6.5347  XYY=             31.8449
  XXY=              6.3054  XXZ=             13.9229  XZZ=             12.3665  YZZ=             -4.4775
  YYZ=             -0.4550  XYZ=            -20.3502
 Hexadecapole moment (field-independent basis, Debye-Ang**3):
 XXXX=          -5728.9163 YYYY=          -1851.5573 ZZZZ=           -935.3965 XXXY=              3.2950
 XXXZ=            103.9798 YYYX=            -19.3938 YYYZ=             -5.1324 ZZZX=              2.9123
 ZZZY=             -7.7578 XXYY=          -1209.6012 XXZZ=          -1107.2997 YYZZ=           -498.1279
 XXYZ=            -76.9661 YYXZ=              6.3315 ZZXY=            -18.4887
 N-N= 1.831483152797D+03 E-N=-6.333872760280D+03  KE= 1.131542316257D+03
 1\1\GINC-COMPUTE-8-19\SP\RmPW1PW91\6-31+G(d,p)\C14H28O4Si1\ELUCIANO.IQ
 UIR\06-Dec-2022\0\\# mPW1PW91/6-31+g** scrf=(PCM,solvent=chloroform) n
 mr\\comment\\0,1\H,0,0.08107,0.472546,-2.064223\C,0,0.492334,-0.048746
 ,-1.189182\C,0,1.7574,-2.100986,-0.430224\C,0,2.262508,0.20135,0.63970
 8\C,0,2.754693,-1.206652,0.277388\C,0,1.573191,0.860813,-0.575808\C,0,
 1.114316,-1.381657,-1.62422\H,0,0.973484,-2.381494,0.283192\H,0,1.5324
 62,0.13855,1.452612\H,0,2.339924,1.034349,-1.35091\H,0,1.870784,-1.192
 074,-2.396706\H,0,2.260823,-3.019101,-0.751522\H,0,0.337047,-2.009708,
 -2.072679\C,0,3.893544,-1.775235,1.006513\H,0,4.330376,-1.224455,1.836
 676\H,0,4.023358,-2.85686,1.032998\O,0,4.092972,-1.176587,-0.293776\O,
 0,3.343658,0.989312,1.120428\H,0,4.089313,0.776419,0.527216\O,0,0.9537
 63,2.094006,-0.241187\C,0,1.795615,3.239703,-0.257027\H,0,2.547437,3.2
 02776,0.536397\H,0,1.142343,4.104299,-0.110053\H,0,2.304163,3.342244,-
 1.228717\O,0,-0.542586,-0.327149,-0.255082\Si,0,-1.952686,0.53562,0.08
 6141\C,0,-1.740901,1.472665,1.710161\H,0,-2.638191,2.048416,1.968288\H
 ,0,-0.899985,2.167393,1.621333\H,0,-1.528883,0.794798,2.545256\C,0,-3.
 314079,-0.808166,0.251694\C,0,-2.340659,1.745212,-1.313188\H,0,-3.2679
 53,2.293332,-1.107304\H,0,-2.461214,1.246093,-2.281728\H,0,-1.532064,2
 .477441,-1.406758\C,0,-3.492342,-1.547147,-1.091189\H,0,-3.824883,-0.8
 72292,-1.889465\H,0,-4.249507,-2.339646,-0.998227\H,0,-2.558455,-2.019
 436,-1.418067\C,0,-4.655117,-0.155843,0.650644\H,0,-4.996578,0.573356,
 -0.094922\H,0,-4.589596,0.359326,1.616618\H,0,-5.442069,-0.918896,0.74
 1319\C,0,-2.909314,-1.83292,1.332693\H,0,-3.673031,-2.619735,1.4231\H,
 0,-2.804126,-1.36787,2.320461\H,0,-1.958036,-2.319454,1.089001\\Versio
 n=EM64L-G09RevC.01\State=1-A\HF=-1140.6259612\RMSD=4.666e-09\Dipole=-0
 .0225221,-0.2940349,-0.3762277\Quadrupole=-3.156634,3.4890282,-0.33239
 42,-2.1792812,0.5274468,-3.5268698\PG=C01 [X(C14H28O4Si1)]\\@


 THERE IS AN OLD, OLD RECIPE IN MAINE FOR STEWING COOT. PLACE THE
 BIRD IN A KETTLE OF WATER WITH A RED BUILDING BRICK FREE OF MORTAR AND
 BLEMISHES. PARBOIL THE COOT AND BRICK TOGETHER FOR THREE HOURS.
 POUR OFF THE WATER, REFILL THE KETTLE, AND AGAIN PARBOIL FOR THREE HOURS.
 ONCE AGAIN POUR OFF THE WATER, FOR THE LAST TIME ADD FRESH WATER,
 AND LET THE COOT AND BRICK SIMMER TOGETHER OVERNIGHT. IN THE MORNING,
 THROW AWAY THE COOT AND EAT THE BRICK.
 Job cpu time:  0 days  3 hours 28 minutes 28.5 seconds.
 File lengths (MBytes):  RWF=    296 Int=      0 D2E=      0 Chk=     16 Scr=      1
 Normal termination of Gaussian 09 at Tue Dec  6 13:53:23 2022.
