 Entering Gaussian System, Link 0=g09
 Input=/home/eluciano.iquir/todos_optB3L_MPW_B_PCM/01_epoxido28_001_optB3L_nmr_MPW_B_PCM.gjc
 Output=/home/eluciano.iquir/todos_optB3L_MPW_B_PCM/01_epoxido28_001_optB3L_nmr_MPW_B_PCM.log
 Initial command:
 /share/apps/Gaussian09/EM64T.SSE4.2-enabled/g09/l1.exe /tmp/Gau-18786.inp -scrdir=/tmp/
 Entering Link 1 = /share/apps/Gaussian09/EM64T.SSE4.2-enabled/g09/l1.exe PID=     18787.
  
 Copyright (c) 1988,1990,1992,1993,1995,1998,2003,2009,2011,
            Gaussian, Inc.  All Rights Reserved.
  
 This is part of the Gaussian(R) 09 program.  It is based on
 the Gaussian(R) 03 system (copyright 2003, Gaussian, Inc.),
 the Gaussian(R) 98 system (copyright 1998, Gaussian, Inc.),
 the Gaussian(R) 94 system (copyright 1995, Gaussian, Inc.),
 the Gaussian 92(TM) system (copyright 1992, Gaussian, Inc.),
 the Gaussian 90(TM) system (copyright 1990, Gaussian, Inc.),
 the Gaussian 88(TM) system (copyright 1988, Gaussian, Inc.),
 the Gaussian 86(TM) system (copyright 1986, Carnegie Mellon
 University), and the Gaussian 82(TM) system (copyright 1983,
 Carnegie Mellon University). Gaussian is a federally registered
 trademark of Gaussian, Inc.
  
 This software contains proprietary and confidential information,
 including trade secrets, belonging to Gaussian, Inc.
  
 This software is provided under written license and may be
 used, copied, transmitted, or stored only in accord with that
 written license.
  
 The following legend is applicable only to US Government
 contracts under FAR:
  
                    RESTRICTED RIGHTS LEGEND
  
 Use, reproduction and disclosure by the US Government is
 subject to restrictions as set forth in subparagraphs (a)
 and (c) of the Commercial Computer Software - Restricted
 Rights clause in FAR 52.227-19.
  
 Gaussian, Inc.
 340 Quinnipiac St., Bldg. 40, Wallingford CT 06492
  
  
 ---------------------------------------------------------------
 Warning -- This program may not be used in any manner that
 competes with the business of Gaussian, Inc. or will provide
 assistance to any competitor of Gaussian, Inc.  The licensee
 of this program is prohibited from giving any competitor of
 Gaussian, Inc. access to this program.  By using this program,
 the user acknowledges that Gaussian, Inc. is engaged in the
 business of creating and licensing software in the field of
 computational chemistry and represents and warrants to the
 licensee that it is not a competitor of Gaussian, Inc. and that
 it will not use this program in any manner prohibited above.
 ---------------------------------------------------------------
  

 Cite this work as:
 Gaussian 09, Revision C.01,
 M. J. Frisch, G. W. Trucks, H. B. Schlegel, G. E. Scuseria, 
 M. A. Robb, J. R. Cheeseman, G. Scalmani, V. Barone, B. Mennucci, 
 G. A. Petersson, H. Nakatsuji, M. Caricato, X. Li, H. P. Hratchian, 
 A. F. Izmaylov, J. Bloino, G. Zheng, J. L. Sonnenberg, M. Hada, 
 M. Ehara, K. Toyota, R. Fukuda, J. Hasegawa, M. Ishida, T. Nakajima, 
 Y. Honda, O. Kitao, H. Nakai, T. Vreven, J. A. Montgomery, Jr., 
 J. E. Peralta, F. Ogliaro, M. Bearpark, J. J. Heyd, E. Brothers, 
 K. N. Kudin, V. N. Staroverov, T. Keith, R. Kobayashi, J. Normand, 
 K. Raghavachari, A. Rendell, J. C. Burant, S. S. Iyengar, J. Tomasi, 
 M. Cossi, N. Rega, J. M. Millam, M. Klene, J. E. Knox, J. B. Cross, 
 V. Bakken, C. Adamo, J. Jaramillo, R. Gomperts, R. E. Stratmann, 
 O. Yazyev, A. J. Austin, R. Cammi, C. Pomelli, J. W. Ochterski, 
 R. L. Martin, K. Morokuma, V. G. Zakrzewski, G. A. Voth, 
 P. Salvador, J. J. Dannenberg, S. Dapprich, A. D. Daniels, 
 O. Farkas, J. B. Foresman, J. V. Ortiz, J. Cioslowski, 
 and D. J. Fox, Gaussian, Inc., Wallingford CT, 2010.
 
 ******************************************
 Gaussian 09:  EM64L-G09RevC.01 23-Sep-2011
                 6-Dec-2022 
 ******************************************
 %nprocshared=4
 Will use up to    4 processors via shared memory.
 %mem=80MW
 -----------------------------------------------------
 # mPW1PW91/6-31+g** scrf=(PCM,solvent=chloroform) nmr
 -----------------------------------------------------
 1/38=1/1;
 2/12=2,17=6,18=5,40=1/2;
 3/5=1,6=6,7=111,11=2,16=1,25=1,30=1,70=2201,72=7,74=-7/1,2,8,3;
 4//1;
 5/5=2,38=5,53=7/2;
 8/6=1,10=90,11=11/1;
 10/13=100,45=16/2;
 6/7=2,8=2,9=2,10=2,28=1/1;
 99/9=1/99;
 -------
 comment
 -------
 Charge =  0 Multiplicity = 1
 Symbolic Z-Matrix:
 1                    -0.58655  -1.24643   0.61215 
 6                    -0.58228  -0.33507  -0.00368 
 6                    -2.6351   -1.208    -1.1947 
 6                    -2.85957   0.14754   0.96824 
 6                    -3.48724  -0.27516  -0.35371 
 6                    -1.44014   0.69861   0.75249 
 6                    -1.2081   -0.65593  -1.36625 
 1                    -3.11313  -1.3763   -2.16568 
 1                    -3.47153   0.93872   1.42371 
 1                    -0.98228   0.90121   1.73223 
 1                    -0.58178  -1.38404  -1.89312 
 1                    -2.59426  -2.17961  -0.68509 
 1                    -1.22097   0.26246  -1.96362 
 6                    -4.54891   0.54803  -0.94236 
 1                    -4.84152   1.4828   -0.46505 
 1                    -4.72906   0.49915  -2.0164 
 8                    -4.87767  -0.64926  -0.21477 
 8                    -2.76034  -0.97482   1.84304 
 1                    -3.65283  -1.35608   1.89352 
 8                    -1.62116   1.91021   0.03081 
 6                    -0.61043   2.89191   0.19902 
 1                    -0.40883   3.07609   1.2656 
 1                    -0.99563   3.81224  -0.25021 
 1                     0.3248    2.60647  -0.2923 
 8                     0.75026   0.15358  -0.16291 
 14                    2.13486  -0.71714   0.24277 
 6                     2.16057  -1.04891   2.10515 
 1                     3.0435   -1.63189   2.39457 
 1                     1.27842  -1.62303   2.41403 
 1                     2.1671   -0.12013   2.68656 
 6                     3.59521   0.38991  -0.30576 
 6                     2.14196  -2.38148  -0.6601 
 1                     3.01991  -2.97874  -0.38556 
 1                     2.14743  -2.25942  -1.74916 
 1                     1.25622  -2.97369  -0.39886 
 6                     3.47805   0.70576  -1.81243 
 1                     3.52316  -0.2033   -2.4246 
 1                     4.30592   1.35522  -2.13258 
 1                     2.53915   1.21949  -2.04583 
 6                     4.9301   -0.34259  -0.04584 
 1                     5.00119  -1.28026  -0.61041 
 1                     5.07258  -0.57826   1.01627 
 1                     5.77652   0.28784  -0.35436 
 6                     3.58695   1.71416   0.48706 
 1                     4.41899   2.35746   0.16522 
 1                     3.70272   1.54783   1.56495 
 1                     2.65758   2.27384   0.33309 
 
                          Input orientation:                          
 ---------------------------------------------------------------------
 Center     Atomic      Atomic             Coordinates (Angstroms)
 Number     Number       Type             X           Y           Z
 ---------------------------------------------------------------------
      1          1           0       -0.586550   -1.246431    0.612151
      2          6           0       -0.582275   -0.335073   -0.003678
      3          6           0       -2.635098   -1.208004   -1.194699
      4          6           0       -2.859565    0.147539    0.968239
      5          6           0       -3.487237   -0.275161   -0.353708
      6          6           0       -1.440141    0.698614    0.752488
      7          6           0       -1.208101   -0.655931   -1.366249
      8          1           0       -3.113127   -1.376296   -2.165685
      9          1           0       -3.471528    0.938720    1.423712
     10          1           0       -0.982277    0.901208    1.732229
     11          1           0       -0.581777   -1.384042   -1.893119
     12          1           0       -2.594257   -2.179607   -0.685094
     13          1           0       -1.220965    0.262459   -1.963624
     14          6           0       -4.548909    0.548026   -0.942363
     15          1           0       -4.841524    1.482799   -0.465047
     16          1           0       -4.729063    0.499153   -2.016396
     17          8           0       -4.877674   -0.649261   -0.214771
     18          8           0       -2.760336   -0.974822    1.843043
     19          1           0       -3.652829   -1.356080    1.893518
     20          8           0       -1.621162    1.910214    0.030810
     21          6           0       -0.610430    2.891911    0.199019
     22          1           0       -0.408833    3.076092    1.265595
     23          1           0       -0.995632    3.812237   -0.250209
     24          1           0        0.324795    2.606471   -0.292300
     25          8           0        0.750261    0.153581   -0.162906
     26         14           0        2.134857   -0.717136    0.242767
     27          6           0        2.160569   -1.048910    2.105151
     28          1           0        3.043500   -1.631894    2.394568
     29          1           0        1.278419   -1.623034    2.414029
     30          1           0        2.167101   -0.120127    2.686563
     31          6           0        3.595212    0.389906   -0.305762
     32          6           0        2.141958   -2.381477   -0.660098
     33          1           0        3.019907   -2.978744   -0.385559
     34          1           0        2.147434   -2.259423   -1.749159
     35          1           0        1.256215   -2.973687   -0.398860
     36          6           0        3.478052    0.705755   -1.812431
     37          1           0        3.523157   -0.203295   -2.424603
     38          1           0        4.305917    1.355222   -2.132578
     39          1           0        2.539148    1.219495   -2.045832
     40          6           0        4.930096   -0.342590   -0.045842
     41          1           0        5.001186   -1.280264   -0.610405
     42          1           0        5.072584   -0.578262    1.016274
     43          1           0        5.776524    0.287837   -0.354363
     44          6           0        3.586952    1.714159    0.487063
     45          1           0        4.418986    2.357464    0.165223
     46          1           0        3.702715    1.547828    1.564949
     47          1           0        2.657575    2.273835    0.333094
 ---------------------------------------------------------------------
                    Distance matrix (angstroms):
                    1          2          3          4          5
     1  H    0.000000
     2  C    1.099926   0.000000
     3  C    2.731800   2.528759   0.000000
     4  C    2.690083   2.522615   2.562456   0.000000
     5  C    3.207839   2.926588   1.517762   1.523217   0.000000
     6  C    2.128735   1.541502   2.975677   1.537855   2.522402
     7  C    2.156173   1.533365   1.539654   2.970308   2.522833
     8  H    3.757237   3.487640   1.095284   3.493973   2.153072
     9  H    3.708991   3.465223   3.487709   1.099055   2.152435
    10  H    2.454288   2.168355   3.968312   2.162385   3.465516
    11  H    2.509051   2.161093   2.175984   3.965026   3.470029
    12  H    2.566038   2.813309   1.097897   2.866968   2.129353
    13  H    3.051860   2.146243   2.180202   3.360660   2.831405
    14  C    4.619186   4.170753   2.609595   2.581603   1.466731
    15  H    5.168545   4.653893   3.555436   2.786645   2.221917
    16  H    5.207373   4.684316   2.823873   3.539308   2.215000
    17  O    4.410687   4.312044   2.510299   2.471268   1.446572
    18  O    2.512810   2.926364   3.049252   1.426472   2.417359
    19  H    3.325055   3.751015   3.254963   1.935531   2.499166
    20  O    3.372356   2.474225   3.500460   2.349348   2.899302
    21  C    4.158981   3.233466   4.780275   3.630687   4.314148
    22  H    4.375246   3.643787   5.418743   3.830265   4.830074
    23  H    5.147925   4.175143   5.364954   4.288225   4.788072
    24  H    4.061211   3.091724   4.911773   4.216095   4.779034
    25  O    2.085140   1.428212   3.791987   3.782905   4.263404
    26  Si   2.796901   2.754907   5.005969   5.120373   5.670896
    27  C    3.132846   3.532692   5.823465   5.284487   6.208252
    28  H    4.062371   4.536471   6.731196   6.328268   7.214172
    29  H    2.620440   3.311545   5.339549   4.727383   5.673500
    30  H    3.626891   3.852618   6.269672   5.318990   6.421746
    31  C    4.583372   4.250676   6.493095   6.583765   7.113768
    32  C    3.217406   3.469885   4.948040   5.836320   6.018162
    33  H    4.123453   4.484478   5.980745   6.795190   7.046510
    34  H    3.751880   3.768440   4.928034   6.184477   6.134664
    35  H    2.720540   3.240139   4.346644   5.343281   5.457510
    36  C    5.119631   4.565213   6.435423   6.943279   7.183684
    37  H    5.215333   4.767894   6.359733   7.236961   7.310225
    38  H    6.183718   5.593186   7.458380   7.900487   8.158172
    39  H    4.787030   4.041084   5.778408   6.275334   6.435417
    40  C    5.628789   5.512537   7.700713   7.870667   8.423231
    41  H    5.720016   5.695309   7.658946   8.143841   8.551576
    42  H    5.712754   5.751250   8.043217   7.965430   8.674057
    43  H    6.616407   6.398853   8.584817   8.737906   9.280853
    44  C    5.118482   4.671470   7.076812   6.651572   7.396515
    45  H    6.184108   5.682508   8.020103   7.648915   8.349154
    46  H    5.207063   4.936299   7.441649   6.736497   7.661589
    47  H    4.795257   4.173301   6.516881   5.946711   6.687884
                    6          7          8          9         10
     6  C    0.000000
     7  C    2.525407   0.000000
     8  H    3.952198   2.187955   0.000000
     9  H    2.152841   3.930636   4.286201   0.000000
    10  H    1.100262   3.475089   4.992122   2.508577   0.000000
    11  H    3.474692   1.095454   2.545994   4.974661   4.304174
    12  H    3.418008   2.169560   1.762579   3.865311   4.234779
    13  H    2.759626   1.095656   2.511299   4.122670   3.758231
    14  C    3.543958   3.576337   2.694625   2.629012   4.472029
    15  H    3.696856   4.311391   3.748860   2.395897   4.478846
    16  H    4.303895   3.762191   2.480090   3.689032   5.315284
    17  O    3.816935   3.845999   2.729152   2.680216   4.622649
    18  O    2.394288   3.579201   4.044199   2.084053   2.587134
    19  H    3.227957   4.134366   4.094974   2.349403   3.500459
    20  O    1.421817   2.950846   4.225127   2.511540   2.078724
    21  C    2.409419   3.923577   5.483877   3.674331   2.540059
    22  H    2.641832   4.636101   6.237840   3.738109   2.297108
    23  H    3.301157   4.610338   5.922306   4.145983   3.521978
    24  H    2.801160   3.761170   5.584918   4.487556   2.952131
    25  O    2.435748   2.436909   4.612745   4.577915   2.674354
    26  Si   3.878759   3.710532   5.811753   5.963895   3.814978
    27  C    4.224766   4.853142   6.794048   6.011285   3.717460
    28  H    5.313260   5.759545   7.665852   7.070800   4.802310
    29  H    3.942250   4.626940   6.349830   5.486830   3.456500
    30  H    4.174108   5.301355   7.280321   5.874529   3.445644
    31  C    5.154607   5.028939   7.181963   7.295964   5.036690
    32  C    4.930902   3.833934   5.558156   6.846692   5.124460
    33  H    5.891531   4.922729   6.584132   7.794788   5.962930
    34  H    5.280049   3.738639   5.350412   7.201942   5.648428
    35  H    4.699120   3.518620   4.976392   6.401582   4.956531
    36  C    5.546844   4.900336   6.921226   7.669652   5.700645
    37  H    5.961684   4.869270   6.744126   8.064697   6.228813
    38  H    6.463120   5.919155   7.905979   8.562086   6.565657
    39  H    4.892510   4.245107   6.220989   6.945847   5.174503
    40  C    6.503949   6.286423   8.381868   8.624884   6.297994
    41  H    6.874891   6.286202   8.262578   8.991574   6.785911
    42  H    6.641956   6.717846   8.818593   8.687295   6.273975
    43  H    7.312599   7.120365   9.223672   9.439898   7.100104
    44  C    5.135508   5.660797   7.840857   7.162455   4.805120
    45  H    6.117682   6.564302   8.723922   8.115223   5.809461
    46  H    5.275436   6.128996   8.302038   7.201439   4.732362
    47  H    4.410044   5.139528   7.271063   6.366937   4.134030
                   11         12         13         14         15
    11  H    0.000000
    12  H    2.478371   0.000000
    13  H    1.767625   3.079652   0.000000
    14  C    4.513863   3.365536   3.492812   0.000000
    15  H    5.329504   4.302540   4.104072   1.089612   0.000000
    16  H    4.556490   3.674985   3.516470   1.090133   1.840351
    17  O    4.670277   2.788755   4.154665   1.439087   2.147004
    18  O    4.344248   2.805453   4.288501   3.643699   3.962136
    19  H    4.875527   2.906546   4.838510   3.531402   3.877507
    20  O    3.953979   4.264513   2.617828   3.372584   3.286227
    21  C    4.760424   5.517021   3.458872   4.723152   4.508740
    22  H    5.468106   6.016946   4.359351   5.329768   5.018212
    23  H    5.465505   6.216665   3.948100   4.874416   4.501480
    24  H    4.394165   5.619759   3.267582   5.330363   5.289927
    25  O    2.670627   4.111234   2.672110   5.370693   5.755534
    26  Si   3.519499   5.036295   4.133922   6.904918   7.349191
    27  C    4.859932   5.627816   5.450632   7.540202   7.876851
    28  H    5.620349   6.447372   6.384988   8.575071   8.947196
    29  H    4.697762   4.991188   5.381993   7.066585   7.442377
    30  H    5.488834   6.187088   5.766247   7.662919   7.850022
    31  C    4.807685   6.712363   5.095126   8.170494   8.508719
    32  C    3.151817   4.740581   4.472005   7.309539   7.983714
    33  H    4.217575   5.678660   5.566029   8.368698   9.039568
    34  H    2.869775   4.860271   4.213312   7.305731   8.031108
    35  H    2.852717   3.941907   4.365495   6.811558   7.552951
    36  C    4.566834   6.816828   4.722301   8.075519   8.463722
    37  H    4.304314   6.659914   4.789167   8.241345   8.755036
    38  H    5.608071   7.886864   5.636409   8.970848   9.299065
    39  H    4.067173   6.305343   3.880867   7.204795   7.552650
    40  C    5.905743   7.771690   6.471439   9.562870   9.949489
    41  H    5.729363   7.648866   6.551821   9.729191  10.224216
    42  H    6.409809   8.014949   7.013941   9.883214  10.233857
    43  H    6.752106   8.733134   7.180196  10.345434  10.685651
    44  C    5.713354   7.398832   5.588324   8.342383   8.485237
    45  H    6.575961   8.396048   6.382012   9.215419   9.323053
    46  H    6.237866   7.655607   6.192384   8.681907   8.782319
    47  H    5.369310   6.960718   4.935952   7.519217   7.582826
                   16         17         18         19         20
    16  H    0.000000
    17  O    2.141680   0.000000
    18  O    4.576435   2.970473   0.000000
    19  H    4.459551   2.538645   0.971828   0.000000
    20  O    3.980100   4.149228   3.592400   4.273877   0.000000
    21  C    5.253236   5.560620   4.719802   5.492991   1.419015
    22  H    6.006369   6.003356   4.719419   5.528286   2.086554
    23  H    5.294757   5.914091   5.514691   6.194172   2.021868
    24  H    5.740625   6.137710   5.186847   6.025040   2.091871
    25  O    5.794639   5.685147   4.197787   5.088728   2.957521
    26  Si   7.327795   7.027769   5.156569   6.052317   4.588635
    27  C    8.176226   7.421497   4.928437   5.825353   5.230755
    28  H    9.187530   8.397572   5.866893   6.720710   6.316087
    29  H    7.760295   6.764341   4.130102   4.965823   5.154721
    30  H    8.370090   7.637184   5.071653   6.002340   5.052350
    31  C    8.498927   8.536858   6.846374   7.772992   5.443820
    32  C    7.572879   7.243902   5.681274   6.414979   5.749525
    33  H    8.648811   8.235742   6.511035   7.235512   6.753873
    34  H    7.413998   7.368793   6.216134   6.908558   5.895463
    35  H    7.106377   6.562122   5.015404   5.654234   5.684752
    36  C    8.212248   8.614334   7.423228   8.296667   5.554299
    37  H    8.292117   8.698058   7.634811   8.453985   6.079473
    38  H    9.076190   9.593450   8.436030   9.322137   6.333919
    39  H    7.303879   7.864749   6.929856   7.777702   4.700821
    40  C    9.893986   9.814017   7.944202   8.857476   6.928202
    41  H    9.991040   9.906895   8.145792   9.009293   7.378740
    42  H   10.316501  10.026373   7.886409   8.803828   7.209014
    43  H   10.638344  10.696241   8.905104   9.831995   7.583286
    44  C    8.769245   8.816361   7.025480   7.988674   5.231735
    45  H    9.586427   9.778174   8.090851   9.051608   6.058175
    46  H    9.220663   9.034250   6.943495   7.914838   5.552348
    47  H    7.951856   8.100903   6.495189   7.445294   4.304786
                   21         22         23         24         25
    21  C    0.000000
    22  H    1.100976   0.000000
    23  H    1.094160   1.784350   0.000000
    24  H    1.094311   1.784878   1.788623   0.000000
    25  O    3.079110   3.453286   4.054815   2.492877   0.000000
    26  Si   4.534725   4.680290   5.527948   3.822170   1.685178
    27  C    5.180912   4.931767   6.256203   4.741271   2.928999
    28  H    6.215823   5.946286   7.276537   5.707395   3.871374
    29  H    5.372034   5.123232   6.466192   5.111001   3.174257
    30  H    4.793217   4.344008   5.838750   4.438699   3.194030
    31  C    4.919579   5.071206   5.726367   3.950819   2.858322
    32  C    6.010187   6.324546   6.955183   5.321370   2.934372
    33  H    6.927169   7.151476   7.890519   6.202173   3.874574
    34  H    6.159339   6.640103   6.999341   5.396422   3.207940
    35  H    6.184421   6.491735   7.151341   5.658362   3.176707
    36  C    5.053800   5.495509   5.666094   3.983284   3.235224
    37  H    5.792256   6.311298   6.424324   4.761410   3.596051
    38  H    5.654045   6.061175   6.138946   4.560875   4.238660
    39  H    4.213807   4.806568   4.737219   3.146734   2.807436
    40  C    6.420232   6.473903   7.240069   5.474167   4.210809
    41  H    7.039350   7.194826   7.875604   6.089050   4.508495
    42  H    6.708700   6.592602   7.596296   5.864844   4.539663
    43  H    6.919582   6.975476   7.635073   5.924632   5.031700
    44  C    4.368991   4.292700   5.093680   3.470633   3.302223
    45  H    5.057845   5.003507   5.622014   4.127194   4.292355
    46  H    4.719697   4.396593   5.522392   3.997555   3.694102
    47  H    3.328641   3.303942   4.006600   2.437955   2.894709
                   26         27         28         29         30
    26  Si   0.000000
    27  C    1.891880   0.000000
    28  H    2.508518   1.096905   0.000000
    29  H    2.503700   1.096910   1.765211   0.000000
    30  H    2.515869   1.095774   1.771659   1.767133   0.000000
    31  C    1.912868   3.152918   3.418164   4.100819   3.354645
    32  C    1.893475   3.069639   3.271947   3.281949   4.039118
    33  H    2.508581   3.265939   3.089283   3.564888   4.282161
    34  H    2.519241   4.039953   4.285697   4.300269   4.924693
    35  H    2.505139   3.285224   3.577434   3.120433   4.300274
    36  C    2.837716   4.490218   4.832420   5.303264   4.758321
    37  H    3.050618   4.805245   5.049295   5.519680   5.288650
    38  H    3.827588   5.323600   5.568807   6.221526   5.474971
    39  H    3.025174   4.745487   5.301127   5.436890   4.932400
    40  C    2.834950   3.577141   3.343225   4.585330   3.892257
    41  H    3.043166   3.936607   3.603615   4.808709   4.499773
    42  H    3.041026   3.144359   2.669647   4.176237   3.382541
    43  H    3.824693   4.572880   4.325669   5.616794   4.737257
    44  C    2.842438   3.505328   3.889728   4.492146   3.196620
    45  H    3.830982   4.524064   4.772517   5.546589   4.191253
    46  H    3.055553   3.068074   3.351636   4.080749   2.529467
    47  H    3.037647   3.798399   4.433208   4.627953   3.392703
                   31         32         33         34         35
    31  C    0.000000
    32  C    3.149296   0.000000
    33  H    3.418354   1.096765   0.000000
    34  H    3.346401   1.095893   1.771450   0.000000
    35  H    4.097967   1.097041   1.763749   1.768545   0.000000
    36  C    1.543871   3.555843   3.977612   3.250666   4.524714
    37  H    2.201492   3.125006   3.480528   2.564469   4.113117
    38  H    2.184993   4.562218   4.846562   4.227495   5.571886
    39  H    2.198029   3.878791   4.540137   3.513449   4.684144
    40  C    1.544676   3.508288   3.273154   3.784012   4.532626
    41  H    2.204323   3.064364   2.619324   3.224812   4.115488
    42  H    2.206299   3.827581   3.455565   4.362387   4.722853
    43  H    2.184239   4.519821   4.274396   4.648041   5.574290
    44  C    1.543465   4.492017   4.806906   4.781449   5.309717
    45  H    2.184426   5.321990   5.543997   5.490032   6.224346
    46  H    2.202703   4.777681   4.975999   5.281796   5.503272
    47  H    2.199202   4.787925   5.313881   5.014624   5.480516
                   36         37         38         39         40
    36  C    0.000000
    37  H    1.096887   0.000000
    38  H    1.099846   1.768323   0.000000
    39  H    1.095420   1.770896   1.774097   0.000000
    40  C    2.515610   2.767198   2.761636   3.486646   0.000000
    41  H    2.776522   2.575994   3.121890   3.790894   1.096822
    42  H    3.491820   3.792223   3.773779   4.361963   1.097239
    43  H    2.753832   3.099156   2.542448   3.769570   1.099574
    44  C    2.513247   3.486904   2.740121   2.785344   2.513611
    45  H    2.743103   3.750626   2.509415   3.117295   2.756098
    46  H    3.488016   4.360642   3.751354   3.807812   2.770341
    47  H    2.781247   3.806612   3.104903   2.604793   3.486205
                   41         42         43         44         45
    41  H    0.000000
    42  H    1.773130   0.000000
    43  H    1.767950   1.767570   0.000000
    44  C    3.488705   2.782510   2.745290   0.000000
    45  H    3.764787   3.125694   2.529078   1.099865   0.000000
    46  H    3.796880   2.588019   3.093868   1.096770   1.768555
    47  H    4.360542   3.799139   3.760934   1.095758   1.771368
                   46         47
    46  H    0.000000
    47  H    1.771121   0.000000
 Stoichiometry    C14H28O4Si
 Framework group  C1[X(C14H28O4Si)]
 Deg. of freedom   135
 Full point group                 C1      NOp   1
 Largest Abelian subgroup         C1      NOp   1
 Largest concise Abelian subgroup C1      NOp   1
                         Standard orientation:                         
 ---------------------------------------------------------------------
 Center     Atomic      Atomic             Coordinates (Angstroms)
 Number     Number       Type             X           Y           Z
 ---------------------------------------------------------------------
      1          1           0       -0.586550   -1.246431    0.612151
      2          6           0       -0.582275   -0.335073   -0.003678
      3          6           0       -2.635098   -1.208004   -1.194699
      4          6           0       -2.859565    0.147539    0.968239
      5          6           0       -3.487237   -0.275161   -0.353708
      6          6           0       -1.440141    0.698614    0.752488
      7          6           0       -1.208101   -0.655931   -1.366249
      8          1           0       -3.113127   -1.376296   -2.165685
      9          1           0       -3.471528    0.938720    1.423712
     10          1           0       -0.982277    0.901208    1.732229
     11          1           0       -0.581777   -1.384042   -1.893119
     12          1           0       -2.594257   -2.179607   -0.685094
     13          1           0       -1.220965    0.262459   -1.963624
     14          6           0       -4.548909    0.548026   -0.942363
     15          1           0       -4.841524    1.482799   -0.465047
     16          1           0       -4.729063    0.499153   -2.016396
     17          8           0       -4.877674   -0.649261   -0.214771
     18          8           0       -2.760336   -0.974822    1.843043
     19          1           0       -3.652829   -1.356080    1.893518
     20          8           0       -1.621162    1.910214    0.030810
     21          6           0       -0.610430    2.891911    0.199019
     22          1           0       -0.408833    3.076092    1.265595
     23          1           0       -0.995632    3.812237   -0.250209
     24          1           0        0.324795    2.606471   -0.292300
     25          8           0        0.750261    0.153581   -0.162906
     26         14           0        2.134857   -0.717136    0.242767
     27          6           0        2.160569   -1.048910    2.105151
     28          1           0        3.043500   -1.631894    2.394568
     29          1           0        1.278419   -1.623034    2.414029
     30          1           0        2.167101   -0.120127    2.686563
     31          6           0        3.595212    0.389906   -0.305762
     32          6           0        2.141958   -2.381477   -0.660098
     33          1           0        3.019907   -2.978744   -0.385559
     34          1           0        2.147434   -2.259423   -1.749159
     35          1           0        1.256215   -2.973687   -0.398860
     36          6           0        3.478052    0.705755   -1.812431
     37          1           0        3.523157   -0.203295   -2.424603
     38          1           0        4.305917    1.355222   -2.132578
     39          1           0        2.539148    1.219495   -2.045832
     40          6           0        4.930096   -0.342590   -0.045842
     41          1           0        5.001186   -1.280264   -0.610405
     42          1           0        5.072584   -0.578262    1.016274
     43          1           0        5.776524    0.287837   -0.354363
     44          6           0        3.586952    1.714159    0.487063
     45          1           0        4.418986    2.357464    0.165223
     46          1           0        3.702715    1.547828    1.564949
     47          1           0        2.657575    2.273835    0.333094
 ---------------------------------------------------------------------
 Rotational constants (GHZ):      0.6753266      0.1838891      0.1742439
 Standard basis: 6-31+G(d,p) (6D, 7F)
 There are   505 symmetry adapted basis functions of A   symmetry.
 Integral buffers will be    131072 words long.
 Raffenetti 2 integral format.
 Two-electron integral symmetry is turned on.
   505 basis functions,   828 primitive gaussians,   505 cartesian basis functions
    79 alpha electrons       79 beta electrons
       nuclear repulsion energy      1804.8372196224 Hartrees.
 NAtoms=   47 NActive=   47 NUniq=   47 SFac= 1.00D+00 NAtFMM=   60 NAOKFM=F Big=F
 ------------------------------------------------------------------------------
 Polarizable Continuum Model (PCM)
 =================================
 Model                : PCM.
 Atomic radii         : UFF (Universal Force Field).
 Polarization charges : Total charges.
 Charge compensation  : None.
 Solution method      : Matrix inversion.
 Cavity type          : Scaled VdW (van der Waals Surface) (Alpha=1.100).
 Cavity algorithm     : GePol (No added spheres)
                        Default sphere list used, NSphG=   47.
                        Lebedev-Laikov grids with approx.  5.0 points / Ang**2.
                        Smoothing algorithm: Karplus/York (Gamma=1.0000).
                        Polarization charges: spherical gaussians, with
                                              point-specific exponents (IZeta= 3).
                        Self-potential: point-specific (ISelfS= 7).
                        Self-field    : sphere-specific E.n sum rule (ISelfD= 2).
 Solvent              : Chloroform, Eps=   4.711300 Eps(inf)=   2.090627
 ------------------------------------------------------------------------------
 One-electron integrals computed using PRISM.
 NBasis=   505 RedAO= T  NBF=   505
 NBsUse=   505 1.00D-06 NBFU=   505
 Harris functional with IExCor=  908 diagonalized for initial guess.
 ExpMin= 3.31D-02 ExpMax= 1.61D+04 ExpMxC= 2.43D+03 IAcc=3 IRadAn=         5 AccDes= 0.00D+00
 HarFok:  IExCor=  908 AccDes= 0.00D+00 IRadAn=         5 IDoV= 1
 ScaDFX=  1.000000  1.000000  1.000000  1.000000
 FoFCou: FMM=F IPFlag=           0 FMFlag=      100000 FMFlg1=           0
         NFxFlg=           0 DoJE=T BraDBF=F KetDBF=T FulRan=T
         Omega=  0.000000  0.000000  1.000000  0.000000  0.000000 ICntrl=     500 IOpCl=  0
         NMat0=    1 NMatS0=    1 NMatT0=    0 NMatD0=    1 NMtDS0=    0 NMtDT0=    0
         I1Cent=           4 NGrid=           0.
 Petite list used in FoFCou.
 Initial guess orbital symmetries:
       Occupied  (A) (A) (A) (A) (A) (A) (A) (A) (A) (A) (A) (A)
                 (A) (A) (A) (A) (A) (A) (A) (A) (A) (A) (A) (A)
                 (A) (A) (A) (A) (A) (A) (A) (A) (A) (A) (A) (A)
                 (A) (A) (A) (A) (A) (A) (A) (A) (A) (A) (A) (A)
                 (A) (A) (A) (A) (A) (A) (A) (A) (A) (A) (A) (A)
                 (A) (A) (A) (A) (A) (A) (A) (A) (A) (A) (A) (A)
                 (A) (A) (A) (A) (A) (A) (A)
       Virtual   (A) (A) (A) (A) (A) (A) (A) (A) (A) (A) (A) (A)
                 (A) (A) (A) (A) (A) (A) (A) (A) (A) (A) (A) (A)
                 (A) (A) (A) (A) (A) (A) (A) (A) (A) (A) (A) (A)
                 (A) (A) (A) (A) (A) (A) (A) (A) (A) (A) (A) (A)
                 (A) (A) (A) (A) (A) (A) (A) (A) (A) (A) (A) (A)
                 (A) (A) (A) (A) (A) (A) (A) (A) (A) (A) (A) (A)
                 (A) (A) (A) (A) (A) (A) (A) (A) (A) (A) (A) (A)
                 (A) (A) (A) (A) (A) (A) (A) (A) (A) (A) (A) (A)
                 (A) (A) (A) (A) (A) (A) (A) (A) (A) (A) (A) (A)
                 (A) (A) (A) (A) (A) (A) (A) (A) (A) (A) (A) (A)
                 (A) (A) (A) (A) (A) (A) (A) (A) (A) (A) (A) (A)
                 (A) (A) (A) (A) (A) (A) (A) (A) (A) (A) (A) (A)
                 (A) (A) (A) (A) (A) (A) (A) (A) (A) (A) (A) (A)
                 (A) (A) (A) (A) (A) (A) (A) (A) (A) (A) (A) (A)
                 (A) (A) (A) (A) (A) (A) (A) (A) (A) (A) (A) (A)
                 (A) (A) (A) (A) (A) (A) (A) (A) (A) (A) (A) (A)
                 (A) (A) (A) (A) (A) (A) (A) (A) (A) (A) (A) (A)
                 (A) (A) (A) (A) (A) (A) (A) (A) (A) (A) (A) (A)
                 (A) (A) (A) (A) (A) (A) (A) (A) (A) (A) (A) (A)
                 (A) (A) (A) (A) (A) (A) (A) (A) (A) (A) (A) (A)
                 (A) (A) (A) (A) (A) (A) (A) (A) (A) (A) (A) (A)
                 (A) (A) (A) (A) (A) (A) (A) (A) (A) (A) (A) (A)
                 (A) (A) (A) (A) (A) (A) (A) (A) (A) (A) (A) (A)
                 (A) (A) (A) (A) (A) (A) (A) (A) (A) (A) (A) (A)
                 (A) (A) (A) (A) (A) (A) (A) (A) (A) (A) (A) (A)
                 (A) (A) (A) (A) (A) (A) (A) (A) (A) (A) (A) (A)
                 (A) (A) (A) (A) (A) (A) (A) (A) (A) (A) (A) (A)
                 (A) (A) (A) (A) (A) (A) (A) (A) (A) (A) (A) (A)
                 (A) (A) (A) (A) (A) (A) (A) (A) (A) (A) (A) (A)
                 (A) (A) (A) (A) (A) (A) (A) (A) (A) (A) (A) (A)
                 (A) (A) (A) (A) (A) (A) (A) (A) (A) (A) (A) (A)
                 (A) (A) (A) (A) (A) (A) (A) (A) (A) (A) (A) (A)
                 (A) (A) (A) (A) (A) (A) (A) (A) (A) (A) (A) (A)
                 (A) (A) (A) (A) (A) (A) (A) (A) (A) (A) (A) (A)
                 (A) (A) (A) (A) (A) (A) (A) (A) (A) (A) (A) (A)
                 (A) (A) (A) (A) (A) (A)
 The electronic state of the initial guess is 1-A.
 Requested convergence on RMS density matrix=1.00D-08 within 128 cycles.
 Requested convergence on MAX density matrix=1.00D-06.
 Requested convergence on             energy=1.00D-06.
 No special actions if energy rises.
 Error on total polarization charges =  0.01533
 SCF Done:  E(RmPW1PW91) =  -1140.62466428     A.U. after   13 cycles
             Convg  =    0.4482D-08             -V/T =  2.0080
 Range of M.O.s used for correlation:     1   505
 NBasis=   505 NAE=    79 NBE=    79 NFC=     0 NFV=     0
 NROrb=    505 NOA=    79 NOB=    79 NVA=   426 NVB=   426

 **** Warning!!: The largest alpha MO coefficient is  0.72771579D+02

 NEqPCM:  Using equilibrium solvation (IEInf=0, Eps=   4.7113, EpsInf=   2.0906)
          Differentiating once with respect to magnetic field using GIAOs.
          Electric field/nuclear overlap derivatives assumed to be zero.
 FoFCou: FMM=F IPFlag=           0 FMFlag=    10101102 FMFlg1=           0
         NFxFlg=    40000000 DoJE=F BraDBF=F KetDBF=T FulRan=T
         Omega=  0.000000  0.000000  1.000000  0.000000  0.000000 ICntrl=    6100 IOpCl=  0
         NMat0=    1 NMatS0=    1 NMatT0=    0 NMatD0=    1 NMtDS0=    0 NMtDT0=    0
         I1Cent=           7 NGrid=        3044.
 Symmetry not used in FoFCou.
          There are     3 degrees of freedom in the 1st order CPHF.  IDoFFX=0.
      3 vectors produced by pass  0 Test12= 1.12D-12 3.33D-08 XBig12= 1.80D+02 1.92D+00.
 AX will form     3 AO Fock derivatives at one time.
      3 vectors produced by pass  1 Test12= 1.12D-12 3.33D-08 XBig12= 4.17D-01 7.96D-02.
      3 vectors produced by pass  2 Test12= 1.12D-12 3.33D-08 XBig12= 9.44D-04 5.88D-03.
      3 vectors produced by pass  3 Test12= 1.12D-12 3.33D-08 XBig12= 4.18D-06 4.43D-04.
      3 vectors produced by pass  4 Test12= 1.12D-12 3.33D-08 XBig12= 1.92D-08 2.25D-05.
      3 vectors produced by pass  5 Test12= 1.12D-12 3.33D-08 XBig12= 6.47D-11 1.16D-06.
      3 vectors produced by pass  6 Test12= 1.12D-12 3.33D-08 XBig12= 1.92D-13 5.22D-08.
 Inverted reduced A of dimension    21 with in-core refinement.
 Calculating GIAO nuclear magnetic shielding tensors.
 SCF GIAO Magnetic shielding tensor (ppm):
      1  H    Isotropic =    27.2476   Anisotropy =     9.0600
   XX=    33.2358   YX=     1.1625   ZX=    -0.9823
   XY=    -0.7894   YY=    25.1236   ZY=    -2.2004
   XZ=    -0.2411   YZ=    -2.3493   ZZ=    23.3834
   Eigenvalues:    21.8040    26.6512    33.2876
      2  C    Isotropic =   123.2337   Anisotropy =    52.9695
   XX=   150.7000   YX=    11.9583   ZX=    -5.3563
   XY=    26.7471   YY=   110.5638   ZY=     7.3986
   XZ=    -3.3735   YZ=     7.1926   ZZ=   108.4373
   Eigenvalues:    96.7185   114.4359   158.5467
      3  C    Isotropic =   167.1532   Anisotropy =    25.2248
   XX=   181.9338   YX=     2.4109   ZX=    -1.9988
   XY=    -5.9261   YY=   157.2820   ZY=    14.2590
   XZ=    -6.5229   YZ=    14.2950   ZZ=   162.2439
   Eigenvalues:   145.2178   172.2722   183.9698
      4  C    Isotropic =   117.2080   Anisotropy =    26.1252
   XX=   108.4983   YX=     7.6164   ZX=    -2.8291
   XY=    -5.5000   YY=   126.7810   ZY=   -17.3949
   XZ=     7.5522   YZ=    -6.5398   ZZ=   116.3446
   Eigenvalues:   105.9445   111.0546   134.6248
      5  C    Isotropic =   135.5974   Anisotropy =    55.2948
   XX=   119.3268   YX=    20.6610   ZX=   -13.0180
   XY=    31.1310   YY=   134.1145   ZY=    28.4143
   XZ=   -25.2785   YZ=    25.6948   ZZ=   153.3510
   Eigenvalues:    84.8998   149.4319   172.4606
      6  C    Isotropic =   112.5915   Anisotropy =    45.2727
   XX=    95.7011   YX=     7.1828   ZX=    -5.4222
   XY=    -4.6344   YY=   129.1062   ZY=   -21.1773
   XZ=    10.6004   YZ=   -19.1819   ZZ=   112.9671
   Eigenvalues:    94.1213   100.8799   142.7732
      7  C    Isotropic =   166.9944   Anisotropy =    30.7525
   XX=   182.6564   YX=     8.2181   ZX=     1.6051
   XY=     9.3599   YY=   150.6668   ZY=     5.8184
   XZ=     9.4881   YZ=     7.5785   ZZ=   167.6599
   Eigenvalues:   147.0581   166.4290   187.4960
      8  H    Isotropic =    30.5364   Anisotropy =    10.3115
   XX=    31.0494   YX=     1.0394   ZX=     3.6237
   XY=     0.6024   YY=    26.8254   ZY=     4.8286
   XZ=     2.2195   YZ=     4.3097   ZZ=    33.7344
   Eigenvalues:    24.4963    29.7021    37.4107
      9  H    Isotropic =    28.2519   Anisotropy =     5.1976
   XX=    26.5710   YX=    -2.0269   ZX=    -1.6337
   XY=    -1.7954   YY=    29.5080   ZY=     2.4445
   XZ=    -0.4757   YZ=     0.8873   ZZ=    28.6765
   Eigenvalues:    25.6100    27.4287    31.7169
     10  H    Isotropic =    28.0360   Anisotropy =     2.1560
   XX=    27.6384   YX=    -0.4073   ZX=    -0.6091
   XY=    -0.6812   YY=    27.0319   ZY=    -1.2294
   XZ=     1.0598   YZ=     1.0953   ZZ=    29.4378
   Eigenvalues:    26.7109    27.9238    29.4734
     11  H    Isotropic =    30.0473   Anisotropy =     8.5993
   XX=    33.7869   YX=    -2.8058   ZX=    -0.9092
   XY=    -2.2756   YY=    27.6476   ZY=     3.8457
   XZ=    -1.6162   YZ=     4.0170   ZZ=    28.7073
   Eigenvalues:    24.0784    30.2833    35.7802
     12  H    Isotropic =    29.2544   Anisotropy =     6.6075
   XX=    28.5804   YX=     1.3370   ZX=    -0.7492
   XY=    -0.1379   YY=    33.5886   ZY=    -0.4955
   XZ=    -0.9823   YZ=     0.7440   ZZ=    25.5944
   Eigenvalues:    25.3522    28.7517    33.6595
     13  H    Isotropic =    29.3350   Anisotropy =     3.9848
   XX=    29.0301   YX=     1.1982   ZX=     0.2400
   XY=     0.3767   YY=    28.5339   ZY=    -1.8573
   XZ=    -0.4021   YZ=    -2.5847   ZZ=    30.4411
   Eigenvalues:    26.8906    29.1229    31.9916
     14  C    Isotropic =   139.1939   Anisotropy =    32.7948
   XX=   131.2076   YX=    12.5265   ZX=    -9.7702
   XY=    20.3897   YY=   136.9022   ZY=    16.5470
   XZ=   -13.9681   YZ=    16.8921   ZZ=   149.4720
   Eigenvalues:   107.7654   148.7592   161.0571
     15  H    Isotropic =    28.8143   Anisotropy =     9.0758
   XX=    27.0125   YX=    -2.5688   ZX=     1.4679
   XY=    -3.7316   YY=    33.2352   ZY=     0.0220
   XZ=    -0.8664   YZ=     3.7786   ZZ=    26.1951
   Eigenvalues:    24.7919    26.7861    34.8648
     16  H    Isotropic =    28.8013   Anisotropy =     9.7410
   XX=    26.2380   YX=    -1.6839   ZX=     1.4254
   XY=    -0.3482   YY=    25.9566   ZY=     0.3337
   XZ=     3.8867   YZ=    -3.1040   ZZ=    34.2093
   Eigenvalues:    24.9787    26.1300    35.2953
     17  O    Isotropic =   315.6807   Anisotropy =   136.6068
   XX=   318.7782   YX=   -76.0471   ZX=    31.1127
   XY=  -111.6150   YY=   273.8959   ZY=    73.1081
   XZ=    47.5644   YZ=    78.3480   ZZ=   354.3680
   Eigenvalues:   162.9434   377.3468   406.7519
     18  O    Isotropic =   295.1310   Anisotropy =    55.7642
   XX=   315.5678   YX=    33.0746   ZX=    -3.2757
   XY=    19.0965   YY=   289.0409   ZY=   -21.5196
   XZ=     5.4344   YZ=    -5.0480   ZZ=   280.7842
   Eigenvalues:   264.2213   288.8645   332.3071
     19  H    Isotropic =    29.8578   Anisotropy =    18.5226
   XX=    37.3267   YX=     7.3807   ZX=    -2.3523
   XY=     7.8744   YY=    25.6251   ZY=    -4.6260
   XZ=    -1.3702   YZ=    -6.2025   ZZ=    26.6217
   Eigenvalues:    19.3614    28.0059    42.2062
     20  O    Isotropic =   313.5504   Anisotropy =    47.0021
   XX=   312.8341   YX=    -3.4331   ZX=    14.8534
   XY=    -6.6561   YY=   318.4667   ZY=   -17.7459
   XZ=    19.4413   YZ=   -28.8365   ZZ=   309.3504
   Eigenvalues:   285.7702   309.9959   344.8852
     21  C    Isotropic =   135.1883   Anisotropy =    85.0563
   XX=   140.5154   YX=    42.6008   ZX=     6.2606
   XY=    41.4759   YY=   156.3559   ZY=     5.9093
   XZ=     6.1372   YZ=     3.3321   ZZ=   108.6935
   Eigenvalues:   104.6719   109.0004   191.8925
     22  H    Isotropic =    28.2892   Anisotropy =     8.5662
   XX=    28.2034   YX=     1.9627   ZX=     2.6514
   XY=     2.4196   YY=    30.0655   ZY=     5.3896
   XZ=     0.3212   YZ=     2.8261   ZZ=    26.5988
   Eigenvalues:    23.8733    26.9944    34.0000
     23  H    Isotropic =    27.8848   Anisotropy =    10.5170
   XX=    25.8529   YX=     2.7480   ZX=    -0.1005
   XY=     0.1117   YY=    34.4232   ZY=    -2.3821
   XZ=     0.6027   YZ=    -1.0690   ZZ=    23.3783
   Eigenvalues:    23.0340    25.7243    34.8962
     24  H    Isotropic =    27.1834   Anisotropy =     7.9801
   XX=    31.6425   YX=     0.1167   ZX=    -2.6502
   XY=     2.5322   YY=    28.9393   ZY=    -0.8577
   XZ=    -1.2381   YZ=     0.2352   ZZ=    20.9682
   Eigenvalues:    20.6245    28.4222    32.5034
     25  O    Isotropic =   281.0974   Anisotropy =    32.7646
   XX=   271.6704   YX=     0.1016   ZX=     8.8902
   XY=     0.9115   YY=   278.0115   ZY=     9.6386
   XZ=    16.9468   YZ=     9.8940   ZZ=   293.6103
   Eigenvalues:   264.5042   275.8475   302.9404
     26  Si   Isotropic =   379.3247   Anisotropy =    43.1288
   XX=   407.8592   YX=   -10.4478   ZX=     2.6350
   XY=     4.5232   YY=   366.0974   ZY=    -4.8717
   XZ=    -4.6813   YZ=    -6.4899   ZZ=   364.0174
   Eigenvalues:   359.1338   370.7630   408.0772
     27  C    Isotropic =   200.7456   Anisotropy =    10.0351
   XX=   199.4291   YX=    -5.5595   ZX=     0.4508
   XY=    -7.4597   YY=   198.3859   ZY=     1.2385
   XZ=     1.2060   YZ=     6.7423   ZZ=   204.4219
   Eigenvalues:   191.4152   203.3860   207.4357
     28  H    Isotropic =    31.6664   Anisotropy =    10.9054
   XX=    34.0098   YX=    -4.2198   ZX=     3.0197
   XY=    -4.1811   YY=    30.0623   ZY=    -3.5498
   XZ=     2.6910   YZ=    -3.1809   ZZ=    30.9269
   Eigenvalues:    26.6950    29.3675    38.9366
     29  H    Isotropic =    31.1474   Anisotropy =     8.8960
   XX=    33.9312   YX=     3.5102   ZX=    -1.6769
   XY=     3.1574   YY=    28.8578   ZY=    -2.8053
   XZ=    -2.0458   YZ=    -3.2430   ZZ=    30.6533
   Eigenvalues:    26.1914    30.1728    37.0781
     30  H    Isotropic =    31.4921   Anisotropy =     8.9149
   XX=    27.9920   YX=     0.4117   ZX=    -0.0668
   XY=     0.6565   YY=    32.6801   ZY=     3.6736
   XZ=    -0.1766   YZ=     4.6227   ZZ=    33.8043
   Eigenvalues:    27.7999    29.2411    37.4354
     31  C    Isotropic =   174.1270   Anisotropy =     8.0185
   XX=   174.8719   YX=    -4.0021   ZX=     1.6873
   XY=    -3.3612   YY=   175.1739   ZY=    -1.5262
   XZ=     1.4867   YZ=    -1.9048   ZZ=   172.3351
   Eigenvalues:   171.3311   171.5772   179.4726
     32  C    Isotropic =   200.1389   Anisotropy =     8.5609
   XX=   200.2228   YX=    -3.0811   ZX=     3.3507
   XY=    -5.3774   YY=   197.2795   ZY=     6.3221
   XZ=     4.5457   YZ=     1.4718   ZZ=   202.9144
   Eigenvalues:   191.6131   202.9575   205.8462
     33  H    Isotropic =    31.6592   Anisotropy =    10.8671
   XX=    34.0390   YX=    -4.9565   ZX=     1.3485
   XY=    -4.6225   YY=    33.8959   ZY=    -0.2832
   XZ=     1.5071   YZ=    -0.5662   ZZ=    27.0426
   Eigenvalues:    26.7015    29.3721    38.9039
     34  H    Isotropic =    31.4872   Anisotropy =     8.6772
   XX=    28.3242   YX=     0.1948   ZX=    -0.2863
   XY=     0.5057   YY=    29.1946   ZY=     2.0432
   XZ=    -0.5990   YZ=     1.1396   ZZ=    36.9429
   Eigenvalues:    28.0794    29.1102    37.2720
     35  H    Isotropic =    31.2853   Anisotropy =     8.4633
   XX=    34.0977   YX=     3.2384   ZX=    -1.4229
   XY=     3.2953   YY=    32.9744   ZY=    -0.1171
   XZ=    -1.0514   YZ=     0.3319   ZZ=    26.7837
   Eigenvalues:    26.5016    30.4268    36.9275
     36  C    Isotropic =   170.5490   Anisotropy =    37.9077
   XX=   158.6444   YX=     1.4380   ZX=     2.3325
   XY=     0.9650   YY=   158.8270   ZY=    -8.1591
   XZ=     7.1970   YZ=    -4.5149   ZZ=   194.1757
   Eigenvalues:   155.9187   159.9075   195.8209
     37  H    Isotropic =    30.5693   Anisotropy =     8.4240
   XX=    27.2639   YX=     1.1628   ZX=    -1.1517
   XY=     1.0592   YY=    29.9947   ZY=     2.4777
   XZ=    -1.1483   YZ=     4.0084   ZZ=    34.4494
   Eigenvalues:    26.1566    29.3661    36.1853
     38  H    Isotropic =    31.0012   Anisotropy =     9.7554
   XX=    30.9724   YX=     3.0847   ZX=    -2.7922
   XY=     3.3276   YY=    29.8799   ZY=    -3.0026
   XZ=    -3.6340   YZ=    -3.3999   ZZ=    32.1513
   Eigenvalues:    27.1019    28.3970    37.5048
     39  H    Isotropic =    30.2586   Anisotropy =     7.9680
   XX=    32.7752   YX=    -1.9157   ZX=     1.0910
   XY=    -2.1345   YY=    27.3196   ZY=    -3.3978
   XZ=     2.4986   YZ=    -4.0723   ZZ=    30.6810
   Eigenvalues:    24.8305    30.3746    35.5706
     40  C    Isotropic =   170.3647   Anisotropy =    39.3926
   XX=   184.6200   YX=   -19.2499   ZX=     7.1617
   XY=   -14.6853   YY=   168.2043   ZY=    -3.4745
   XZ=     5.8652   YZ=    -2.9933   ZZ=   158.2696
   Eigenvalues:   156.4526   158.0149   196.6264
     41  H    Isotropic =    30.7138   Anisotropy =     8.9780
   XX=    31.8525   YX=    -3.4812   ZX=    -1.6404
   XY=    -2.4570   YY=    33.7074   ZY=     3.0066
   XZ=    -0.7283   YZ=     2.3323   ZZ=    26.5814
   Eigenvalues:    25.6855    29.7568    36.6991
     42  H    Isotropic =    30.6722   Anisotropy =     9.2237
   XX=    32.1489   YX=    -1.6244   ZX=     3.7364
   XY=    -1.7702   YY=    27.2507   ZY=    -3.6435
   XZ=     2.4615   YZ=    -2.8783   ZZ=    32.6169
   Eigenvalues:    25.7020    29.4933    36.8213
     43  H    Isotropic =    30.9163   Anisotropy =    10.1082
   XX=    37.1534   YX=     2.3147   ZX=    -1.4485
   XY=     1.2100   YY=    28.4284   ZY=    -0.6368
   XZ=    -0.9085   YZ=    -0.7678   ZZ=    27.1671
   Eigenvalues:    26.8379    28.2559    37.6551
     44  C    Isotropic =   170.2300   Anisotropy =    37.8490
   XX=   158.0056   YX=     0.9681   ZX=    -1.2538
   XY=    -2.3958   YY=   183.7746   ZY=    19.4311
   XZ=    -4.2034   YZ=    15.5459   ZZ=   168.9097
   Eigenvalues:   155.7149   159.5124   195.4626
     45  H    Isotropic =    31.0018   Anisotropy =     9.6429
   XX=    31.4079   YX=     4.1768   ZX=    -0.6960
   XY=     5.0614   YY=    33.8836   ZY=     0.3226
   XZ=    -0.2436   YZ=     0.7906   ZZ=    27.7137
   Eigenvalues:    27.0719    28.5030    37.4304
     46  H    Isotropic =    30.5241   Anisotropy =     8.4065
   XX=    27.4304   YX=     1.7484   ZX=     0.5779
   XY=     1.8915   YY=    28.9502   ZY=     3.1778
   XZ=     0.6371   YZ=     1.4993   ZZ=    35.1916
   Eigenvalues:    26.1375    29.3064    36.1284
     47  H    Isotropic =    30.3544   Anisotropy =     8.7185
   XX=    33.1765   YX=    -2.7151   ZX=    -0.0009
   XY=    -3.4132   YY=    32.6940   ZY=     1.2709
   XZ=    -0.6495   YZ=     1.8783   ZZ=    25.1927
   Eigenvalues:    24.8641    30.0324    36.1667
 End of Minotr Frequency-dependent properties file   721 does not exist.
 End of Minotr Frequency-dependent properties file   722 does not exist.

 **********************************************************************

            Population analysis using the SCF density.

 **********************************************************************

 Orbital symmetries:
       Occupied  (A) (A) (A) (A) (A) (A) (A) (A) (A) (A) (A) (A)
                 (A) (A) (A) (A) (A) (A) (A) (A) (A) (A) (A) (A)
                 (A) (A) (A) (A) (A) (A) (A) (A) (A) (A) (A) (A)
                 (A) (A) (A) (A) (A) (A) (A) (A) (A) (A) (A) (A)
                 (A) (A) (A) (A) (A) (A) (A) (A) (A) (A) (A) (A)
                 (A) (A) (A) (A) (A) (A) (A) (A) (A) (A) (A) (A)
                 (A) (A) (A) (A) (A) (A) (A)
       Virtual   (A) (A) (A) (A) (A) (A) (A) (A) (A) (A) (A) (A)
                 (A) (A) (A) (A) (A) (A) (A) (A) (A) (A) (A) (A)
                 (A) (A) (A) (A) (A) (A) (A) (A) (A) (A) (A) (A)
                 (A) (A) (A) (A) (A) (A) (A) (A) (A) (A) (A) (A)
                 (A) (A) (A) (A) (A) (A) (A) (A) (A) (A) (A) (A)
                 (A) (A) (A) (A) (A) (A) (A) (A) (A) (A) (A) (A)
                 (A) (A) (A) (A) (A) (A) (A) (A) (A) (A) (A) (A)
                 (A) (A) (A) (A) (A) (A) (A) (A) (A) (A) (A) (A)
                 (A) (A) (A) (A) (A) (A) (A) (A) (A) (A) (A) (A)
                 (A) (A) (A) (A) (A) (A) (A) (A) (A) (A) (A) (A)
                 (A) (A) (A) (A) (A) (A) (A) (A) (A) (A) (A) (A)
                 (A) (A) (A) (A) (A) (A) (A) (A) (A) (A) (A) (A)
                 (A) (A) (A) (A) (A) (A) (A) (A) (A) (A) (A) (A)
                 (A) (A) (A) (A) (A) (A) (A) (A) (A) (A) (A) (A)
                 (A) (A) (A) (A) (A) (A) (A) (A) (A) (A) (A) (A)
                 (A) (A) (A) (A) (A) (A) (A) (A) (A) (A) (A) (A)
                 (A) (A) (A) (A) (A) (A) (A) (A) (A) (A) (A) (A)
                 (A) (A) (A) (A) (A) (A) (A) (A) (A) (A) (A) (A)
                 (A) (A) (A) (A) (A) (A) (A) (A) (A) (A) (A) (A)
                 (A) (A) (A) (A) (A) (A) (A) (A) (A) (A) (A) (A)
                 (A) (A) (A) (A) (A) (A) (A) (A) (A) (A) (A) (A)
                 (A) (A) (A) (A) (A) (A) (A) (A) (A) (A) (A) (A)
                 (A) (A) (A) (A) (A) (A) (A) (A) (A) (A) (A) (A)
                 (A) (A) (A) (A) (A) (A) (A) (A) (A) (A) (A) (A)
                 (A) (A) (A) (A) (A) (A) (A) (A) (A) (A) (A) (A)
                 (A) (A) (A) (A) (A) (A) (A) (A) (A) (A) (A) (A)
                 (A) (A) (A) (A) (A) (A) (A) (A) (A) (A) (A) (A)
                 (A) (A) (A) (A) (A) (A) (A) (A) (A) (A) (A) (A)
                 (A) (A) (A) (A) (A) (A) (A) (A) (A) (A) (A) (A)
                 (A) (A) (A) (A) (A) (A) (A) (A) (A) (A) (A) (A)
                 (A) (A) (A) (A) (A) (A) (A) (A) (A) (A) (A) (A)
                 (A) (A) (A) (A) (A) (A) (A) (A) (A) (A) (A) (A)
                 (A) (A) (A) (A) (A) (A) (A) (A) (A) (A) (A) (A)
                 (A) (A) (A) (A) (A) (A) (A) (A) (A) (A) (A) (A)
                 (A) (A) (A) (A) (A) (A) (A) (A) (A) (A) (A) (A)
                 (A) (A) (A) (A) (A) (A)
 The electronic state is 1-A.
 Alpha  occ. eigenvalues --  -66.30350 -19.26788 -19.25969 -19.25451 -19.23414
 Alpha  occ. eigenvalues --  -10.31473 -10.30942 -10.30458 -10.30381 -10.30301
 Alpha  occ. eigenvalues --  -10.28364 -10.25402 -10.24874 -10.24662 -10.23683
 Alpha  occ. eigenvalues --  -10.23433 -10.23343 -10.22433 -10.22351  -5.33766
 Alpha  occ. eigenvalues --   -3.67671  -3.67390  -3.67374  -1.11309  -1.07472
 Alpha  occ. eigenvalues --   -1.06150  -1.02990  -0.84548  -0.82293  -0.77948
 Alpha  occ. eigenvalues --   -0.74616  -0.72206  -0.70503  -0.70244  -0.69715
 Alpha  occ. eigenvalues --   -0.69546  -0.68812  -0.64842  -0.62431  -0.57524
 Alpha  occ. eigenvalues --   -0.57217  -0.54008  -0.53508  -0.52752  -0.50261
 Alpha  occ. eigenvalues --   -0.48444  -0.48248  -0.47989  -0.46233  -0.44978
 Alpha  occ. eigenvalues --   -0.44658  -0.44387  -0.44135  -0.42925  -0.42754
 Alpha  occ. eigenvalues --   -0.42642  -0.41446  -0.41039  -0.40263  -0.40238
 Alpha  occ. eigenvalues --   -0.39916  -0.39090  -0.38976  -0.38764  -0.37416
 Alpha  occ. eigenvalues --   -0.37115  -0.36247  -0.35859  -0.34377  -0.34167
 Alpha  occ. eigenvalues --   -0.33528  -0.33198  -0.32105  -0.31416  -0.30656
 Alpha  occ. eigenvalues --   -0.28719  -0.28523  -0.27568  -0.26355
 Alpha virt. eigenvalues --   -0.00250   0.01027   0.01211   0.01393   0.02123
 Alpha virt. eigenvalues --    0.02930   0.03151   0.03765   0.04056   0.04453
 Alpha virt. eigenvalues --    0.04587   0.05400   0.05557   0.06261   0.06348
 Alpha virt. eigenvalues --    0.06652   0.07314   0.07549   0.07955   0.08103
 Alpha virt. eigenvalues --    0.08383   0.08896   0.09021   0.09580   0.09658
 Alpha virt. eigenvalues --    0.09909   0.10250   0.10894   0.11126   0.11275
 Alpha virt. eigenvalues --    0.11382   0.12006   0.12211   0.12588   0.12859
 Alpha virt. eigenvalues --    0.13078   0.13596   0.13914   0.14236   0.14441
 Alpha virt. eigenvalues --    0.15045   0.15190   0.15360   0.15662   0.15993
 Alpha virt. eigenvalues --    0.16479   0.17108   0.17254   0.17685   0.17848
 Alpha virt. eigenvalues --    0.18283   0.18801   0.19487   0.19614   0.20053
 Alpha virt. eigenvalues --    0.20159   0.20222   0.20745   0.20963   0.21157
 Alpha virt. eigenvalues --    0.21349   0.22023   0.22317   0.22738   0.22851
 Alpha virt. eigenvalues --    0.22985   0.23578   0.23969   0.24037   0.24361
 Alpha virt. eigenvalues --    0.24898   0.25181   0.25597   0.25855   0.26254
 Alpha virt. eigenvalues --    0.26585   0.26661   0.27227   0.27379   0.27592
 Alpha virt. eigenvalues --    0.27946   0.28350   0.29027   0.29332   0.29716
 Alpha virt. eigenvalues --    0.29940   0.30709   0.30941   0.31124   0.31475
 Alpha virt. eigenvalues --    0.31848   0.31953   0.32141   0.33571   0.33711
 Alpha virt. eigenvalues --    0.33965   0.34003   0.34845   0.35415   0.36450
 Alpha virt. eigenvalues --    0.36646   0.36875   0.37479   0.37514   0.37839
 Alpha virt. eigenvalues --    0.38848   0.39670   0.39848   0.40091   0.40992
 Alpha virt. eigenvalues --    0.41643   0.41968   0.43252   0.44070   0.44813
 Alpha virt. eigenvalues --    0.45153   0.45789   0.46047   0.47351   0.48708
 Alpha virt. eigenvalues --    0.49096   0.49565   0.51588   0.52909   0.53776
 Alpha virt. eigenvalues --    0.54615   0.60503   0.61223   0.65080   0.66887
 Alpha virt. eigenvalues --    0.67323   0.67921   0.69092   0.69917   0.70354
 Alpha virt. eigenvalues --    0.71926   0.72614   0.72776   0.73732   0.74332
 Alpha virt. eigenvalues --    0.74394   0.77018   0.77580   0.78040   0.78450
 Alpha virt. eigenvalues --    0.79407   0.79665   0.80368   0.82029   0.82311
 Alpha virt. eigenvalues --    0.83101   0.83692   0.84694   0.85303   0.86049
 Alpha virt. eigenvalues --    0.86699   0.87101   0.87897   0.88658   0.89720
 Alpha virt. eigenvalues --    0.90264   0.91091   0.91486   0.92500   0.93225
 Alpha virt. eigenvalues --    0.95466   0.95969   0.96193   0.97088   0.98194
 Alpha virt. eigenvalues --    0.98808   0.98951   1.00430   1.01358   1.01995
 Alpha virt. eigenvalues --    1.02652   1.04357   1.04721   1.05421   1.05664
 Alpha virt. eigenvalues --    1.05875   1.06414   1.06888   1.07318   1.07566
 Alpha virt. eigenvalues --    1.08787   1.09101   1.10072   1.10571   1.11066
 Alpha virt. eigenvalues --    1.11599   1.12071   1.14041   1.15137   1.16048
 Alpha virt. eigenvalues --    1.16767   1.18767   1.19352   1.20865   1.21065
 Alpha virt. eigenvalues --    1.21803   1.22679   1.24195   1.25730   1.26413
 Alpha virt. eigenvalues --    1.28117   1.28849   1.30456   1.31250   1.31706
 Alpha virt. eigenvalues --    1.32862   1.34618   1.35321   1.36307   1.37406
 Alpha virt. eigenvalues --    1.40000   1.40527   1.41285   1.42912   1.43590
 Alpha virt. eigenvalues --    1.44257   1.46234   1.46957   1.47887   1.48673
 Alpha virt. eigenvalues --    1.49261   1.50580   1.51058   1.51322   1.54100
 Alpha virt. eigenvalues --    1.54885   1.56493   1.60259   1.61000   1.63912
 Alpha virt. eigenvalues --    1.64506   1.65895   1.66879   1.68240   1.69279
 Alpha virt. eigenvalues --    1.70214   1.71293   1.72572   1.74027   1.76552
 Alpha virt. eigenvalues --    1.77713   1.77926   1.79890   1.81287   1.81900
 Alpha virt. eigenvalues --    1.83900   1.84701   1.84982   1.85820   1.87084
 Alpha virt. eigenvalues --    1.88754   1.89340   1.90848   1.91128   1.93162
 Alpha virt. eigenvalues --    1.94026   1.94517   1.95037   1.96460   1.96614
 Alpha virt. eigenvalues --    1.97899   1.98666   1.99153   1.99246   2.00590
 Alpha virt. eigenvalues --    2.02573   2.03751   2.06081   2.06158   2.06662
 Alpha virt. eigenvalues --    2.07165   2.07348   2.08281   2.09008   2.09704
 Alpha virt. eigenvalues --    2.09928   2.11133   2.11554   2.12023   2.13031
 Alpha virt. eigenvalues --    2.13701   2.13897   2.14418   2.14824   2.15810
 Alpha virt. eigenvalues --    2.15990   2.16243   2.17601   2.17977   2.18231
 Alpha virt. eigenvalues --    2.19043   2.19784   2.20052   2.20979   2.21487
 Alpha virt. eigenvalues --    2.21782   2.23538   2.24839   2.25697   2.26946
 Alpha virt. eigenvalues --    2.28338   2.29098   2.29778   2.30626   2.34737
 Alpha virt. eigenvalues --    2.35327   2.36046   2.37809   2.37942   2.38947
 Alpha virt. eigenvalues --    2.39187   2.40099   2.41813   2.42820   2.44236
 Alpha virt. eigenvalues --    2.45341   2.45660   2.48504   2.49888   2.53727
 Alpha virt. eigenvalues --    2.55132   2.56355   2.57009   2.57416   2.59219
 Alpha virt. eigenvalues --    2.59681   2.61501   2.62590   2.64784   2.66067
 Alpha virt. eigenvalues --    2.67266   2.67560   2.68326   2.69225   2.70960
 Alpha virt. eigenvalues --    2.71403   2.72367   2.73483   2.73617   2.74160
 Alpha virt. eigenvalues --    2.76190   2.76562   2.77471   2.78047   2.78395
 Alpha virt. eigenvalues --    2.81185   2.81543   2.83344   2.84578   2.85171
 Alpha virt. eigenvalues --    2.85424   2.86631   2.86862   2.88122   2.88258
 Alpha virt. eigenvalues --    2.88577   2.89097   2.89505   2.90249   2.91180
 Alpha virt. eigenvalues --    2.91402   2.93277   2.94240   2.97509   2.98213
 Alpha virt. eigenvalues --    2.98919   2.99364   3.00882   3.03431   3.05181
 Alpha virt. eigenvalues --    3.11878   3.15058   3.17771   3.22103   3.27570
 Alpha virt. eigenvalues --    3.28012   3.28208   3.30492   3.31238   3.31875
 Alpha virt. eigenvalues --    3.32364   3.38146   3.39040   3.40361   3.47193
 Alpha virt. eigenvalues --    3.47571   3.48098   3.48305   3.48741   3.49607
 Alpha virt. eigenvalues --    3.50094   3.50449   3.50600   3.51407   3.51773
 Alpha virt. eigenvalues --    3.51986   3.52913   3.55149   3.55881   3.56401
 Alpha virt. eigenvalues --    3.57109   3.60583   3.63169   4.37723   4.41951
 Alpha virt. eigenvalues --    4.45908   4.48958   4.51416   4.54703   4.60001
 Alpha virt. eigenvalues --    4.60360   4.63999   4.64502   4.66042   4.67476
 Alpha virt. eigenvalues --    4.70695   4.73638   4.77047   4.86018   4.94439
 Alpha virt. eigenvalues --    5.04567
          Condensed to atoms (all electrons):
              1          2          3          4          5          6
     1  H    0.585930   0.233286  -0.016832   0.010413   0.022179   0.044935
     2  C    0.233286  12.709909   1.004088   0.302928  -0.414221  -4.189335
     3  C   -0.016832   1.004088   8.660715  -1.289727  -0.594206  -0.811920
     4  C    0.010413   0.302928  -1.289727  10.527740  -2.155083  -1.715839
     5  C    0.022179  -0.414221  -0.594206  -2.155083  12.896237  -0.469755
     6  C    0.044935  -4.189335  -0.811920  -1.715839  -0.469755  12.469194
     7  C   -0.028411  -1.505109  -0.128941   0.074424  -0.963552  -1.007427
     8  H   -0.000051   0.041345   0.391150   0.035575  -0.142012   0.000050
     9  H   -0.000135  -0.003865  -0.011700   0.176507   0.021634   0.070160
    10  H   -0.002291   0.097406  -0.015639   0.075695   0.034994   0.113240
    11  H   -0.004980  -0.007997   0.036073  -0.004006   0.028071   0.059416
    12  H    0.002636  -0.006926   0.420915  -0.019426   0.059940  -0.009510
    13  H    0.004796  -0.142209  -0.063740  -0.009144   0.056035  -0.004826
    14  C   -0.002415  -0.456912  -0.699861  -0.017436  -2.094612   0.760484
    15  H   -0.000001  -0.006549  -0.030375   0.073955  -0.172804   0.007564
    16  H   -0.000002  -0.001393   0.047331  -0.025303  -0.100510   0.006854
    17  O   -0.000516  -0.063927  -0.181058  -0.069369   0.111120   0.091600
    18  O   -0.004251   0.023792  -0.114776   0.043463   0.185344  -0.058016
    19  H    0.000056  -0.036339  -0.058885   0.148846  -0.108818   0.047033
    20  O    0.010500  -0.153662  -0.078239  -0.091040   0.129787   0.297994
    21  C    0.004722  -0.205702  -0.065483   0.106440  -0.070947  -0.018247
    22  H    0.000026   0.016962  -0.001943   0.015480  -0.009786  -0.035564
    23  H    0.000008  -0.003762   0.001513  -0.002523  -0.003885   0.015980
    24  H   -0.000163   0.007301   0.001386  -0.008948   0.006957  -0.006505
    25  O   -0.072926   0.127614  -0.011191   0.043293  -0.000080  -0.010420
    26  Si   0.071597  -0.795230  -0.101425  -0.230270   0.062091   0.351354
    27  C   -0.008670   0.059949   0.000786   0.034022  -0.006300  -0.044107
    28  H   -0.000029   0.007930  -0.000035   0.000074  -0.000033  -0.000678
    29  H    0.001174  -0.014273  -0.000726   0.001018   0.000973  -0.001807
    30  H   -0.000043  -0.012794  -0.000366  -0.000999   0.000201   0.011110
    31  C    0.006215  -0.199770  -0.014498   0.001137   0.007269   0.038184
    32  C   -0.016160   0.106945   0.037001   0.016324  -0.024924  -0.045837
    33  H   -0.000009   0.006282   0.000657   0.000089  -0.000106  -0.001208
    34  H    0.000006  -0.029073  -0.000278   0.000050  -0.000572  -0.001340
    35  H    0.000462  -0.021061   0.003827  -0.000336   0.000392   0.004524
    36  C    0.000415  -0.058824   0.027516   0.010637  -0.007349   0.024274
    37  H   -0.000001   0.000217  -0.000014  -0.000001   0.000070  -0.000715
    38  H    0.000000  -0.000608   0.000022  -0.000003   0.000003   0.000670
    39  H    0.000001   0.000379   0.000281   0.000307  -0.000060   0.001171
    40  C    0.000203  -0.032153   0.002794  -0.001718   0.001707   0.018109
    41  H    0.000000   0.000406   0.000023  -0.000003   0.000001  -0.000108
    42  H    0.000000   0.000151  -0.000004   0.000009  -0.000003   0.000104
    43  H    0.000000  -0.001196   0.000003   0.000001   0.000001   0.000121
    44  C   -0.001557   0.102685  -0.005545   0.007636   0.002151  -0.042212
    45  H    0.000000  -0.000501   0.000007   0.000028  -0.000002  -0.000322
    46  H    0.000000  -0.002624   0.000011   0.000152   0.000005   0.002030
    47  H    0.000001   0.007355   0.000101  -0.000286  -0.000008  -0.002832
              7          8          9         10         11         12
     1  H   -0.028411  -0.000051  -0.000135  -0.002291  -0.004980   0.002636
     2  C   -1.505109   0.041345  -0.003865   0.097406  -0.007997  -0.006926
     3  C   -0.128941   0.391150  -0.011700  -0.015639   0.036073   0.420915
     4  C    0.074424   0.035575   0.176507   0.075695  -0.004006  -0.019426
     5  C   -0.963552  -0.142012   0.021634   0.034994   0.028071   0.059940
     6  C   -1.007427   0.000050   0.070160   0.113240   0.059416  -0.009510
     7  C    8.433527  -0.029163  -0.010710   0.011484   0.242350  -0.074625
     8  H   -0.029163   0.529166  -0.000088   0.000012  -0.002541  -0.026598
     9  H   -0.010710  -0.000088   0.577134  -0.006719   0.000011  -0.000198
    10  H    0.011484   0.000012  -0.006719   0.580794  -0.000140  -0.000035
    11  H    0.242350  -0.002541   0.000011  -0.000140   0.538132  -0.004164
    12  H   -0.074625  -0.026598  -0.000198  -0.000035  -0.004164   0.514198
    13  H    0.469022  -0.003726  -0.000092  -0.000003  -0.026461   0.004131
    14  C    0.324596   0.027205   0.069962  -0.005379  -0.007044  -0.034729
    15  H    0.008503   0.000174   0.002071  -0.000013   0.000000  -0.000133
    16  H    0.018949   0.001337   0.000146   0.000000  -0.000007   0.000035
    17  O    0.091801   0.007647   0.002578  -0.000554  -0.000411  -0.014326
    18  O   -0.023812  -0.000309  -0.040861  -0.000315   0.000475   0.002111
    19  H    0.004674  -0.000019  -0.005851   0.000039  -0.000006   0.000392
    20  O   -0.013684   0.001129  -0.004855  -0.041686  -0.001050   0.000155
    21  C    0.018938   0.000109   0.000513   0.000626  -0.001243   0.000354
    22  H   -0.009679   0.000000  -0.000023   0.009956   0.000000   0.000000
    23  H   -0.002639   0.000000  -0.000028   0.000083  -0.000001   0.000000
    24  H    0.019830   0.000000   0.000003  -0.001616  -0.000006   0.000000
    25  O   -0.058451  -0.000765  -0.000540  -0.002252  -0.000262  -0.000327
    26  Si   0.161076  -0.001637   0.003660   0.003668  -0.019320  -0.001982
    27  C   -0.029235   0.000043  -0.000413   0.002522   0.000510   0.000210
    28  H   -0.001790   0.000000   0.000000   0.000005   0.000000   0.000000
    29  H    0.005886   0.000000   0.000000   0.000093   0.000002  -0.000001
    30  H   -0.001514   0.000000   0.000000  -0.000058   0.000000   0.000000
    31  C    0.088254  -0.000034  -0.000012  -0.002840  -0.003074  -0.000050
    32  C   -0.047827   0.000305  -0.000052   0.000198   0.005305  -0.000597
    33  H   -0.000471   0.000000   0.000000   0.000000   0.000038   0.000000
    34  H    0.020259   0.000000   0.000000   0.000000  -0.000098   0.000000
    35  H    0.006288  -0.000001   0.000000   0.000000  -0.000087  -0.000012
    36  C    0.009452   0.000005   0.000011  -0.000367   0.001874   0.000023
    37  H   -0.000305   0.000000   0.000000   0.000000   0.000001   0.000000
    38  H   -0.000108   0.000000   0.000000   0.000000   0.000000   0.000000
    39  H    0.000293   0.000000   0.000000   0.000000  -0.000007   0.000000
    40  C   -0.004072  -0.000001   0.000004  -0.000321   0.000303  -0.000001
    41  H   -0.000100   0.000000   0.000000   0.000000   0.000000   0.000000
    42  H   -0.000122   0.000000   0.000000   0.000000   0.000000   0.000000
    43  H    0.000212   0.000000   0.000000   0.000000   0.000000   0.000000
    44  C   -0.033423   0.000012   0.000005   0.001013   0.000424   0.000023
    45  H    0.000375   0.000000   0.000000   0.000000   0.000000   0.000000
    46  H    0.000116   0.000000   0.000000  -0.000003   0.000000   0.000000
    47  H   -0.001532   0.000000   0.000000   0.000003   0.000000   0.000000
             13         14         15         16         17         18
     1  H    0.004796  -0.002415  -0.000001  -0.000002  -0.000516  -0.004251
     2  C   -0.142209  -0.456912  -0.006549  -0.001393  -0.063927   0.023792
     3  C   -0.063740  -0.699861  -0.030375   0.047331  -0.181058  -0.114776
     4  C   -0.009144  -0.017436   0.073955  -0.025303  -0.069369   0.043463
     5  C    0.056035  -2.094612  -0.172804  -0.100510   0.111120   0.185344
     6  C   -0.004826   0.760484   0.007564   0.006854   0.091600  -0.058016
     7  C    0.469022   0.324596   0.008503   0.018949   0.091801  -0.023812
     8  H   -0.003726   0.027205   0.000174   0.001337   0.007647  -0.000309
     9  H   -0.000092   0.069962   0.002071   0.000146   0.002578  -0.040861
    10  H   -0.000003  -0.005379  -0.000013   0.000000  -0.000554  -0.000315
    11  H   -0.026461  -0.007044   0.000000  -0.000007  -0.000411   0.000475
    12  H    0.004131  -0.034729  -0.000133   0.000035  -0.014326   0.002111
    13  H    0.510828  -0.002923  -0.000062  -0.000068  -0.001086   0.000238
    14  C   -0.002923   7.057379   0.470015   0.422944   0.126026   0.024442
    15  H   -0.000062   0.470015   0.529397  -0.033682  -0.026700   0.000854
    16  H   -0.000068   0.422944  -0.033682   0.523123  -0.031173  -0.000570
    17  O   -0.001086   0.126026  -0.026700  -0.031173   8.325617  -0.025793
    18  O    0.000238   0.024442   0.000854  -0.000570  -0.025793   8.265553
    19  H    0.000003   0.024455  -0.000016   0.000010   0.015334   0.202123
    20  O    0.008509  -0.001316   0.003217  -0.000676  -0.001785   0.017927
    21  C    0.007943   0.016235   0.001687   0.000050   0.000456   0.000382
    22  H   -0.000009  -0.000502   0.000001   0.000000   0.000007  -0.000295
    23  H    0.000024  -0.000912   0.000003  -0.000001   0.000003   0.000039
    24  H   -0.000028   0.002024   0.000000   0.000000   0.000001   0.000124
    25  O    0.002940   0.008581   0.000036  -0.000010   0.000401  -0.001516
    26  Si   0.005168   0.026585   0.000055   0.000422   0.001491   0.005130
    27  C   -0.000365  -0.002033  -0.000005  -0.000004  -0.000125  -0.002108
    28  H    0.000000   0.000000   0.000000   0.000000   0.000000   0.000003
    29  H    0.000000   0.000051   0.000000   0.000000   0.000000   0.000341
    30  H    0.000000   0.000002   0.000000   0.000000   0.000000   0.000012
    31  C    0.000810   0.001449   0.000004  -0.000003   0.000008  -0.000133
    32  C   -0.002512  -0.002909   0.000000  -0.000010  -0.000047  -0.001279
    33  H    0.000000  -0.000004   0.000000   0.000000   0.000000   0.000002
    34  H   -0.000001   0.000008   0.000000   0.000000   0.000000  -0.000003
    35  H    0.000009   0.000021   0.000000   0.000000   0.000000  -0.000097
    36  C    0.000093  -0.001154   0.000000  -0.000002  -0.000010  -0.000013
    37  H   -0.000003   0.000000   0.000000   0.000000   0.000000   0.000000
    38  H    0.000000  -0.000001   0.000000   0.000000   0.000000   0.000000
    39  H    0.000019   0.000031   0.000000   0.000000   0.000000   0.000000
    40  C   -0.000009   0.000109   0.000000   0.000000  -0.000002   0.000055
    41  H    0.000000   0.000000   0.000000   0.000000   0.000000   0.000000
    42  H    0.000000   0.000000   0.000000   0.000000   0.000000   0.000000
    43  H    0.000000   0.000000   0.000000   0.000000   0.000000   0.000000
    44  C    0.000157  -0.000136  -0.000001  -0.000001  -0.000023   0.000242
    45  H    0.000000   0.000000   0.000000   0.000000   0.000000   0.000000
    46  H    0.000000  -0.000001   0.000000   0.000000   0.000000   0.000000
    47  H    0.000000   0.000001   0.000000   0.000000   0.000000   0.000001
             19         20         21         22         23         24
     1  H    0.000056   0.010500   0.004722   0.000026   0.000008  -0.000163
     2  C   -0.036339  -0.153662  -0.205702   0.016962  -0.003762   0.007301
     3  C   -0.058885  -0.078239  -0.065483  -0.001943   0.001513   0.001386
     4  C    0.148846  -0.091040   0.106440   0.015480  -0.002523  -0.008948
     5  C   -0.108818   0.129787  -0.070947  -0.009786  -0.003885   0.006957
     6  C    0.047033   0.297994  -0.018247  -0.035564   0.015980  -0.006505
     7  C    0.004674  -0.013684   0.018938  -0.009679  -0.002639   0.019830
     8  H   -0.000019   0.001129   0.000109   0.000000   0.000000   0.000000
     9  H   -0.005851  -0.004855   0.000513  -0.000023  -0.000028   0.000003
    10  H    0.000039  -0.041686   0.000626   0.009956   0.000083  -0.001616
    11  H   -0.000006  -0.001050  -0.001243   0.000000  -0.000001  -0.000006
    12  H    0.000392   0.000155   0.000354   0.000000   0.000000   0.000000
    13  H    0.000003   0.008509   0.007943  -0.000009   0.000024  -0.000028
    14  C    0.024455  -0.001316   0.016235  -0.000502  -0.000912   0.002024
    15  H   -0.000016   0.003217   0.001687   0.000001   0.000003   0.000000
    16  H    0.000010  -0.000676   0.000050   0.000000  -0.000001   0.000000
    17  O    0.015334  -0.001785   0.000456   0.000007   0.000003   0.000001
    18  O    0.202123   0.017927   0.000382  -0.000295   0.000039   0.000124
    19  H    0.388386  -0.000593  -0.000371   0.000001   0.000000   0.000000
    20  O   -0.000593   8.299337   0.016139  -0.048450  -0.076979  -0.053069
    21  C   -0.000371   0.016139   5.105425   0.412605   0.434450   0.402379
    22  H    0.000001  -0.048450   0.412605   0.572345  -0.026604  -0.042848
    23  H    0.000000  -0.076979   0.434450  -0.026604   0.536101  -0.031913
    24  H    0.000000  -0.053069   0.402379  -0.042848  -0.031913   0.555662
    25  O    0.000186   0.023818  -0.013847   0.000537   0.002091  -0.015300
    26  Si  -0.001166  -0.005811   0.016319   0.009853  -0.003135  -0.006574
    27  C    0.000232   0.001032  -0.002589  -0.000483   0.000206  -0.000757
    28  H    0.000000   0.000001  -0.000001   0.000000   0.000000   0.000000
    29  H    0.000002   0.000008   0.000334   0.000000   0.000000   0.000000
    30  H    0.000000   0.000026   0.000378  -0.000008   0.000000   0.000004
    31  C    0.000009   0.003468   0.009017  -0.003301   0.000934   0.000580
    32  C   -0.000086  -0.002946  -0.002147  -0.000148  -0.000011   0.000935
    33  H    0.000000   0.000004   0.000000   0.000000   0.000000   0.000000
    34  H    0.000000  -0.000013  -0.000091   0.000000   0.000000   0.000000
    35  H    0.000000  -0.000015   0.000067   0.000000   0.000000   0.000000
    36  C   -0.000001  -0.001150  -0.004988  -0.000263   0.000015   0.003310
    37  H    0.000000  -0.000004  -0.000025   0.000000   0.000000   0.000001
    38  H    0.000000  -0.000002   0.000107   0.000000   0.000000   0.000001
    39  H    0.000000  -0.000023  -0.000902  -0.000002  -0.000002   0.000609
    40  C    0.000000  -0.000588  -0.001038  -0.000217   0.000041   0.000622
    41  H    0.000000   0.000000  -0.000004   0.000000   0.000000   0.000000
    42  H    0.000000   0.000000   0.000009   0.000000   0.000000   0.000000
    43  H    0.000000   0.000000   0.000008   0.000000   0.000000   0.000000
    44  C    0.000003  -0.000485  -0.002874   0.000891  -0.000173  -0.002647
    45  H    0.000000  -0.000011   0.000257   0.000001   0.000000  -0.000003
    46  H    0.000000  -0.000024   0.000318  -0.000009   0.000000   0.000003
    47  H    0.000000   0.000047  -0.003036   0.000129  -0.000012   0.001773
             25         26         27         28         29         30
     1  H   -0.072926   0.071597  -0.008670  -0.000029   0.001174  -0.000043
     2  C    0.127614  -0.795230   0.059949   0.007930  -0.014273  -0.012794
     3  C   -0.011191  -0.101425   0.000786  -0.000035  -0.000726  -0.000366
     4  C    0.043293  -0.230270   0.034022   0.000074   0.001018  -0.000999
     5  C   -0.000080   0.062091  -0.006300  -0.000033   0.000973   0.000201
     6  C   -0.010420   0.351354  -0.044107  -0.000678  -0.001807   0.011110
     7  C   -0.058451   0.161076  -0.029235  -0.001790   0.005886  -0.001514
     8  H   -0.000765  -0.001637   0.000043   0.000000   0.000000   0.000000
     9  H   -0.000540   0.003660  -0.000413   0.000000   0.000000   0.000000
    10  H   -0.002252   0.003668   0.002522   0.000005   0.000093  -0.000058
    11  H   -0.000262  -0.019320   0.000510   0.000000   0.000002   0.000000
    12  H   -0.000327  -0.001982   0.000210   0.000000  -0.000001   0.000000
    13  H    0.002940   0.005168  -0.000365   0.000000   0.000000   0.000000
    14  C    0.008581   0.026585  -0.002033   0.000000   0.000051   0.000002
    15  H    0.000036   0.000055  -0.000005   0.000000   0.000000   0.000000
    16  H   -0.000010   0.000422  -0.000004   0.000000   0.000000   0.000000
    17  O    0.000401   0.001491  -0.000125   0.000000   0.000000   0.000000
    18  O   -0.001516   0.005130  -0.002108   0.000003   0.000341   0.000012
    19  H    0.000186  -0.001166   0.000232   0.000000   0.000002   0.000000
    20  O    0.023818  -0.005811   0.001032   0.000001   0.000008   0.000026
    21  C   -0.013847   0.016319  -0.002589  -0.000001   0.000334   0.000378
    22  H    0.000537   0.009853  -0.000483   0.000000   0.000000  -0.000008
    23  H    0.002091  -0.003135   0.000206   0.000000   0.000000   0.000000
    24  H   -0.015300  -0.006574  -0.000757   0.000000   0.000000   0.000004
    25  O    8.405765  -0.031149  -0.049405   0.008579  -0.007377  -0.003845
    26  Si  -0.031149  13.333256   0.227098  -0.035427  -0.012370  -0.025702
    27  C   -0.049405   0.227098   5.420989   0.407813   0.384116   0.402765
    28  H    0.008579  -0.035427   0.407813   0.488571  -0.021907  -0.022214
    29  H   -0.007377  -0.012370   0.384116  -0.021907   0.494034  -0.022579
    30  H   -0.003845  -0.025702   0.402765  -0.022214  -0.022579   0.492083
    31  C   -0.117575   0.558320  -0.144241  -0.031803   0.019850  -0.021912
    32  C   -0.042331   0.180036  -0.003360  -0.007556  -0.012181   0.007957
    33  H    0.008931  -0.041087  -0.005156   0.000101   0.000130   0.000025
    34  H   -0.002975  -0.016378   0.006913   0.000026  -0.000001  -0.000017
    35  H   -0.005223  -0.023154  -0.010922   0.000119   0.000395  -0.000002
    36  C    0.045450  -0.171241   0.002901  -0.001403  -0.000744  -0.002637
    37  H   -0.003095   0.009535   0.000015   0.000001  -0.000001   0.000000
    38  H   -0.000372   0.014382  -0.001509   0.000000   0.000000   0.000000
    39  H    0.006917  -0.025871  -0.000022   0.000000  -0.000001   0.000002
    40  C    0.019341  -0.127076   0.026316   0.009100  -0.000930   0.003293
    41  H    0.000351  -0.013876  -0.000350   0.000014  -0.000005   0.000010
    42  H    0.000659  -0.010083   0.003818   0.000222  -0.000005   0.000021
    43  H   -0.000567   0.016176   0.000349   0.000011   0.000000  -0.000005
    44  C    0.029499  -0.163027   0.005549   0.012386  -0.000093   0.011304
    45  H   -0.000770   0.013591   0.000577  -0.000001   0.000000  -0.000007
    46  H   -0.002168  -0.001372   0.001099   0.000052   0.000007   0.000231
    47  H    0.007865  -0.014423   0.000393   0.000011  -0.000006   0.000030
             31         32         33         34         35         36
     1  H    0.006215  -0.016160  -0.000009   0.000006   0.000462   0.000415
     2  C   -0.199770   0.106945   0.006282  -0.029073  -0.021061  -0.058824
     3  C   -0.014498   0.037001   0.000657  -0.000278   0.003827   0.027516
     4  C    0.001137   0.016324   0.000089   0.000050  -0.000336   0.010637
     5  C    0.007269  -0.024924  -0.000106  -0.000572   0.000392  -0.007349
     6  C    0.038184  -0.045837  -0.001208  -0.001340   0.004524   0.024274
     7  C    0.088254  -0.047827  -0.000471   0.020259   0.006288   0.009452
     8  H   -0.000034   0.000305   0.000000   0.000000  -0.000001   0.000005
     9  H   -0.000012  -0.000052   0.000000   0.000000   0.000000   0.000011
    10  H   -0.002840   0.000198   0.000000   0.000000   0.000000  -0.000367
    11  H   -0.003074   0.005305   0.000038  -0.000098  -0.000087   0.001874
    12  H   -0.000050  -0.000597   0.000000   0.000000  -0.000012   0.000023
    13  H    0.000810  -0.002512   0.000000  -0.000001   0.000009   0.000093
    14  C    0.001449  -0.002909  -0.000004   0.000008   0.000021  -0.001154
    15  H    0.000004   0.000000   0.000000   0.000000   0.000000   0.000000
    16  H   -0.000003  -0.000010   0.000000   0.000000   0.000000  -0.000002
    17  O    0.000008  -0.000047   0.000000   0.000000   0.000000  -0.000010
    18  O   -0.000133  -0.001279   0.000002  -0.000003  -0.000097  -0.000013
    19  H    0.000009  -0.000086   0.000000   0.000000   0.000000  -0.000001
    20  O    0.003468  -0.002946   0.000004  -0.000013  -0.000015  -0.001150
    21  C    0.009017  -0.002147   0.000000  -0.000091   0.000067  -0.004988
    22  H   -0.003301  -0.000148   0.000000   0.000000   0.000000  -0.000263
    23  H    0.000934  -0.000011   0.000000   0.000000   0.000000   0.000015
    24  H    0.000580   0.000935   0.000000   0.000000   0.000000   0.003310
    25  O   -0.117575  -0.042331   0.008931  -0.002975  -0.005223   0.045450
    26  Si   0.558320   0.180036  -0.041087  -0.016378  -0.023154  -0.171241
    27  C   -0.144241  -0.003360  -0.005156   0.006913  -0.010922   0.002901
    28  H   -0.031803  -0.007556   0.000101   0.000026   0.000119  -0.001403
    29  H    0.019850  -0.012181   0.000130  -0.000001   0.000395  -0.000744
    30  H   -0.021912   0.007957   0.000025  -0.000017  -0.000002  -0.002637
    31  C    8.239198  -0.167042  -0.030786  -0.019119   0.019926  -0.447589
    32  C   -0.167042   5.466656   0.408257   0.399998   0.388647   0.015134
    33  H   -0.030786   0.408257   0.487517  -0.021639  -0.021629   0.009130
    34  H   -0.019119   0.399998  -0.021639   0.490443  -0.022754   0.011177
    35  H    0.019926   0.388647  -0.021629  -0.022754   0.497273   0.000952
    36  C   -0.447589   0.015134   0.009130   0.011177   0.000952   6.041584
    37  H   -0.067162  -0.000888   0.000059   0.000240  -0.000005   0.415931
    38  H   -0.164358   0.000385  -0.000001  -0.000009   0.000000   0.472410
    39  H   -0.093491   0.002612   0.000004   0.000038  -0.000006   0.463702
    40  C   -0.448591   0.030448   0.011607   0.001712  -0.002215   0.021991
    41  H   -0.082196   0.004665   0.000083   0.000012   0.000005  -0.016280
    42  H   -0.081096  -0.001015   0.000025   0.000019  -0.000006   0.006545
    43  H   -0.154176   0.000398   0.000016  -0.000006   0.000000   0.012451
    44  C   -0.377826  -0.000517   0.000425  -0.003756  -0.001343  -0.306583
    45  H   -0.159794  -0.001501   0.000000   0.000000   0.000000   0.011511
    46  H   -0.057295   0.000071   0.000001   0.000000  -0.000001   0.002019
    47  H   -0.108251  -0.000309   0.000000   0.000001  -0.000001  -0.003530
             37         38         39         40         41         42
     1  H   -0.000001   0.000000   0.000001   0.000203   0.000000   0.000000
     2  C    0.000217  -0.000608   0.000379  -0.032153   0.000406   0.000151
     3  C   -0.000014   0.000022   0.000281   0.002794   0.000023  -0.000004
     4  C   -0.000001  -0.000003   0.000307  -0.001718  -0.000003   0.000009
     5  C    0.000070   0.000003  -0.000060   0.001707   0.000001  -0.000003
     6  C   -0.000715   0.000670   0.001171   0.018109  -0.000108   0.000104
     7  C   -0.000305  -0.000108   0.000293  -0.004072  -0.000100  -0.000122
     8  H    0.000000   0.000000   0.000000  -0.000001   0.000000   0.000000
     9  H    0.000000   0.000000   0.000000   0.000004   0.000000   0.000000
    10  H    0.000000   0.000000   0.000000  -0.000321   0.000000   0.000000
    11  H    0.000001   0.000000  -0.000007   0.000303   0.000000   0.000000
    12  H    0.000000   0.000000   0.000000  -0.000001   0.000000   0.000000
    13  H   -0.000003   0.000000   0.000019  -0.000009   0.000000   0.000000
    14  C    0.000000  -0.000001   0.000031   0.000109   0.000000   0.000000
    15  H    0.000000   0.000000   0.000000   0.000000   0.000000   0.000000
    16  H    0.000000   0.000000   0.000000   0.000000   0.000000   0.000000
    17  O    0.000000   0.000000   0.000000  -0.000002   0.000000   0.000000
    18  O    0.000000   0.000000   0.000000   0.000055   0.000000   0.000000
    19  H    0.000000   0.000000   0.000000   0.000000   0.000000   0.000000
    20  O   -0.000004  -0.000002  -0.000023  -0.000588   0.000000   0.000000
    21  C   -0.000025   0.000107  -0.000902  -0.001038  -0.000004   0.000009
    22  H    0.000000   0.000000  -0.000002  -0.000217   0.000000   0.000000
    23  H    0.000000   0.000000  -0.000002   0.000041   0.000000   0.000000
    24  H    0.000001   0.000001   0.000609   0.000622   0.000000   0.000000
    25  O   -0.003095  -0.000372   0.006917   0.019341   0.000351   0.000659
    26  Si   0.009535   0.014382  -0.025871  -0.127076  -0.013876  -0.010083
    27  C    0.000015  -0.001509  -0.000022   0.026316  -0.000350   0.003818
    28  H    0.000001   0.000000   0.000000   0.009100   0.000014   0.000222
    29  H   -0.000001   0.000000  -0.000001  -0.000930  -0.000005  -0.000005
    30  H    0.000000   0.000000   0.000002   0.003293   0.000010   0.000021
    31  C   -0.067162  -0.164358  -0.093491  -0.448591  -0.082196  -0.081096
    32  C   -0.000888   0.000385   0.002612   0.030448   0.004665  -0.001015
    33  H    0.000059  -0.000001   0.000004   0.011607   0.000083   0.000025
    34  H    0.000240  -0.000009   0.000038   0.001712   0.000012   0.000019
    35  H   -0.000005   0.000000  -0.000006  -0.002215   0.000005  -0.000006
    36  C    0.415931   0.472410   0.463702   0.021991  -0.016280   0.006545
    37  H    0.534970  -0.028135  -0.025646  -0.004156   0.002797   0.000031
    38  H   -0.028135   0.543104  -0.027075   0.009518  -0.000309  -0.000005
    39  H   -0.025646  -0.027075   0.519152   0.001576   0.000048  -0.000146
    40  C   -0.004156   0.009518   0.001576   5.642113   0.453447   0.447317
    41  H    0.002797  -0.000309   0.000048   0.453447   0.530234  -0.027177
    42  H    0.000031  -0.000005  -0.000146   0.447317  -0.027177   0.532110
    43  H   -0.000334   0.005313   0.000017   0.457165  -0.027450  -0.027542
    44  C    0.002065   0.008791  -0.004919   0.013720   0.006197  -0.014696
    45  H    0.000031   0.005487  -0.000298   0.009875   0.000004  -0.000330
    46  H   -0.000152   0.000040   0.000016  -0.007415   0.000024   0.002746
    47  H    0.000032  -0.000325   0.002938   0.001241  -0.000146   0.000040
             43         44         45         46         47
     1  H    0.000000  -0.001557   0.000000   0.000000   0.000001
     2  C   -0.001196   0.102685  -0.000501  -0.002624   0.007355
     3  C    0.000003  -0.005545   0.000007   0.000011   0.000101
     4  C    0.000001   0.007636   0.000028   0.000152  -0.000286
     5  C    0.000001   0.002151  -0.000002   0.000005  -0.000008
     6  C    0.000121  -0.042212  -0.000322   0.002030  -0.002832
     7  C    0.000212  -0.033423   0.000375   0.000116  -0.001532
     8  H    0.000000   0.000012   0.000000   0.000000   0.000000
     9  H    0.000000   0.000005   0.000000   0.000000   0.000000
    10  H    0.000000   0.001013   0.000000  -0.000003   0.000003
    11  H    0.000000   0.000424   0.000000   0.000000   0.000000
    12  H    0.000000   0.000023   0.000000   0.000000   0.000000
    13  H    0.000000   0.000157   0.000000   0.000000   0.000000
    14  C    0.000000  -0.000136   0.000000  -0.000001   0.000001
    15  H    0.000000  -0.000001   0.000000   0.000000   0.000000
    16  H    0.000000  -0.000001   0.000000   0.000000   0.000000
    17  O    0.000000  -0.000023   0.000000   0.000000   0.000000
    18  O    0.000000   0.000242   0.000000   0.000000   0.000001
    19  H    0.000000   0.000003   0.000000   0.000000   0.000000
    20  O    0.000000  -0.000485  -0.000011  -0.000024   0.000047
    21  C    0.000008  -0.002874   0.000257   0.000318  -0.003036
    22  H    0.000000   0.000891   0.000001  -0.000009   0.000129
    23  H    0.000000  -0.000173   0.000000   0.000000  -0.000012
    24  H    0.000000  -0.002647  -0.000003   0.000003   0.001773
    25  O   -0.000567   0.029499  -0.000770  -0.002168   0.007865
    26  Si   0.016176  -0.163027   0.013591  -0.001372  -0.014423
    27  C    0.000349   0.005549   0.000577   0.001099   0.000393
    28  H    0.000011   0.012386  -0.000001   0.000052   0.000011
    29  H    0.000000  -0.000093   0.000000   0.000007  -0.000006
    30  H   -0.000005   0.011304  -0.000007   0.000231   0.000030
    31  C   -0.154176  -0.377826  -0.159794  -0.057295  -0.108251
    32  C    0.000398  -0.000517  -0.001501   0.000071  -0.000309
    33  H    0.000016   0.000425   0.000000   0.000001   0.000000
    34  H   -0.000006  -0.003756   0.000000   0.000000   0.000001
    35  H    0.000000  -0.001343   0.000000  -0.000001  -0.000001
    36  C    0.012451  -0.306583   0.011511   0.002019  -0.003530
    37  H   -0.000334   0.002065   0.000031  -0.000152   0.000032
    38  H    0.005313   0.008791   0.005487   0.000040  -0.000325
    39  H    0.000017  -0.004919  -0.000298   0.000016   0.002938
    40  C    0.457165   0.013720   0.009875  -0.007415   0.001241
    41  H   -0.027450   0.006197   0.000004   0.000024  -0.000146
    42  H   -0.027542  -0.014696  -0.000330   0.002746   0.000040
    43  H    0.538104   0.009211   0.005458  -0.000330   0.000025
    44  C    0.009211   5.966787   0.466352   0.417293   0.467842
    45  H    0.005458   0.466352   0.541682  -0.028003  -0.027328
    46  H   -0.000330   0.417293  -0.028003   0.534071  -0.026393
    47  H    0.000025   0.467842  -0.027328  -0.026393   0.528550
 Mulliken atomic charges:
              1
     1  H    0.159881
     2  C   -0.490918
     3  C   -0.338794
     4  C   -0.064785
     5  C   -0.287538
     6  C    0.042375
     7  C   -0.033610
     8  H    0.171679
     9  H    0.161742
    10  H    0.148400
    11  H    0.169920
    12  H    0.188518
    13  H    0.186540
    14  C   -0.032324
    15  H    0.172806
    16  H    0.172215
    17  O   -0.357187
    18  O   -0.498505
    19  H    0.380366
    20  O   -0.234943
    21  C   -0.162737
    22  H    0.141339
    23  H    0.161088
    24  H    0.166872
    25  O   -0.288114
    26  Si   0.807923
    27  C   -0.678065
    28  H    0.187861
    29  H    0.186592
    30  H    0.185248
    31  C    0.003385
    32  C   -0.688082
    33  H    0.188710
    34  H    0.187221
    35  H    0.185964
    36  C   -0.586386
    37  H    0.164643
    38  H    0.162586
    39  H    0.178358
    40  C   -0.553225
    41  H    0.169685
    42  H    0.168400
    43  H    0.166562
    44  C   -0.570828
    45  H    0.163635
    46  H    0.165485
    47  H    0.170038
 Sum of Mulliken atomic charges =   0.00000
 Mulliken charges with hydrogens summed into heavy atoms:
              1
     2  C   -0.331036
     3  C    0.021404
     4  C    0.096957
     5  C   -0.287538
     6  C    0.190775
     7  C    0.322851
    14  C    0.312697
    17  O   -0.357187
    18  O   -0.118139
    20  O   -0.234943
    21  C    0.306563
    25  O   -0.288114
    26  Si   0.807923
    27  C   -0.118364
    31  C    0.003385
    32  C   -0.126187
    36  C   -0.080799
    40  C   -0.048577
    44  C   -0.071671
 Sum of Mulliken charges with hydrogens summed into heavy atoms =   0.00000
 Electronic spatial extent (au):  <R**2>=           6788.0846
 Charge=              0.0000 electrons
 Dipole moment (field-independent basis, Debye):
    X=              1.5392    Y=              0.5036    Z=             -0.5660  Tot=              1.7156
 Quadrupole moment (field-independent basis, Debye-Ang):
   XX=           -130.8377   YY=           -122.4486   ZZ=           -125.3194
   XY=             -5.9278   XZ=              3.3984   YZ=              1.7691
 Traceless Quadrupole moment (field-independent basis, Debye-Ang):
   XX=             -4.6358   YY=              3.7533   ZZ=              0.8825
   XY=             -5.9278   XZ=              3.3984   YZ=              1.7691
 Octapole moment (field-independent basis, Debye-Ang**2):
  XXX=             16.0914  YYY=             14.2733  ZZZ=             -7.2785  XYY=            -13.2706
  XXY=             25.5188  XXZ=             -1.1397  XZZ=            -24.8266  YZZ=              3.4189
  YYZ=              5.0524  XYZ=              2.9885
 Hexadecapole moment (field-independent basis, Debye-Ang**3):
 XXXX=          -7050.6055 YYYY=          -1396.6136 ZZZZ=          -1040.3365 XXXY=           -174.5589
 XXXZ=             -4.2920 YYYX=              4.2295 YYYZ=            -19.8629 ZZZX=             19.9744
 ZZZY=             12.7317 XXYY=          -1345.2899 XXZZ=          -1220.8285 YYZZ=           -406.1812
 XXYZ=            -46.1717 YYXZ=            -16.1102 ZZXY=              2.5641
 N-N= 1.804837219622D+03 E-N=-6.280376910296D+03  KE= 1.131546654536D+03
 1\1\GINC-COMPUTE-6-34\SP\RmPW1PW91\6-31+G(d,p)\C14H28O4Si1\ELUCIANO.IQ
 UIR\06-Dec-2022\0\\# mPW1PW91/6-31+g** scrf=(PCM,solvent=chloroform) n
 mr\\comment\\0,1\H,0,-0.58655,-1.246431,0.612151\C,0,-0.582275,-0.3350
 73,-0.003678\C,0,-2.635098,-1.208004,-1.194699\C,0,-2.859565,0.147539,
 0.968239\C,0,-3.487237,-0.275161,-0.353708\C,0,-1.440141,0.698614,0.75
 2488\C,0,-1.208101,-0.655931,-1.366249\H,0,-3.113127,-1.376296,-2.1656
 85\H,0,-3.471528,0.93872,1.423712\H,0,-0.982277,0.901208,1.732229\H,0,
 -0.581777,-1.384042,-1.893119\H,0,-2.594257,-2.179607,-0.685094\H,0,-1
 .220965,0.262459,-1.963624\C,0,-4.548909,0.548026,-0.942363\H,0,-4.841
 524,1.482799,-0.465047\H,0,-4.729063,0.499153,-2.016396\O,0,-4.877674,
 -0.649261,-0.214771\O,0,-2.760336,-0.974822,1.843043\H,0,-3.652829,-1.
 35608,1.893518\O,0,-1.621162,1.910214,0.03081\C,0,-0.61043,2.891911,0.
 199019\H,0,-0.408833,3.076092,1.265595\H,0,-0.995632,3.812237,-0.25020
 9\H,0,0.324795,2.606471,-0.2923\O,0,0.750261,0.153581,-0.162906\Si,0,2
 .134857,-0.717136,0.242767\C,0,2.160569,-1.04891,2.105151\H,0,3.0435,-
 1.631894,2.394568\H,0,1.278419,-1.623034,2.414029\H,0,2.167101,-0.1201
 27,2.686563\C,0,3.595212,0.389906,-0.305762\C,0,2.141958,-2.381477,-0.
 660098\H,0,3.019907,-2.978744,-0.385559\H,0,2.147434,-2.259423,-1.7491
 59\H,0,1.256215,-2.973687,-0.39886\C,0,3.478052,0.705755,-1.812431\H,0
 ,3.523157,-0.203295,-2.424603\H,0,4.305917,1.355222,-2.132578\H,0,2.53
 9148,1.219495,-2.045832\C,0,4.930096,-0.34259,-0.045842\H,0,5.001186,-
 1.280264,-0.610405\H,0,5.072584,-0.578262,1.016274\H,0,5.776524,0.2878
 37,-0.354363\C,0,3.586952,1.714159,0.487063\H,0,4.418986,2.357464,0.16
 5223\H,0,3.702715,1.547828,1.564949\H,0,2.657575,2.273835,0.333094\\Ve
 rsion=EM64L-G09RevC.01\State=1-A\HF=-1140.6246643\RMSD=4.482e-09\Dipol
 e=0.6055835,0.1981338,-0.2226736\Quadrupole=-3.446616,2.7904796,0.6561
 364,-4.4071599,2.5266469,1.3152666\PG=C01 [X(C14H28O4Si1)]\\@


 REALITY IS FOR PEOPLE WHO CAN'T FACE SCIENCE FICTION.
 Job cpu time:  0 days  0 hours 40 minutes 36.1 seconds.
 File lengths (MBytes):  RWF=    300 Int=      0 D2E=      0 Chk=     16 Scr=      1
 Normal termination of Gaussian 09 at Tue Dec  6 21:10:25 2022.
