 Entering Gaussian System, Link 0=g09
 Input=/home/eluciano.iquir/todos_optB3L_MPW_B_PCM/01_epoxido28_012_optB3L_nmr_MPW_B_PCM.gjc
 Output=/home/eluciano.iquir/todos_optB3L_MPW_B_PCM/01_epoxido28_012_optB3L_nmr_MPW_B_PCM.log
 Initial command:
 /share/apps/Gaussian09/EM64T.SSE4.2-enabled/g09/l1.exe /tmp/Gau-42825.inp -scrdir=/tmp/
 Entering Link 1 = /share/apps/Gaussian09/EM64T.SSE4.2-enabled/g09/l1.exe PID=     42826.
  
 Copyright (c) 1988,1990,1992,1993,1995,1998,2003,2009,2011,
            Gaussian, Inc.  All Rights Reserved.
  
 This is part of the Gaussian(R) 09 program.  It is based on
 the Gaussian(R) 03 system (copyright 2003, Gaussian, Inc.),
 the Gaussian(R) 98 system (copyright 1998, Gaussian, Inc.),
 the Gaussian(R) 94 system (copyright 1995, Gaussian, Inc.),
 the Gaussian 92(TM) system (copyright 1992, Gaussian, Inc.),
 the Gaussian 90(TM) system (copyright 1990, Gaussian, Inc.),
 the Gaussian 88(TM) system (copyright 1988, Gaussian, Inc.),
 the Gaussian 86(TM) system (copyright 1986, Carnegie Mellon
 University), and the Gaussian 82(TM) system (copyright 1983,
 Carnegie Mellon University). Gaussian is a federally registered
 trademark of Gaussian, Inc.
  
 This software contains proprietary and confidential information,
 including trade secrets, belonging to Gaussian, Inc.
  
 This software is provided under written license and may be
 used, copied, transmitted, or stored only in accord with that
 written license.
  
 The following legend is applicable only to US Government
 contracts under FAR:
  
                    RESTRICTED RIGHTS LEGEND
  
 Use, reproduction and disclosure by the US Government is
 subject to restrictions as set forth in subparagraphs (a)
 and (c) of the Commercial Computer Software - Restricted
 Rights clause in FAR 52.227-19.
  
 Gaussian, Inc.
 340 Quinnipiac St., Bldg. 40, Wallingford CT 06492
  
  
 ---------------------------------------------------------------
 Warning -- This program may not be used in any manner that
 competes with the business of Gaussian, Inc. or will provide
 assistance to any competitor of Gaussian, Inc.  The licensee
 of this program is prohibited from giving any competitor of
 Gaussian, Inc. access to this program.  By using this program,
 the user acknowledges that Gaussian, Inc. is engaged in the
 business of creating and licensing software in the field of
 computational chemistry and represents and warrants to the
 licensee that it is not a competitor of Gaussian, Inc. and that
 it will not use this program in any manner prohibited above.
 ---------------------------------------------------------------
  

 Cite this work as:
 Gaussian 09, Revision C.01,
 M. J. Frisch, G. W. Trucks, H. B. Schlegel, G. E. Scuseria, 
 M. A. Robb, J. R. Cheeseman, G. Scalmani, V. Barone, B. Mennucci, 
 G. A. Petersson, H. Nakatsuji, M. Caricato, X. Li, H. P. Hratchian, 
 A. F. Izmaylov, J. Bloino, G. Zheng, J. L. Sonnenberg, M. Hada, 
 M. Ehara, K. Toyota, R. Fukuda, J. Hasegawa, M. Ishida, T. Nakajima, 
 Y. Honda, O. Kitao, H. Nakai, T. Vreven, J. A. Montgomery, Jr., 
 J. E. Peralta, F. Ogliaro, M. Bearpark, J. J. Heyd, E. Brothers, 
 K. N. Kudin, V. N. Staroverov, T. Keith, R. Kobayashi, J. Normand, 
 K. Raghavachari, A. Rendell, J. C. Burant, S. S. Iyengar, J. Tomasi, 
 M. Cossi, N. Rega, J. M. Millam, M. Klene, J. E. Knox, J. B. Cross, 
 V. Bakken, C. Adamo, J. Jaramillo, R. Gomperts, R. E. Stratmann, 
 O. Yazyev, A. J. Austin, R. Cammi, C. Pomelli, J. W. Ochterski, 
 R. L. Martin, K. Morokuma, V. G. Zakrzewski, G. A. Voth, 
 P. Salvador, J. J. Dannenberg, S. Dapprich, A. D. Daniels, 
 O. Farkas, J. B. Foresman, J. V. Ortiz, J. Cioslowski, 
 and D. J. Fox, Gaussian, Inc., Wallingford CT, 2010.
 
 ******************************************
 Gaussian 09:  EM64L-G09RevC.01 23-Sep-2011
                 6-Dec-2022 
 ******************************************
 %nprocshared=4
 Will use up to    4 processors via shared memory.
 %mem=80MW
 -----------------------------------------------------
 # mPW1PW91/6-31+g** scrf=(PCM,solvent=chloroform) nmr
 -----------------------------------------------------
 1/38=1/1;
 2/12=2,17=6,18=5,40=1/2;
 3/5=1,6=6,7=111,11=2,16=1,25=1,30=1,70=2201,72=7,74=-7/1,2,8,3;
 4//1;
 5/5=2,38=5,53=7/2;
 8/6=1,10=90,11=11/1;
 10/13=100,45=16/2;
 6/7=2,8=2,9=2,10=2,28=1/1;
 99/9=1/99;
 -------
 comment
 -------
 Charge =  0 Multiplicity = 1
 Symbolic Z-Matrix:
 1                    -0.10364  -0.11297  -1.91684 
 6                     0.46805  -0.38243  -1.01865 
 6                     2.22247  -1.95059  -0.09217 
 6                     2.21778   0.54526   0.59517 
 6                     3.01127  -0.75337   0.39672 
 6                     1.33429   0.83275  -0.64061 
 6                     1.36829  -1.591    -1.31625 
 1                     1.56597  -2.28911   0.71819 
 1                     1.56053   0.44874   1.4647 
 1                     2.00141   1.03983  -1.49574 
 1                     2.01954  -1.35566  -2.16834 
 1                     2.91394  -2.76744  -0.32516 
 1                     0.74517  -2.44317  -1.60939 
 6                     4.28611  -0.92884   1.10063 
 1                     4.62096  -0.17084   1.80539 
 1                     4.66803  -1.93559   1.26845 
 8                     4.27554  -0.51191  -0.28317 
 8                     3.105     1.62169   0.86714 
 1                     3.84966   1.49254   0.24913 
 8                     0.46959   1.93783  -0.43672 
 6                     1.02595   3.22144  -0.68918 
 1                     1.46758   3.2699   -1.69736 
 1                     1.79022   3.48614   0.04702 
 1                     0.19585   3.93115  -0.63524 
 8                    -0.40803  -0.69894   0.05706 
 14                   -2.07245  -0.96248   0.04173 
 6                    -2.57682  -1.76574  -1.59834 
 1                    -3.65868  -1.94421  -1.62671 
 1                    -2.08218  -2.73593  -1.72731 
 1                    -2.32866  -1.14598  -2.46758 
 6                    -3.0479    0.66289   0.33307 
 6                    -2.35119  -2.17981   1.45627 
 1                    -3.4041   -2.4725    1.54143 
 1                    -2.04323  -1.75718   2.41932 
 1                    -1.76412  -3.09124   1.29322 
 6                    -2.45388   1.41338   1.54433 
 1                    -2.49247   0.8097    2.4602 
 1                    -3.02453   2.33384   1.73913 
 1                    -1.41205   1.69428   1.36264 
 6                    -4.52904   0.32783   0.61691 
 1                    -4.64966  -0.27628   1.52418 
 1                    -4.99974  -0.21497  -0.21325 
 1                    -5.10505   1.25305   0.76419 
 6                    -2.97123   1.57742  -0.90922 
 1                    -3.52654   2.50971  -0.72757 
 1                    -3.41516   1.10533  -1.79492 
 1                    -1.93633   1.84892  -1.14243 
 
                          Input orientation:                          
 ---------------------------------------------------------------------
 Center     Atomic      Atomic             Coordinates (Angstroms)
 Number     Number       Type             X           Y           Z
 ---------------------------------------------------------------------
      1          1           0       -0.103638   -0.112974   -1.916844
      2          6           0        0.468054   -0.382431   -1.018652
      3          6           0        2.222466   -1.950592   -0.092169
      4          6           0        2.217781    0.545263    0.595167
      5          6           0        3.011271   -0.753369    0.396723
      6          6           0        1.334285    0.832747   -0.640614
      7          6           0        1.368290   -1.590997   -1.316246
      8          1           0        1.565965   -2.289111    0.718185
      9          1           0        1.560534    0.448737    1.464700
     10          1           0        2.001411    1.039828   -1.495742
     11          1           0        2.019539   -1.355660   -2.168336
     12          1           0        2.913940   -2.767444   -0.325159
     13          1           0        0.745171   -2.443169   -1.609388
     14          6           0        4.286111   -0.928837    1.100630
     15          1           0        4.620964   -0.170835    1.805387
     16          1           0        4.668027   -1.935593    1.268447
     17          8           0        4.275543   -0.511905   -0.283165
     18          8           0        3.104995    1.621691    0.867139
     19          1           0        3.849663    1.492537    0.249134
     20          8           0        0.469592    1.937831   -0.436722
     21          6           0        1.025945    3.221437   -0.689181
     22          1           0        1.467583    3.269902   -1.697360
     23          1           0        1.790216    3.486144    0.047017
     24          1           0        0.195846    3.931151   -0.635244
     25          8           0       -0.408032   -0.698935    0.057056
     26         14           0       -2.072451   -0.962478    0.041728
     27          6           0       -2.576819   -1.765740   -1.598343
     28          1           0       -3.658683   -1.944214   -1.626707
     29          1           0       -2.082180   -2.735932   -1.727313
     30          1           0       -2.328665   -1.145979   -2.467577
     31          6           0       -3.047903    0.662893    0.333065
     32          6           0       -2.351192   -2.179813    1.456269
     33          1           0       -3.404097   -2.472500    1.541428
     34          1           0       -2.043230   -1.757175    2.419320
     35          1           0       -1.764123   -3.091240    1.293218
     36          6           0       -2.453883    1.413380    1.544332
     37          1           0       -2.492472    0.809702    2.460200
     38          1           0       -3.024534    2.333836    1.739134
     39          1           0       -1.412051    1.694278    1.362644
     40          6           0       -4.529038    0.327833    0.616906
     41          1           0       -4.649661   -0.276279    1.524177
     42          1           0       -4.999735   -0.214967   -0.213253
     43          1           0       -5.105050    1.253048    0.764191
     44          6           0       -2.971234    1.577424   -0.909219
     45          1           0       -3.526542    2.509712   -0.727567
     46          1           0       -3.415157    1.105326   -1.794918
     47          1           0       -1.936330    1.848919   -1.142427
 ---------------------------------------------------------------------
                    Distance matrix (angstroms):
                    1          2          3          4          5
     1  H    0.000000
     2  C    1.098266   0.000000
     3  C    3.480954   2.528925   0.000000
     4  C    3.483168   2.554716   2.588773   0.000000
     5  C    3.932602   2.934081   1.514784   1.534748   0.000000
     6  C    2.142609   1.539457   2.972648   1.546081   2.530635
     7  C    2.170678   1.536105   1.535347   2.989773   2.516996
     8  H    3.803488   2.803113   1.096477   2.910957   2.133249
     9  H    3.810489   2.837497   2.935775   1.094248   2.165703
    10  H    2.436701   2.145139   3.310815   2.159470   2.795853
    11  H    2.472933   2.162418   2.169238   3.360023   2.815282
    12  H    4.322667   3.485911   1.095293   3.507943   2.141748
    13  H    2.498963   2.161574   2.174163   3.994918   3.466283
    14  C    5.388940   4.400849   2.593334   2.589682   1.466796
    15  H    6.014999   5.026592   3.538509   2.784370   2.216933
    16  H    6.019701   5.028211   2.798619   3.551290   2.214136
    17  O    4.690978   3.880036   2.514244   2.474562   1.455657
    18  O    4.588567   3.811321   3.802675   1.421202   2.423012
    19  H    4.785156   4.069160   3.823532   1.918360   2.401828
    20  O    2.593290   2.392125   4.279149   2.461748   3.794380
    21  C    3.728460   3.661647   5.342094   3.198739   4.573816
    22  H    3.736410   3.846978   5.513623   3.638974   4.791124
    23  H    4.516313   4.224883   5.455668   3.021930   4.425691
    24  H    4.252897   4.339135   6.244759   4.131146   5.562041
    25  O    2.081415   1.422972   2.916922   2.955078   3.436564
    26  Si   2.904115   2.813366   4.409151   4.581012   5.100390
    27  C    2.991605   3.394236   5.033475   5.756771   6.019297
    28  H    4.009484   4.454083   6.078056   6.757740   7.071115
    29  H    3.290966   3.541873   4.671235   5.886410   5.863900
    30  H    2.514190   3.240992   5.196418   5.736800   6.072337
    31  C    3.785863   3.909194   5.898128   5.273515   6.222816
    32  C    4.549859   4.159803   4.834103   5.389160   5.649194
    33  H    5.331045   5.090771   5.882112   6.450412   6.739637
    34  H    5.026702   4.473938   4.953902   5.175420   5.535929
    35  H    4.683138   4.202976   4.371872   5.437554   5.392006
    36  C    4.453442   4.281535   5.988546   4.845512   5.989968
    37  H    5.071131   4.721049   6.030294   5.072944   6.082131
    38  H    5.280595   5.213603   7.017193   5.655928   6.911139
    39  H    3.966503   3.676695   5.348951   3.883933   5.146820
    40  C    5.118434   5.305700   7.160783   6.750357   7.620613
    41  H    5.703825   5.715615   7.255483   6.978521   7.758134
    42  H    5.185016   5.529324   7.428812   7.302330   8.052215
    43  H    5.836787   6.075591   8.042957   7.358898   8.368716
    44  C    3.477910   3.960014   6.331586   5.500401   6.551980
    45  H    4.473157   4.940245   7.304049   6.213367   7.392883
    46  H    3.530620   4.230288   6.634816   6.144605   7.039674
    47  H    2.794191   3.282576   5.730175   4.687792   5.798245
                    6          7          8          9         10
     6  C    0.000000
     7  C    2.516380   0.000000
     8  H    3.412625   2.159942   0.000000
     9  H    2.151976   3.454147   2.837803   0.000000
    10  H    1.104166   2.711881   4.021557   3.050898   0.000000
    11  H    2.755473   1.097983   3.067420   4.082338   2.488187
    12  H    3.944135   2.180668   1.770425   3.921623   4.086355
    13  H    3.466584   1.095631   2.472859   4.298599   3.704365
    14  C    3.853360   3.846222   3.065258   3.075553   3.979528
    15  H    4.218099   4.726663   3.873257   3.141046   4.384657
    16  H    4.735193   4.205669   3.170261   3.921742   4.858468
    17  O    3.253745   3.268611   3.391604   3.368848   3.008304
    18  O    2.455843   4.254959   4.205374   2.029350   2.672016
    19  H    2.748472   4.256267   4.442538   2.794142   2.581777
    20  O    1.417913   3.746178   4.516955   2.650087   2.067463
    21  C    2.408998   4.865175   5.713006   3.551458   2.522200
    22  H    2.659738   4.876827   6.061944   4.238660   2.301924
    23  H    2.778709   5.273886   5.818447   3.359824   2.899857
    24  H    3.300936   5.686168   6.511579   4.289446   3.515718
    25  O    2.422491   2.415999   2.619621   2.678407   3.352595
    26  Si   3.910789   3.752043   3.931364   4.149091   4.792640
    27  C    4.792297   3.959040   4.775236   5.603912   5.370468
    28  H    5.797726   5.048921   5.737109   6.520984   6.399869
    29  H    5.058519   3.658633   4.414643   5.796588   5.566480
    30  H    4.546466   3.897574   5.159842   5.756022   4.946895
    31  C    4.492268   5.225228   5.490940   4.750174   5.383511
    32  C    5.201459   4.676333   3.987585   4.712849   6.166491
    33  H    6.175616   5.631965   5.041119   5.760822   7.126034
    34  H    5.241994   5.061673   4.025308   4.331797   6.285703
    35  H    5.360738   4.344196   3.473264   4.859443   6.246861
    36  C    4.411501   5.640762   5.527218   4.129458   5.406592
    37  H    4.925408   5.910193   5.395199   4.189054   5.991446
    38  H    5.188041   6.636005   6.594441   4.965054   6.115472
    39  H    3.506799   5.069495   5.015107   3.224601   4.500044
    40  C    6.017878   6.495957   6.633831   6.149493   6.900506
    41  H    6.459402   6.783231   6.582942   6.252656   7.422183
    42  H    6.434295   6.607707   6.948242   6.803908   7.227402
    43  H    6.604178   7.370274   7.553241   6.750381   7.460198
    44  C    4.377692   5.388509   6.179378   5.238926   5.035893
    45  H    5.142705   6.412623   7.145105   5.910329   5.771388
    46  H    4.895295   5.511864   6.530656   5.984456   5.425219
    47  H    3.461408   4.773232   5.731600   4.581013   4.035500
                   11         12         13         14         15
    11  H    0.000000
    12  H    2.488049   0.000000
    13  H    1.766101   2.541251   0.000000
    14  C    4.000708   2.701149   4.709103   0.000000
    15  H    4.895069   3.767696   5.643223   1.087831   0.000000
    16  H    4.377475   2.511648   4.891663   1.089761   1.845234
    17  O    3.058651   2.634992   4.237001   1.445279   2.144223
    18  O    4.388273   4.552206   5.312725   2.820416   2.528165
    19  H    4.160017   4.399185   5.346191   2.603571   2.404919
    20  O    4.030869   5.303480   4.543594   5.014684   5.167922
    21  C    4.911715   6.289971   5.745727   5.572870   5.536654
    22  H    4.682125   6.358021   5.759236   5.779469   5.835385
    23  H    5.329488   6.364639   6.244401   5.179928   4.947575
    24  H    5.798845   7.235701   6.471682   6.585060   6.508812
    25  O    3.358088   3.931961   2.673811   4.814237   5.350360
    26  Si   4.667264   5.315694   3.585753   6.446217   6.966993
    27  C    4.649684   5.724757   3.390376   7.421905   8.120171
    28  H    5.734280   6.750638   4.432063   8.461035   9.136558
    29  H    4.350144   5.189243   2.844913   7.198471   7.999489
    30  H    4.363529   5.891011   3.444947   7.518944   8.216232
    31  C    6.000878   6.909706   5.273344   7.543906   7.853302
    32  C    5.737620   5.589312   4.365212   6.763521   7.264216
    33  H    6.665246   6.594599   5.210079   7.855985   8.352780
    34  H    6.141164   5.755549   4.947348   6.518101   6.877854
    35  H    5.413935   4.960671   3.891230   6.427940   7.039916
    36  C    6.439176   7.056048   5.920546   7.149152   7.254747
    37  H    6.816919   7.055742   6.133926   7.128824   7.210493
    38  H    7.370439   8.096285   6.945722   8.031080   8.045583
    39  H    5.791869   6.439708   5.532183   6.278410   6.330240
    40  C    7.312700   8.115796   6.360198   8.917402   9.240330
    41  H    7.699217   8.175207   6.604457   8.969573   9.275488
    42  H    7.375211   8.315883   6.318071   9.405468   9.830295
    43  H    8.134177   9.036329   7.315804   9.647161   9.884679
    44  C    5.924202   7.338547   5.519698   7.936617   8.250271
    45  H    6.912013   8.336073   6.599710   8.729460   8.943324
    46  H    5.977609   7.564126   5.471249   8.475349   8.897754
    47  H    5.193334   6.745654   5.082373   7.173981   7.467738
                   16         17         18         19         20
    16  H    0.000000
    17  O    2.142062   0.000000
    18  O    3.906198   2.691768   0.000000
    19  H    3.668895   2.117192   0.976290   0.000000
    20  O    5.961365   4.528802   2.957253   3.477580   0.000000
    21  C    6.609994   4.966143   3.050208   3.441353   1.421587
    22  H    6.792351   4.917993   3.460401   3.552769   2.087967
    23  H    6.258508   4.719138   2.424341   2.873437   2.091728
    24  H    7.618604   6.042237   4.006733   4.480998   2.021799
    25  O    5.363130   4.699639   4.287528   4.792433   2.822512
    26  Si   6.919959   6.372252   5.845099   6.414168   3.886218
    27  C    7.793275   7.089193   7.059483   7.438361   4.934209
    28  H    8.815673   8.173650   8.042530   8.467898   5.790422
    29  H    7.428352   6.888578   7.254436   7.548050   5.479163
    30  H    7.970889   6.984932   6.950179   7.246656   4.632979
    31  C    8.195282   7.442631   6.250015   6.947789   3.819792
    32  C    7.025977   7.051324   6.675963   7.307115   5.338092
    33  H    8.094564   8.133262   7.719154   8.367113   6.194317
    34  H    6.811557   6.984341   6.350608   7.070822   5.303237
    35  H    6.535188   6.753926   6.789814   7.322275   5.768339
    36  C    7.874855   7.234061   5.603848   6.435720   3.570200
    37  H    7.760777   7.421504   5.876122   6.751130   4.294026
    38  H    8.810509   8.091913   6.232066   7.083959   4.135225
    39  H    7.081821   6.318596   4.544722   5.382029   2.614884
    40  C    9.493872   8.890216   7.746944   8.467256   5.356167
    41  H    9.467736   9.109406   8.010535   8.774563   5.912204
    42  H    9.930841   9.280293   8.380168   9.024479   5.882008
    43  H   10.292460   9.602476   8.218962   8.972710   5.743497
    44  C    8.685725   7.567894   6.330716   6.919077   3.491766
    45  H    9.533927   8.378556   6.878150   7.509793   4.047311
    46  H    9.163474   8.002981   7.061555   7.556831   4.198695
    47  H    7.984508   6.700686   5.431846   5.961641   2.508861
                   21         22         23         24         25
    21  C    0.000000
    22  H    1.101734   0.000000
    23  H    1.093694   1.787094   0.000000
    24  H    1.093466   1.784000   1.790399   0.000000
    25  O    4.240575   4.727322   4.727291   4.720344   0.000000
    26  Si   5.257322   5.785266   5.891559   5.436089   1.685224
    27  C    6.219198   6.459465   7.025702   6.408572   2.929515
    28  H    7.036238   7.312359   7.872778   7.096500   3.866847
    29  H    6.799147   6.976515   7.540420   7.129657   3.183724
    30  H    5.787091   5.874073   6.689165   5.958846   3.203506
    31  C    4.918066   5.595421   5.608918   4.705427   2.983232
    32  C    6.721719   7.363954   7.158234   6.943033   2.815434
    33  H    7.551279   8.197450   8.044849   7.661869   3.784878
    34  H    6.623382   7.385416   6.914877   6.833804   3.061705
    35  H    7.180827   7.736382   7.579467   7.541513   3.014996
    36  C    4.512965   5.416007   4.954864   4.255677   3.295356
    37  H    5.302294   6.246593   5.597161   5.152890   3.520792
    38  H    4.805302   5.732785   5.231911   4.308124   4.344326
    39  H    3.533557   4.487595   3.898227   3.403012   2.905182
    40  C    6.398175   7.069021   7.087501   6.072587   4.283734
    41  H    7.024633   7.770095   7.603279   6.770857   4.508048
    42  H    6.952999   7.494871   7.737532   6.660513   4.625044
    43  H    6.601208   7.302495   7.283251   6.101652   5.135392
    44  C    4.327659   4.815469   5.218142   3.955438   3.561671
    45  H    4.607946   5.143897   5.460890   3.985622   4.542703
    46  H    5.042218   5.341915   6.013063   4.729638   3.965850
    47  H    3.296105   3.730116   4.240569   3.023094   3.204062
                   26         27         28         29         30
    26  Si   0.000000
    27  C    1.894584   0.000000
    28  H    2.502721   1.096853   0.000000
    29  H    2.504943   1.096619   1.767003   0.000000
    30  H    2.529018   1.096016   1.764423   1.771072   0.000000
    31  C    1.917867   3.138553   3.318247   4.090207   3.410706
    32  C    1.886936   3.090796   3.357049   3.242966   4.057818
    33  H    2.510488   3.322960   3.221953   3.535750   4.357560
    34  H    2.507058   4.052950   4.360620   4.260757   4.933234
    35  H    2.488558   3.283070   3.664831   3.057942   4.271572
    36  C    2.836902   4.471949   4.772889   5.297038   4.760400
    37  H    3.027548   4.807472   5.064278   5.502284   5.304197
    38  H    3.827967   5.305254   5.480214   6.213440   5.503614
    39  H    3.039622   4.700623   5.217490   5.442763   4.855701
    40  C    2.833823   3.619604   3.309609   4.568275   4.065440
    41  H    3.051317   4.033026   3.700286   4.818095   4.698670
    42  H    3.031960   3.192788   2.605104   4.142435   3.617095
    43  H    3.824548   4.592015   4.246275   5.590823   4.889578
    44  C    2.857134   3.436161   3.659141   4.479368   3.202858
    45  H    3.842174   4.465391   4.545698   5.531949   4.222158
    46  H    3.074401   2.997411   3.063869   4.066529   2.588689
    47  H    3.053638   3.699168   4.193910   4.624308   3.298388
                   31         32         33         34         35
    31  C    0.000000
    32  C    3.134959   0.000000
    33  H    3.379009   1.096142   0.000000
    34  H    3.349411   1.095870   1.770408   0.000000
    35  H    4.082095   1.096328   1.770300   1.767975   0.000000
    36  C    1.543781   3.595739   4.000372   3.314613   4.564036
    37  H    2.203352   3.156745   3.528180   2.606213   4.136386
    38  H    2.183947   4.572355   4.825352   4.261688   5.587390
    39  H    2.190845   3.987397   4.621931   3.664352   4.798954
    40  C    1.544860   3.425760   3.156279   3.711495   4.448844
    41  H    2.205996   2.985132   2.524899   3.128549   4.037781
    42  H    2.208789   3.696309   3.274358   4.248502   4.583840
    43  H    2.183118   4.455024   4.168578   4.601699   5.505861
    44  C    1.544511   4.482947   4.753412   4.802074   5.301346
    45  H    2.182837   5.304925   5.475926   5.505401   6.209699
    46  H    2.204299   4.742824   4.892051   5.275974   5.465681
    47  H    2.195297   4.812070   5.294533   5.069653   5.510644
                   36         37         38         39         40
    36  C    0.000000
    37  H    1.097602   0.000000
    38  H    1.100377   1.768053   0.000000
    39  H    1.094225   1.776067   1.775072   0.000000
    40  C    2.518889   2.788823   2.747176   3.484093   0.000000
    41  H    2.770703   2.590166   3.082198   3.793588   1.096650
    42  H    3.495995   3.805741   3.769566   4.358915   1.097885
    43  H    2.768215   3.146199   2.539126   3.767104   1.099775
    44  C    2.512862   3.488781   2.754773   2.757910   2.513422
    45  H    2.741180   3.757818   2.523402   3.083016   2.751945
    46  H    3.488486   4.364031   3.761828   3.785432   2.768054
    47  H    2.770601   3.790539   3.118129   2.564013   3.482971
                   41         42         43         44         45
    41  H    0.000000
    42  H    1.773407   0.000000
    43  H    1.767427   1.766793   0.000000
    44  C    3.489233   2.794969   2.731061   0.000000
    45  H    3.754130   3.139855   2.509230   1.100239   0.000000
    46  H    3.801214   2.599178   3.070277   1.097455   1.767468
    47  H    4.357684   3.808863   3.745803   1.095044   1.771308
                   46         47
    46  H    0.000000
    47  H    1.779215   0.000000
 Stoichiometry    C14H28O4Si
 Framework group  C1[X(C14H28O4Si)]
 Deg. of freedom   135
 Full point group                 C1      NOp   1
 Largest Abelian subgroup         C1      NOp   1
 Largest concise Abelian subgroup C1      NOp   1
                         Standard orientation:                         
 ---------------------------------------------------------------------
 Center     Atomic      Atomic             Coordinates (Angstroms)
 Number     Number       Type             X           Y           Z
 ---------------------------------------------------------------------
      1          1           0        0.103638   -0.112974    1.916844
      2          6           0       -0.468054   -0.382431    1.018652
      3          6           0       -2.222466   -1.950592    0.092169
      4          6           0       -2.217781    0.545263   -0.595167
      5          6           0       -3.011271   -0.753369   -0.396723
      6          6           0       -1.334285    0.832747    0.640614
      7          6           0       -1.368290   -1.590997    1.316246
      8          1           0       -1.565965   -2.289111   -0.718185
      9          1           0       -1.560534    0.448737   -1.464700
     10          1           0       -2.001411    1.039828    1.495742
     11          1           0       -2.019539   -1.355660    2.168336
     12          1           0       -2.913940   -2.767444    0.325159
     13          1           0       -0.745171   -2.443169    1.609388
     14          6           0       -4.286111   -0.928837   -1.100630
     15          1           0       -4.620964   -0.170835   -1.805387
     16          1           0       -4.668027   -1.935593   -1.268447
     17          8           0       -4.275543   -0.511905    0.283165
     18          8           0       -3.104995    1.621691   -0.867139
     19          1           0       -3.849663    1.492537   -0.249134
     20          8           0       -0.469592    1.937831    0.436722
     21          6           0       -1.025945    3.221437    0.689181
     22          1           0       -1.467583    3.269902    1.697360
     23          1           0       -1.790216    3.486144   -0.047017
     24          1           0       -0.195846    3.931151    0.635244
     25          8           0        0.408032   -0.698935   -0.057056
     26         14           0        2.072451   -0.962478   -0.041728
     27          6           0        2.576819   -1.765740    1.598343
     28          1           0        3.658683   -1.944214    1.626707
     29          1           0        2.082180   -2.735932    1.727313
     30          1           0        2.328665   -1.145979    2.467577
     31          6           0        3.047903    0.662893   -0.333065
     32          6           0        2.351192   -2.179813   -1.456269
     33          1           0        3.404097   -2.472500   -1.541428
     34          1           0        2.043230   -1.757175   -2.419320
     35          1           0        1.764123   -3.091240   -1.293218
     36          6           0        2.453883    1.413380   -1.544332
     37          1           0        2.492472    0.809702   -2.460200
     38          1           0        3.024534    2.333836   -1.739134
     39          1           0        1.412051    1.694278   -1.362644
     40          6           0        4.529038    0.327833   -0.616906
     41          1           0        4.649661   -0.276279   -1.524177
     42          1           0        4.999735   -0.214967    0.213253
     43          1           0        5.105050    1.253048   -0.764191
     44          6           0        2.971234    1.577424    0.909219
     45          1           0        3.526542    2.509712    0.727567
     46          1           0        3.415157    1.105326    1.794918
     47          1           0        1.936330    1.848919    1.142427
 ---------------------------------------------------------------------
 Rotational constants (GHZ):      0.5657374      0.2241785      0.1904272
 Standard basis: 6-31+G(d,p) (6D, 7F)
 There are   505 symmetry adapted basis functions of A   symmetry.
 Integral buffers will be    131072 words long.
 Raffenetti 2 integral format.
 Two-electron integral symmetry is turned on.
   505 basis functions,   828 primitive gaussians,   505 cartesian basis functions
    79 alpha electrons       79 beta electrons
       nuclear repulsion energy      1832.4041418338 Hartrees.
 NAtoms=   47 NActive=   47 NUniq=   47 SFac= 1.00D+00 NAtFMM=   60 NAOKFM=F Big=F
 ------------------------------------------------------------------------------
 Polarizable Continuum Model (PCM)
 =================================
 Model                : PCM.
 Atomic radii         : UFF (Universal Force Field).
 Polarization charges : Total charges.
 Charge compensation  : None.
 Solution method      : Matrix inversion.
 Cavity type          : Scaled VdW (van der Waals Surface) (Alpha=1.100).
 Cavity algorithm     : GePol (No added spheres)
                        Default sphere list used, NSphG=   47.
                        Lebedev-Laikov grids with approx.  5.0 points / Ang**2.
                        Smoothing algorithm: Karplus/York (Gamma=1.0000).
                        Polarization charges: spherical gaussians, with
                                              point-specific exponents (IZeta= 3).
                        Self-potential: point-specific (ISelfS= 7).
                        Self-field    : sphere-specific E.n sum rule (ISelfD= 2).
 Solvent              : Chloroform, Eps=   4.711300 Eps(inf)=   2.090627
 ------------------------------------------------------------------------------
 One-electron integrals computed using PRISM.
 NBasis=   505 RedAO= T  NBF=   505
 NBsUse=   505 1.00D-06 NBFU=   505
 Harris functional with IExCor=  908 diagonalized for initial guess.
 ExpMin= 3.31D-02 ExpMax= 1.61D+04 ExpMxC= 2.43D+03 IAcc=3 IRadAn=         5 AccDes= 0.00D+00
 HarFok:  IExCor=  908 AccDes= 0.00D+00 IRadAn=         5 IDoV= 1
 ScaDFX=  1.000000  1.000000  1.000000  1.000000
 FoFCou: FMM=F IPFlag=           0 FMFlag=      100000 FMFlg1=           0
         NFxFlg=           0 DoJE=T BraDBF=F KetDBF=T FulRan=T
         Omega=  0.000000  0.000000  1.000000  0.000000  0.000000 ICntrl=     500 IOpCl=  0
         NMat0=    1 NMatS0=    1 NMatT0=    0 NMatD0=    1 NMtDS0=    0 NMtDT0=    0
         I1Cent=           4 NGrid=           0.
 Petite list used in FoFCou.
 Initial guess orbital symmetries:
       Occupied  (A) (A) (A) (A) (A) (A) (A) (A) (A) (A) (A) (A)
                 (A) (A) (A) (A) (A) (A) (A) (A) (A) (A) (A) (A)
                 (A) (A) (A) (A) (A) (A) (A) (A) (A) (A) (A) (A)
                 (A) (A) (A) (A) (A) (A) (A) (A) (A) (A) (A) (A)
                 (A) (A) (A) (A) (A) (A) (A) (A) (A) (A) (A) (A)
                 (A) (A) (A) (A) (A) (A) (A) (A) (A) (A) (A) (A)
                 (A) (A) (A) (A) (A) (A) (A)
       Virtual   (A) (A) (A) (A) (A) (A) (A) (A) (A) (A) (A) (A)
                 (A) (A) (A) (A) (A) (A) (A) (A) (A) (A) (A) (A)
                 (A) (A) (A) (A) (A) (A) (A) (A) (A) (A) (A) (A)
                 (A) (A) (A) (A) (A) (A) (A) (A) (A) (A) (A) (A)
                 (A) (A) (A) (A) (A) (A) (A) (A) (A) (A) (A) (A)
                 (A) (A) (A) (A) (A) (A) (A) (A) (A) (A) (A) (A)
                 (A) (A) (A) (A) (A) (A) (A) (A) (A) (A) (A) (A)
                 (A) (A) (A) (A) (A) (A) (A) (A) (A) (A) (A) (A)
                 (A) (A) (A) (A) (A) (A) (A) (A) (A) (A) (A) (A)
                 (A) (A) (A) (A) (A) (A) (A) (A) (A) (A) (A) (A)
                 (A) (A) (A) (A) (A) (A) (A) (A) (A) (A) (A) (A)
                 (A) (A) (A) (A) (A) (A) (A) (A) (A) (A) (A) (A)
                 (A) (A) (A) (A) (A) (A) (A) (A) (A) (A) (A) (A)
                 (A) (A) (A) (A) (A) (A) (A) (A) (A) (A) (A) (A)
                 (A) (A) (A) (A) (A) (A) (A) (A) (A) (A) (A) (A)
                 (A) (A) (A) (A) (A) (A) (A) (A) (A) (A) (A) (A)
                 (A) (A) (A) (A) (A) (A) (A) (A) (A) (A) (A) (A)
                 (A) (A) (A) (A) (A) (A) (A) (A) (A) (A) (A) (A)
                 (A) (A) (A) (A) (A) (A) (A) (A) (A) (A) (A) (A)
                 (A) (A) (A) (A) (A) (A) (A) (A) (A) (A) (A) (A)
                 (A) (A) (A) (A) (A) (A) (A) (A) (A) (A) (A) (A)
                 (A) (A) (A) (A) (A) (A) (A) (A) (A) (A) (A) (A)
                 (A) (A) (A) (A) (A) (A) (A) (A) (A) (A) (A) (A)
                 (A) (A) (A) (A) (A) (A) (A) (A) (A) (A) (A) (A)
                 (A) (A) (A) (A) (A) (A) (A) (A) (A) (A) (A) (A)
                 (A) (A) (A) (A) (A) (A) (A) (A) (A) (A) (A) (A)
                 (A) (A) (A) (A) (A) (A) (A) (A) (A) (A) (A) (A)
                 (A) (A) (A) (A) (A) (A) (A) (A) (A) (A) (A) (A)
                 (A) (A) (A) (A) (A) (A) (A) (A) (A) (A) (A) (A)
                 (A) (A) (A) (A) (A) (A) (A) (A) (A) (A) (A) (A)
                 (A) (A) (A) (A) (A) (A) (A) (A) (A) (A) (A) (A)
                 (A) (A) (A) (A) (A) (A) (A) (A) (A) (A) (A) (A)
                 (A) (A) (A) (A) (A) (A) (A) (A) (A) (A) (A) (A)
                 (A) (A) (A) (A) (A) (A) (A) (A) (A) (A) (A) (A)
                 (A) (A) (A) (A) (A) (A) (A) (A) (A) (A) (A) (A)
                 (A) (A) (A) (A) (A) (A)
 The electronic state of the initial guess is 1-A.
 Requested convergence on RMS density matrix=1.00D-08 within 128 cycles.
 Requested convergence on MAX density matrix=1.00D-06.
 Requested convergence on             energy=1.00D-06.
 No special actions if energy rises.
 Error on total polarization charges =  0.01531
 SCF Done:  E(RmPW1PW91) =  -1140.62425951     A.U. after   13 cycles
             Convg  =    0.4907D-08             -V/T =  2.0080
 Range of M.O.s used for correlation:     1   505
 NBasis=   505 NAE=    79 NBE=    79 NFC=     0 NFV=     0
 NROrb=    505 NOA=    79 NOB=    79 NVA=   426 NVB=   426

 **** Warning!!: The largest alpha MO coefficient is  0.70188912D+02

 NEqPCM:  Using equilibrium solvation (IEInf=0, Eps=   4.7113, EpsInf=   2.0906)
          Differentiating once with respect to magnetic field using GIAOs.
          Electric field/nuclear overlap derivatives assumed to be zero.
 FoFCou: FMM=F IPFlag=           0 FMFlag=    10101102 FMFlg1=           0
         NFxFlg=    40000000 DoJE=F BraDBF=F KetDBF=T FulRan=T
         Omega=  0.000000  0.000000  1.000000  0.000000  0.000000 ICntrl=    6100 IOpCl=  0
         NMat0=    1 NMatS0=    1 NMatT0=    0 NMatD0=    1 NMtDS0=    0 NMtDT0=    0
         I1Cent=           7 NGrid=        2982.
 Symmetry not used in FoFCou.
          There are     3 degrees of freedom in the 1st order CPHF.  IDoFFX=0.
      3 vectors produced by pass  0 Test12= 1.12D-12 3.33D-08 XBig12= 1.91D+02 3.04D+00.
 AX will form     3 AO Fock derivatives at one time.
      3 vectors produced by pass  1 Test12= 1.12D-12 3.33D-08 XBig12= 4.62D-01 1.48D-01.
      3 vectors produced by pass  2 Test12= 1.12D-12 3.33D-08 XBig12= 1.14D-03 4.92D-03.
      3 vectors produced by pass  3 Test12= 1.12D-12 3.33D-08 XBig12= 6.31D-06 3.96D-04.
      3 vectors produced by pass  4 Test12= 1.12D-12 3.33D-08 XBig12= 2.22D-08 1.70D-05.
      3 vectors produced by pass  5 Test12= 1.12D-12 3.33D-08 XBig12= 7.12D-11 1.28D-06.
      2 vectors produced by pass  6 Test12= 1.12D-12 3.33D-08 XBig12= 2.77D-13 5.66D-08.
 Inverted reduced A of dimension    20 with in-core refinement.
 Calculating GIAO nuclear magnetic shielding tensors.
 SCF GIAO Magnetic shielding tensor (ppm):
      1  H    Isotropic =    27.2925   Anisotropy =     3.3050
   XX=    28.8173   YX=    -0.5596   ZX=    -1.3633
   XY=    -0.3006   YY=    24.1653   ZY=     1.2385
   XZ=     0.7292   YZ=     1.3865   ZZ=    28.8948
   Eigenvalues:    23.8027    28.5789    29.4958
      2  C    Isotropic =   121.2773   Anisotropy =    35.8082
   XX=   123.0885   YX=   -10.1120   ZX=   -23.1639
   XY=    -2.8747   YY=   121.2419   ZY=     0.7279
   XZ=   -19.3611   YZ=     8.0525   ZZ=   119.5015
   Eigenvalues:    99.8893   118.7932   145.1494
      3  C    Isotropic =   167.7628   Anisotropy =    30.1113
   XX=   169.3309   YX=    -6.7954   ZX=     6.2013
   XY=    -5.2181   YY=   178.3712   ZY=    -9.8647
   XZ=    10.0799   YZ=   -14.2095   ZZ=   155.5863
   Eigenvalues:   148.9710   166.4804   187.8370
      4  C    Isotropic =   123.6146   Anisotropy =    39.1170
   XX=   125.7097   YX=   -10.7570   ZX=    16.2793
   XY=   -20.2411   YY=   136.4100   ZY=    -2.1839
   XZ=    14.3208   YZ=     1.7669   ZZ=   108.7241
   Eigenvalues:    97.9570   123.1942   149.6926
      5  C    Isotropic =   133.8320   Anisotropy =    60.0218
   XX=   102.4067   YX=    -5.1281   ZX=   -24.9782
   XY=    -9.2134   YY=   168.2415   ZY=   -12.2856
   XZ=   -23.3733   YZ=   -18.6516   ZZ=   130.8479
   Eigenvalues:    86.1747   141.4749   173.8466
      6  C    Isotropic =   109.8716   Anisotropy =    36.9212
   XX=   112.0784   YX=     8.2279   ZX=    -2.4285
   XY=    19.4061   YY=   122.3996   ZY=    -4.4268
   XZ=   -14.3698   YZ=    -7.9392   ZZ=    95.1368
   Eigenvalues:    91.6688   103.4603   134.4857
      7  C    Isotropic =   163.7118   Anisotropy =    19.8685
   XX=   167.3728   YX=     6.6967   ZX=    -7.4609
   XY=     9.9274   YY=   167.5797   ZY=    -7.1621
   XZ=    -0.4293   YZ=     1.1135   ZZ=   156.1829
   Eigenvalues:   154.9122   159.2657   176.9575
      8  H    Isotropic =    29.0069   Anisotropy =     6.9504
   XX=    31.0966   YX=    -1.2542   ZX=    -1.1096
   XY=    -2.1604   YY=    28.5269   ZY=     4.3650
   XZ=    -1.1549   YZ=     3.6593   ZZ=    27.3971
   Eigenvalues:    23.8998    29.4804    33.6405
      9  H    Isotropic =    27.2374   Anisotropy =     4.6531
   XX=    29.6292   YX=    -1.8308   ZX=     0.0483
   XY=    -1.9438   YY=    25.2037   ZY=     0.5510
   XZ=    -0.8579   YZ=    -1.4535   ZZ=    26.8793
   Eigenvalues:    24.3807    26.9921    30.3395
     10  H    Isotropic =    28.6934   Anisotropy =     3.3793
   XX=    28.9623   YX=     0.8161   ZX=    -0.7895
   XY=     2.6534   YY=    29.4294   ZY=    -0.2873
   XZ=    -1.1747   YZ=     2.0425   ZZ=    27.6886
   Eigenvalues:    26.2444    28.8896    30.9463
     11  H    Isotropic =    29.8968   Anisotropy =     8.5789
   XX=    30.0194   YX=     0.7748   ZX=    -3.1927
   XY=     0.6282   YY=    25.9890   ZY=    -1.9003
   XZ=    -2.7121   YZ=    -1.1501   ZZ=    33.6821
   Eigenvalues:    25.6920    28.3824    35.6161
     12  H    Isotropic =    30.4727   Anisotropy =    10.7804
   XX=    30.3141   YX=     3.7455   ZX=     1.5633
   XY=     3.7963   YY=    35.5726   ZY=    -2.1270
   XZ=     1.7613   YZ=    -2.2465   ZZ=    25.5315
   Eigenvalues:    24.0069    29.7516    37.6597
     13  H    Isotropic =    29.9712   Anisotropy =     8.6420
   XX=    31.1198   YX=    -0.9838   ZX=     2.4418
   XY=    -2.3698   YY=    31.3128   ZY=    -4.2554
   XZ=     2.5763   YZ=    -4.1654   ZZ=    27.4810
   Eigenvalues:    24.5215    29.6596    35.7326
     14  C    Isotropic =   146.1386   Anisotropy =    31.9399
   XX=   120.3384   YX=    -9.8666   ZX=   -19.4317
   XY=    -5.1987   YY=   166.0426   ZY=    -6.0152
   XZ=   -20.2233   YZ=     1.9522   ZZ=   152.0347
   Eigenvalues:   109.7580   161.2260   167.4318
     15  H    Isotropic =    28.5198   Anisotropy =     9.1883
   XX=    26.4355   YX=     1.8794   ZX=     4.6511
   XY=    -1.6601   YY=    29.0859   ZY=    -4.1635
   XZ=     5.4915   YZ=    -1.6979   ZZ=    30.0380
   Eigenvalues:    22.3486    28.5655    34.6453
     16  H    Isotropic =    29.0576   Anisotropy =    11.3615
   XX=    27.0212   YX=     1.6772   ZX=     3.2254
   XY=     5.5884   YY=    33.0247   ZY=     4.0936
   XZ=     2.8998   YZ=     2.3216   ZZ=    27.1271
   Eigenvalues:    23.9887    26.5523    36.6320
     17  O    Isotropic =   311.5951   Anisotropy =   126.6447
   XX=   339.8197   YX=    15.2802   ZX=    64.4568
   XY=    34.3300   YY=   378.1021   ZY=   -50.7533
   XZ=    76.0979   YZ=   -61.7471   ZZ=   216.8634
   Eigenvalues:   167.0623   371.6980   396.0249
     18  O    Isotropic =   309.4161   Anisotropy =    41.2034
   XX=   330.7411   YX=   -25.5493   ZX=   -10.0637
   XY=     6.7584   YY=   282.3255   ZY=    -4.3654
   XZ=   -11.3069   YZ=    -5.9177   ZZ=   315.1819
   Eigenvalues:   279.1309   312.2324   336.8851
     19  H    Isotropic =    29.8045   Anisotropy =    13.9979
   XX=    34.3353   YX=     0.6975   ZX=    -8.3498
   XY=    -0.7573   YY=    30.4591   ZY=    -2.0228
   XZ=    -8.1324   YZ=    -1.6710   ZZ=    24.6193
   Eigenvalues:    19.6672    30.6099    39.1364
     20  O    Isotropic =   293.7404   Anisotropy =    74.2854
   XX=   324.0260   YX=    38.6704   ZX=    -7.8066
   XY=    24.2543   YY=   279.9454   ZY=    -4.4073
   XZ=   -15.5513   YZ=   -10.2729   ZZ=   277.2498
   Eigenvalues:   263.4609   274.4963   343.2640
     21  C    Isotropic =   136.1394   Anisotropy =    85.9342
   XX=   114.6477   YX=   -23.2033   ZX=    -6.4927
   XY=   -22.0169   YY=   183.5549   ZY=    16.0562
   XZ=    -7.8949   YZ=    13.2476   ZZ=   110.2154
   Eigenvalues:   104.8171   110.1721   193.4288
     22  H    Isotropic =    28.3608   Anisotropy =     9.9707
   XX=    26.3594   YX=    -1.9769   ZX=    -1.8081
   XY=    -3.3150   YY=    30.4191   ZY=     5.8525
   XZ=    -1.1315   YZ=     3.1260   ZZ=    28.3038
   Eigenvalues:    24.4904    25.5840    35.0079
     23  H    Isotropic =    27.1443   Anisotropy =     8.7102
   XX=    26.6597   YX=    -1.8324   ZX=     3.4312
   XY=    -2.9446   YY=    31.7927   ZY=    -1.3988
   XZ=     2.4243   YZ=     0.6785   ZZ=    22.9805
   Eigenvalues:    21.2901    27.1917    32.9510
     24  H    Isotropic =    27.8603   Anisotropy =    10.1220
   XX=    26.3354   YX=    -0.2985   ZX=    -0.3936
   XY=     2.6831   YY=    34.2824   ZY=     1.1278
   XZ=    -0.1010   YZ=     1.6217   ZZ=    22.9632
   Eigenvalues:    22.7554    26.2173    34.6083
     25  O    Isotropic =   291.9907   Anisotropy =    25.7362
   XX=   293.2920   YX=    -3.7847   ZX=     9.5589
   XY=   -16.2321   YY=   297.8694   ZY=    -4.1453
   XZ=     8.0888   YZ=    -4.3511   ZZ=   284.8109
   Eigenvalues:   279.0311   287.7929   309.1482
     26  Si   Isotropic =   380.6660   Anisotropy =    34.5704
   XX=   402.0702   YX=    -7.9479   ZX=     5.6612
   XY=    -5.5172   YY=   375.1612   ZY=    -1.0444
   XZ=    -7.4841   YZ=     5.7276   ZZ=   364.7667
   Eigenvalues:   364.2555   374.0296   403.7130
     27  C    Isotropic =   201.4526   Anisotropy =     5.8773
   XX=   203.3322   YX=     2.5686   ZX=     0.3616
   XY=     2.6142   YY=   199.7884   ZY=    -4.8651
   XZ=    -0.8089   YZ=    -0.6996   ZZ=   201.2374
   Eigenvalues:   197.0103   201.9768   205.3709
     28  H    Isotropic =    31.6080   Anisotropy =    10.7096
   XX=    37.6741   YX=    -2.4238   ZX=     2.0467
   XY=    -2.0866   YY=    28.7729   ZY=    -2.1972
   XZ=     1.6745   YZ=    -2.2206   ZZ=    28.3769
   Eigenvalues:    26.3548    29.7215    38.7477
     29  H    Isotropic =    31.6158   Anisotropy =    10.0210
   XX=    30.0950   YX=     2.8430   ZX=     0.0105
   XY=     2.7861   YY=    36.2066   ZY=    -3.1932
   XZ=    -0.2085   YZ=    -3.3595   ZZ=    28.5457
   Eigenvalues:    27.0109    29.5400    38.2965
     30  H    Isotropic =    31.1638   Anisotropy =     7.7811
   XX=    28.2479   YX=    -1.1572   ZX=    -0.4268
   XY=    -1.2307   YY=    29.7394   ZY=     1.8296
   XZ=    -0.6250   YZ=     2.5904   ZZ=    35.5040
   Eigenvalues:    27.5266    29.6135    36.3511
     31  C    Isotropic =   171.9716   Anisotropy =     8.2523
   XX=   175.8582   YX=    -3.2239   ZX=    -1.5605
   XY=    -2.8727   YY=   171.5713   ZY=     0.0599
   XZ=    -0.0566   YZ=    -0.8575   ZZ=   168.4852
   Eigenvalues:   168.1650   170.2766   177.4731
     32  C    Isotropic =   198.3322   Anisotropy =     7.6576
   XX=   201.8106   YX=     1.3344   ZX=    -1.3450
   XY=    -1.3515   YY=   195.0885   ZY=     6.3589
   XZ=    -2.5387   YZ=     3.6662   ZZ=   198.0976
   Eigenvalues:   191.2313   200.3281   203.4373
     33  H    Isotropic =    31.6327   Anisotropy =    10.7659
   XX=    36.5356   YX=    -3.3359   ZX=    -2.3343
   XY=    -3.1203   YY=    30.5338   ZY=     2.4323
   XZ=    -2.2662   YZ=     2.3473   ZZ=    27.8288
   Eigenvalues:    26.4175    29.6708    38.8100
     34  H    Isotropic =    31.2245   Anisotropy =     8.3643
   XX=    27.6701   YX=    -0.6629   ZX=     1.4865
   XY=    -0.5007   YY=    29.5387   ZY=    -0.1386
   XZ=     1.7188   YZ=    -0.9137   ZZ=    36.4648
   Eigenvalues:    27.2825    29.5904    36.8007
     35  H    Isotropic =    31.5941   Anisotropy =     9.6342
   XX=    30.4890   YX=     3.7872   ZX=    -1.1510
   XY=     3.5563   YY=    36.1637   ZY=     1.1631
   XZ=    -0.7965   YZ=     1.3463   ZZ=    28.1297
   Eigenvalues:    26.9275    29.8380    38.0169
     36  C    Isotropic =   171.3418   Anisotropy =    35.9275
   XX=   166.0451   YX=    -3.5641   ZX=    10.8639
   XY=    -8.4036   YY=   167.0264   ZY=   -14.1112
   XZ=    13.9008   YZ=   -12.1923   ZZ=   180.9540
   Eigenvalues:   158.1946   160.5374   195.2935
     37  H    Isotropic =    30.6018   Anisotropy =     8.3318
   XX=    26.8102   YX=     0.7793   ZX=     0.8506
   XY=     0.2753   YY=    29.0039   ZY=     0.2117
   XZ=     0.4086   YZ=     1.5864   ZZ=    35.9913
   Eigenvalues:    26.6708    28.9783    36.1563
     38  H    Isotropic =    31.1227   Anisotropy =     9.0490
   XX=    29.2504   YX=     1.9575   ZX=    -0.8746
   XY=     2.3478   YY=    33.9481   ZY=    -3.6704
   XZ=    -1.2678   YZ=    -4.2149   ZZ=    30.1697
   Eigenvalues:    27.6275    28.5853    37.1554
     39  H    Isotropic =    29.6375   Anisotropy =    10.2305
   XX=    35.6292   YX=    -2.3021   ZX=    -1.6492
   XY=    -3.3553   YY=    26.6405   ZY=    -1.9343
   XZ=    -0.3123   YZ=    -2.3935   ZZ=    26.6429
   Eigenvalues:    23.8435    28.6112    36.4579
     40  C    Isotropic =   169.0350   Anisotropy =    41.0744
   XX=   192.0025   YX=   -12.1317   ZX=    -7.9182
   XY=    -7.7673   YY=   159.3402   ZY=     2.5311
   XZ=    -7.1020   YZ=     4.0541   ZZ=   155.7622
   Eigenvalues:   153.7004   156.9866   196.4179
     41  H    Isotropic =    30.7318   Anisotropy =     9.0625
   XX=    31.9486   YX=    -1.4316   ZX=    -4.6674
   XY=    -0.7794   YY=    29.7503   ZY=     3.8869
   XZ=    -3.0757   YZ=     3.6046   ZZ=    30.4966
   Eigenvalues:    25.6825    29.7396    36.7735
     42  H    Isotropic =    30.7613   Anisotropy =     9.2299
   XX=    34.7310   YX=    -2.4994   ZX=     3.2392
   XY=    -2.1815   YY=    28.9244   ZY=    -3.0859
   XZ=     1.7118   YZ=    -2.5681   ZZ=    28.6284
   Eigenvalues:    25.9405    29.4288    36.9145
     43  H    Isotropic =    30.9979   Anisotropy =     9.9683
   XX=    35.0757   YX=     4.5570   ZX=    -1.8150
   XY=     3.0838   YY=    30.6416   ZY=    -0.7999
   XZ=    -1.7197   YZ=    -0.8861   ZZ=    27.2764
   Eigenvalues:    26.8945    28.4558    37.6435
     44  C    Isotropic =   170.8174   Anisotropy =    34.8824
   XX=   158.3912   YX=    -0.1390   ZX=    -0.9995
   XY=    -1.6073   YY=   170.6260   ZY=    17.2123
   XZ=    -4.5086   YZ=    13.9068   ZZ=   183.4349
   Eigenvalues:   157.8951   160.4847   194.0723
     45  H    Isotropic =    31.1205   Anisotropy =     9.0781
   XX=    29.8348   YX=     3.3860   ZX=     0.3038
   XY=     3.5519   YY=    34.9615   ZY=     1.6417
   XZ=     0.7385   YZ=     2.2899   ZZ=    28.5651
   Eigenvalues:    27.6850    28.5039    37.1725
     46  H    Isotropic =    30.7151   Anisotropy =     8.0689
   XX=    27.8363   YX=     0.7326   ZX=     2.7753
   XY=     0.7951   YY=    29.2569   ZY=     0.4846
   XZ=     3.0921   YZ=    -1.0589   ZZ=    35.0521
   Eigenvalues:    26.5483    29.5026    36.0944
     47  H    Isotropic =    29.6530   Anisotropy =    10.3629
   XX=    35.1502   YX=    -1.3666   ZX=    -1.6867
   XY=    -2.6685   YY=    27.3160   ZY=     3.0238
   XZ=    -2.8935   YZ=     3.1426   ZZ=    26.4927
   Eigenvalues:    23.7781    28.6193    36.5616
 End of Minotr Frequency-dependent properties file   721 does not exist.
 End of Minotr Frequency-dependent properties file   722 does not exist.

 **********************************************************************

            Population analysis using the SCF density.

 **********************************************************************

 Orbital symmetries:
       Occupied  (A) (A) (A) (A) (A) (A) (A) (A) (A) (A) (A) (A)
                 (A) (A) (A) (A) (A) (A) (A) (A) (A) (A) (A) (A)
                 (A) (A) (A) (A) (A) (A) (A) (A) (A) (A) (A) (A)
                 (A) (A) (A) (A) (A) (A) (A) (A) (A) (A) (A) (A)
                 (A) (A) (A) (A) (A) (A) (A) (A) (A) (A) (A) (A)
                 (A) (A) (A) (A) (A) (A) (A) (A) (A) (A) (A) (A)
                 (A) (A) (A) (A) (A) (A) (A)
       Virtual   (A) (A) (A) (A) (A) (A) (A) (A) (A) (A) (A) (A)
                 (A) (A) (A) (A) (A) (A) (A) (A) (A) (A) (A) (A)
                 (A) (A) (A) (A) (A) (A) (A) (A) (A) (A) (A) (A)
                 (A) (A) (A) (A) (A) (A) (A) (A) (A) (A) (A) (A)
                 (A) (A) (A) (A) (A) (A) (A) (A) (A) (A) (A) (A)
                 (A) (A) (A) (A) (A) (A) (A) (A) (A) (A) (A) (A)
                 (A) (A) (A) (A) (A) (A) (A) (A) (A) (A) (A) (A)
                 (A) (A) (A) (A) (A) (A) (A) (A) (A) (A) (A) (A)
                 (A) (A) (A) (A) (A) (A) (A) (A) (A) (A) (A) (A)
                 (A) (A) (A) (A) (A) (A) (A) (A) (A) (A) (A) (A)
                 (A) (A) (A) (A) (A) (A) (A) (A) (A) (A) (A) (A)
                 (A) (A) (A) (A) (A) (A) (A) (A) (A) (A) (A) (A)
                 (A) (A) (A) (A) (A) (A) (A) (A) (A) (A) (A) (A)
                 (A) (A) (A) (A) (A) (A) (A) (A) (A) (A) (A) (A)
                 (A) (A) (A) (A) (A) (A) (A) (A) (A) (A) (A) (A)
                 (A) (A) (A) (A) (A) (A) (A) (A) (A) (A) (A) (A)
                 (A) (A) (A) (A) (A) (A) (A) (A) (A) (A) (A) (A)
                 (A) (A) (A) (A) (A) (A) (A) (A) (A) (A) (A) (A)
                 (A) (A) (A) (A) (A) (A) (A) (A) (A) (A) (A) (A)
                 (A) (A) (A) (A) (A) (A) (A) (A) (A) (A) (A) (A)
                 (A) (A) (A) (A) (A) (A) (A) (A) (A) (A) (A) (A)
                 (A) (A) (A) (A) (A) (A) (A) (A) (A) (A) (A) (A)
                 (A) (A) (A) (A) (A) (A) (A) (A) (A) (A) (A) (A)
                 (A) (A) (A) (A) (A) (A) (A) (A) (A) (A) (A) (A)
                 (A) (A) (A) (A) (A) (A) (A) (A) (A) (A) (A) (A)
                 (A) (A) (A) (A) (A) (A) (A) (A) (A) (A) (A) (A)
                 (A) (A) (A) (A) (A) (A) (A) (A) (A) (A) (A) (A)
                 (A) (A) (A) (A) (A) (A) (A) (A) (A) (A) (A) (A)
                 (A) (A) (A) (A) (A) (A) (A) (A) (A) (A) (A) (A)
                 (A) (A) (A) (A) (A) (A) (A) (A) (A) (A) (A) (A)
                 (A) (A) (A) (A) (A) (A) (A) (A) (A) (A) (A) (A)
                 (A) (A) (A) (A) (A) (A) (A) (A) (A) (A) (A) (A)
                 (A) (A) (A) (A) (A) (A) (A) (A) (A) (A) (A) (A)
                 (A) (A) (A) (A) (A) (A) (A) (A) (A) (A) (A) (A)
                 (A) (A) (A) (A) (A) (A) (A) (A) (A) (A) (A) (A)
                 (A) (A) (A) (A) (A) (A)
 The electronic state is 1-A.
 Alpha  occ. eigenvalues --  -66.30262 -19.27157 -19.25247 -19.25042 -19.23224
 Alpha  occ. eigenvalues --  -10.31882 -10.30817 -10.30559 -10.30295 -10.30227
 Alpha  occ. eigenvalues --  -10.28125 -10.25510 -10.25111 -10.24315 -10.23369
 Alpha  occ. eigenvalues --  -10.22754 -10.22589 -10.22444 -10.22150  -5.33634
 Alpha  occ. eigenvalues --   -3.67551  -3.67281  -3.67213  -1.11550  -1.07238
 Alpha  occ. eigenvalues --   -1.05226  -1.02967  -0.84546  -0.81743  -0.77466
 Alpha  occ. eigenvalues --   -0.75375  -0.72121  -0.70259  -0.69964  -0.69749
 Alpha  occ. eigenvalues --   -0.69169  -0.69019  -0.63802  -0.61926  -0.59232
 Alpha  occ. eigenvalues --   -0.56411  -0.55056  -0.52545  -0.51877  -0.50617
 Alpha  occ. eigenvalues --   -0.48303  -0.48051  -0.47555  -0.46797  -0.45699
 Alpha  occ. eigenvalues --   -0.44610  -0.44170  -0.43777  -0.42813  -0.42041
 Alpha  occ. eigenvalues --   -0.41597  -0.41104  -0.40585  -0.40237  -0.39971
 Alpha  occ. eigenvalues --   -0.39470  -0.38938  -0.38599  -0.38372  -0.38041
 Alpha  occ. eigenvalues --   -0.36769  -0.36461  -0.35313  -0.34289  -0.33836
 Alpha  occ. eigenvalues --   -0.33177  -0.32630  -0.32419  -0.30942  -0.30794
 Alpha  occ. eigenvalues --   -0.29780  -0.29613  -0.26061  -0.25632
 Alpha virt. eigenvalues --   -0.00253   0.00768   0.01473   0.01566   0.02426
 Alpha virt. eigenvalues --    0.02954   0.03311   0.03759   0.03856   0.04682
 Alpha virt. eigenvalues --    0.05102   0.05148   0.06082   0.06117   0.06632
 Alpha virt. eigenvalues --    0.06841   0.07137   0.07635   0.08048   0.08341
 Alpha virt. eigenvalues --    0.08510   0.08670   0.08974   0.09579   0.09906
 Alpha virt. eigenvalues --    0.09957   0.10464   0.10600   0.11395   0.11643
 Alpha virt. eigenvalues --    0.11760   0.12244   0.12586   0.12908   0.13060
 Alpha virt. eigenvalues --    0.13169   0.13632   0.14285   0.14699   0.15029
 Alpha virt. eigenvalues --    0.15218   0.15658   0.15727   0.15961   0.16612
 Alpha virt. eigenvalues --    0.16988   0.17166   0.17435   0.17751   0.18046
 Alpha virt. eigenvalues --    0.18442   0.18865   0.19056   0.19380   0.20100
 Alpha virt. eigenvalues --    0.20225   0.20521   0.20632   0.21174   0.21281
 Alpha virt. eigenvalues --    0.21395   0.21962   0.22143   0.22426   0.22744
 Alpha virt. eigenvalues --    0.22980   0.23243   0.23321   0.23855   0.24220
 Alpha virt. eigenvalues --    0.24595   0.25437   0.25706   0.25884   0.26159
 Alpha virt. eigenvalues --    0.26282   0.26931   0.27125   0.27551   0.27624
 Alpha virt. eigenvalues --    0.27883   0.28512   0.29229   0.29596   0.29719
 Alpha virt. eigenvalues --    0.30584   0.30635   0.31022   0.31292   0.31495
 Alpha virt. eigenvalues --    0.31924   0.32195   0.32443   0.32794   0.33977
 Alpha virt. eigenvalues --    0.34544   0.35033   0.35401   0.35668   0.36211
 Alpha virt. eigenvalues --    0.36602   0.37473   0.38300   0.38736   0.39281
 Alpha virt. eigenvalues --    0.39395   0.39960   0.40221   0.40707   0.41354
 Alpha virt. eigenvalues --    0.42640   0.42732   0.43034   0.44372   0.45377
 Alpha virt. eigenvalues --    0.45814   0.46855   0.47569   0.48005   0.48471
 Alpha virt. eigenvalues --    0.49577   0.51209   0.52721   0.53501   0.54914
 Alpha virt. eigenvalues --    0.56047   0.59968   0.61614   0.65721   0.67377
 Alpha virt. eigenvalues --    0.68591   0.69224   0.70508   0.71196   0.71588
 Alpha virt. eigenvalues --    0.73427   0.73969   0.74147   0.74607   0.75638
 Alpha virt. eigenvalues --    0.76365   0.77282   0.77871   0.78350   0.79555
 Alpha virt. eigenvalues --    0.79804   0.80237   0.80871   0.81173   0.82586
 Alpha virt. eigenvalues --    0.83607   0.83763   0.84199   0.85228   0.86559
 Alpha virt. eigenvalues --    0.86746   0.87637   0.88963   0.89566   0.90465
 Alpha virt. eigenvalues --    0.91033   0.92431   0.92954   0.93105   0.93839
 Alpha virt. eigenvalues --    0.94430   0.95694   0.95732   0.97349   0.98453
 Alpha virt. eigenvalues --    0.98850   0.99499   1.00292   1.01101   1.01653
 Alpha virt. eigenvalues --    1.02606   1.03927   1.04496   1.04994   1.05158
 Alpha virt. eigenvalues --    1.06136   1.06672   1.07257   1.07726   1.08459
 Alpha virt. eigenvalues --    1.09225   1.09736   1.10540   1.10798   1.13036
 Alpha virt. eigenvalues --    1.13825   1.15116   1.15335   1.17030   1.18475
 Alpha virt. eigenvalues --    1.18551   1.18749   1.19591   1.20584   1.21661
 Alpha virt. eigenvalues --    1.23024   1.23339   1.24463   1.24941   1.26844
 Alpha virt. eigenvalues --    1.28105   1.30006   1.30418   1.32127   1.33410
 Alpha virt. eigenvalues --    1.34309   1.35794   1.36297   1.36647   1.38532
 Alpha virt. eigenvalues --    1.39475   1.39575   1.40447   1.42427   1.43077
 Alpha virt. eigenvalues --    1.44114   1.46438   1.47377   1.49215   1.50346
 Alpha virt. eigenvalues --    1.50593   1.51325   1.51880   1.53678   1.55736
 Alpha virt. eigenvalues --    1.57983   1.59284   1.60611   1.62499   1.62624
 Alpha virt. eigenvalues --    1.63471   1.65426   1.65847   1.67636   1.69139
 Alpha virt. eigenvalues --    1.70573   1.71479   1.72792   1.74351   1.76117
 Alpha virt. eigenvalues --    1.76967   1.78944   1.80492   1.82275   1.83220
 Alpha virt. eigenvalues --    1.83754   1.84913   1.86115   1.86129   1.87729
 Alpha virt. eigenvalues --    1.88947   1.91379   1.92565   1.92727   1.92790
 Alpha virt. eigenvalues --    1.94125   1.95326   1.96484   1.96732   1.97479
 Alpha virt. eigenvalues --    1.97766   1.99160   1.99653   2.00593   2.01865
 Alpha virt. eigenvalues --    2.03185   2.04948   2.06272   2.06575   2.06673
 Alpha virt. eigenvalues --    2.07553   2.07713   2.09259   2.09294   2.09573
 Alpha virt. eigenvalues --    2.10204   2.11033   2.12470   2.12770   2.13202
 Alpha virt. eigenvalues --    2.13329   2.14414   2.15452   2.15760   2.16419
 Alpha virt. eigenvalues --    2.16557   2.17453   2.17864   2.18501   2.18732
 Alpha virt. eigenvalues --    2.18993   2.19472   2.20714   2.21017   2.21767
 Alpha virt. eigenvalues --    2.22317   2.22705   2.23754   2.25033   2.26255
 Alpha virt. eigenvalues --    2.27540   2.30507   2.30770   2.32621   2.35618
 Alpha virt. eigenvalues --    2.36415   2.37397   2.38213   2.38889   2.39549
 Alpha virt. eigenvalues --    2.40790   2.42804   2.43326   2.43976   2.44741
 Alpha virt. eigenvalues --    2.45658   2.46555   2.49413   2.51351   2.53770
 Alpha virt. eigenvalues --    2.54272   2.57207   2.57493   2.58181   2.59194
 Alpha virt. eigenvalues --    2.60404   2.61523   2.62679   2.63139   2.65879
 Alpha virt. eigenvalues --    2.67562   2.68024   2.68640   2.68822   2.70563
 Alpha virt. eigenvalues --    2.71075   2.72976   2.73344   2.73849   2.75662
 Alpha virt. eigenvalues --    2.75929   2.77314   2.78829   2.79242   2.79294
 Alpha virt. eigenvalues --    2.81023   2.82159   2.83469   2.84009   2.84765
 Alpha virt. eigenvalues --    2.86221   2.86339   2.86964   2.87981   2.88934
 Alpha virt. eigenvalues --    2.89170   2.89195   2.90046   2.90352   2.91109
 Alpha virt. eigenvalues --    2.92396   2.93617   2.94847   2.96504   2.98282
 Alpha virt. eigenvalues --    2.99067   2.99691   3.01663   3.04676   3.06595
 Alpha virt. eigenvalues --    3.11770   3.12692   3.20952   3.25031   3.27395
 Alpha virt. eigenvalues --    3.27842   3.28133   3.30883   3.31285   3.33171
 Alpha virt. eigenvalues --    3.33410   3.37412   3.38079   3.39720   3.45360
 Alpha virt. eigenvalues --    3.48129   3.48336   3.48879   3.49180   3.49468
 Alpha virt. eigenvalues --    3.50297   3.50767   3.50850   3.51205   3.51577
 Alpha virt. eigenvalues --    3.52694   3.53936   3.56155   3.57322   3.57742
 Alpha virt. eigenvalues --    3.58192   3.60197   3.62915   4.37236   4.41308
 Alpha virt. eigenvalues --    4.47043   4.50839   4.53817   4.54766   4.57951
 Alpha virt. eigenvalues --    4.61782   4.62783   4.65362   4.66153   4.69352
 Alpha virt. eigenvalues --    4.74636   4.75390   4.79647   4.84310   4.94210
 Alpha virt. eigenvalues --    4.99537
          Condensed to atoms (all electrons):
              1          2          3          4          5          6
     1  H    0.610220   0.144293  -0.006697   0.015093   0.038616   0.146029
     2  C    0.144293  13.439290   0.082785  -2.106673   0.901130  -5.971397
     3  C   -0.006697   0.082785   8.759616  -2.602949  -0.431629  -0.106327
     4  C    0.015093  -2.106673  -2.602949  12.821225  -3.475096   0.887012
     5  C    0.038616   0.901130  -0.431629  -3.475096  11.216169  -0.498163
     6  C    0.146029  -5.971397  -0.106327   0.887012  -0.498163  12.604017
     7  C   -0.089504  -1.204766   0.604030  -0.168473  -0.189927   0.391104
     8  H   -0.000070  -0.085339   0.418024   0.021072  -0.067610   0.064461
     9  H   -0.000195   0.114832  -0.012656   0.358962  -0.008275  -0.186337
    10  H   -0.004926   0.160301  -0.007089  -0.172315   0.093044   0.202557
    11  H   -0.001991  -0.183646  -0.017324   0.012853  -0.022579   0.093343
    12  H   -0.000114   0.061102   0.314519   0.066075  -0.027917  -0.003055
    13  H   -0.005063  -0.040144  -0.044532   0.005090   0.025826   0.007220
    14  C    0.007537   0.406909  -0.609360   0.668301  -2.090985  -0.864905
    15  H    0.000000  -0.004853  -0.040813   0.123377  -0.140977   0.004636
    16  H    0.000000   0.006034   0.052505  -0.031054  -0.136270  -0.012428
    17  O   -0.000556  -0.013820  -0.000296  -0.331759   0.305650   0.030787
    18  O   -0.000722   0.092855   0.083884   0.165302   0.081911  -0.192553
    19  H   -0.000007   0.037993   0.004391   0.044066  -0.045961  -0.073421
    20  O    0.007642  -0.081012   0.023314  -0.269095   0.123177   0.287085
    21  C   -0.006608   0.045463   0.024455   0.043350  -0.091614  -0.109711
    22  H   -0.000083   0.063371   0.002927  -0.020787   0.010544  -0.070826
    23  H    0.000027  -0.048832  -0.006416   0.035227  -0.030035   0.070325
    24  H   -0.000018  -0.005647   0.000174  -0.001116   0.003597   0.004618
    25  O   -0.050116   0.058064  -0.039445  -0.006471   0.078619  -0.080566
    26  Si   0.102461  -0.524812  -0.072959  -0.173188   0.118716   0.355021
    27  C   -0.019706   0.071036   0.002916  -0.002213   0.005279  -0.095769
    28  H   -0.000033   0.002700   0.000242   0.000209  -0.000116  -0.000334
    29  H   -0.000095  -0.011795  -0.000843  -0.000279  -0.000185   0.004167
    30  H    0.001407  -0.014831   0.001768  -0.001128   0.000096   0.000529
    31  C   -0.036012   0.068887   0.010895  -0.044570  -0.005199  -0.006208
    32  C   -0.001283  -0.009848  -0.009706   0.008694   0.002447  -0.033994
    33  H    0.000002   0.002667  -0.000201  -0.000016   0.000097   0.000518
    34  H   -0.000002   0.002806  -0.000050   0.002350  -0.001426  -0.000202
    35  H   -0.000002  -0.007893  -0.001893   0.001185  -0.001125   0.000984
    36  C   -0.000323   0.035754   0.002021   0.063192  -0.024310  -0.060706
    37  H   -0.000001  -0.007024   0.000344  -0.000819  -0.000830   0.008180
    38  H    0.000002  -0.001970  -0.000129  -0.001299   0.000002   0.003642
    39  H   -0.000009   0.006055   0.001396   0.002250   0.001465  -0.016122
    40  C   -0.002229   0.051395  -0.000567  -0.012140   0.006067  -0.064061
    41  H    0.000000  -0.000398  -0.000006   0.000060  -0.000003  -0.000150
    42  H    0.000000   0.000942  -0.000030  -0.000002   0.000041  -0.000317
    43  H    0.000000  -0.001334  -0.000002  -0.000053  -0.000008   0.000571
    44  C    0.011145  -0.027057   0.021436   0.027835  -0.011238   0.014747
    45  H    0.000021  -0.005696  -0.000018   0.000080  -0.000131   0.006143
    46  H   -0.000041   0.004844   0.000022  -0.000090   0.000061  -0.003206
    47  H    0.000133   0.015800   0.001092   0.001213   0.000386  -0.017750
              7          8          9         10         11         12
     1  H   -0.089504  -0.000070  -0.000195  -0.004926  -0.001991  -0.000114
     2  C   -1.204766  -0.085339   0.114832   0.160301  -0.183646   0.061102
     3  C    0.604030   0.418024  -0.012656  -0.007089  -0.017324   0.314519
     4  C   -0.168473   0.021072   0.358962  -0.172315   0.012853   0.066075
     5  C   -0.189927  -0.067610  -0.008275   0.093044  -0.022579  -0.027917
     6  C    0.391104   0.064461  -0.186337   0.202557   0.093343  -0.003055
     7  C    6.641399  -0.028765   0.011616   0.003223   0.432109  -0.064710
     8  H   -0.028765   0.510763   0.000113  -0.000009   0.004404  -0.023514
     9  H    0.011616   0.000113   0.523918   0.004831  -0.000021  -0.000080
    10  H    0.003223  -0.000009   0.004831   0.591069   0.000449  -0.000044
    11  H    0.432109   0.004404  -0.000021   0.000449   0.529954  -0.003863
    12  H   -0.064710  -0.023514  -0.000080  -0.000044  -0.003863   0.528058
    13  H    0.391225  -0.003533   0.000001   0.000092  -0.023533  -0.001736
    14  C   -0.208089  -0.024123   0.028109   0.024467  -0.010241  -0.010499
    15  H   -0.004474   0.000214  -0.000189  -0.000027   0.000001   0.000092
    16  H    0.003462  -0.000200   0.000193   0.000007  -0.000016   0.000612
    17  O    0.031306   0.008784   0.010702   0.005124   0.003819  -0.001424
    18  O   -0.000100  -0.000117  -0.048413  -0.002183  -0.000001  -0.000645
    19  H   -0.003919  -0.000037   0.006801   0.003124  -0.000036  -0.000011
    20  O    0.015783  -0.000700  -0.003432  -0.057138  -0.001395   0.000112
    21  C   -0.002982   0.000331  -0.004653  -0.011112   0.001137   0.000233
    22  H    0.003564   0.000000   0.000015   0.010088  -0.000002   0.000000
    23  H    0.002316   0.000000  -0.000012  -0.001531   0.000001   0.000000
    24  H   -0.001653   0.000000  -0.000005  -0.000043   0.000000   0.000000
    25  O   -0.060181   0.008089   0.005597   0.012938   0.013643  -0.002099
    26  Si  -0.138498   0.001997   0.012834   0.000237  -0.003779  -0.003175
    27  C    0.022546  -0.000545   0.000228   0.000844   0.000173   0.000140
    28  H    0.001383   0.000000   0.000000   0.000000   0.000000   0.000000
    29  H    0.005791   0.000008   0.000000   0.000000   0.000010  -0.000001
    30  H    0.008368   0.000000   0.000000   0.000002  -0.000001   0.000000
    31  C    0.014192  -0.000168  -0.009771  -0.004179  -0.000382   0.000043
    32  C    0.031989   0.000338  -0.000836   0.000139  -0.000054   0.000245
    33  H   -0.000896   0.000000   0.000000   0.000000   0.000000   0.000000
    34  H   -0.000561  -0.000002  -0.000005   0.000000   0.000000   0.000000
    35  H    0.004292   0.000104  -0.000002   0.000000   0.000000   0.000000
    36  C   -0.006206   0.000268   0.005689   0.001856   0.000226   0.000045
    37  H   -0.000411   0.000000  -0.000013   0.000000   0.000000   0.000000
    38  H    0.000210   0.000000   0.000000   0.000000   0.000000   0.000000
    39  H    0.001195   0.000000   0.000413   0.000009   0.000000   0.000000
    40  C    0.016000  -0.000164  -0.000411  -0.000122  -0.000118   0.000001
    41  H   -0.000077   0.000000   0.000000   0.000000   0.000000   0.000000
    42  H    0.000019   0.000000   0.000000   0.000000   0.000000   0.000000
    43  H   -0.000024   0.000000   0.000000   0.000000   0.000000   0.000000
    44  C    0.001612   0.000034   0.000156   0.000152   0.000343  -0.000019
    45  H   -0.000363   0.000000   0.000000   0.000000   0.000000   0.000000
    46  H    0.002028   0.000000   0.000000   0.000001   0.000000   0.000000
    47  H    0.003881   0.000000   0.000003   0.000008  -0.000001   0.000000
             13         14         15         16         17         18
     1  H   -0.005063   0.007537   0.000000   0.000000  -0.000556  -0.000722
     2  C   -0.040144   0.406909  -0.004853   0.006034  -0.013820   0.092855
     3  C   -0.044532  -0.609360  -0.040813   0.052505  -0.000296   0.083884
     4  C    0.005090   0.668301   0.123377  -0.031054  -0.331759   0.165302
     5  C    0.025826  -2.090985  -0.140977  -0.136270   0.305650   0.081911
     6  C    0.007220  -0.864905   0.004636  -0.012428   0.030787  -0.192553
     7  C    0.391225  -0.208089  -0.004474   0.003462   0.031306  -0.000100
     8  H   -0.003533  -0.024123   0.000214  -0.000200   0.008784  -0.000117
     9  H    0.000001   0.028109  -0.000189   0.000193   0.010702  -0.048413
    10  H    0.000092   0.024467  -0.000027   0.000007   0.005124  -0.002183
    11  H   -0.023533  -0.010241   0.000001  -0.000016   0.003819  -0.000001
    12  H   -0.001736  -0.010499   0.000092   0.000612  -0.001424  -0.000645
    13  H    0.530136   0.000102   0.000001  -0.000001  -0.000049   0.000078
    14  C    0.000102   8.013221   0.438384   0.485040   0.033842  -0.106615
    15  H    0.000001   0.438384   0.508850  -0.031753  -0.035806   0.001057
    16  H   -0.000001   0.485040  -0.031753   0.519043  -0.031575   0.000531
    17  O   -0.000049   0.033842  -0.035806  -0.031575   8.339822   0.008989
    18  O    0.000078  -0.106615   0.001057   0.000531   0.008989   8.233997
    19  H    0.000001   0.001128  -0.001654   0.000217   0.031817   0.254271
    20  O   -0.000506  -0.011192  -0.000017   0.000034   0.001993   0.003797
    21  C    0.000456  -0.026138   0.000382  -0.000075  -0.001712  -0.007624
    22  H    0.000000  -0.001069   0.000000   0.000000  -0.000015   0.003667
    23  H    0.000000   0.004023   0.000001   0.000000   0.000106  -0.019012
    24  H    0.000000   0.000039   0.000000   0.000000  -0.000011   0.001321
    25  O   -0.006419   0.028002  -0.000174  -0.000055   0.001036  -0.006492
    26  Si  -0.004353  -0.002222  -0.000467   0.000389   0.001188  -0.009858
    27  C   -0.000474   0.003586   0.000003  -0.000008  -0.000067   0.000229
    28  H    0.000005  -0.000003   0.000000   0.000000   0.000000   0.000000
    29  H    0.000342   0.000038   0.000000   0.000000  -0.000001   0.000000
    30  H   -0.000010  -0.000009   0.000000   0.000000   0.000000   0.000000
    31  C    0.002106  -0.016649   0.000030  -0.000004  -0.000172   0.001505
    32  C   -0.002327   0.000744   0.000019  -0.000035  -0.000061  -0.000072
    33  H    0.000001  -0.000006   0.000000   0.000000   0.000000   0.000000
    34  H    0.000001  -0.000146   0.000000   0.000000   0.000000  -0.000001
    35  H    0.000001   0.000122   0.000000   0.000000   0.000000  -0.000001
    36  C    0.000147   0.007515  -0.000001   0.000006   0.000352   0.000105
    37  H    0.000000  -0.000139   0.000000   0.000000   0.000000  -0.000011
    38  H    0.000000   0.000005   0.000000   0.000000   0.000000   0.000002
    39  H    0.000000   0.000182   0.000000   0.000000   0.000001   0.000027
    40  C   -0.000149  -0.000984   0.000000   0.000000  -0.000003  -0.000116
    41  H    0.000000   0.000000   0.000000   0.000000   0.000000   0.000000
    42  H    0.000000   0.000001   0.000000   0.000000   0.000000   0.000000
    43  H    0.000000   0.000000   0.000000   0.000000   0.000000   0.000000
    44  C   -0.000118   0.004163  -0.000003   0.000001  -0.000019  -0.000379
    45  H    0.000000   0.000000   0.000000   0.000000   0.000000   0.000000
    46  H    0.000000   0.000002   0.000000   0.000000   0.000000   0.000000
    47  H   -0.000001   0.000029   0.000000   0.000000   0.000000  -0.000031
             19         20         21         22         23         24
     1  H   -0.000007   0.007642  -0.006608  -0.000083   0.000027  -0.000018
     2  C    0.037993  -0.081012   0.045463   0.063371  -0.048832  -0.005647
     3  C    0.004391   0.023314   0.024455   0.002927  -0.006416   0.000174
     4  C    0.044066  -0.269095   0.043350  -0.020787   0.035227  -0.001116
     5  C   -0.045961   0.123177  -0.091614   0.010544  -0.030035   0.003597
     6  C   -0.073421   0.287085  -0.109711  -0.070826   0.070325   0.004618
     7  C   -0.003919   0.015783  -0.002982   0.003564   0.002316  -0.001653
     8  H   -0.000037  -0.000700   0.000331   0.000000   0.000000   0.000000
     9  H    0.006801  -0.003432  -0.004653   0.000015  -0.000012  -0.000005
    10  H    0.003124  -0.057138  -0.011112   0.010088  -0.001531  -0.000043
    11  H   -0.000036  -0.001395   0.001137  -0.000002   0.000001   0.000000
    12  H   -0.000011   0.000112   0.000233   0.000000   0.000000   0.000000
    13  H    0.000001  -0.000506   0.000456   0.000000   0.000000   0.000000
    14  C    0.001128  -0.011192  -0.026138  -0.001069   0.004023   0.000039
    15  H   -0.001654  -0.000017   0.000382   0.000000   0.000001   0.000000
    16  H    0.000217   0.000034  -0.000075   0.000000   0.000000   0.000000
    17  O    0.031817   0.001993  -0.001712  -0.000015   0.000106  -0.000011
    18  O    0.254271   0.003797  -0.007624   0.003667  -0.019012   0.001321
    19  H    0.359846  -0.001458  -0.002421  -0.000092  -0.000042  -0.000006
    20  O   -0.001458   8.391983  -0.049750  -0.057622  -0.062449  -0.072184
    21  C   -0.002421  -0.049750   5.141944   0.412804   0.408760   0.431875
    22  H   -0.000092  -0.057622   0.412804   0.574616  -0.041323  -0.027479
    23  H   -0.000042  -0.062449   0.408760  -0.041323   0.539310  -0.029474
    24  H   -0.000006  -0.072184   0.431875  -0.027479  -0.029474   0.533032
    25  O    0.000365   0.021698  -0.013072  -0.000283   0.000257  -0.000268
    26  Si   0.001732   0.011461  -0.031265  -0.004274   0.004635  -0.001694
    27  C   -0.000004  -0.004918   0.000663   0.000208  -0.000099   0.000122
    28  H    0.000000  -0.000005   0.000005   0.000000   0.000000   0.000000
    29  H    0.000000   0.000066   0.000004   0.000000   0.000000   0.000000
    30  H    0.000000   0.000007   0.000034   0.000000   0.000000   0.000000
    31  C   -0.000406  -0.008534   0.014800  -0.002466  -0.000335   0.003660
    32  C   -0.000046  -0.001042  -0.000062  -0.000009  -0.000006  -0.000001
    33  H    0.000000   0.000010   0.000012   0.000000   0.000000   0.000000
    34  H    0.000000  -0.000040   0.000029   0.000000   0.000000   0.000000
    35  H    0.000000   0.000034  -0.000007   0.000000   0.000000   0.000000
    36  C    0.000152   0.019099   0.003462   0.001079  -0.000745  -0.001537
    37  H    0.000000   0.000219  -0.000114   0.000000   0.000000  -0.000001
    38  H    0.000000   0.001403  -0.000674   0.000000   0.000001  -0.000005
    39  H    0.000001  -0.002667   0.001709  -0.000004  -0.000016   0.000068
    40  C   -0.000008  -0.006438   0.003972  -0.000148  -0.000020   0.000838
    41  H    0.000000   0.000002  -0.000015   0.000000   0.000000   0.000000
    42  H    0.000000   0.000001  -0.000004   0.000000   0.000000   0.000000
    43  H    0.000000   0.000049  -0.000024   0.000000   0.000000   0.000000
    44  C    0.000048  -0.021928  -0.002338   0.001146  -0.000762  -0.000173
    45  H    0.000000   0.001878  -0.001131   0.000001   0.000001  -0.000022
    46  H    0.000000   0.000252   0.000208   0.000001   0.000000  -0.000003
    47  H    0.000000  -0.008970   0.001116   0.000000  -0.000011   0.000320
             25         26         27         28         29         30
     1  H   -0.050116   0.102461  -0.019706  -0.000033  -0.000095   0.001407
     2  C    0.058064  -0.524812   0.071036   0.002700  -0.011795  -0.014831
     3  C   -0.039445  -0.072959   0.002916   0.000242  -0.000843   0.001768
     4  C   -0.006471  -0.173188  -0.002213   0.000209  -0.000279  -0.001128
     5  C    0.078619   0.118716   0.005279  -0.000116  -0.000185   0.000096
     6  C   -0.080566   0.355021  -0.095769  -0.000334   0.004167   0.000529
     7  C   -0.060181  -0.138498   0.022546   0.001383   0.005791   0.008368
     8  H    0.008089   0.001997  -0.000545   0.000000   0.000008   0.000000
     9  H    0.005597   0.012834   0.000228   0.000000   0.000000   0.000000
    10  H    0.012938   0.000237   0.000844   0.000000   0.000000   0.000002
    11  H    0.013643  -0.003779   0.000173   0.000000   0.000010  -0.000001
    12  H   -0.002099  -0.003175   0.000140   0.000000  -0.000001   0.000000
    13  H   -0.006419  -0.004353  -0.000474   0.000005   0.000342  -0.000010
    14  C    0.028002  -0.002222   0.003586  -0.000003   0.000038  -0.000009
    15  H   -0.000174  -0.000467   0.000003   0.000000   0.000000   0.000000
    16  H   -0.000055   0.000389  -0.000008   0.000000   0.000000   0.000000
    17  O    0.001036   0.001188  -0.000067   0.000000  -0.000001   0.000000
    18  O   -0.006492  -0.009858   0.000229   0.000000   0.000000   0.000000
    19  H    0.000365   0.001732  -0.000004   0.000000   0.000000   0.000000
    20  O    0.021698   0.011461  -0.004918  -0.000005   0.000066   0.000007
    21  C   -0.013072  -0.031265   0.000663   0.000005   0.000004   0.000034
    22  H   -0.000283  -0.004274   0.000208   0.000000   0.000000   0.000000
    23  H    0.000257   0.004635  -0.000099   0.000000   0.000000   0.000000
    24  H   -0.000268  -0.001694   0.000122   0.000000   0.000000   0.000000
    25  O    8.351653  -0.036540  -0.055772   0.009883  -0.003664  -0.004811
    26  Si  -0.036540  14.137058   0.160767  -0.043236  -0.033378  -0.022031
    27  C   -0.055772   0.160767   5.455899   0.402486   0.395368   0.402566
    28  H    0.009883  -0.043236   0.402486   0.486821  -0.020823  -0.022217
    29  H   -0.003664  -0.033378   0.395368  -0.020823   0.494732  -0.023293
    30  H   -0.004811  -0.022031   0.402566  -0.022217  -0.023293   0.493861
    31  C   -0.002185   0.173633  -0.099178  -0.013905   0.017651  -0.030116
    32  C   -0.071652   0.223255   0.008173  -0.005265  -0.009425   0.007203
    33  H    0.011504  -0.039675  -0.006419   0.000093   0.000109   0.000014
    34  H   -0.010371  -0.018697   0.005934   0.000017   0.000005  -0.000016
    35  H   -0.001835  -0.018007  -0.009593   0.000106   0.000414   0.000009
    36  C    0.006280  -0.218996  -0.006364   0.001736  -0.000500  -0.004379
    37  H   -0.005613   0.010900   0.000453   0.000001  -0.000001   0.000000
    38  H   -0.000474   0.022861  -0.001515   0.000000   0.000000   0.000000
    39  H    0.012767  -0.033507  -0.000483  -0.000001  -0.000001   0.000002
    40  C    0.018191  -0.149179   0.030592   0.001267   0.001066   0.005308
    41  H   -0.000246  -0.009700  -0.000366   0.000001  -0.000006   0.000002
    42  H    0.000856  -0.008158   0.003526   0.000571  -0.000015   0.000015
    43  H   -0.000649   0.017273   0.000495   0.000009   0.000001  -0.000003
    44  C   -0.002028  -0.186540   0.003293   0.008081  -0.000819   0.016879
    45  H   -0.000561   0.022694  -0.001182   0.000000   0.000000   0.000008
    46  H   -0.000840  -0.024725   0.006430   0.000094   0.000035  -0.000188
    47  H    0.009845  -0.017900   0.000041   0.000022  -0.000006   0.000070
             31         32         33         34         35         36
     1  H   -0.036012  -0.001283   0.000002  -0.000002  -0.000002  -0.000323
     2  C    0.068887  -0.009848   0.002667   0.002806  -0.007893   0.035754
     3  C    0.010895  -0.009706  -0.000201  -0.000050  -0.001893   0.002021
     4  C   -0.044570   0.008694  -0.000016   0.002350   0.001185   0.063192
     5  C   -0.005199   0.002447   0.000097  -0.001426  -0.001125  -0.024310
     6  C   -0.006208  -0.033994   0.000518  -0.000202   0.000984  -0.060706
     7  C    0.014192   0.031989  -0.000896  -0.000561   0.004292  -0.006206
     8  H   -0.000168   0.000338   0.000000  -0.000002   0.000104   0.000268
     9  H   -0.009771  -0.000836   0.000000  -0.000005  -0.000002   0.005689
    10  H   -0.004179   0.000139   0.000000   0.000000   0.000000   0.001856
    11  H   -0.000382  -0.000054   0.000000   0.000000   0.000000   0.000226
    12  H    0.000043   0.000245   0.000000   0.000000   0.000000   0.000045
    13  H    0.002106  -0.002327   0.000001   0.000001   0.000001   0.000147
    14  C   -0.016649   0.000744  -0.000006  -0.000146   0.000122   0.007515
    15  H    0.000030   0.000019   0.000000   0.000000   0.000000  -0.000001
    16  H   -0.000004  -0.000035   0.000000   0.000000   0.000000   0.000006
    17  O   -0.000172  -0.000061   0.000000   0.000000   0.000000   0.000352
    18  O    0.001505  -0.000072   0.000000  -0.000001  -0.000001   0.000105
    19  H   -0.000406  -0.000046   0.000000   0.000000   0.000000   0.000152
    20  O   -0.008534  -0.001042   0.000010  -0.000040   0.000034   0.019099
    21  C    0.014800  -0.000062   0.000012   0.000029  -0.000007   0.003462
    22  H   -0.002466  -0.000009   0.000000   0.000000   0.000000   0.001079
    23  H   -0.000335  -0.000006   0.000000   0.000000   0.000000  -0.000745
    24  H    0.003660  -0.000001   0.000000   0.000000   0.000000  -0.001537
    25  O   -0.002185  -0.071652   0.011504  -0.010371  -0.001835   0.006280
    26  Si   0.173633   0.223255  -0.039675  -0.018697  -0.018007  -0.218996
    27  C   -0.099178   0.008173  -0.006419   0.005934  -0.009593  -0.006364
    28  H   -0.013905  -0.005265   0.000093   0.000017   0.000106   0.001736
    29  H    0.017651  -0.009425   0.000109   0.000005   0.000414  -0.000500
    30  H   -0.030116   0.007203   0.000014  -0.000016   0.000009  -0.004379
    31  C    8.651924  -0.137292  -0.020736  -0.018373   0.015247  -0.570525
    32  C   -0.137292   5.485349   0.403295   0.395459   0.384990  -0.060515
    33  H   -0.020736   0.403295   0.491322  -0.021511  -0.021315   0.004798
    34  H   -0.018373   0.395459  -0.021511   0.487199  -0.022443   0.018734
    35  H    0.015247   0.384990  -0.021315  -0.022443   0.494396   0.002233
    36  C   -0.570525  -0.060515   0.004798   0.018734   0.002233   6.245341
    37  H   -0.068528   0.000053   0.000058   0.000297  -0.000012   0.412990
    38  H   -0.161619  -0.000374   0.000000  -0.000007   0.000001   0.479310
    39  H   -0.089001   0.002113  -0.000002   0.000037  -0.000005   0.470505
    40  C   -0.444462   0.104037   0.007254  -0.004667  -0.002792  -0.376237
    41  H   -0.096923   0.004599  -0.000109   0.000041   0.000023  -0.017402
    42  H   -0.088908  -0.001225  -0.000014   0.000034  -0.000008   0.006938
    43  H   -0.144158  -0.000645   0.000043  -0.000010   0.000000   0.016624
    44  C   -0.518395  -0.021217   0.002249  -0.002732  -0.001041   0.098620
    45  H   -0.166819  -0.001674   0.000000   0.000000   0.000000   0.037971
    46  H   -0.052152  -0.000274   0.000001   0.000000  -0.000001   0.005029
    47  H   -0.099618   0.000389  -0.000001   0.000001  -0.000001  -0.015169
             37         38         39         40         41         42
     1  H   -0.000001   0.000002  -0.000009  -0.002229   0.000000   0.000000
     2  C   -0.007024  -0.001970   0.006055   0.051395  -0.000398   0.000942
     3  C    0.000344  -0.000129   0.001396  -0.000567  -0.000006  -0.000030
     4  C   -0.000819  -0.001299   0.002250  -0.012140   0.000060  -0.000002
     5  C   -0.000830   0.000002   0.001465   0.006067  -0.000003   0.000041
     6  C    0.008180   0.003642  -0.016122  -0.064061  -0.000150  -0.000317
     7  C   -0.000411   0.000210   0.001195   0.016000  -0.000077   0.000019
     8  H    0.000000   0.000000   0.000000  -0.000164   0.000000   0.000000
     9  H   -0.000013   0.000000   0.000413  -0.000411   0.000000   0.000000
    10  H    0.000000   0.000000   0.000009  -0.000122   0.000000   0.000000
    11  H    0.000000   0.000000   0.000000  -0.000118   0.000000   0.000000
    12  H    0.000000   0.000000   0.000000   0.000001   0.000000   0.000000
    13  H    0.000000   0.000000   0.000000  -0.000149   0.000000   0.000000
    14  C   -0.000139   0.000005   0.000182  -0.000984   0.000000   0.000001
    15  H    0.000000   0.000000   0.000000   0.000000   0.000000   0.000000
    16  H    0.000000   0.000000   0.000000   0.000000   0.000000   0.000000
    17  O    0.000000   0.000000   0.000001  -0.000003   0.000000   0.000000
    18  O   -0.000011   0.000002   0.000027  -0.000116   0.000000   0.000000
    19  H    0.000000   0.000000   0.000001  -0.000008   0.000000   0.000000
    20  O    0.000219   0.001403  -0.002667  -0.006438   0.000002   0.000001
    21  C   -0.000114  -0.000674   0.001709   0.003972  -0.000015  -0.000004
    22  H    0.000000   0.000000  -0.000004  -0.000148   0.000000   0.000000
    23  H    0.000000   0.000001  -0.000016  -0.000020   0.000000   0.000000
    24  H   -0.000001  -0.000005   0.000068   0.000838   0.000000   0.000000
    25  O   -0.005613  -0.000474   0.012767   0.018191  -0.000246   0.000856
    26  Si   0.010900   0.022861  -0.033507  -0.149179  -0.009700  -0.008158
    27  C    0.000453  -0.001515  -0.000483   0.030592  -0.000366   0.003526
    28  H    0.000001   0.000000  -0.000001   0.001267   0.000001   0.000571
    29  H   -0.000001   0.000000  -0.000001   0.001066  -0.000006  -0.000015
    30  H    0.000000   0.000000   0.000002   0.005308   0.000002   0.000015
    31  C   -0.068528  -0.161619  -0.089001  -0.444462  -0.096923  -0.088908
    32  C    0.000053  -0.000374   0.002113   0.104037   0.004599  -0.001225
    33  H    0.000058   0.000000  -0.000002   0.007254  -0.000109  -0.000014
    34  H    0.000297  -0.000007   0.000037  -0.004667   0.000041   0.000034
    35  H   -0.000012   0.000001  -0.000005  -0.002792   0.000023  -0.000008
    36  C    0.412990   0.479310   0.470505  -0.376237  -0.017402   0.006938
    37  H    0.542868  -0.028665  -0.025681  -0.007854   0.002704   0.000024
    38  H   -0.028665   0.553626  -0.028046  -0.024866  -0.000364  -0.000004
    39  H   -0.025681  -0.028046   0.501909   0.008126   0.000041  -0.000143
    40  C   -0.007854  -0.024866   0.008126   6.237152   0.472833   0.449329
    41  H    0.002704  -0.000364   0.000041   0.472833   0.532485  -0.027751
    42  H    0.000024  -0.000004  -0.000143   0.449329  -0.027751   0.538960
    43  H   -0.000276   0.005396  -0.000004   0.429513  -0.027602  -0.028261
    44  C    0.008128   0.023583  -0.013680  -0.267323  -0.000099  -0.012539
    45  H    0.000027   0.005692  -0.000406  -0.036149   0.000010  -0.000332
    46  H   -0.000155   0.000028   0.000035  -0.002087   0.000020   0.002737
    47  H    0.000040  -0.000480   0.003677   0.011693  -0.000146   0.000032
             43         44         45         46         47
     1  H    0.000000   0.011145   0.000021  -0.000041   0.000133
     2  C   -0.001334  -0.027057  -0.005696   0.004844   0.015800
     3  C   -0.000002   0.021436  -0.000018   0.000022   0.001092
     4  C   -0.000053   0.027835   0.000080  -0.000090   0.001213
     5  C   -0.000008  -0.011238  -0.000131   0.000061   0.000386
     6  C    0.000571   0.014747   0.006143  -0.003206  -0.017750
     7  C   -0.000024   0.001612  -0.000363   0.002028   0.003881
     8  H    0.000000   0.000034   0.000000   0.000000   0.000000
     9  H    0.000000   0.000156   0.000000   0.000000   0.000003
    10  H    0.000000   0.000152   0.000000   0.000001   0.000008
    11  H    0.000000   0.000343   0.000000   0.000000  -0.000001
    12  H    0.000000  -0.000019   0.000000   0.000000   0.000000
    13  H    0.000000  -0.000118   0.000000   0.000000  -0.000001
    14  C    0.000000   0.004163   0.000000   0.000002   0.000029
    15  H    0.000000  -0.000003   0.000000   0.000000   0.000000
    16  H    0.000000   0.000001   0.000000   0.000000   0.000000
    17  O    0.000000  -0.000019   0.000000   0.000000   0.000000
    18  O    0.000000  -0.000379   0.000000   0.000000  -0.000031
    19  H    0.000000   0.000048   0.000000   0.000000   0.000000
    20  O    0.000049  -0.021928   0.001878   0.000252  -0.008970
    21  C   -0.000024  -0.002338  -0.001131   0.000208   0.001116
    22  H    0.000000   0.001146   0.000001   0.000001   0.000000
    23  H    0.000000  -0.000762   0.000001   0.000000  -0.000011
    24  H    0.000000  -0.000173  -0.000022  -0.000003   0.000320
    25  O   -0.000649  -0.002028  -0.000561  -0.000840   0.009845
    26  Si   0.017273  -0.186540   0.022694  -0.024725  -0.017900
    27  C    0.000495   0.003293  -0.001182   0.006430   0.000041
    28  H    0.000009   0.008081   0.000000   0.000094   0.000022
    29  H    0.000001  -0.000819   0.000000   0.000035  -0.000006
    30  H   -0.000003   0.016879   0.000008  -0.000188   0.000070
    31  C   -0.144158  -0.518395  -0.166819  -0.052152  -0.099618
    32  C   -0.000645  -0.021217  -0.001674  -0.000274   0.000389
    33  H    0.000043   0.002249   0.000000   0.000001  -0.000001
    34  H   -0.000010  -0.002732   0.000000   0.000000   0.000001
    35  H    0.000000  -0.001041   0.000000  -0.000001  -0.000001
    36  C    0.016624   0.098620   0.037971   0.005029  -0.015169
    37  H   -0.000276   0.008128   0.000027  -0.000155   0.000040
    38  H    0.005396   0.023583   0.005692   0.000028  -0.000480
    39  H   -0.000004  -0.013680  -0.000406   0.000035   0.003677
    40  C    0.429513  -0.267323  -0.036149  -0.002087   0.011693
    41  H   -0.027602  -0.000099   0.000010   0.000020  -0.000146
    42  H   -0.028261  -0.012539  -0.000332   0.002737   0.000032
    43  H    0.540786   0.022146   0.005700  -0.000385   0.000012
    44  C    0.022146   6.105396   0.481775   0.414158   0.465705
    45  H    0.005700   0.481775   0.551878  -0.028178  -0.027705
    46  H   -0.000385   0.414158  -0.028178   0.542476  -0.026834
    47  H    0.000012   0.465705  -0.027705  -0.026834   0.511010
 Mulliken atomic charges:
              1
     1  H    0.141776
     2  C    0.481481
     3  C   -0.400824
     4  C    0.047509
     5  C    0.288669
     6  C   -0.719190
     7  C   -0.470062
     8  H    0.195893
     9  H    0.190295
    10  H    0.146156
    11  H    0.176518
    12  H    0.171630
    13  H    0.170119
    14  C   -0.172117
    15  H    0.184161
    16  H    0.175400
    17  O   -0.397973
    18  O   -0.538582
    19  H    0.383579
    20  O   -0.188606
    21  C   -0.174097
    22  H    0.142452
    23  H    0.176130
    24  H    0.161677
    25  O   -0.186404
    26  Si   0.451701
    27  C   -0.679319
    28  H    0.190209
    29  H    0.185320
    30  H    0.184883
    31  C   -0.016624
    32  C   -0.694591
    33  H    0.186854
    34  H    0.188317
    35  H    0.183836
    36  C   -0.584160
    37  H    0.158860
    38  H    0.154727
    39  H    0.195793
    40  C   -0.451341
    41  H    0.168539
    42  H    0.163682
    43  H    0.164818
    44  C   -0.642382
    45  H    0.156488
    46  H    0.160695
    47  H    0.188105
 Sum of Mulliken atomic charges =   0.00000
 Mulliken charges with hydrogens summed into heavy atoms:
              1
     2  C    0.623257
     3  C   -0.033301
     4  C    0.237804
     5  C    0.288669
     6  C   -0.573034
     7  C   -0.123426
    14  C    0.187444
    17  O   -0.397973
    18  O   -0.155003
    20  O   -0.188606
    21  C    0.306162
    25  O   -0.186404
    26  Si   0.451701
    27  C   -0.118907
    31  C   -0.016624
    32  C   -0.135585
    36  C   -0.074779
    40  C    0.045698
    44  C   -0.137094
 Sum of Mulliken charges with hydrogens summed into heavy atoms =   0.00000
 Electronic spatial extent (au):  <R**2>=           6220.9913
 Charge=              0.0000 electrons
 Dipole moment (field-independent basis, Debye):
    X=              0.0332    Y=             -2.0390    Z=              1.0718  Tot=              2.3038
 Quadrupole moment (field-independent basis, Debye-Ang):
   XX=           -127.4835   YY=           -122.0733   ZZ=           -124.8602
   XY=              1.9882   XZ=              2.9228   YZ=              4.5162
 Traceless Quadrupole moment (field-independent basis, Debye-Ang):
   XX=             -2.6778   YY=              2.7323   ZZ=             -0.0545
   XY=              1.9882   XZ=              2.9228   YZ=              4.5162
 Octapole moment (field-independent basis, Debye-Ang**2):
  XXX=            -22.2686  YYY=             10.7408  ZZZ=              2.1516  XYY=            -22.1515
  XXY=            -12.6769  XXZ=            -23.7677  XZZ=            -17.0389  YZZ=             -0.4983
  YYZ=             10.0413  XYZ=            -17.6980
 Hexadecapole moment (field-independent basis, Debye-Ang**3):
 XXXX=          -5622.2284 YYYY=          -1888.8310 ZZZZ=           -901.8961 XXXY=            -20.2282
 XXXZ=            158.4205 YYYX=             16.0528 YYYZ=             17.2729 ZZZX=              5.6717
 ZZZY=             11.2795 XXYY=          -1217.1865 XXZZ=          -1074.9298 YYZZ=           -498.4245
 XXYZ=             60.3245 YYXZ=            -12.8984 ZZXY=              7.7383
 N-N= 1.832404141834D+03 E-N=-6.335760450555D+03  KE= 1.131543038609D+03
 1\1\GINC-COMPUTE-8-19\SP\RmPW1PW91\6-31+G(d,p)\C14H28O4Si1\ELUCIANO.IQ
 UIR\06-Dec-2022\0\\# mPW1PW91/6-31+g** scrf=(PCM,solvent=chloroform) n
 mr\\comment\\0,1\H,0,-0.103638,-0.112974,-1.916844\C,0,0.468054,-0.382
 431,-1.018652\C,0,2.222466,-1.950592,-0.092169\C,0,2.217781,0.545263,0
 .595167\C,0,3.011271,-0.753369,0.396723\C,0,1.334285,0.832747,-0.64061
 4\C,0,1.36829,-1.590997,-1.316246\H,0,1.565965,-2.289111,0.718185\H,0,
 1.560534,0.448737,1.4647\H,0,2.001411,1.039828,-1.495742\H,0,2.019539,
 -1.35566,-2.168336\H,0,2.91394,-2.767444,-0.325159\H,0,0.745171,-2.443
 169,-1.609388\C,0,4.286111,-0.928837,1.10063\H,0,4.620964,-0.170835,1.
 805387\H,0,4.668027,-1.935593,1.268447\O,0,4.275543,-0.511905,-0.28316
 5\O,0,3.104995,1.621691,0.867139\H,0,3.849663,1.492537,0.249134\O,0,0.
 469592,1.937831,-0.436722\C,0,1.025945,3.221437,-0.689181\H,0,1.467583
 ,3.269902,-1.69736\H,0,1.790216,3.486144,0.047017\H,0,0.195846,3.93115
 1,-0.635244\O,0,-0.408032,-0.698935,0.057056\Si,0,-2.072451,-0.962478,
 0.041728\C,0,-2.576819,-1.76574,-1.598343\H,0,-3.658683,-1.944214,-1.6
 26707\H,0,-2.08218,-2.735932,-1.727313\H,0,-2.328665,-1.145979,-2.4675
 77\C,0,-3.047903,0.662893,0.333065\C,0,-2.351192,-2.179813,1.456269\H,
 0,-3.404097,-2.4725,1.541428\H,0,-2.04323,-1.757175,2.41932\H,0,-1.764
 123,-3.09124,1.293218\C,0,-2.453883,1.41338,1.544332\H,0,-2.492472,0.8
 09702,2.4602\H,0,-3.024534,2.333836,1.739134\H,0,-1.412051,1.694278,1.
 362644\C,0,-4.529038,0.327833,0.616906\H,0,-4.649661,-0.276279,1.52417
 7\H,0,-4.999735,-0.214967,-0.213253\H,0,-5.10505,1.253048,0.764191\C,0
 ,-2.971234,1.577424,-0.909219\H,0,-3.526542,2.509712,-0.727567\H,0,-3.
 415157,1.105326,-1.794918\H,0,-1.93633,1.848919,-1.142427\\Version=EM6
 4L-G09RevC.01\State=1-A\HF=-1140.6242595\RMSD=4.907e-09\Dipole=-0.0130
 643,-0.8022187,-0.4216678\Quadrupole=-1.9908906,2.0314153,-0.0405246,-
 1.4781568,2.1730073,-3.3576558\PG=C01 [X(C14H28O4Si1)]\\@


 TO BEHOLD HARMS OF OUR OWN HANDS DOING,
 WHERE NONE BESIDE US WROUGHT,
 CAUSES SHARP RUING...

                                         SOPHOCLES
 Job cpu time:  0 days  3 hours 26 minutes 55.8 seconds.
 File lengths (MBytes):  RWF=    293 Int=      0 D2E=      0 Chk=     16 Scr=      1
 Normal termination of Gaussian 09 at Tue Dec  6 15:35:21 2022.
