 Entering Gaussian System, Link 0=g09
 Input=/home/eluciano.iquir/todos_optB3L_MPW_B_PCM/02_epoxido28_025_optB3L_nmr_MPW_B_PCM.gjc
 Output=/home/eluciano.iquir/todos_optB3L_MPW_B_PCM/02_epoxido28_025_optB3L_nmr_MPW_B_PCM.log
 Initial command:
 /share/apps/Gaussian09/EM64T.SSE4.2-enabled/g09/l1.exe /tmp/Gau-48241.inp -scrdir=/tmp/
 Entering Link 1 = /share/apps/Gaussian09/EM64T.SSE4.2-enabled/g09/l1.exe PID=     48242.
  
 Copyright (c) 1988,1990,1992,1993,1995,1998,2003,2009,2011,
            Gaussian, Inc.  All Rights Reserved.
  
 This is part of the Gaussian(R) 09 program.  It is based on
 the Gaussian(R) 03 system (copyright 2003, Gaussian, Inc.),
 the Gaussian(R) 98 system (copyright 1998, Gaussian, Inc.),
 the Gaussian(R) 94 system (copyright 1995, Gaussian, Inc.),
 the Gaussian 92(TM) system (copyright 1992, Gaussian, Inc.),
 the Gaussian 90(TM) system (copyright 1990, Gaussian, Inc.),
 the Gaussian 88(TM) system (copyright 1988, Gaussian, Inc.),
 the Gaussian 86(TM) system (copyright 1986, Carnegie Mellon
 University), and the Gaussian 82(TM) system (copyright 1983,
 Carnegie Mellon University). Gaussian is a federally registered
 trademark of Gaussian, Inc.
  
 This software contains proprietary and confidential information,
 including trade secrets, belonging to Gaussian, Inc.
  
 This software is provided under written license and may be
 used, copied, transmitted, or stored only in accord with that
 written license.
  
 The following legend is applicable only to US Government
 contracts under FAR:
  
                    RESTRICTED RIGHTS LEGEND
  
 Use, reproduction and disclosure by the US Government is
 subject to restrictions as set forth in subparagraphs (a)
 and (c) of the Commercial Computer Software - Restricted
 Rights clause in FAR 52.227-19.
  
 Gaussian, Inc.
 340 Quinnipiac St., Bldg. 40, Wallingford CT 06492
  
  
 ---------------------------------------------------------------
 Warning -- This program may not be used in any manner that
 competes with the business of Gaussian, Inc. or will provide
 assistance to any competitor of Gaussian, Inc.  The licensee
 of this program is prohibited from giving any competitor of
 Gaussian, Inc. access to this program.  By using this program,
 the user acknowledges that Gaussian, Inc. is engaged in the
 business of creating and licensing software in the field of
 computational chemistry and represents and warrants to the
 licensee that it is not a competitor of Gaussian, Inc. and that
 it will not use this program in any manner prohibited above.
 ---------------------------------------------------------------
  

 Cite this work as:
 Gaussian 09, Revision C.01,
 M. J. Frisch, G. W. Trucks, H. B. Schlegel, G. E. Scuseria, 
 M. A. Robb, J. R. Cheeseman, G. Scalmani, V. Barone, B. Mennucci, 
 G. A. Petersson, H. Nakatsuji, M. Caricato, X. Li, H. P. Hratchian, 
 A. F. Izmaylov, J. Bloino, G. Zheng, J. L. Sonnenberg, M. Hada, 
 M. Ehara, K. Toyota, R. Fukuda, J. Hasegawa, M. Ishida, T. Nakajima, 
 Y. Honda, O. Kitao, H. Nakai, T. Vreven, J. A. Montgomery, Jr., 
 J. E. Peralta, F. Ogliaro, M. Bearpark, J. J. Heyd, E. Brothers, 
 K. N. Kudin, V. N. Staroverov, T. Keith, R. Kobayashi, J. Normand, 
 K. Raghavachari, A. Rendell, J. C. Burant, S. S. Iyengar, J. Tomasi, 
 M. Cossi, N. Rega, J. M. Millam, M. Klene, J. E. Knox, J. B. Cross, 
 V. Bakken, C. Adamo, J. Jaramillo, R. Gomperts, R. E. Stratmann, 
 O. Yazyev, A. J. Austin, R. Cammi, C. Pomelli, J. W. Ochterski, 
 R. L. Martin, K. Morokuma, V. G. Zakrzewski, G. A. Voth, 
 P. Salvador, J. J. Dannenberg, S. Dapprich, A. D. Daniels, 
 O. Farkas, J. B. Foresman, J. V. Ortiz, J. Cioslowski, 
 and D. J. Fox, Gaussian, Inc., Wallingford CT, 2010.
 
 ******************************************
 Gaussian 09:  EM64L-G09RevC.01 23-Sep-2011
                 6-Dec-2022 
 ******************************************
 %nprocshared=4
 Will use up to    4 processors via shared memory.
 %mem=80MW
 -----------------------------------------------------
 # mPW1PW91/6-31+g** scrf=(PCM,solvent=chloroform) nmr
 -----------------------------------------------------
 1/38=1/1;
 2/12=2,17=6,18=5,40=1/2;
 3/5=1,6=6,7=111,11=2,16=1,25=1,30=1,70=2201,72=7,74=-7/1,2,8,3;
 4//1;
 5/5=2,38=5,53=7/2;
 8/6=1,10=90,11=11/1;
 10/13=100,45=16/2;
 6/7=2,8=2,9=2,10=2,28=1/1;
 99/9=1/99;
 -------
 comment
 -------
 Charge =  0 Multiplicity = 1
 Symbolic Z-Matrix:
 1                    -0.73992  -1.40863   1.4237 
 6                    -0.52397  -0.74266   0.57887 
 6                    -2.48043  -1.81669  -0.61447 
 6                    -2.85273   0.16613   0.96275 
 6                    -3.33168  -0.61456  -0.25208 
 6                    -1.35122   0.53083   0.82894 
 6                    -0.98923  -1.44538  -0.70647 
 1                    -2.8338   -2.23376  -1.56352 
 1                    -3.45228   1.08377   1.04122 
 1                    -1.01811   0.99572   1.77621 
 1                    -0.38243  -2.34554  -0.85459 
 1                    -2.62685  -2.58206   0.15877 
 1                    -0.82713  -0.7875   -1.56534 
 8                    -3.75174   0.22914  -1.34339 
 6                    -4.7455   -0.53123  -0.6379 
 8                    -3.07049  -0.66524   2.10517 
 1                    -2.70926  -0.20672   2.88073 
 8                    -1.09749   1.42154  -0.24426 
 6                    -1.69623   2.70403  -0.15043 
 1                    -2.76106   2.6737   -0.40967 
 1                    -1.17858   3.34355  -0.87025 
 1                    -1.57441   3.13347   0.85616 
 8                     0.87013  -0.51979   0.61593 
 14                    2.0005    0.42663  -0.18671 
 6                     1.64208   0.62669  -2.03115 
 1                     2.41776   1.23768  -2.50951 
 1                     0.68108   1.12951  -2.17624 
 1                     1.60434  -0.3334   -2.55768 
 6                     3.63639  -0.53901   0.09039 
 6                     2.11845   2.13836   0.61188 
 1                     2.9856    2.69394   0.2337 
 1                     2.21949   2.06926   1.70115 
 1                     1.22419   2.7309    0.39389 
 6                     3.93016  -0.65169   1.60186 
 1                     4.06884   0.3326    2.0659 
 1                     4.85332  -1.22546   1.77259 
 1                     3.11799  -1.16127   2.13213 
 6                     4.81076   0.19078  -0.59721 
 1                     4.95287   1.20612  -0.20642 
 1                     4.67018   0.26653  -1.68267 
 1                     5.75118  -0.35462  -0.42968 
 6                     3.51666  -1.96065  -0.49862 
 1                     4.44417  -2.52724  -0.32806 
 1                     3.34242  -1.94323  -1.58185 
 1                     2.6954   -2.51859  -0.0354 
 1                    -5.19484  -1.34732  -1.20406 
 1                    -5.4414    0.05088  -0.03295 
 
                          Input orientation:                          
 ---------------------------------------------------------------------
 Center     Atomic      Atomic             Coordinates (Angstroms)
 Number     Number       Type             X           Y           Z
 ---------------------------------------------------------------------
      1          1           0       -0.739924   -1.408633    1.423698
      2          6           0       -0.523973   -0.742664    0.578874
      3          6           0       -2.480434   -1.816686   -0.614473
      4          6           0       -2.852729    0.166126    0.962746
      5          6           0       -3.331680   -0.614561   -0.252076
      6          6           0       -1.351219    0.530828    0.828936
      7          6           0       -0.989233   -1.445384   -0.706471
      8          1           0       -2.833799   -2.233762   -1.563521
      9          1           0       -3.452276    1.083771    1.041224
     10          1           0       -1.018113    0.995717    1.776213
     11          1           0       -0.382432   -2.345539   -0.854586
     12          1           0       -2.626848   -2.582055    0.158773
     13          1           0       -0.827133   -0.787498   -1.565343
     14          8           0       -3.751743    0.229141   -1.343385
     15          6           0       -4.745501   -0.531229   -0.637901
     16          8           0       -3.070490   -0.665238    2.105166
     17          1           0       -2.709259   -0.206723    2.880732
     18          8           0       -1.097488    1.421536   -0.244263
     19          6           0       -1.696230    2.704027   -0.150428
     20          1           0       -2.761060    2.673696   -0.409667
     21          1           0       -1.178584    3.343548   -0.870250
     22          1           0       -1.574411    3.133474    0.856156
     23          8           0        0.870129   -0.519789    0.615931
     24         14           0        2.000498    0.426633   -0.186713
     25          6           0        1.642080    0.626693   -2.031154
     26          1           0        2.417756    1.237680   -2.509507
     27          1           0        0.681080    1.129506   -2.176240
     28          1           0        1.604338   -0.333395   -2.557675
     29          6           0        3.636390   -0.539011    0.090393
     30          6           0        2.118451    2.138362    0.611877
     31          1           0        2.985600    2.693939    0.233697
     32          1           0        2.219488    2.069261    1.701147
     33          1           0        1.224186    2.730899    0.393888
     34          6           0        3.930155   -0.651692    1.601855
     35          1           0        4.068837    0.332596    2.065904
     36          1           0        4.853322   -1.225455    1.772585
     37          1           0        3.117988   -1.161266    2.132133
     38          6           0        4.810764    0.190777   -0.597212
     39          1           0        4.952865    1.206122   -0.206423
     40          1           0        4.670175    0.266525   -1.682669
     41          1           0        5.751180   -0.354622   -0.429678
     42          6           0        3.516663   -1.960645   -0.498616
     43          1           0        4.444167   -2.527236   -0.328059
     44          1           0        3.342422   -1.943232   -1.581848
     45          1           0        2.695395   -2.518586   -0.035397
     46          1           0       -5.194844   -1.347322   -1.204061
     47          1           0       -5.441396    0.050881   -0.032952
 ---------------------------------------------------------------------
                    Distance matrix (angstroms):
                    1          2          3          4          5
     1  H    0.000000
     2  C    1.097213   0.000000
     3  C    2.711093   2.530877   0.000000
     4  C    2.675124   2.529103   2.560814   0.000000
     5  C    3.186843   2.930888   1.516923   1.521400   0.000000
     6  C    2.118710   1.539042   2.978150   1.550950   2.530361
     7  C    2.145023   1.537008   1.539483   2.975881   2.526618
     8  H    3.740137   3.485474   1.095222   3.484515   2.142332
     9  H    3.703406   3.482038   3.478284   1.098948   2.138107
    10  H    2.445926   2.167894   3.970311   2.171581   3.472685
    11  H    2.489211   2.155006   2.176913   3.964029   3.472372
    12  H    2.556841   2.825230   1.097787   2.872263   2.129934
    13  H    3.054141   2.166006   2.167207   3.376932   2.833255
    14  O    4.405690   3.880462   2.516535   2.475972   1.441957
    15  C    4.589627   4.398471   2.604511   2.575065   1.467888
    16  O    2.539404   2.969901   3.011716   1.429584   2.372210
    17  H    2.728702   3.218891   3.854971   1.959150   3.219973
    18  O    3.304512   2.385421   3.540576   2.472609   3.022808
    19  C    4.506259   3.712916   4.611633   3.002930   3.701088
    20  H    4.910359   4.201582   4.503801   2.860040   3.341119
    21  H    5.295077   4.384701   5.328063   4.032201   4.548031
    22  H    4.652871   4.025513   5.242872   3.232741   4.285317
    23  O    2.008682   1.412291   3.797645   3.801372   4.291575
    24  Si   3.670359   2.885539   5.029335   4.994290   5.433275
    25  C    4.663957   3.657755   4.997220   5.420228   5.426244
    26  H    5.695965   4.702513   6.075572   6.401780   6.448473
    27  H    4.628278   3.542291   4.595034   4.823810   4.779793
    28  H    4.743736   3.812499   4.760415   5.701608   5.455192
    29  C    4.656830   4.193889   6.288468   6.585354   6.976890
    30  C    4.627152   3.909451   6.188383   5.359613   6.166760
    31  H    5.668045   4.924072   7.137413   6.403705   7.147739
    32  H    4.575024   4.085706   6.523185   5.467590   6.467878
    33  H    4.696165   3.893060   5.951599   4.850041   5.689050
    34  C    4.734378   4.570998   6.882221   6.861837   7.494844
    35  H    5.154463   4.945841   7.395727   7.010902   7.812669
    36  H    5.607110   5.529316   7.735087   7.872456   8.453798
    37  H    3.930211   3.981422   6.270227   6.227270   6.897939
    38  C    6.119831   5.542013   7.562524   7.820691   8.189449
    39  H    6.473182   5.866022   8.034787   7.960895   8.482373
    40  H    6.459477   5.754321   7.524096   7.975110   8.176343
    41  H    6.832304   6.367519   8.362491   8.731396   9.088314
    42  C    4.703035   4.355594   5.999943   6.872255   6.983733
    43  H    5.585224   5.356271   6.966851   7.884483   8.007989
    44  H    5.097514   4.589019   5.904022   7.021698   6.933779
    45  H    3.893889   3.727675   5.255207   6.243849   6.324389
    46  H    5.172542   5.036021   2.817080   3.531442   2.216888
    47  H    5.133795   5.018475   3.548700   2.775949   2.223000
                    6          7          8          9         10
     6  C    0.000000
     7  C    2.528621   0.000000
     8  H    3.945232   2.181398   0.000000
     9  H    2.182946   3.939244   4.263008   0.000000
    10  H    1.106533   3.481886   4.987993   2.544231   0.000000
    11  H    3.470775   1.095639   2.554268   4.977771   4.299905
    12  H    3.430217   2.173120   1.769303   3.859836   4.243182
    13  H    2.783024   1.093961   2.473538   4.145747   3.792404
    14  O    3.251539   3.292591   2.637607   2.550771   4.218088
    15  C    3.847171   3.866514   2.722131   2.664604   4.696055
    16  O    2.452597   3.584070   3.996943   2.082490   2.660683
    17  H    2.568681   4.166629   4.886285   2.366694   2.350702
    18  O    1.417567   2.905957   4.256339   2.703995   2.066385
    19  C    2.408522   4.245779   5.260481   2.670012   2.662726
    20  H    2.848451   4.493805   5.041807   2.260691   3.260606
    21  H    3.290658   4.795472   5.858903   3.732292   3.541444
    22  H    2.612340   4.873415   6.020641   2.786020   2.392901
    23  O    2.466486   2.462255   4.626748   4.629845   2.684860
    24  Si   3.503770   3.565542   5.687155   5.627824   3.645401
    25  C    4.141152   3.601680   5.332389   5.966648   4.659276
    26  H    5.084291   4.696525   6.365896   6.862117   5.498285
    27  H    3.676920   3.402973   4.903200   5.238206   4.304305
    28  H    4.577263   3.374920   4.929178   6.366300   5.237019
    29  C    5.154245   4.780470   6.889917   7.333941   5.182835
    30  C    3.830129   4.923310   6.955042   5.685904   3.535442
    31  H    4.882761   5.815256   7.834388   6.685132   4.614437
    32  H    3.984655   5.333408   7.396606   5.794445   3.411773
    33  H    3.415010   4.852974   6.704219   5.000137   3.154296
    34  C    5.467053   5.491693   7.633716   7.604369   5.218210
    35  H    5.562948   6.035839   8.210073   7.627672   5.138162
    36  H    6.517003   6.350554   8.440268   8.651611   6.277529
    37  H    4.953314   5.000766   7.087445   7.028417   4.678310
    38  C    6.334001   6.027348   8.077839   8.471112   6.344831
    39  H    6.424131   6.526029   8.620131   8.498117   6.295053
    40  H    6.529564   5.992703   7.910452   8.605910   6.697179
    41  H    7.267200   6.833706   8.861074   9.430595   7.246565
    42  C    5.627265   4.540022   6.444919   7.759232   5.871892
    43  H    6.654088   5.552966   7.387915   8.790229   6.831959
    44  H    5.827788   4.447176   6.183078   7.887406   6.239252
    45  H    5.140144   3.895971   5.743542   7.206244   5.424242
    46  H    4.736452   4.236080   2.547454   3.740062   5.640651
    47  H    4.207463   4.744912   3.789696   2.485420   4.871471
                   11         12         13         14         15
    11  H    0.000000
    12  H    2.473912   0.000000
    13  H    1.769301   3.071154   0.000000
    14  O    4.268508   3.380043   3.104217   0.000000
    15  C    4.730227   3.054385   4.034778   1.436463   0.000000
    16  O    4.336957   2.767571   4.303514   3.627192   3.216836
    17  H    4.892981   3.613593   4.862847   4.372632   4.078280
    18  O    3.882609   4.304663   2.588083   3.110457   4.156470
    19  C    5.264981   5.376274   3.866272   3.431230   4.472423
    20  H    5.572122   5.288105   4.129833   2.798058   3.776459
    21  H    5.744546   6.186205   4.203833   4.067497   5.271696
    22  H    5.862340   5.853310   4.668630   4.244279   5.071298
    23  O    2.657949   4.085435   2.776747   5.075580   5.753914
    24  Si   3.716093   5.530271   3.371977   5.870704   6.828585
    25  C    3.783798   5.771966   2.883388   5.452009   6.639513
    26  H    4.839347   6.867177   3.939809   6.359222   7.612109
    27  H    3.867010   5.492755   2.514519   4.599372   5.879822
    28  H    3.300983   5.508039   2.665142   5.520738   6.636650
    29  C    4.506380   6.588388   4.767205   7.565070   8.413475
    30  C    5.339504   6.708614   4.688007   6.475133   7.470107
    31  H    6.158274   7.703330   5.467530   7.345353   8.422073
    32  H    5.726449   6.892070   5.302163   6.950598   7.793893
    33  H    5.469016   6.566066   4.519470   5.834105   6.880642
    34  C    5.244199   6.985920   5.716763   8.274168   8.960917
    35  H    5.959485   7.547485   6.197668   8.532024   9.260092
    36  H    5.964037   7.771595   6.603116   9.266729   9.921179
    37  H    4.751414   6.238264   5.419872   7.823405   8.360891
    38  C    5.785190   7.973593   5.803463   8.595043   9.583587
    39  H    6.442034   8.481492   6.263351   8.832744   9.862194
    40  H    5.747820   8.046854   5.598672   8.428832   9.506992
    41  H    6.462623   8.689021   6.689643   9.564580  10.500231
    42  C    3.934184   6.209753   4.624148   7.637966   8.386059
    43  H    4.858632   7.087966   5.687193   8.706402   9.409041
    44  H    3.816451   6.250603   4.326798   7.423156   8.264338
    45  H    3.189676   5.326162   4.212553   7.129265   7.725253
    46  H    4.927259   3.158558   4.418238   2.141772   1.090162
    47  H    5.657829   3.858859   4.933814   2.145679   1.090452
                   16         17         18         19         20
    16  O    0.000000
    17  H    0.970684   0.000000
    18  O    3.710415   3.874871   0.000000
    19  C    4.281150   4.322803   1.418478   0.000000
    20  H    4.191493   4.373354   2.088716   1.096352   0.000000
    21  H    5.338799   5.386767   2.023009   1.093201   1.779064
    22  H    4.269484   4.067395   2.090241   1.101125   1.794948
    23  O    4.215146   4.247276   2.894856   4.191240   4.943251
    24  Si   5.670962   5.656162   3.254330   4.342078   5.269861
    25  C    6.402073   6.614783   3.366005   4.358527   5.119285
    26  H    7.418703   7.578078   4.185938   4.963900   5.769888
    27  H    5.968737   6.233207   2.642181   3.497804   4.165769
    28  H    6.611068   6.942581   3.966298   5.090631   5.719548
    29  C    7.004105   6.940005   5.134719   6.245969   7.176274
    30  C    6.084011   5.826998   3.404274   3.931015   5.013957
    31  H    7.173750   6.917518   4.303378   4.697572   5.782597
    32  H    5.968633   5.555544   3.899551   4.377683   5.443045
    33  H    5.736415   5.503272   2.740773   2.970830   4.065853
    34  C    7.018728   6.776086   5.743137   6.781412   7.738009
    35  H    7.208828   6.848167   5.763122   6.616027   7.632607
    36  H    7.950550   7.710930   6.818092   7.876258   8.828613
    37  H    6.208384   5.952173   5.485286   6.582345   7.465312
    38  C    8.375546   8.294869   6.045393   6.989779   7.970733
    39  H    8.556849   8.380621   6.054305   6.815961   7.854917
    40  H    8.667974   8.689341   6.055493   6.987152   7.914434
    41  H    9.183887   9.086238   7.077667   8.055882   9.034896
    42  C    7.200579   7.297831   5.726625   7.003903   7.803514
    43  H    8.115275   8.176345   6.805128   8.068590   8.886599
    44  H    7.506849   7.717054   5.729188   7.002428   7.742256
    45  H    6.423577   6.561921   5.473038   6.824609   7.541404
    46  H    3.991128   4.915754   5.037471   5.455627   4.766860
    47  H    3.271937   4.002560   4.559922   4.591215   3.768988
                   21         22         23         24         25
    21  H    0.000000
    22  H    1.783616   0.000000
    23  O    4.618585   4.402251   0.000000
    24  Si   4.368315   4.603753   1.678596   0.000000
    25  C    4.084745   4.996631   2.986200   1.889563   0.000000
    26  H    4.478337   5.555099   3.905408   2.495451   1.097178
    27  H    3.172687   4.277681   3.248405   2.488596   1.094254
    28  H    4.910394   5.811873   3.262757   2.521120   1.095636
    29  C    6.259479   6.420747   2.815805   1.919739   3.136415
    30  C    3.810461   3.832382   2.936680   1.892531   3.081831
    31  H    4.356733   4.623240   3.866441   2.507558   3.347850
    32  H    4.447784   4.029917   3.114746   2.512011   4.042830
    33  H    2.783287   2.864944   3.277443   2.499880   3.237769
    34  C    6.940638   6.721889   3.217639   2.843473   4.479767
    35  H    6.724750   6.415189   3.613961   3.059600   4.770904
    36  H    8.015251   7.820221   4.207332   3.834951   5.311399
    37  H    6.911453   6.487798   2.786258   3.024443   4.765298
    38  C    6.773980   7.179290   4.183924   2.849865   3.505249
    39  H    6.527168   6.888330   4.508189   3.053598   3.824484
    40  H    6.658534   7.325291   4.510233   3.064424   3.069287
    41  H    7.867159   8.214893   4.994521   3.838881   4.518009
    42  C    7.093513   7.328335   3.212853   2.845195   3.543593
    43  H    8.147110   8.346813   4.206508   3.836253   4.549669
    44  H    6.992561   7.476099   3.601202   3.059971   3.114089
    45  H    7.075967   7.139460   2.784064   3.029867   3.871085
    46  H    6.184338   6.117970   6.386007   7.480298   7.164101
    47  H    5.451082   5.024586   6.370405   7.452960   7.382412
                   26         27         28         29         30
    26  H    0.000000
    27  H    1.771669   0.000000
    28  H    1.769815   1.771434   0.000000
    29  C    3.376563   4.081107   3.344216   0.000000
    30  C    3.262491   3.295060   4.052154   3.121604   0.000000
    31  H    3.157262   3.683213   4.343316   3.300913   1.097102
    32  H    4.296562   4.275976   4.928360   3.377162   1.096126
    33  H    3.476207   3.076521   4.271550   4.074696   1.094682
    34  C    4.770783   5.291801   4.776236   1.543863   3.470840
    35  H    4.947689   5.487053   5.281551   2.202125   3.029685
    36  H    5.507752   6.208596   5.486604   2.186755   4.487987
    37  H    5.271631   5.454194   4.997080   2.196507   3.767996
    38  C    3.237185   4.519826   3.794646   1.544197   3.536033
    39  H    3.425196   4.704699   4.371628   2.206059   3.093960
    40  H    2.588473   4.111110   3.244210   2.204847   3.908965
    41  H    4.239437   5.564084   4.661021   2.185591   4.527309
    42  C    3.934535   4.517077   3.247253   1.543473   4.471023
    43  H    4.799963   5.563125   4.224779   2.186468   5.297192
    44  H    3.440023   4.108255   2.562177   2.203326   4.792697
    45  H    4.506422   4.685003   3.511033   2.195453   4.736981
    46  H    8.144821   6.450294   7.006368   8.962124   8.302524
    47  H    8.325148   6.575852   7.494282   9.097768   7.869223
                   31         32         33         34         35
    31  H    0.000000
    32  H    1.769339   0.000000
    33  H    1.769069   1.771247   0.000000
    34  C    3.735945   3.215560   4.497041   0.000000
    35  H    3.179045   2.563034   4.079159   1.096995   0.000000
    36  H    4.606323   4.218689   5.542939   1.100268   1.768891
    37  H    4.299325   3.380733   4.664432   1.095662   1.772039
    38  C    3.207406   3.940288   4.505335   2.514184   2.768168
    39  H    2.505481   3.443135   4.072882   2.786984   2.589985
    40  H    3.521731   4.550377   4.718058   3.489821   3.797074
    41  H    4.169199   4.784190   5.540070   2.744359   3.087147
    42  C    4.741673   4.770929   5.297414   2.509245   3.484338
    43  H    5.450106   5.494967   6.207855   2.739789   3.748409
    44  H    4.992683   5.304634   5.498905   3.485609   4.360409
    45  H    5.227528   4.928530   5.468623   2.773179   3.798822
    46  H    9.236807   8.665194   7.771054   9.571973   9.966473
    47  H    8.835786   8.109877   7.196852   9.538982   9.743156
                   36         37         38         39         40
    36  H    0.000000
    37  H    1.773352   0.000000
    38  C    2.761062   3.484657   0.000000
    39  H    3.136710   3.800019   1.097194   0.000000
    40  H    3.768067   4.358966   1.097142   1.772585   0.000000
    41  H    2.532679   3.761283   1.099959   1.767221   1.767592
    42  C    2.735967   2.778271   2.512575   3.489479   2.773600
    43  H    2.504944   3.110815   2.755800   3.769818   3.113061
    44  H    3.748365   3.802038   2.771197   3.795227   2.579946
    45  H    3.098005   2.592121   3.482969   4.358769   3.790792
    46  H   10.480502   8.959240  10.141312  10.511487  10.007605
    47  H   10.529493   8.911787  10.268629  10.459701  10.247533
                   41         42         43         44         45
    41  H    0.000000
    42  C    2.752658   0.000000
    43  H    2.537491   1.100172   0.000000
    44  H    3.106975   1.097294   1.768301   0.000000
    45  H    3.765106   1.095605   1.773113   1.772339   0.000000
    46  H   11.018192   8.761517   9.750390   8.566373   8.061855
    47  H   11.206943   9.192927  10.220476   9.139531   8.532850
                   46         47
    46  H    0.000000
    47  H    1.840450   0.000000
 Stoichiometry    C14H28O4Si
 Framework group  C1[X(C14H28O4Si)]
 Deg. of freedom   135
 Full point group                 C1      NOp   1
 Largest Abelian subgroup         C1      NOp   1
 Largest concise Abelian subgroup C1      NOp   1
                         Standard orientation:                         
 ---------------------------------------------------------------------
 Center     Atomic      Atomic             Coordinates (Angstroms)
 Number     Number       Type             X           Y           Z
 ---------------------------------------------------------------------
      1          1           0       -0.739924   -1.408633    1.423698
      2          6           0       -0.523973   -0.742664    0.578874
      3          6           0       -2.480434   -1.816686   -0.614473
      4          6           0       -2.852729    0.166126    0.962746
      5          6           0       -3.331680   -0.614561   -0.252076
      6          6           0       -1.351219    0.530828    0.828936
      7          6           0       -0.989233   -1.445384   -0.706471
      8          1           0       -2.833799   -2.233762   -1.563521
      9          1           0       -3.452276    1.083771    1.041224
     10          1           0       -1.018113    0.995717    1.776213
     11          1           0       -0.382432   -2.345539   -0.854586
     12          1           0       -2.626848   -2.582055    0.158773
     13          1           0       -0.827133   -0.787498   -1.565343
     14          8           0       -3.751743    0.229141   -1.343385
     15          6           0       -4.745501   -0.531229   -0.637901
     16          8           0       -3.070490   -0.665238    2.105166
     17          1           0       -2.709259   -0.206723    2.880732
     18          8           0       -1.097488    1.421536   -0.244263
     19          6           0       -1.696230    2.704027   -0.150428
     20          1           0       -2.761060    2.673696   -0.409667
     21          1           0       -1.178584    3.343548   -0.870250
     22          1           0       -1.574411    3.133474    0.856156
     23          8           0        0.870129   -0.519789    0.615931
     24         14           0        2.000498    0.426633   -0.186713
     25          6           0        1.642080    0.626693   -2.031154
     26          1           0        2.417756    1.237680   -2.509507
     27          1           0        0.681080    1.129506   -2.176240
     28          1           0        1.604338   -0.333395   -2.557675
     29          6           0        3.636390   -0.539011    0.090393
     30          6           0        2.118451    2.138362    0.611877
     31          1           0        2.985600    2.693939    0.233697
     32          1           0        2.219488    2.069261    1.701147
     33          1           0        1.224186    2.730899    0.393888
     34          6           0        3.930155   -0.651692    1.601855
     35          1           0        4.068837    0.332596    2.065904
     36          1           0        4.853322   -1.225455    1.772585
     37          1           0        3.117988   -1.161266    2.132133
     38          6           0        4.810764    0.190777   -0.597212
     39          1           0        4.952865    1.206122   -0.206423
     40          1           0        4.670175    0.266525   -1.682669
     41          1           0        5.751180   -0.354622   -0.429678
     42          6           0        3.516663   -1.960645   -0.498616
     43          1           0        4.444167   -2.527236   -0.328059
     44          1           0        3.342422   -1.943232   -1.581848
     45          1           0        2.695395   -2.518586   -0.035397
     46          1           0       -5.194844   -1.347322   -1.204061
     47          1           0       -5.441396    0.050881   -0.032952
 ---------------------------------------------------------------------
 Rotational constants (GHZ):      0.6898824      0.1928151      0.1837284
 Standard basis: 6-31+G(d,p) (6D, 7F)
 There are   505 symmetry adapted basis functions of A   symmetry.
 Integral buffers will be    131072 words long.
 Raffenetti 2 integral format.
 Two-electron integral symmetry is turned on.
   505 basis functions,   828 primitive gaussians,   505 cartesian basis functions
    79 alpha electrons       79 beta electrons
       nuclear repulsion energy      1828.2346996655 Hartrees.
 NAtoms=   47 NActive=   47 NUniq=   47 SFac= 1.00D+00 NAtFMM=   60 NAOKFM=F Big=F
 ------------------------------------------------------------------------------
 Polarizable Continuum Model (PCM)
 =================================
 Model                : PCM.
 Atomic radii         : UFF (Universal Force Field).
 Polarization charges : Total charges.
 Charge compensation  : None.
 Solution method      : Matrix inversion.
 Cavity type          : Scaled VdW (van der Waals Surface) (Alpha=1.100).
 Cavity algorithm     : GePol (No added spheres)
                        Default sphere list used, NSphG=   47.
                        Lebedev-Laikov grids with approx.  5.0 points / Ang**2.
                        Smoothing algorithm: Karplus/York (Gamma=1.0000).
                        Polarization charges: spherical gaussians, with
                                              point-specific exponents (IZeta= 3).
                        Self-potential: point-specific (ISelfS= 7).
                        Self-field    : sphere-specific E.n sum rule (ISelfD= 2).
 Solvent              : Chloroform, Eps=   4.711300 Eps(inf)=   2.090627
 ------------------------------------------------------------------------------
 One-electron integrals computed using PRISM.
 NBasis=   505 RedAO= T  NBF=   505
 NBsUse=   505 1.00D-06 NBFU=   505
 Harris functional with IExCor=  908 diagonalized for initial guess.
 ExpMin= 3.31D-02 ExpMax= 1.61D+04 ExpMxC= 2.43D+03 IAcc=3 IRadAn=         5 AccDes= 0.00D+00
 HarFok:  IExCor=  908 AccDes= 0.00D+00 IRadAn=         5 IDoV= 1
 ScaDFX=  1.000000  1.000000  1.000000  1.000000
 FoFCou: FMM=F IPFlag=           0 FMFlag=      100000 FMFlg1=           0
         NFxFlg=           0 DoJE=T BraDBF=F KetDBF=T FulRan=T
         Omega=  0.000000  0.000000  1.000000  0.000000  0.000000 ICntrl=     500 IOpCl=  0
         NMat0=    1 NMatS0=    1 NMatT0=    0 NMatD0=    1 NMtDS0=    0 NMtDT0=    0
         I1Cent=           4 NGrid=           0.
 Petite list used in FoFCou.
 Initial guess orbital symmetries:
       Occupied  (A) (A) (A) (A) (A) (A) (A) (A) (A) (A) (A) (A)
                 (A) (A) (A) (A) (A) (A) (A) (A) (A) (A) (A) (A)
                 (A) (A) (A) (A) (A) (A) (A) (A) (A) (A) (A) (A)
                 (A) (A) (A) (A) (A) (A) (A) (A) (A) (A) (A) (A)
                 (A) (A) (A) (A) (A) (A) (A) (A) (A) (A) (A) (A)
                 (A) (A) (A) (A) (A) (A) (A) (A) (A) (A) (A) (A)
                 (A) (A) (A) (A) (A) (A) (A)
       Virtual   (A) (A) (A) (A) (A) (A) (A) (A) (A) (A) (A) (A)
                 (A) (A) (A) (A) (A) (A) (A) (A) (A) (A) (A) (A)
                 (A) (A) (A) (A) (A) (A) (A) (A) (A) (A) (A) (A)
                 (A) (A) (A) (A) (A) (A) (A) (A) (A) (A) (A) (A)
                 (A) (A) (A) (A) (A) (A) (A) (A) (A) (A) (A) (A)
                 (A) (A) (A) (A) (A) (A) (A) (A) (A) (A) (A) (A)
                 (A) (A) (A) (A) (A) (A) (A) (A) (A) (A) (A) (A)
                 (A) (A) (A) (A) (A) (A) (A) (A) (A) (A) (A) (A)
                 (A) (A) (A) (A) (A) (A) (A) (A) (A) (A) (A) (A)
                 (A) (A) (A) (A) (A) (A) (A) (A) (A) (A) (A) (A)
                 (A) (A) (A) (A) (A) (A) (A) (A) (A) (A) (A) (A)
                 (A) (A) (A) (A) (A) (A) (A) (A) (A) (A) (A) (A)
                 (A) (A) (A) (A) (A) (A) (A) (A) (A) (A) (A) (A)
                 (A) (A) (A) (A) (A) (A) (A) (A) (A) (A) (A) (A)
                 (A) (A) (A) (A) (A) (A) (A) (A) (A) (A) (A) (A)
                 (A) (A) (A) (A) (A) (A) (A) (A) (A) (A) (A) (A)
                 (A) (A) (A) (A) (A) (A) (A) (A) (A) (A) (A) (A)
                 (A) (A) (A) (A) (A) (A) (A) (A) (A) (A) (A) (A)
                 (A) (A) (A) (A) (A) (A) (A) (A) (A) (A) (A) (A)
                 (A) (A) (A) (A) (A) (A) (A) (A) (A) (A) (A) (A)
                 (A) (A) (A) (A) (A) (A) (A) (A) (A) (A) (A) (A)
                 (A) (A) (A) (A) (A) (A) (A) (A) (A) (A) (A) (A)
                 (A) (A) (A) (A) (A) (A) (A) (A) (A) (A) (A) (A)
                 (A) (A) (A) (A) (A) (A) (A) (A) (A) (A) (A) (A)
                 (A) (A) (A) (A) (A) (A) (A) (A) (A) (A) (A) (A)
                 (A) (A) (A) (A) (A) (A) (A) (A) (A) (A) (A) (A)
                 (A) (A) (A) (A) (A) (A) (A) (A) (A) (A) (A) (A)
                 (A) (A) (A) (A) (A) (A) (A) (A) (A) (A) (A) (A)
                 (A) (A) (A) (A) (A) (A) (A) (A) (A) (A) (A) (A)
                 (A) (A) (A) (A) (A) (A) (A) (A) (A) (A) (A) (A)
                 (A) (A) (A) (A) (A) (A) (A) (A) (A) (A) (A) (A)
                 (A) (A) (A) (A) (A) (A) (A) (A) (A) (A) (A) (A)
                 (A) (A) (A) (A) (A) (A) (A) (A) (A) (A) (A) (A)
                 (A) (A) (A) (A) (A) (A) (A) (A) (A) (A) (A) (A)
                 (A) (A) (A) (A) (A) (A) (A) (A) (A) (A) (A) (A)
                 (A) (A) (A) (A) (A) (A)
 The electronic state of the initial guess is 1-A.
 Requested convergence on RMS density matrix=1.00D-08 within 128 cycles.
 Requested convergence on MAX density matrix=1.00D-06.
 Requested convergence on             energy=1.00D-06.
 No special actions if energy rises.
 Error on total polarization charges =  0.01545
 SCF Done:  E(RmPW1PW91) =  -1140.61738333     A.U. after   13 cycles
             Convg  =    0.6063D-08             -V/T =  2.0080
 Range of M.O.s used for correlation:     1   505
 NBasis=   505 NAE=    79 NBE=    79 NFC=     0 NFV=     0
 NROrb=    505 NOA=    79 NOB=    79 NVA=   426 NVB=   426

 **** Warning!!: The largest alpha MO coefficient is  0.78410093D+02

 NEqPCM:  Using equilibrium solvation (IEInf=0, Eps=   4.7113, EpsInf=   2.0906)
          Differentiating once with respect to magnetic field using GIAOs.
          Electric field/nuclear overlap derivatives assumed to be zero.
 FoFCou: FMM=F IPFlag=           0 FMFlag=    10101102 FMFlg1=           0
         NFxFlg=    40000000 DoJE=F BraDBF=F KetDBF=T FulRan=T
         Omega=  0.000000  0.000000  1.000000  0.000000  0.000000 ICntrl=    6100 IOpCl=  0
         NMat0=    1 NMatS0=    1 NMatT0=    0 NMatD0=    1 NMtDS0=    0 NMtDT0=    0
         I1Cent=           7 NGrid=        2950.
 Symmetry not used in FoFCou.
          There are     3 degrees of freedom in the 1st order CPHF.  IDoFFX=0.
      3 vectors produced by pass  0 Test12= 1.12D-12 3.33D-08 XBig12= 1.90D+02 2.12D+00.
 AX will form     3 AO Fock derivatives at one time.
      3 vectors produced by pass  1 Test12= 1.12D-12 3.33D-08 XBig12= 4.39D-01 8.13D-02.
      3 vectors produced by pass  2 Test12= 1.12D-12 3.33D-08 XBig12= 1.31D-03 6.20D-03.
      3 vectors produced by pass  3 Test12= 1.12D-12 3.33D-08 XBig12= 7.59D-06 4.14D-04.
      3 vectors produced by pass  4 Test12= 1.12D-12 3.33D-08 XBig12= 2.17D-08 1.67D-05.
      3 vectors produced by pass  5 Test12= 1.12D-12 3.33D-08 XBig12= 6.27D-11 8.53D-07.
      2 vectors produced by pass  6 Test12= 1.12D-12 3.33D-08 XBig12= 2.42D-13 5.56D-08.
 Inverted reduced A of dimension    20 with in-core refinement.
 Calculating GIAO nuclear magnetic shielding tensors.
 SCF GIAO Magnetic shielding tensor (ppm):
      1  H    Isotropic =    27.0282   Anisotropy =     6.9919
   XX=    31.0380   YX=     1.8898   ZX=    -2.0284
   XY=    -0.1991   YY=    24.1757   ZY=    -3.1963
   XZ=    -0.3723   YZ=    -3.3107   ZZ=    25.8708
   Eigenvalues:    21.6607    27.7343    31.6894
      2  C    Isotropic =   122.7217   Anisotropy =    59.2815
   XX=   156.7369   YX=     8.6951   ZX=    -0.6361
   XY=    25.6864   YY=   108.4403   ZY=     4.7943
   XZ=    -3.8005   YZ=     3.6181   ZZ=   102.9878
   Eigenvalues:    98.2798   107.6426   162.2426
      3  C    Isotropic =   165.0398   Anisotropy =    22.4786
   XX=   172.7134   YX=   -10.1184   ZX=     5.3811
   XY=    -7.3228   YY=   166.5399   ZY=     9.3731
   XZ=    -0.2594   YZ=    13.6783   ZZ=   155.8660
   Eigenvalues:   146.6077   168.4862   180.0255
      4  C    Isotropic =   120.8543   Anisotropy =    37.5435
   XX=   107.4553   YX=     0.9164   ZX=     4.5377
   XY=     2.6214   YY=   113.8370   ZY=    -8.4535
   XZ=     1.5347   YZ=   -15.4715   ZZ=   141.2705
   Eigenvalues:   105.4397   111.2398   145.8833
      5  C    Isotropic =   138.3950   Anisotropy =    58.1622
   XX=    92.9707   YX=    -0.9449   ZX=   -18.7546
   XY=    -1.7288   YY=   162.7464   ZY=    14.8480
   XZ=   -19.5344   YZ=    12.2751   ZZ=   159.4680
   Eigenvalues:    87.7856   150.2297   177.1698
      6  C    Isotropic =   111.2844   Anisotropy =    44.0171
   XX=    98.0174   YX=    12.7858   ZX=   -12.5181
   XY=    -3.1328   YY=   112.9728   ZY=   -21.5889
   XZ=     4.3246   YZ=   -20.8861   ZZ=   122.8630
   Eigenvalues:    95.2934    97.9306   140.6291
      7  C    Isotropic =   166.8834   Anisotropy =    26.0693
   XX=   179.8565   YX=     3.7176   ZX=     0.9940
   XY=     7.0993   YY=   158.0315   ZY=    11.8303
   XZ=     8.7712   YZ=    11.6951   ZZ=   162.7622
   Eigenvalues:   148.3581   168.0291   184.2629
      8  H    Isotropic =    30.5384   Anisotropy =    10.5211
   XX=    30.7692   YX=     1.6537   ZX=     2.9792
   XY=     1.2094   YY=    30.4712   ZY=     6.0304
   XZ=     1.9294   YZ=     5.9934   ZZ=    30.3748
   Eigenvalues:    24.3184    29.7443    37.5525
      9  H    Isotropic =    27.8707   Anisotropy =     3.5399
   XX=    27.4168   YX=    -1.7590   ZX=    -2.0990
   XY=    -0.4448   YY=    29.7443   ZY=     0.5362
   XZ=    -0.7466   YZ=    -0.8316   ZZ=    26.4510
   Eigenvalues:    25.2945    28.0870    30.2306
     10  H    Isotropic =    28.1125   Anisotropy =     3.3080
   XX=    28.3368   YX=     0.6947   ZX=    -0.8512
   XY=     1.9580   YY=    25.9432   ZY=    -1.0365
   XZ=    -0.4941   YZ=     1.2688   ZZ=    30.0574
   Eigenvalues:    25.3226    28.6970    30.3178
     11  H    Isotropic =    29.9561   Anisotropy =     8.2420
   XX=    32.9980   YX=    -2.1774   ZX=    -0.3372
   XY=    -2.3620   YY=    32.1093   ZY=     2.7645
   XZ=    -1.2564   YZ=     2.9577   ZZ=    24.7611
   Eigenvalues:    23.7785    30.6391    35.4508
     12  H    Isotropic =    29.2115   Anisotropy =     8.2590
   XX=    28.1009   YX=     1.6887   ZX=    -0.9819
   XY=     0.6935   YY=    33.6176   ZY=    -3.0914
   XZ=    -1.0582   YZ=    -2.0746   ZZ=    25.9159
   Eigenvalues:    24.9929    27.9241    34.7175
     13  H    Isotropic =    29.2720   Anisotropy =     6.1257
   XX=    31.0884   YX=     2.7912   ZX=    -1.6321
   XY=     2.0994   YY=    26.8941   ZY=    -0.5437
   XZ=    -2.0142   YZ=    -1.1325   ZZ=    29.8334
   Eigenvalues:    25.7698    28.6903    33.3557
     14  O    Isotropic =   300.3268   Anisotropy =   134.7803
   XX=   325.0532   YX=   -76.8948   ZX=    79.2506
   XY=   -42.3614   YY=   294.8152   ZY=   109.5513
   XZ=    52.3068   YZ=    94.2805   ZZ=   281.1120
   Eigenvalues:   142.6196   368.1806   390.1803
     15  C    Isotropic =   145.2488   Anisotropy =    41.7186
   XX=   115.6122   YX=    -0.4953   ZX=   -15.4135
   XY=    -2.8131   YY=   164.4883   ZY=    10.9712
   XZ=    -8.1770   YZ=    10.9614   ZZ=   155.6459
   Eigenvalues:   112.3618   150.3234   173.0612
     16  O    Isotropic =   298.0917   Anisotropy =    88.6578
   XX=   279.8601   YX=    15.4158   ZX=    26.2404
   XY=    22.7365   YY=   273.2805   ZY=    26.9615
   XZ=    16.1933   YZ=    19.5368   ZZ=   341.1345
   Eigenvalues:   256.9269   280.1512   357.1969
     17  H    Isotropic =    30.8581   Anisotropy =    18.9769
   XX=    25.1084   YX=     4.1601   ZX=     2.2769
   XY=     3.7397   YY=    25.8699   ZY=     3.8706
   XZ=     3.4597   YZ=     4.8222   ZZ=    41.5959
   Eigenvalues:    21.4830    27.5819    43.5093
     18  O    Isotropic =   308.7410   Anisotropy =    52.0884
   XX=   298.1644   YX=    18.5345   ZX=   -18.4108
   XY=     1.9031   YY=   294.8517   ZY=     4.2890
   XZ=   -24.2360   YZ=    -1.0950   ZZ=   333.2070
   Eigenvalues:   280.9408   301.8157   343.4666
     19  C    Isotropic =   140.3545   Anisotropy =    79.4301
   XX=   121.7843   YX=   -27.1948   ZX=     3.4735
   XY=   -26.4969   YY=   182.9276   ZY=     6.9443
   XZ=     1.8630   YZ=     4.7253   ZZ=   116.3515
   Eigenvalues:   108.8236   118.9319   193.3079
     20  H    Isotropic =    27.7881   Anisotropy =     8.8634
   XX=    30.0291   YX=    -1.7810   ZX=     2.0003
   XY=    -3.9112   YY=    30.8493   ZY=    -1.5045
   XZ=     1.7596   YZ=    -0.6977   ZZ=    22.4861
   Eigenvalues:    22.0208    27.6466    33.6971
     21  H    Isotropic =    27.8353   Anisotropy =     9.9104
   XX=    25.7347   YX=    -1.6822   ZX=    -0.1647
   XY=     0.2181   YY=    33.0797   ZY=    -4.5350
   XZ=    -0.7756   YZ=    -2.6580   ZZ=    24.6914
   Eigenvalues:    23.1704    25.8933    34.4422
     22  H    Isotropic =    28.6457   Anisotropy =     9.6565
   XX=    26.8724   YX=    -1.8714   ZX=    -0.7667
   XY=    -0.8714   YY=    32.9031   ZY=     5.5433
   XZ=    -0.1242   YZ=     2.6412   ZZ=    26.1617
   Eigenvalues:    24.2172    26.6366    35.0833
     23  O    Isotropic =   280.8200   Anisotropy =    57.3031
   XX=   265.4299   YX=   -10.3767   ZX=    19.1480
   XY=     0.2939   YY=   283.9256   ZY=    19.6398
   XZ=    36.1155   YZ=    25.7619   ZZ=   293.1045
   Eigenvalues:   241.5097   281.9282   319.0221
     24  Si   Isotropic =   383.0908   Anisotropy =    30.5082
   XX=   398.2411   YX=    12.6540   ZX=   -19.5253
   XY=    -3.5541   YY=   378.1544   ZY=    -6.7618
   XZ=    -0.9120   YZ=    -5.1119   ZZ=   372.8770
   Eigenvalues:   367.5149   378.3280   403.4296
     25  C    Isotropic =   197.9552   Anisotropy =     7.1169
   XX=   199.5274   YX=     4.7516   ZX=    -0.8289
   XY=     5.1131   YY=   192.8040   ZY=    -0.8787
   XZ=    -1.7446   YZ=     2.4856   ZZ=   201.5342
   Eigenvalues:   190.0463   201.1195   202.6998
     26  H    Isotropic =    31.6999   Anisotropy =    10.5634
   XX=    33.1075   YX=     3.2549   ZX=    -3.4508
   XY=     2.9853   YY=    29.7049   ZY=    -4.0279
   XZ=    -3.1075   YZ=    -3.8704   ZZ=    32.2874
   Eigenvalues:    26.7501    29.6075    38.7422
     27  H    Isotropic =    30.8564   Anisotropy =     9.4901
   XX=    35.8166   YX=    -3.5560   ZX=    -0.3372
   XY=    -3.7008   YY=    27.3553   ZY=    -1.3140
   XZ=     0.2037   YZ=    -1.4962   ZZ=    29.3972
   Eigenvalues:    25.5440    29.8421    37.1832
     28  H    Isotropic =    31.4100   Anisotropy =     7.8117
   XX=    29.2330   YX=     0.1676   ZX=     0.2390
   XY=    -0.3277   YY=    32.5822   ZY=     3.6623
   XZ=     0.3596   YZ=     4.5684   ZZ=    32.4147
   Eigenvalues:    28.3037    29.3085    36.6178
     29  C    Isotropic =   172.6905   Anisotropy =     8.1001
   XX=   173.6812   YX=     3.2478   ZX=    -3.0143
   XY=     2.6038   YY=   173.8455   ZY=    -1.7868
   XZ=    -1.4660   YZ=    -2.9244   ZZ=   170.5448
   Eigenvalues:   169.1439   170.8370   178.0905
     30  C    Isotropic =   198.3403   Anisotropy =     8.2702
   XX=   197.6571   YX=     2.6950   ZX=    -2.6088
   XY=     6.2154   YY=   199.8279   ZY=     4.9742
   XZ=    -2.2541   YZ=     2.7232   ZZ=   197.5357
   Eigenvalues:   191.1747   199.9924   203.8537
     31  H    Isotropic =    31.6512   Anisotropy =    10.5050
   XX=    34.3723   YX=     4.2184   ZX=    -2.1460
   XY=     4.2852   YY=    33.6062   ZY=    -0.7060
   XZ=    -2.2823   YZ=    -0.7999   ZZ=    26.9751
   Eigenvalues:    26.3307    29.9683    38.6545
     32  H    Isotropic =    31.5015   Anisotropy =     8.5181
   XX=    28.9020   YX=    -0.4230   ZX=     1.4517
   XY=    -0.5187   YY=    29.2025   ZY=     2.4067
   XZ=     1.8072   YZ=     1.6016   ZZ=    36.4000
   Eigenvalues:    27.8099    29.5143    37.1802
     33  H    Isotropic =    31.3222   Anisotropy =     9.8886
   XX=    35.9022   YX=    -2.9513   ZX=     2.0006
   XY=    -3.6325   YY=    31.9362   ZY=     0.1653
   XZ=     1.4330   YZ=     0.5026   ZZ=    26.1281
   Eigenvalues:    25.6878    30.3642    37.9146
     34  C    Isotropic =   170.1341   Anisotropy =    38.5918
   XX=   158.7292   YX=    -2.3527   ZX=     8.1503
   XY=    -3.0392   YY=   156.6472   ZY=    -2.3842
   XZ=     2.7736   YZ=     0.9197   ZZ=   195.0260
   Eigenvalues:   154.6282   159.9121   195.8620
     35  H    Isotropic =    30.5813   Anisotropy =     8.4322
   XX=    28.2229   YX=    -0.2974   ZX=     2.8829
   XY=    -0.4614   YY=    30.9309   ZY=     3.0997
   XZ=     2.7738   YZ=     4.5755   ZZ=    32.5901
   Eigenvalues:    25.7630    29.7780    36.2027
     36  H    Isotropic =    31.0661   Anisotropy =     9.8883
   XX=    33.0395   YX=    -3.3555   ZX=     3.3486
   XY=    -3.2951   YY=    29.0456   ZY=    -1.6793
   XZ=     4.1934   YZ=    -2.1765   ZZ=    31.1132
   Eigenvalues:    27.1444    28.3956    37.6583
     37  H    Isotropic =    30.2844   Anisotropy =     7.7204
   XX=    31.0276   YX=     0.6692   ZX=    -0.8519
   XY=     1.0195   YY=    26.7317   ZY=    -3.2524
   XZ=    -2.3175   YZ=    -3.9085   ZZ=    33.0939
   Eigenvalues:    25.1207    30.3012    35.4313
     38  C    Isotropic =   170.0615   Anisotropy =    39.4705
   XX=   177.9836   YX=    16.2882   ZX=   -14.1649
   XY=    12.3311   YY=   166.7350   ZY=    -9.7868
   XZ=   -11.6445   YZ=   -10.3539   ZZ=   165.4658
   Eigenvalues:   155.9690   157.8402   196.3751
     39  H    Isotropic =    30.7012   Anisotropy =     8.8459
   XX=    31.7092   YX=     3.7698   ZX=    -0.3253
   XY=     2.7921   YY=    34.3851   ZY=     1.3293
   XZ=    -1.0519   YZ=     0.2943   ZZ=    26.0094
   Eigenvalues:    25.7241    29.7812    36.5985
     40  H    Isotropic =    30.7535   Anisotropy =     8.6691
   XX=    30.9187   YX=     0.4963   ZX=    -2.8987
   XY=     0.4977   YY=    26.5437   ZY=    -3.1904
   XZ=    -1.5883   YZ=    -2.1868   ZZ=    34.7981
   Eigenvalues:    25.7396    29.9881    36.5329
     41  H    Isotropic =    30.9590   Anisotropy =    10.1555
   XX=    37.4355   YX=    -1.9638   ZX=    -0.6903
   XY=    -0.8754   YY=    28.0374   ZY=    -0.5982
   XZ=    -1.3292   YZ=    -0.3412   ZZ=    27.4041
   Eigenvalues:    26.9134    28.2342    37.7293
     42  C    Isotropic =   170.1719   Anisotropy =    37.9264
   XX=   159.3520   YX=     0.8873   ZX=     2.8522
   XY=     6.2568   YY=   188.4505   ZY=    15.2777
   XZ=     4.1465   YZ=    13.3937   ZZ=   162.7131
   Eigenvalues:   155.4198   159.6396   195.4561
     43  H    Isotropic =    31.0607   Anisotropy =     9.8113
   XX=    31.9761   YX=    -4.2039   ZX=     0.3881
   XY=    -5.0182   YY=    33.7772   ZY=     0.6898
   XZ=     0.0360   YZ=     1.0071   ZZ=    27.4287
   Eigenvalues:    26.9880    28.5925    37.6015
     44  H    Isotropic =    30.5740   Anisotropy =     7.9948
   XX=    28.1405   YX=    -1.4976   ZX=     1.5698
   XY=    -1.0847   YY=    29.7302   ZY=     4.2032
   XZ=     1.4904   YZ=     2.7662   ZZ=    33.8513
   Eigenvalues:    26.0294    29.7887    35.9038
     45  H    Isotropic =    30.2798   Anisotropy =     7.6752
   XX=    32.0811   YX=     1.7405   ZX=    -1.4535
   XY=     3.0189   YY=    33.4972   ZY=    -0.8670
   XZ=    -1.0636   YZ=    -0.0459   ZZ=    25.2612
   Eigenvalues:    25.0362    30.4066    35.3966
     46  H    Isotropic =    28.9908   Anisotropy =    11.3894
   XX=    30.6981   YX=     2.4460   ZX=     0.4551
   XY=     6.5275   YY=    30.1424   ZY=     4.1942
   XZ=     3.3694   YZ=     3.7895   ZZ=    26.1320
   Eigenvalues:    23.5543    26.8345    36.5837
     47  H    Isotropic =    28.8792   Anisotropy =    11.0088
   XX=    33.2777   YX=    -0.3788   ZX=    -2.2893
   XY=    -4.0190   YY=    26.2679   ZY=     2.7549
   XZ=    -5.3865   YZ=     3.2017   ZZ=    27.0919
   Eigenvalues:    23.5611    26.8580    36.2184
 End of Minotr Frequency-dependent properties file   721 does not exist.
 End of Minotr Frequency-dependent properties file   722 does not exist.

 **********************************************************************

            Population analysis using the SCF density.

 **********************************************************************

 Orbital symmetries:
       Occupied  (A) (A) (A) (A) (A) (A) (A) (A) (A) (A) (A) (A)
                 (A) (A) (A) (A) (A) (A) (A) (A) (A) (A) (A) (A)
                 (A) (A) (A) (A) (A) (A) (A) (A) (A) (A) (A) (A)
                 (A) (A) (A) (A) (A) (A) (A) (A) (A) (A) (A) (A)
                 (A) (A) (A) (A) (A) (A) (A) (A) (A) (A) (A) (A)
                 (A) (A) (A) (A) (A) (A) (A) (A) (A) (A) (A) (A)
                 (A) (A) (A) (A) (A) (A) (A)
       Virtual   (A) (A) (A) (A) (A) (A) (A) (A) (A) (A) (A) (A)
                 (A) (A) (A) (A) (A) (A) (A) (A) (A) (A) (A) (A)
                 (A) (A) (A) (A) (A) (A) (A) (A) (A) (A) (A) (A)
                 (A) (A) (A) (A) (A) (A) (A) (A) (A) (A) (A) (A)
                 (A) (A) (A) (A) (A) (A) (A) (A) (A) (A) (A) (A)
                 (A) (A) (A) (A) (A) (A) (A) (A) (A) (A) (A) (A)
                 (A) (A) (A) (A) (A) (A) (A) (A) (A) (A) (A) (A)
                 (A) (A) (A) (A) (A) (A) (A) (A) (A) (A) (A) (A)
                 (A) (A) (A) (A) (A) (A) (A) (A) (A) (A) (A) (A)
                 (A) (A) (A) (A) (A) (A) (A) (A) (A) (A) (A) (A)
                 (A) (A) (A) (A) (A) (A) (A) (A) (A) (A) (A) (A)
                 (A) (A) (A) (A) (A) (A) (A) (A) (A) (A) (A) (A)
                 (A) (A) (A) (A) (A) (A) (A) (A) (A) (A) (A) (A)
                 (A) (A) (A) (A) (A) (A) (A) (A) (A) (A) (A) (A)
                 (A) (A) (A) (A) (A) (A) (A) (A) (A) (A) (A) (A)
                 (A) (A) (A) (A) (A) (A) (A) (A) (A) (A) (A) (A)
                 (A) (A) (A) (A) (A) (A) (A) (A) (A) (A) (A) (A)
                 (A) (A) (A) (A) (A) (A) (A) (A) (A) (A) (A) (A)
                 (A) (A) (A) (A) (A) (A) (A) (A) (A) (A) (A) (A)
                 (A) (A) (A) (A) (A) (A) (A) (A) (A) (A) (A) (A)
                 (A) (A) (A) (A) (A) (A) (A) (A) (A) (A) (A) (A)
                 (A) (A) (A) (A) (A) (A) (A) (A) (A) (A) (A) (A)
                 (A) (A) (A) (A) (A) (A) (A) (A) (A) (A) (A) (A)
                 (A) (A) (A) (A) (A) (A) (A) (A) (A) (A) (A) (A)
                 (A) (A) (A) (A) (A) (A) (A) (A) (A) (A) (A) (A)
                 (A) (A) (A) (A) (A) (A) (A) (A) (A) (A) (A) (A)
                 (A) (A) (A) (A) (A) (A) (A) (A) (A) (A) (A) (A)
                 (A) (A) (A) (A) (A) (A) (A) (A) (A) (A) (A) (A)
                 (A) (A) (A) (A) (A) (A) (A) (A) (A) (A) (A) (A)
                 (A) (A) (A) (A) (A) (A) (A) (A) (A) (A) (A) (A)
                 (A) (A) (A) (A) (A) (A) (A) (A) (A) (A) (A) (A)
                 (A) (A) (A) (A) (A) (A) (A) (A) (A) (A) (A) (A)
                 (A) (A) (A) (A) (A) (A) (A) (A) (A) (A) (A) (A)
                 (A) (A) (A) (A) (A) (A) (A) (A) (A) (A) (A) (A)
                 (A) (A) (A) (A) (A) (A) (A) (A) (A) (A) (A) (A)
                 (A) (A) (A) (A) (A) (A)
 The electronic state is 1-A.
 Alpha  occ. eigenvalues --  -66.30051 -19.26513 -19.26483 -19.25788 -19.22955
 Alpha  occ. eigenvalues --  -10.31575 -10.31307 -10.30733 -10.30461 -10.30094
 Alpha  occ. eigenvalues --  -10.28950 -10.25281 -10.24363 -10.24161 -10.23268
 Alpha  occ. eigenvalues --  -10.22950 -10.22933 -10.21725 -10.21664  -5.33351
 Alpha  occ. eigenvalues --   -3.67275  -3.66976  -3.66958  -1.11180  -1.07886
 Alpha  occ. eigenvalues --   -1.06620  -1.02775  -0.84289  -0.81759  -0.77531
 Alpha  occ. eigenvalues --   -0.75434  -0.71804  -0.70579  -0.69990  -0.69805
 Alpha  occ. eigenvalues --   -0.68982  -0.68608  -0.64892  -0.62551  -0.57637
 Alpha  occ. eigenvalues --   -0.56665  -0.54622  -0.53130  -0.52308  -0.51126
 Alpha  occ. eigenvalues --   -0.49125  -0.48519  -0.46950  -0.46278  -0.44670
 Alpha  occ. eigenvalues --   -0.44196  -0.44181  -0.43517  -0.43437  -0.42372
 Alpha  occ. eigenvalues --   -0.41788  -0.41385  -0.40665  -0.40231  -0.39614
 Alpha  occ. eigenvalues --   -0.39515  -0.39123  -0.38640  -0.38486  -0.38381
 Alpha  occ. eigenvalues --   -0.36858  -0.36363  -0.35343  -0.34542  -0.33544
 Alpha  occ. eigenvalues --   -0.33252  -0.32614  -0.31648  -0.31482  -0.29796
 Alpha  occ. eigenvalues --   -0.29054  -0.27750  -0.27364  -0.26038
 Alpha virt. eigenvalues --   -0.00175   0.00489   0.01250   0.01421   0.02581
 Alpha virt. eigenvalues --    0.02858   0.03005   0.03970   0.04188   0.04548
 Alpha virt. eigenvalues --    0.04876   0.05259   0.05585   0.05977   0.06492
 Alpha virt. eigenvalues --    0.07236   0.07261   0.07685   0.07804   0.08338
 Alpha virt. eigenvalues --    0.08494   0.08635   0.09273   0.09402   0.09895
 Alpha virt. eigenvalues --    0.10256   0.10508   0.11254   0.11394   0.11859
 Alpha virt. eigenvalues --    0.12242   0.12474   0.12743   0.12786   0.13119
 Alpha virt. eigenvalues --    0.13301   0.13904   0.14497   0.14864   0.15002
 Alpha virt. eigenvalues --    0.15162   0.15431   0.15599   0.15926   0.16729
 Alpha virt. eigenvalues --    0.16897   0.17104   0.17178   0.17695   0.17933
 Alpha virt. eigenvalues --    0.18315   0.18693   0.19199   0.19440   0.19968
 Alpha virt. eigenvalues --    0.20224   0.20752   0.20839   0.20947   0.21497
 Alpha virt. eigenvalues --    0.21754   0.22232   0.22365   0.22723   0.23035
 Alpha virt. eigenvalues --    0.23088   0.23478   0.23958   0.24209   0.24530
 Alpha virt. eigenvalues --    0.24960   0.25082   0.25219   0.25695   0.26292
 Alpha virt. eigenvalues --    0.26587   0.26996   0.27547   0.27797   0.28212
 Alpha virt. eigenvalues --    0.28455   0.28633   0.28707   0.29566   0.29903
 Alpha virt. eigenvalues --    0.30014   0.30272   0.30764   0.31065   0.31162
 Alpha virt. eigenvalues --    0.31697   0.32353   0.32828   0.33003   0.34142
 Alpha virt. eigenvalues --    0.34432   0.34500   0.34859   0.35601   0.36204
 Alpha virt. eigenvalues --    0.36383   0.36765   0.37551   0.37823   0.38017
 Alpha virt. eigenvalues --    0.39268   0.39545   0.39778   0.39941   0.40807
 Alpha virt. eigenvalues --    0.41762   0.42988   0.43214   0.43660   0.44763
 Alpha virt. eigenvalues --    0.46068   0.46747   0.47430   0.48210   0.49461
 Alpha virt. eigenvalues --    0.49841   0.51710   0.52421   0.54493   0.54523
 Alpha virt. eigenvalues --    0.55029   0.60310   0.63644   0.65495   0.66516
 Alpha virt. eigenvalues --    0.67624   0.68656   0.69930   0.70508   0.71467
 Alpha virt. eigenvalues --    0.72506   0.72980   0.73885   0.74182   0.75231
 Alpha virt. eigenvalues --    0.75416   0.76546   0.77207   0.78483   0.78868
 Alpha virt. eigenvalues --    0.79325   0.79888   0.80171   0.81705   0.81939
 Alpha virt. eigenvalues --    0.82949   0.83216   0.83668   0.84765   0.85771
 Alpha virt. eigenvalues --    0.86754   0.87840   0.88196   0.88566   0.89860
 Alpha virt. eigenvalues --    0.91591   0.92066   0.93233   0.93468   0.94398
 Alpha virt. eigenvalues --    0.94871   0.95266   0.96776   0.97756   0.98773
 Alpha virt. eigenvalues --    0.99808   1.00640   1.01153   1.01811   1.02387
 Alpha virt. eigenvalues --    1.03544   1.04167   1.04999   1.05223   1.05797
 Alpha virt. eigenvalues --    1.06588   1.06959   1.07672   1.08163   1.08393
 Alpha virt. eigenvalues --    1.09068   1.09507   1.10153   1.10908   1.11631
 Alpha virt. eigenvalues --    1.12617   1.14119   1.15570   1.16767   1.16961
 Alpha virt. eigenvalues --    1.18900   1.19309   1.20159   1.21283   1.21626
 Alpha virt. eigenvalues --    1.22514   1.23724   1.24669   1.25515   1.26152
 Alpha virt. eigenvalues --    1.27926   1.29613   1.31365   1.32295   1.33581
 Alpha virt. eigenvalues --    1.35045   1.35571   1.36134   1.36755   1.37795
 Alpha virt. eigenvalues --    1.38421   1.39781   1.41261   1.43513   1.44927
 Alpha virt. eigenvalues --    1.46039   1.47451   1.47511   1.48550   1.49224
 Alpha virt. eigenvalues --    1.51209   1.52237   1.52702   1.53963   1.55631
 Alpha virt. eigenvalues --    1.56761   1.59387   1.61949   1.62086   1.63007
 Alpha virt. eigenvalues --    1.63086   1.64968   1.66341   1.69036   1.69824
 Alpha virt. eigenvalues --    1.70788   1.71408   1.73783   1.74564   1.76950
 Alpha virt. eigenvalues --    1.77859   1.78901   1.80457   1.81347   1.82428
 Alpha virt. eigenvalues --    1.83944   1.84161   1.85702   1.85816   1.87918
 Alpha virt. eigenvalues --    1.88919   1.89408   1.90770   1.91795   1.93247
 Alpha virt. eigenvalues --    1.94858   1.95574   1.96226   1.96675   1.97212
 Alpha virt. eigenvalues --    1.98731   1.99171   2.00247   2.01223   2.02757
 Alpha virt. eigenvalues --    2.03726   2.03859   2.04447   2.06445   2.06707
 Alpha virt. eigenvalues --    2.07180   2.07969   2.08809   2.09828   2.10702
 Alpha virt. eigenvalues --    2.11031   2.11275   2.11802   2.12170   2.12986
 Alpha virt. eigenvalues --    2.14419   2.14643   2.15630   2.15772   2.16546
 Alpha virt. eigenvalues --    2.16736   2.17182   2.18095   2.18455   2.19372
 Alpha virt. eigenvalues --    2.19929   2.20250   2.21016   2.21460   2.22006
 Alpha virt. eigenvalues --    2.22261   2.23604   2.25520   2.25846   2.27617
 Alpha virt. eigenvalues --    2.29109   2.30321   2.30837   2.33621   2.34812
 Alpha virt. eigenvalues --    2.36510   2.37656   2.38354   2.39764   2.40430
 Alpha virt. eigenvalues --    2.41823   2.42777   2.43479   2.44454   2.45189
 Alpha virt. eigenvalues --    2.45766   2.47639   2.48649   2.50120   2.52086
 Alpha virt. eigenvalues --    2.53740   2.56902   2.57361   2.57762   2.59160
 Alpha virt. eigenvalues --    2.60348   2.61544   2.61992   2.63081   2.65092
 Alpha virt. eigenvalues --    2.66528   2.68344   2.68656   2.69509   2.70308
 Alpha virt. eigenvalues --    2.71914   2.72908   2.73424   2.74119   2.75283
 Alpha virt. eigenvalues --    2.77084   2.77121   2.78109   2.78851   2.80027
 Alpha virt. eigenvalues --    2.81067   2.81869   2.83630   2.85172   2.85285
 Alpha virt. eigenvalues --    2.85974   2.86367   2.87567   2.88231   2.88755
 Alpha virt. eigenvalues --    2.89175   2.89354   2.89586   2.90810   2.91466
 Alpha virt. eigenvalues --    2.92163   2.94273   2.95769   2.96831   2.98232
 Alpha virt. eigenvalues --    2.99449   2.99755   3.03119   3.04173   3.05394
 Alpha virt. eigenvalues --    3.08176   3.15858   3.18528   3.26474   3.28025
 Alpha virt. eigenvalues --    3.28921   3.29546   3.30175   3.30836   3.31826
 Alpha virt. eigenvalues --    3.32023   3.35878   3.39234   3.39693   3.46893
 Alpha virt. eigenvalues --    3.47601   3.48095   3.48397   3.48716   3.49549
 Alpha virt. eigenvalues --    3.49807   3.50899   3.51068   3.51775   3.52292
 Alpha virt. eigenvalues --    3.53056   3.53769   3.54908   3.55883   3.56445
 Alpha virt. eigenvalues --    3.57275   3.60407   3.63018   4.36397   4.43857
 Alpha virt. eigenvalues --    4.46381   4.48228   4.54701   4.57157   4.61521
 Alpha virt. eigenvalues --    4.64178   4.65037   4.66194   4.67914   4.69866
 Alpha virt. eigenvalues --    4.72274   4.76386   4.81441   4.88235   4.97486
 Alpha virt. eigenvalues --    5.06242
          Condensed to atoms (all electrons):
              1          2          3          4          5          6
     1  H    0.583121   0.316938  -0.016801   0.032849  -0.002283  -0.068766
     2  C    0.316938  11.454747  -0.936116   0.650962   0.245985  -3.340057
     3  C   -0.016801  -0.936116   9.180858  -2.737961  -0.168737   1.555187
     4  C    0.032849   0.650962  -2.737961  14.620985  -3.764534  -4.964548
     5  C   -0.002283   0.245985  -0.168737  -3.764534  12.598802   0.993850
     6  C   -0.068766  -3.340057   1.555187  -4.964548   0.993850  12.753125
     7  C    0.016463  -1.049982   0.028923   0.621072  -0.379917  -0.535458
     8  H   -0.000054   0.049495   0.387184   0.045139  -0.044041  -0.014608
     9  H   -0.000181   0.010531   0.049765   0.002073   0.093779   0.253481
    10  H   -0.004048   0.169741  -0.047482   0.030798   0.008324   0.112615
    11  H   -0.005987  -0.057763  -0.000681  -0.014076   0.042410   0.085205
    12  H    0.002907   0.009032   0.343043   0.079580  -0.097494  -0.023211
    13  H    0.004852  -0.029971  -0.065309   0.036251  -0.015703  -0.056013
    14  O    0.000224   0.009548  -0.081560  -0.171424   0.266778   0.026770
    15  C    0.006744  -0.104765  -0.810777   0.925662  -3.314452  -0.807627
    16  O    0.004084  -0.061578   0.010379   0.026071  -0.189513   0.229981
    17  H   -0.000177  -0.029772   0.023655   0.099649  -0.002759  -0.066344
    18  O    0.016922  -0.287638  -0.115187   0.167013   0.006566   0.005966
    19  C    0.002489  -0.007490  -0.045027   0.159250  -0.195289  -0.092335
    20  H    0.000002  -0.019072   0.005910  -0.063068   0.001921   0.063538
    21  H    0.000003   0.001266   0.001681   0.012386  -0.001186  -0.010236
    22  H    0.000001   0.009705  -0.001505   0.010969  -0.001620  -0.029270
    23  O   -0.048604  -0.275185   0.065506   0.138551  -0.066657  -0.060922
    24  Si  -0.006483  -0.659547  -0.028027  -0.098153  -0.021490   0.398964
    25  C   -0.002223   0.158103   0.006092  -0.002143   0.007907  -0.105597
    26  H    0.000001   0.001075   0.000167   0.000130  -0.000027  -0.000334
    27  H   -0.000001  -0.016531   0.002402   0.001266   0.001388   0.009503
    28  H   -0.000003  -0.032512  -0.000406  -0.001470  -0.000439   0.014780
    29  C    0.006364  -0.269705  -0.011471   0.019520   0.011365   0.040254
    30  C   -0.001074   0.190050  -0.005791  -0.005142  -0.002908  -0.091360
    31  H    0.000001   0.002878   0.000190   0.000423  -0.000289  -0.001600
    32  H    0.000001   0.001549  -0.000166   0.000033  -0.000019  -0.004079
    33  H    0.000002  -0.019703  -0.000256   0.001398   0.001101   0.005282
    34  C   -0.001211   0.070994   0.009252   0.003434  -0.000019  -0.021028
    35  H   -0.000001  -0.000589  -0.000076  -0.000061  -0.000025  -0.000738
    36  H   -0.000001  -0.001568   0.000032   0.000018   0.000007   0.000765
    37  H   -0.000013   0.011932   0.000501  -0.000434   0.000191  -0.001070
    38  C    0.000061  -0.010000  -0.000677  -0.003030   0.001520   0.005621
    39  H    0.000000   0.000605  -0.000013   0.000013  -0.000010  -0.000153
    40  H    0.000000   0.000654  -0.000015  -0.000007   0.000011  -0.000198
    41  H    0.000000  -0.001208   0.000004  -0.000003   0.000001   0.000177
    42  C   -0.001802  -0.024094   0.000789  -0.022975   0.010497   0.039628
    43  H    0.000000  -0.001114   0.000115   0.000019  -0.000011   0.000121
    44  H    0.000000  -0.001891   0.000157  -0.000019   0.000276   0.000099
    45  H   -0.000032   0.010557   0.000439  -0.000427   0.000322  -0.003245
    46  H    0.000000   0.000715   0.061993  -0.031281  -0.115646  -0.004958
    47  H    0.000000  -0.003504  -0.034122   0.105230  -0.128194   0.005743
              7          8          9         10         11         12
     1  H    0.016463  -0.000054  -0.000181  -0.004048  -0.005987   0.002907
     2  C   -1.049982   0.049495   0.010531   0.169741  -0.057763   0.009032
     3  C    0.028923   0.387184   0.049765  -0.047482  -0.000681   0.343043
     4  C    0.621072   0.045139   0.002073   0.030798  -0.014076   0.079580
     5  C   -0.379917  -0.044041   0.093779   0.008324   0.042410  -0.097494
     6  C   -0.535458  -0.014608   0.253481   0.112615   0.085205  -0.023211
     7  C    6.621169  -0.028392  -0.032752   0.024204   0.281396  -0.004200
     8  H   -0.028392   0.525885  -0.000098   0.000012  -0.001746  -0.021755
     9  H   -0.032752  -0.000098   0.597318  -0.006462   0.000014  -0.000046
    10  H    0.024204   0.000012  -0.006462   0.612640  -0.000107  -0.000019
    11  H    0.281396  -0.001746   0.000014  -0.000107   0.538290  -0.004744
    12  H   -0.004200  -0.021755  -0.000046  -0.000019  -0.004744   0.518977
    13  H    0.446387  -0.003828  -0.000076  -0.000040  -0.028099   0.004297
    14  O    0.026857   0.000561   0.004725   0.000112  -0.000180   0.011204
    15  C   -0.066973  -0.068348  -0.075218   0.012476   0.006331  -0.009903
    16  O   -0.046015   0.000355  -0.029938  -0.016573   0.000479   0.002161
    17  H    0.010736   0.000008  -0.004992   0.006555  -0.000007   0.000041
    18  O    0.155291   0.000685  -0.016154  -0.039933  -0.002570   0.001096
    19  C    0.013149   0.000313   0.004675   0.007826  -0.000200   0.001141
    20  H    0.001121   0.000001  -0.000754  -0.001228  -0.000001  -0.000001
    21  H    0.001656   0.000000   0.000113  -0.000019   0.000000   0.000000
    22  H   -0.001945   0.000000  -0.001011   0.009811   0.000000   0.000000
    23  O    0.056204  -0.000931  -0.001480  -0.012667  -0.007276  -0.001479
    24  Si  -0.054675   0.001636   0.003650  -0.013419  -0.003888  -0.000412
    25  C    0.001443  -0.000394  -0.000304  -0.000934   0.000785  -0.000152
    26  H    0.001266   0.000000   0.000000   0.000000  -0.000003   0.000000
    27  H    0.003552   0.000000   0.000000   0.000018   0.000005   0.000000
    28  H    0.006411   0.000001   0.000000  -0.000001   0.000078   0.000000
    29  C    0.076722  -0.000097  -0.000108  -0.001438  -0.002710  -0.000014
    30  C   -0.031857  -0.000043   0.000014   0.006540  -0.000088   0.000036
    31  H    0.000081   0.000000   0.000000   0.000001   0.000000   0.000000
    32  H    0.001147   0.000000   0.000000  -0.000024   0.000000   0.000000
    33  H    0.004780   0.000000   0.000000   0.000142   0.000000   0.000000
    34  C    0.003453   0.000030   0.000010   0.000345   0.000526  -0.000005
    35  H   -0.000383   0.000000   0.000000   0.000001   0.000000   0.000000
    36  H    0.000521   0.000000   0.000000   0.000000   0.000000   0.000000
    37  H   -0.002421   0.000000   0.000000  -0.000001   0.000001   0.000000
    38  C    0.003235  -0.000005   0.000000  -0.000109  -0.000280   0.000000
    39  H   -0.000254   0.000000   0.000000   0.000000   0.000000   0.000000
    40  H    0.000020   0.000000   0.000000   0.000000   0.000000   0.000000
    41  H    0.000312   0.000000   0.000000   0.000000   0.000000   0.000000
    42  C    0.006972   0.000043   0.000010   0.000016   0.002708  -0.000009
    43  H    0.001187   0.000000   0.000000   0.000000   0.000001   0.000000
    44  H    0.001482   0.000000   0.000000   0.000000  -0.000015   0.000000
    45  H   -0.004912   0.000000   0.000000   0.000000   0.000192   0.000000
    46  H    0.005530   0.000438   0.000121   0.000001  -0.000001  -0.000261
    47  H   -0.002314   0.000053   0.001351   0.000001   0.000001   0.000246
             13         14         15         16         17         18
     1  H    0.004852   0.000224   0.006744   0.004084  -0.000177   0.016922
     2  C   -0.029971   0.009548  -0.104765  -0.061578  -0.029772  -0.287638
     3  C   -0.065309  -0.081560  -0.810777   0.010379   0.023655  -0.115187
     4  C    0.036251  -0.171424   0.925662   0.026071   0.099649   0.167013
     5  C   -0.015703   0.266778  -3.314452  -0.189513  -0.002759   0.006566
     6  C   -0.056013   0.026770  -0.807627   0.229981  -0.066344   0.005966
     7  C    0.446387   0.026857  -0.066973  -0.046015   0.010736   0.155291
     8  H   -0.003828   0.000561  -0.068348   0.000355   0.000008   0.000685
     9  H   -0.000076   0.004725  -0.075218  -0.029938  -0.004992  -0.016154
    10  H   -0.000040   0.000112   0.012476  -0.016573   0.006555  -0.039933
    11  H   -0.028099  -0.000180   0.006331   0.000479  -0.000007  -0.002570
    12  H    0.004297   0.011204  -0.009903   0.002161   0.000041   0.001096
    13  H    0.508196   0.005092  -0.005483   0.000351   0.000002   0.014025
    14  O    0.005092   8.218734   0.061614   0.018270  -0.000422  -0.002104
    15  C   -0.005483   0.061614   9.400373   0.067619  -0.020918  -0.002104
    16  O    0.000351   0.018270   0.067619   8.249879   0.219316   0.009904
    17  H    0.000002  -0.000422  -0.020918   0.219316   0.386865   0.001663
    18  O    0.014025  -0.002104  -0.002104   0.009904   0.001663   8.421731
    19  C    0.004279  -0.014725   0.006394   0.000100   0.002931  -0.015803
    20  H    0.000000  -0.000060   0.018402  -0.000173  -0.000004  -0.062001
    21  H    0.000001   0.000550  -0.001617   0.000077   0.000000  -0.068924
    22  H   -0.000004   0.000122  -0.000820  -0.000337   0.000035  -0.051362
    23  O    0.001250  -0.000013   0.003573  -0.005311  -0.000386   0.056195
    24  Si  -0.010803  -0.001402  -0.051894  -0.001060  -0.003235   0.146555
    25  C   -0.003389  -0.000312   0.010308   0.000328   0.000060  -0.049487
    26  H    0.000113   0.000004   0.000041   0.000000   0.000000   0.000837
    27  H    0.000019  -0.000001   0.000898  -0.000004   0.000000  -0.000767
    28  H   -0.000388  -0.000033  -0.000140   0.000000   0.000000  -0.001347
    29  C    0.001546  -0.000263   0.002182  -0.001411  -0.000018   0.013063
    30  C   -0.000238   0.000433  -0.002698   0.002233   0.000332  -0.046296
    31  H    0.000000   0.000000   0.000000  -0.000001   0.000000   0.000721
    32  H    0.000000   0.000000  -0.000010   0.000009   0.000000   0.000000
    33  H    0.000004  -0.000001   0.000200   0.000000   0.000000  -0.000080
    34  C    0.000158   0.000057   0.000662   0.000029   0.000036   0.003136
    35  H    0.000000   0.000000  -0.000001   0.000000   0.000000  -0.000021
    36  H    0.000000   0.000000   0.000000   0.000000   0.000000   0.000002
    37  H    0.000000   0.000000   0.000008   0.000002   0.000000  -0.000028
    38  C    0.000306  -0.000027  -0.000069  -0.000025   0.000001  -0.000272
    39  H    0.000000   0.000000   0.000000   0.000000   0.000000  -0.000005
    40  H    0.000000   0.000000   0.000000   0.000000   0.000000  -0.000002
    41  H    0.000000   0.000000   0.000000   0.000000   0.000000   0.000001
    42  C   -0.000533  -0.000053   0.001343   0.000149   0.000013  -0.004032
    43  H    0.000000   0.000000   0.000000   0.000000   0.000000   0.000003
    44  H   -0.000002   0.000000   0.000009   0.000000   0.000000  -0.000012
    45  H   -0.000006   0.000000   0.000011   0.000001   0.000000  -0.000033
    46  H   -0.000019  -0.037287   0.459726   0.000388  -0.000005  -0.000102
    47  H    0.000004  -0.031500   0.418177   0.000805   0.000002   0.000400
             19         20         21         22         23         24
     1  H    0.002489   0.000002   0.000003   0.000001  -0.048604  -0.006483
     2  C   -0.007490  -0.019072   0.001266   0.009705  -0.275185  -0.659547
     3  C   -0.045027   0.005910   0.001681  -0.001505   0.065506  -0.028027
     4  C    0.159250  -0.063068   0.012386   0.010969   0.138551  -0.098153
     5  C   -0.195289   0.001921  -0.001186  -0.001620  -0.066657  -0.021490
     6  C   -0.092335   0.063538  -0.010236  -0.029270  -0.060922   0.398964
     7  C    0.013149   0.001121   0.001656  -0.001945   0.056204  -0.054675
     8  H    0.000313   0.000001   0.000000   0.000000  -0.000931   0.001636
     9  H    0.004675  -0.000754   0.000113  -0.001011  -0.001480   0.003650
    10  H    0.007826  -0.001228  -0.000019   0.009811  -0.012667  -0.013419
    11  H   -0.000200  -0.000001   0.000000   0.000000  -0.007276  -0.003888
    12  H    0.001141  -0.000001   0.000000   0.000000  -0.001479  -0.000412
    13  H    0.004279   0.000000   0.000001  -0.000004   0.001250  -0.010803
    14  O   -0.014725  -0.000060   0.000550   0.000122  -0.000013  -0.001402
    15  C    0.006394   0.018402  -0.001617  -0.000820   0.003573  -0.051894
    16  O    0.000100  -0.000173   0.000077  -0.000337  -0.005311  -0.001060
    17  H    0.002931  -0.000004   0.000000   0.000035  -0.000386  -0.003235
    18  O   -0.015803  -0.062001  -0.068924  -0.051362   0.056195   0.146555
    19  C    5.141594   0.409891   0.433133   0.410739   0.004058  -0.045205
    20  H    0.409891   0.542784  -0.029383  -0.040467  -0.000092   0.005249
    21  H    0.433133  -0.029383   0.523646  -0.026372  -0.000026  -0.010762
    22  H    0.410739  -0.040467  -0.026372   0.562722   0.000081   0.001976
    23  O    0.004058  -0.000092  -0.000026   0.000081   8.470742   0.203640
    24  Si  -0.045205   0.005249  -0.010762   0.001976   0.203640  13.431471
    25  C    0.007093  -0.000752   0.002739  -0.001209  -0.072619   0.073498
    26  H    0.000155   0.000000  -0.000010   0.000000   0.009760  -0.036028
    27  H    0.001601  -0.000028   0.000378   0.000015  -0.004467  -0.062310
    28  H   -0.000972   0.000000  -0.000001   0.000000  -0.005808   0.004769
    29  C   -0.001832   0.000026  -0.000121   0.000287  -0.073243   0.496336
    30  C    0.013825  -0.000901   0.002730  -0.000113  -0.044094   0.104762
    31  H    0.000478   0.000000  -0.000006   0.000003   0.007735  -0.026163
    32  H    0.001628   0.000000  -0.000001  -0.000021  -0.002944  -0.037193
    33  H    0.004175   0.000026   0.000225   0.000201  -0.004794  -0.032162
    34  C    0.002990   0.000023   0.000004  -0.000098   0.005305  -0.188453
    35  H   -0.000045   0.000000   0.000000   0.000000  -0.002115   0.006573
    36  H    0.000007   0.000000   0.000000   0.000000  -0.000830   0.020234
    37  H   -0.000051   0.000000   0.000000   0.000000   0.005804  -0.040627
    38  C   -0.000486   0.000005  -0.000015  -0.000034   0.012920  -0.085150
    39  H   -0.000018   0.000000   0.000000   0.000000   0.000637  -0.004556
    40  H    0.000016   0.000000   0.000000   0.000000   0.000656  -0.017777
    41  H    0.000004   0.000000   0.000000   0.000000  -0.000732   0.019861
    42  C   -0.003597   0.000010  -0.000019  -0.000048   0.024872  -0.147437
    43  H    0.000007   0.000000   0.000000   0.000000  -0.000836   0.016207
    44  H    0.000002   0.000000   0.000000   0.000000  -0.002668   0.000597
    45  H   -0.000059   0.000000   0.000000   0.000000   0.005079  -0.019427
    46  H   -0.000666   0.000005   0.000000   0.000000  -0.000007  -0.000114
    47  H    0.002826  -0.000013   0.000000  -0.000002  -0.000006  -0.000028
             25         26         27         28         29         30
     1  H   -0.002223   0.000001  -0.000001  -0.000003   0.006364  -0.001074
     2  C    0.158103   0.001075  -0.016531  -0.032512  -0.269705   0.190050
     3  C    0.006092   0.000167   0.002402  -0.000406  -0.011471  -0.005791
     4  C   -0.002143   0.000130   0.001266  -0.001470   0.019520  -0.005142
     5  C    0.007907  -0.000027   0.001388  -0.000439   0.011365  -0.002908
     6  C   -0.105597  -0.000334   0.009503   0.014780   0.040254  -0.091360
     7  C    0.001443   0.001266   0.003552   0.006411   0.076722  -0.031857
     8  H   -0.000394   0.000000   0.000000   0.000001  -0.000097  -0.000043
     9  H   -0.000304   0.000000   0.000000   0.000000  -0.000108   0.000014
    10  H   -0.000934   0.000000   0.000018  -0.000001  -0.001438   0.006540
    11  H    0.000785  -0.000003   0.000005   0.000078  -0.002710  -0.000088
    12  H   -0.000152   0.000000   0.000000   0.000000  -0.000014   0.000036
    13  H   -0.003389   0.000113   0.000019  -0.000388   0.001546  -0.000238
    14  O   -0.000312   0.000004  -0.000001  -0.000033  -0.000263   0.000433
    15  C    0.010308   0.000041   0.000898  -0.000140   0.002182  -0.002698
    16  O    0.000328   0.000000  -0.000004   0.000000  -0.001411   0.002233
    17  H    0.000060   0.000000   0.000000   0.000000  -0.000018   0.000332
    18  O   -0.049487   0.000837  -0.000767  -0.001347   0.013063  -0.046296
    19  C    0.007093   0.000155   0.001601  -0.000972  -0.001832   0.013825
    20  H   -0.000752   0.000000  -0.000028   0.000000   0.000026  -0.000901
    21  H    0.002739  -0.000010   0.000378  -0.000001  -0.000121   0.002730
    22  H   -0.001209   0.000000   0.000015   0.000000   0.000287  -0.000113
    23  O   -0.072619   0.009760  -0.004467  -0.005808  -0.073243  -0.044094
    24  Si   0.073498  -0.036028  -0.062310   0.004769   0.496336   0.104762
    25  C    5.556522   0.397495   0.419881   0.384681  -0.153999   0.046805
    26  H    0.397495   0.498024  -0.021594  -0.021837  -0.022995  -0.007761
    27  H    0.419881  -0.021594   0.471934  -0.021961   0.014932  -0.008581
    28  H    0.384681  -0.021837  -0.021961   0.496071  -0.012997   0.004247
    29  C   -0.153999  -0.022995   0.014932  -0.012997   8.086019  -0.163599
    30  C    0.046805  -0.007761  -0.008581   0.004247  -0.163599   5.604607
    31  H   -0.008037   0.000122   0.000075   0.000015  -0.018484   0.390507
    32  H    0.007845   0.000026   0.000006  -0.000017  -0.018883   0.408952
    33  H   -0.007124   0.000112   0.000518   0.000005   0.013773   0.396151
    34  C   -0.003078   0.001327  -0.000821  -0.005031  -0.365835  -0.020978
    35  H   -0.001018   0.000001  -0.000001   0.000000  -0.063037   0.002067
    36  H   -0.001172   0.000000   0.000000   0.000000  -0.159696  -0.001019
    37  H    0.000133   0.000000  -0.000001   0.000001  -0.108707   0.002591
    38  C    0.016999   0.011712  -0.001126   0.002707  -0.316757   0.008910
    39  H   -0.001660   0.000012  -0.000006   0.000018  -0.083618   0.002787
    40  H    0.004776   0.000094   0.000009   0.000002  -0.080221   0.000191
    41  H    0.000956   0.000018   0.000000  -0.000005  -0.155568  -0.000074
    42  C    0.014142   0.006744   0.002066   0.008041  -0.365764  -0.009082
    43  H    0.001218  -0.000002   0.000000  -0.000007  -0.159579  -0.001747
    44  H    0.000029   0.000074   0.000007   0.000100  -0.062190  -0.000043
    45  H    0.000030   0.000005  -0.000004   0.000017  -0.107229  -0.000812
    46  H    0.000038   0.000000   0.000000   0.000000  -0.000002   0.000002
    47  H   -0.000007   0.000000   0.000000   0.000000   0.000000   0.000003
             31         32         33         34         35         36
     1  H    0.000001   0.000001   0.000002  -0.001211  -0.000001  -0.000001
     2  C    0.002878   0.001549  -0.019703   0.070994  -0.000589  -0.001568
     3  C    0.000190  -0.000166  -0.000256   0.009252  -0.000076   0.000032
     4  C    0.000423   0.000033   0.001398   0.003434  -0.000061   0.000018
     5  C   -0.000289  -0.000019   0.001101  -0.000019  -0.000025   0.000007
     6  C   -0.001600  -0.004079   0.005282  -0.021028  -0.000738   0.000765
     7  C    0.000081   0.001147   0.004780   0.003453  -0.000383   0.000521
     8  H    0.000000   0.000000   0.000000   0.000030   0.000000   0.000000
     9  H    0.000000   0.000000   0.000000   0.000010   0.000000   0.000000
    10  H    0.000001  -0.000024   0.000142   0.000345   0.000001   0.000000
    11  H    0.000000   0.000000   0.000000   0.000526   0.000000   0.000000
    12  H    0.000000   0.000000   0.000000  -0.000005   0.000000   0.000000
    13  H    0.000000   0.000000   0.000004   0.000158   0.000000   0.000000
    14  O    0.000000   0.000000  -0.000001   0.000057   0.000000   0.000000
    15  C    0.000000  -0.000010   0.000200   0.000662  -0.000001   0.000000
    16  O   -0.000001   0.000009   0.000000   0.000029   0.000000   0.000000
    17  H    0.000000   0.000000   0.000000   0.000036   0.000000   0.000000
    18  O    0.000721   0.000000  -0.000080   0.003136  -0.000021   0.000002
    19  C    0.000478   0.001628   0.004175   0.002990  -0.000045   0.000007
    20  H    0.000000   0.000000   0.000026   0.000023   0.000000   0.000000
    21  H   -0.000006  -0.000001   0.000225   0.000004   0.000000   0.000000
    22  H    0.000003  -0.000021   0.000201  -0.000098   0.000000   0.000000
    23  O    0.007735  -0.002944  -0.004794   0.005305  -0.002115  -0.000830
    24  Si  -0.026163  -0.037193  -0.032162  -0.188453   0.006573   0.020234
    25  C   -0.008037   0.007845  -0.007124  -0.003078  -0.001018  -0.001172
    26  H    0.000122   0.000026   0.000112   0.001327   0.000001   0.000000
    27  H    0.000075   0.000006   0.000518  -0.000821  -0.000001   0.000000
    28  H    0.000015  -0.000017   0.000005  -0.005031   0.000000   0.000000
    29  C   -0.018484  -0.018883   0.013773  -0.365835  -0.063037  -0.159696
    30  C    0.390507   0.408952   0.396151  -0.020978   0.002067  -0.001019
    31  H    0.502612  -0.023017  -0.022507   0.011235   0.000009  -0.000001
    32  H   -0.023017   0.496829  -0.022053   0.012619  -0.000091   0.000001
    33  H   -0.022507  -0.022053   0.491216   0.002029   0.000020   0.000000
    34  C    0.011235   0.012619   0.002029   6.062652   0.414523   0.467022
    35  H    0.000009  -0.000091   0.000020   0.414523   0.537560  -0.028511
    36  H   -0.000001   0.000001   0.000000   0.467022  -0.028511   0.547653
    37  H    0.000016   0.000036  -0.000006   0.487187  -0.026301  -0.027403
    38  C    0.004845   0.000851  -0.000757  -0.058766  -0.002417   0.009331
    39  H    0.000500   0.000039  -0.000008  -0.019097   0.002748  -0.000303
    40  H   -0.000015   0.000008  -0.000006   0.004237   0.000032   0.000003
    41  H    0.000020  -0.000006   0.000001   0.013820  -0.000366   0.005527
    42  C   -0.001031  -0.003546  -0.001168  -0.320061  -0.001450   0.004731
    43  H    0.000000   0.000000   0.000000   0.009002   0.000032   0.005618
    44  H    0.000001   0.000000  -0.000001   0.001571  -0.000154   0.000031
    45  H    0.000000   0.000002   0.000000  -0.001709   0.000023  -0.000320
    46  H    0.000000   0.000000   0.000000   0.000000   0.000000   0.000000
    47  H    0.000000   0.000000   0.000000   0.000000   0.000000   0.000000
             37         38         39         40         41         42
     1  H   -0.000013   0.000061   0.000000   0.000000   0.000000  -0.001802
     2  C    0.011932  -0.010000   0.000605   0.000654  -0.001208  -0.024094
     3  C    0.000501  -0.000677  -0.000013  -0.000015   0.000004   0.000789
     4  C   -0.000434  -0.003030   0.000013  -0.000007  -0.000003  -0.022975
     5  C    0.000191   0.001520  -0.000010   0.000011   0.000001   0.010497
     6  C   -0.001070   0.005621  -0.000153  -0.000198   0.000177   0.039628
     7  C   -0.002421   0.003235  -0.000254   0.000020   0.000312   0.006972
     8  H    0.000000  -0.000005   0.000000   0.000000   0.000000   0.000043
     9  H    0.000000   0.000000   0.000000   0.000000   0.000000   0.000010
    10  H   -0.000001  -0.000109   0.000000   0.000000   0.000000   0.000016
    11  H    0.000001  -0.000280   0.000000   0.000000   0.000000   0.002708
    12  H    0.000000   0.000000   0.000000   0.000000   0.000000  -0.000009
    13  H    0.000000   0.000306   0.000000   0.000000   0.000000  -0.000533
    14  O    0.000000  -0.000027   0.000000   0.000000   0.000000  -0.000053
    15  C    0.000008  -0.000069   0.000000   0.000000   0.000000   0.001343
    16  O    0.000002  -0.000025   0.000000   0.000000   0.000000   0.000149
    17  H    0.000000   0.000001   0.000000   0.000000   0.000000   0.000013
    18  O   -0.000028  -0.000272  -0.000005  -0.000002   0.000001  -0.004032
    19  C   -0.000051  -0.000486  -0.000018   0.000016   0.000004  -0.003597
    20  H    0.000000   0.000005   0.000000   0.000000   0.000000   0.000010
    21  H    0.000000  -0.000015   0.000000   0.000000   0.000000  -0.000019
    22  H    0.000000  -0.000034   0.000000   0.000000   0.000000  -0.000048
    23  O    0.005804   0.012920   0.000637   0.000656  -0.000732   0.024872
    24  Si  -0.040627  -0.085150  -0.004556  -0.017777   0.019861  -0.147437
    25  C    0.000133   0.016999  -0.001660   0.004776   0.000956   0.014142
    26  H    0.000000   0.011712   0.000012   0.000094   0.000018   0.006744
    27  H   -0.000001  -0.001126  -0.000006   0.000009   0.000000   0.002066
    28  H    0.000001   0.002707   0.000018   0.000002  -0.000005   0.008041
    29  C   -0.108707  -0.316757  -0.083618  -0.080221  -0.155568  -0.365764
    30  C    0.002591   0.008910   0.002787   0.000191  -0.000074  -0.009082
    31  H    0.000016   0.004845   0.000500  -0.000015   0.000020  -0.001031
    32  H    0.000036   0.000851   0.000039   0.000008  -0.000006  -0.003546
    33  H   -0.000006  -0.000757  -0.000008  -0.000006   0.000001  -0.001168
    34  C    0.487187  -0.058766  -0.019097   0.004237   0.013820  -0.320061
    35  H   -0.026301  -0.002417   0.002748   0.000032  -0.000366  -0.001450
    36  H   -0.027403   0.009331  -0.000303   0.000003   0.005527   0.004731
    37  H    0.519300   0.000983   0.000037  -0.000145   0.000026  -0.001856
    38  C    0.000983   5.541419   0.449609   0.452895   0.454339   0.033838
    39  H    0.000037   0.449609   0.537077  -0.027432  -0.028226   0.007444
    40  H   -0.000145   0.452895  -0.027432   0.533343  -0.028050  -0.012637
    41  H    0.000026   0.454339  -0.028226  -0.028050   0.543921   0.007256
    42  C   -0.001856   0.033838   0.007444  -0.012637   0.007256   5.967165
    43  H   -0.000290   0.010573   0.000001  -0.000331   0.005417   0.462577
    44  H    0.000028  -0.005455   0.000025   0.002806  -0.000334   0.419191
    45  H    0.003031   0.000238  -0.000147   0.000041   0.000024   0.475489
    46  H    0.000000   0.000000   0.000000   0.000000   0.000000   0.000001
    47  H    0.000000   0.000000   0.000000   0.000000   0.000000   0.000000
             43         44         45         46         47
     1  H    0.000000   0.000000  -0.000032   0.000000   0.000000
     2  C   -0.001114  -0.001891   0.010557   0.000715  -0.003504
     3  C    0.000115   0.000157   0.000439   0.061993  -0.034122
     4  C    0.000019  -0.000019  -0.000427  -0.031281   0.105230
     5  C   -0.000011   0.000276   0.000322  -0.115646  -0.128194
     6  C    0.000121   0.000099  -0.003245  -0.004958   0.005743
     7  C    0.001187   0.001482  -0.004912   0.005530  -0.002314
     8  H    0.000000   0.000000   0.000000   0.000438   0.000053
     9  H    0.000000   0.000000   0.000000   0.000121   0.001351
    10  H    0.000000   0.000000   0.000000   0.000001   0.000001
    11  H    0.000001  -0.000015   0.000192  -0.000001   0.000001
    12  H    0.000000   0.000000   0.000000  -0.000261   0.000246
    13  H    0.000000  -0.000002  -0.000006  -0.000019   0.000004
    14  O    0.000000   0.000000   0.000000  -0.037287  -0.031500
    15  C    0.000000   0.000009   0.000011   0.459726   0.418177
    16  O    0.000000   0.000000   0.000001   0.000388   0.000805
    17  H    0.000000   0.000000   0.000000  -0.000005   0.000002
    18  O    0.000003  -0.000012  -0.000033  -0.000102   0.000400
    19  C    0.000007   0.000002  -0.000059  -0.000666   0.002826
    20  H    0.000000   0.000000   0.000000   0.000005  -0.000013
    21  H    0.000000   0.000000   0.000000   0.000000   0.000000
    22  H    0.000000   0.000000   0.000000   0.000000  -0.000002
    23  O   -0.000836  -0.002668   0.005079  -0.000007  -0.000006
    24  Si   0.016207   0.000597  -0.019427  -0.000114  -0.000028
    25  C    0.001218   0.000029   0.000030   0.000038  -0.000007
    26  H   -0.000002   0.000074   0.000005   0.000000   0.000000
    27  H    0.000000   0.000007  -0.000004   0.000000   0.000000
    28  H   -0.000007   0.000100   0.000017   0.000000   0.000000
    29  C   -0.159579  -0.062190  -0.107229  -0.000002   0.000000
    30  C   -0.001747  -0.000043  -0.000812   0.000002   0.000003
    31  H    0.000000   0.000001   0.000000   0.000000   0.000000
    32  H    0.000000   0.000000   0.000002   0.000000   0.000000
    33  H    0.000000  -0.000001   0.000000   0.000000   0.000000
    34  C    0.009002   0.001571  -0.001709   0.000000   0.000000
    35  H    0.000032  -0.000154   0.000023   0.000000   0.000000
    36  H    0.005618   0.000031  -0.000320   0.000000   0.000000
    37  H   -0.000290   0.000028   0.003031   0.000000   0.000000
    38  C    0.010573  -0.005455   0.000238   0.000000   0.000000
    39  H    0.000001   0.000025  -0.000147   0.000000   0.000000
    40  H   -0.000331   0.002806   0.000041   0.000000   0.000000
    41  H    0.005417  -0.000334   0.000024   0.000000   0.000000
    42  C    0.462577   0.419191   0.475489   0.000001   0.000000
    43  H    0.548413  -0.028605  -0.027404   0.000000   0.000000
    44  H   -0.028605   0.538485  -0.026034   0.000000   0.000000
    45  H   -0.027404  -0.026034   0.519572   0.000000   0.000000
    46  H    0.000000   0.000000   0.000000   0.524097  -0.035018
    47  H    0.000000   0.000000   0.000000  -0.035018   0.530384
 Mulliken atomic charges:
              1
     1  H    0.165716
     2  C   -0.135704
     3  C   -0.626059
     4  C    0.090015
     5  C    0.220262
     6  C   -0.296902
     7  C   -0.180291
     8  H    0.172502
     9  H    0.147946
    10  H    0.142325
    11  H    0.171999
    12  H    0.189943
    13  H    0.192772
    14  O   -0.310288
    15  C   -0.058936
    16  O   -0.491030
    17  H    0.377139
    18  O   -0.255508
    19  C   -0.212973
    20  H    0.169085
    21  H    0.168111
    22  H    0.149571
    23  O   -0.376377
    24  Si   0.771901
    25  C   -0.704299
    26  H    0.181276
    27  H    0.207730
    28  H    0.183432
    29  C   -0.000801
    30  C   -0.742475
    31  H    0.178682
    32  H    0.180491
    33  H    0.189264
    34  C   -0.581480
    35  H    0.163812
    36  H    0.159322
    37  H    0.177547
    38  C   -0.537463
    39  H    0.163954
    40  H    0.167041
    41  H    0.162887
    42  C   -0.574541
    43  H    0.159413
    44  H    0.162459
    45  H    0.176728
    46  H    0.172314
    47  H    0.169484
 Sum of Mulliken atomic charges =   0.00000
 Mulliken charges with hydrogens summed into heavy atoms:
              1
     2  C    0.030012
     3  C   -0.263614
     4  C    0.237961
     5  C    0.220262
     6  C   -0.154577
     7  C    0.184480
    14  O   -0.310288
    15  C    0.282862
    16  O   -0.113891
    18  O   -0.255508
    19  C    0.273795
    23  O   -0.376377
    24  Si   0.771901
    25  C   -0.131860
    29  C   -0.000801
    30  C   -0.194038
    34  C   -0.080799
    38  C   -0.043581
    42  C   -0.075941
 Sum of Mulliken charges with hydrogens summed into heavy atoms =   0.00000
 Electronic spatial extent (au):  <R**2>=           6530.6369
 Charge=              0.0000 electrons
 Dipole moment (field-independent basis, Debye):
    X=             -1.7047    Y=              1.2404    Z=              1.7314  Tot=              2.7281
 Quadrupole moment (field-independent basis, Debye-Ang):
   XX=           -123.8437   YY=           -121.3092   ZZ=           -125.9791
   XY=              0.3068   XZ=             -6.1343   YZ=              6.3474
 Traceless Quadrupole moment (field-independent basis, Debye-Ang):
   XX=             -0.1330   YY=              2.4014   ZZ=             -2.2684
   XY=              0.3068   XZ=             -6.1343   YZ=              6.3474
 Octapole moment (field-independent basis, Debye-Ang**2):
  XXX=            -81.1369  YYY=             13.8539  ZZZ=             31.1197  XYY=            -26.6398
  XXY=              3.9370  XXZ=              2.3172  XZZ=            -10.2658  YZZ=              5.2986
  YYZ=             -5.3649  XYZ=            -21.0436
 Hexadecapole moment (field-independent basis, Debye-Ang**3):
 XXXX=          -6271.5771 YYYY=          -1380.4785 ZZZZ=           -934.3819 XXXY=             31.5702
 XXXZ=             19.8547 YYYX=            -15.3252 YYYZ=            -17.6990 ZZZX=            -68.6472
 ZZZY=             16.4887 XXYY=          -1295.1467 XXZZ=          -1301.6573 YYZZ=           -400.1904
 XXYZ=             73.3063 YYXZ=             12.9825 ZZXY=             -6.2561
 N-N= 1.828234699666D+03 E-N=-6.327540921254D+03  KE= 1.131534939096D+03
 1\1\GINC-COMPUTE-8-12\SP\RmPW1PW91\6-31+G(d,p)\C14H28O4Si1\ELUCIANO.IQ
 UIR\06-Dec-2022\0\\# mPW1PW91/6-31+g** scrf=(PCM,solvent=chloroform) n
 mr\\comment\\0,1\H,0,-0.739924,-1.408633,1.423698\C,0,-0.523973,-0.742
 664,0.578874\C,0,-2.480434,-1.816686,-0.614473\C,0,-2.852729,0.166126,
 0.962746\C,0,-3.33168,-0.614561,-0.252076\C,0,-1.351219,0.530828,0.828
 936\C,0,-0.989233,-1.445384,-0.706471\H,0,-2.833799,-2.233762,-1.56352
 1\H,0,-3.452276,1.083771,1.041224\H,0,-1.018113,0.995717,1.776213\H,0,
 -0.382432,-2.345539,-0.854586\H,0,-2.626848,-2.582055,0.158773\H,0,-0.
 827133,-0.787498,-1.565343\O,0,-3.751743,0.229141,-1.343385\C,0,-4.745
 501,-0.531229,-0.637901\O,0,-3.07049,-0.665238,2.105166\H,0,-2.709259,
 -0.206723,2.880732\O,0,-1.097488,1.421536,-0.244263\C,0,-1.69623,2.704
 027,-0.150428\H,0,-2.76106,2.673696,-0.409667\H,0,-1.178584,3.343548,-
 0.87025\H,0,-1.574411,3.133474,0.856156\O,0,0.870129,-0.519789,0.61593
 1\Si,0,2.000498,0.426633,-0.186713\C,0,1.64208,0.626693,-2.031154\H,0,
 2.417756,1.23768,-2.509507\H,0,0.68108,1.129506,-2.17624\H,0,1.604338,
 -0.333395,-2.557675\C,0,3.63639,-0.539011,0.090393\C,0,2.118451,2.1383
 62,0.611877\H,0,2.9856,2.693939,0.233697\H,0,2.219488,2.069261,1.70114
 7\H,0,1.224186,2.730899,0.393888\C,0,3.930155,-0.651692,1.601855\H,0,4
 .068837,0.332596,2.065904\H,0,4.853322,-1.225455,1.772585\H,0,3.117988
 ,-1.161266,2.132133\C,0,4.810764,0.190777,-0.597212\H,0,4.952865,1.206
 122,-0.206423\H,0,4.670175,0.266525,-1.682669\H,0,5.75118,-0.354622,-0
 .429678\C,0,3.516663,-1.960645,-0.498616\H,0,4.444167,-2.527236,-0.328
 059\H,0,3.342422,-1.943232,-1.581848\H,0,2.695395,-2.518586,-0.035397\
 H,0,-5.194844,-1.347322,-1.204061\H,0,-5.441396,0.050881,-0.032952\\Ve
 rsion=EM64L-G09RevC.01\State=1-A\HF=-1140.6173833\RMSD=6.063e-09\Dipol
 e=-0.6706805,0.4880281,0.6811859\Quadrupole=-0.0989134,1.7854166,-1.68
 65032,0.2281278,-4.5606905,4.7191067\PG=C01 [X(C14H28O4Si1)]\\@


 TERENCE, THIS IS STUPID STUFF:
 YOU EAT YOUR VICTUALS FAST ENOUGH;
 THERE CAN'T BE MUCH AMISS, 'TIS CLEAR
 TO SEE THE RATE YOU DRINK YOUR BEER.
 BUT OH, GOOD LORD, THE VERSE YOU MAKE,
 IT GIVES A CHAP THE BELLY-ACHE.
 THE COW, THE OLD COW, SHE IS DEAD;
 IT SLEEPS WELL, THE HORNED HEAD:
 WE POOR LADS, 'TIS OUR TURN NOW
 TO HEAR SUCH TUNES AS KILLED THE COW.
 PRETTY FRIENDSHIP 'TIS TO RHYME
 YOUR FRIENDS TO DEATH BEFORE THEIR TIME.
 MOPING, MELANCHOLY MAD:
 COME PIPE A TUNE TO DANCE TO, LAD.

     -- A. E. HOUSMAN
 Job cpu time:  0 days  4 hours 29 minutes 45.0 seconds.
 File lengths (MBytes):  RWF=    290 Int=      0 D2E=      0 Chk=     16 Scr=      1
 Normal termination of Gaussian 09 at Tue Dec  6 23:06:30 2022.
