 Entering Gaussian System, Link 0=g09
 Input=/home/eluciano.iquir/todos_optB3L_MPW_B_PCM/02_epoxido28_002_optB3L_nmr_MPW_B_PCM.gjc
 Output=/home/eluciano.iquir/todos_optB3L_MPW_B_PCM/02_epoxido28_002_optB3L_nmr_MPW_B_PCM.log
 Initial command:
 /share/apps/Gaussian09/EM64T.SSE4.2-enabled/g09/l1.exe /tmp/Gau-36921.inp -scrdir=/tmp/
 Entering Link 1 = /share/apps/Gaussian09/EM64T.SSE4.2-enabled/g09/l1.exe PID=     36922.
  
 Copyright (c) 1988,1990,1992,1993,1995,1998,2003,2009,2011,
            Gaussian, Inc.  All Rights Reserved.
  
 This is part of the Gaussian(R) 09 program.  It is based on
 the Gaussian(R) 03 system (copyright 2003, Gaussian, Inc.),
 the Gaussian(R) 98 system (copyright 1998, Gaussian, Inc.),
 the Gaussian(R) 94 system (copyright 1995, Gaussian, Inc.),
 the Gaussian 92(TM) system (copyright 1992, Gaussian, Inc.),
 the Gaussian 90(TM) system (copyright 1990, Gaussian, Inc.),
 the Gaussian 88(TM) system (copyright 1988, Gaussian, Inc.),
 the Gaussian 86(TM) system (copyright 1986, Carnegie Mellon
 University), and the Gaussian 82(TM) system (copyright 1983,
 Carnegie Mellon University). Gaussian is a federally registered
 trademark of Gaussian, Inc.
  
 This software contains proprietary and confidential information,
 including trade secrets, belonging to Gaussian, Inc.
  
 This software is provided under written license and may be
 used, copied, transmitted, or stored only in accord with that
 written license.
  
 The following legend is applicable only to US Government
 contracts under FAR:
  
                    RESTRICTED RIGHTS LEGEND
  
 Use, reproduction and disclosure by the US Government is
 subject to restrictions as set forth in subparagraphs (a)
 and (c) of the Commercial Computer Software - Restricted
 Rights clause in FAR 52.227-19.
  
 Gaussian, Inc.
 340 Quinnipiac St., Bldg. 40, Wallingford CT 06492
  
  
 ---------------------------------------------------------------
 Warning -- This program may not be used in any manner that
 competes with the business of Gaussian, Inc. or will provide
 assistance to any competitor of Gaussian, Inc.  The licensee
 of this program is prohibited from giving any competitor of
 Gaussian, Inc. access to this program.  By using this program,
 the user acknowledges that Gaussian, Inc. is engaged in the
 business of creating and licensing software in the field of
 computational chemistry and represents and warrants to the
 licensee that it is not a competitor of Gaussian, Inc. and that
 it will not use this program in any manner prohibited above.
 ---------------------------------------------------------------
  

 Cite this work as:
 Gaussian 09, Revision C.01,
 M. J. Frisch, G. W. Trucks, H. B. Schlegel, G. E. Scuseria, 
 M. A. Robb, J. R. Cheeseman, G. Scalmani, V. Barone, B. Mennucci, 
 G. A. Petersson, H. Nakatsuji, M. Caricato, X. Li, H. P. Hratchian, 
 A. F. Izmaylov, J. Bloino, G. Zheng, J. L. Sonnenberg, M. Hada, 
 M. Ehara, K. Toyota, R. Fukuda, J. Hasegawa, M. Ishida, T. Nakajima, 
 Y. Honda, O. Kitao, H. Nakai, T. Vreven, J. A. Montgomery, Jr., 
 J. E. Peralta, F. Ogliaro, M. Bearpark, J. J. Heyd, E. Brothers, 
 K. N. Kudin, V. N. Staroverov, T. Keith, R. Kobayashi, J. Normand, 
 K. Raghavachari, A. Rendell, J. C. Burant, S. S. Iyengar, J. Tomasi, 
 M. Cossi, N. Rega, J. M. Millam, M. Klene, J. E. Knox, J. B. Cross, 
 V. Bakken, C. Adamo, J. Jaramillo, R. Gomperts, R. E. Stratmann, 
 O. Yazyev, A. J. Austin, R. Cammi, C. Pomelli, J. W. Ochterski, 
 R. L. Martin, K. Morokuma, V. G. Zakrzewski, G. A. Voth, 
 P. Salvador, J. J. Dannenberg, S. Dapprich, A. D. Daniels, 
 O. Farkas, J. B. Foresman, J. V. Ortiz, J. Cioslowski, 
 and D. J. Fox, Gaussian, Inc., Wallingford CT, 2010.
 
 ******************************************
 Gaussian 09:  EM64L-G09RevC.01 23-Sep-2011
                 6-Dec-2022 
 ******************************************
 %nprocshared=4
 Will use up to    4 processors via shared memory.
 %mem=80MW
 -----------------------------------------------------
 # mPW1PW91/6-31+g** scrf=(PCM,solvent=chloroform) nmr
 -----------------------------------------------------
 1/38=1/1;
 2/12=2,17=6,18=5,40=1/2;
 3/5=1,6=6,7=111,11=2,16=1,25=1,30=1,70=2201,72=7,74=-7/1,2,8,3;
 4//1;
 5/5=2,38=5,53=7/2;
 8/6=1,10=90,11=11/1;
 10/13=100,45=16/2;
 6/7=2,8=2,9=2,10=2,28=1/1;
 99/9=1/99;
 -------
 comment
 -------
 Charge =  0 Multiplicity = 1
 Symbolic Z-Matrix:
 1                     0.07065   0.38198  -2.06004 
 6                     0.48761  -0.09775  -1.16411 
 6                     1.81326  -2.11324  -0.35426 
 6                     2.27754   0.20723   0.59918 
 6                     2.84785  -1.15053   0.1869 
 6                     1.56525   0.85406  -0.59782 
 6                     1.09927  -1.45482  -1.54838 
 1                     1.08011  -2.34163   0.42787 
 1                     1.52655   0.03615   1.38483 
 1                     2.31274   1.03401  -1.38898 
 1                     1.81051  -1.30615  -2.3725 
 1                     2.28894  -3.05542  -0.64662 
 1                     0.30057  -2.10421  -1.92196 
 8                     3.83472  -1.65475   1.10695 
 6                     4.25954  -1.25291  -0.21445 
 8                     3.3022    1.0653    1.08099 
 1                     3.78922   0.53648   1.7381 
 8                     0.92172   2.07539  -0.27162 
 6                     1.74301   3.23631  -0.31449 
 1                     2.51582   3.21521   0.45885 
 1                     1.07792   4.08894  -0.15252 
 1                     2.2237    3.34357  -1.29936 
 8                    -0.54083  -0.33444  -0.2146 
 14                   -1.96107   0.53087   0.07799 
 6                    -1.77954   1.50784   1.68144 
 1                    -2.68317   2.08567   1.91107 
 1                    -0.9397    2.20336   1.58971 
 1                    -1.57819   0.85071   2.53535 
 6                    -3.32327  -0.8111    0.25073 
 6                    -2.32903   1.70224  -1.35956 
 1                    -3.26252   2.25038  -1.1839 
 1                    -2.43106   1.17821  -2.31709 
 1                    -1.52239   2.43569  -1.45836 
 6                    -3.47592  -1.58158  -1.07751 
 1                    -3.79595  -0.92669  -1.89728 
 1                    -4.23241  -2.37407  -0.97939 
 1                    -2.53531  -2.05905  -1.3767 
 6                    -4.67255  -0.15224   0.60917 
 1                    -5.00132   0.55847  -0.15966 
 1                    -4.6259    0.38577   1.5637 
 1                    -5.45988  -0.91447   0.70326 
 6                    -2.93638  -1.80959   1.36245 
 1                    -3.69959  -2.59648   1.45632 
 1                    -2.85151  -1.32181   2.34118 
 1                    -1.97923  -2.29845   1.14851 
 1                     4.57248  -2.07277  -0.86093 
 1                     4.88145  -0.36106  -0.24483 
 
                          Input orientation:                          
 ---------------------------------------------------------------------
 Center     Atomic      Atomic             Coordinates (Angstroms)
 Number     Number       Type             X           Y           Z
 ---------------------------------------------------------------------
      1          1           0        0.070645    0.381982   -2.060044
      2          6           0        0.487614   -0.097746   -1.164106
      3          6           0        1.813257   -2.113241   -0.354258
      4          6           0        2.277544    0.207226    0.599177
      5          6           0        2.847854   -1.150534    0.186901
      6          6           0        1.565252    0.854064   -0.597816
      7          6           0        1.099270   -1.454824   -1.548376
      8          1           0        1.080112   -2.341631    0.427869
      9          1           0        1.526548    0.036150    1.384825
     10          1           0        2.312740    1.034007   -1.388979
     11          1           0        1.810505   -1.306154   -2.372499
     12          1           0        2.288938   -3.055422   -0.646619
     13          1           0        0.300570   -2.104214   -1.921959
     14          8           0        3.834719   -1.654748    1.106954
     15          6           0        4.259541   -1.252906   -0.214449
     16          8           0        3.302199    1.065300    1.080986
     17          1           0        3.789216    0.536479    1.738101
     18          8           0        0.921724    2.075391   -0.271624
     19          6           0        1.743013    3.236312   -0.314490
     20          1           0        2.515818    3.215213    0.458853
     21          1           0        1.077922    4.088940   -0.152518
     22          1           0        2.223701    3.343568   -1.299364
     23          8           0       -0.540828   -0.334443   -0.214600
     24         14           0       -1.961069    0.530866    0.077986
     25          6           0       -1.779544    1.507838    1.681435
     26          1           0       -2.683172    2.085672    1.911074
     27          1           0       -0.939696    2.203356    1.589705
     28          1           0       -1.578191    0.850711    2.535349
     29          6           0       -3.323268   -0.811097    0.250732
     30          6           0       -2.329033    1.702235   -1.359557
     31          1           0       -3.262524    2.250376   -1.183905
     32          1           0       -2.431057    1.178212   -2.317094
     33          1           0       -1.522394    2.435691   -1.458355
     34          6           0       -3.475920   -1.581576   -1.077507
     35          1           0       -3.795945   -0.926686   -1.897275
     36          1           0       -4.232407   -2.374071   -0.979390
     37          1           0       -2.535312   -2.059051   -1.376697
     38          6           0       -4.672550   -0.152241    0.609168
     39          1           0       -5.001316    0.558470   -0.159660
     40          1           0       -4.625903    0.385773    1.563700
     41          1           0       -5.459878   -0.914468    0.703256
     42          6           0       -2.936376   -1.809587    1.362453
     43          1           0       -3.699592   -2.596479    1.456319
     44          1           0       -2.851506   -1.321813    2.341175
     45          1           0       -1.979225   -2.298446    1.148513
     46          1           0        4.572482   -2.072771   -0.860929
     47          1           0        4.881453   -0.361055   -0.244828
 ---------------------------------------------------------------------
                    Distance matrix (angstroms):
                    1          2          3          4          5
     1  H    0.000000
     2  C    1.098502   0.000000
     3  C    3.488917   2.544681   0.000000
     4  C    3.460115   2.531012   2.551307   0.000000
     5  C    3.887191   2.916216   1.513291   1.529293   0.000000
     6  C    2.143554   1.545293   2.987595   1.535758   2.505846
     7  C    2.166502   1.537351   1.539223   2.960190   2.482202
     8  H    3.824500   2.814331   1.096078   2.821323   2.145155
     9  H    3.755846   2.755787   2.779657   1.100229   2.142216
    10  H    2.429497   2.159286   3.350418   2.153502   2.746264
    11  H    2.444288   2.161135   2.173636   3.367388   2.766015
    12  H    4.328318   3.501487   1.095195   3.492422   2.153077
    13  H    2.500621   2.152961   2.178529   3.950609   3.441722
    14  O    5.324134   4.334176   2.536073   2.479834   1.440358
    15  C    4.860651   4.057546   2.596927   2.592737   1.471197
    16  O    4.558063   3.783517   3.792097   1.420686   2.432229
    17  H    5.317663   4.441354   3.911956   1.921121   2.477579
    18  O    2.605843   2.389037   4.283258   2.467100   3.785078
    19  C    3.740451   3.662488   5.350162   3.208718   4.551536
    20  H    4.511198   4.209906   5.435730   3.020671   4.386793
    21  H    4.288916   4.347426   6.248877   4.131809   5.540754
    22  H    3.739689   3.856804   5.553238   3.666606   4.774464
    23  O    2.071914   1.419606   2.953869   2.983096   3.508614
    24  Si   2.953168   2.816735   4.628571   4.282782   5.095558
    25  C    4.323126   3.976809   5.492220   4.395775   5.541966
    26  H    5.124046   4.927264   6.555949   5.464278   6.636117
    27  H    4.202245   3.862093   5.476381   3.913606   5.249950
    28  H    4.904692   4.342014   5.351333   4.362285   5.395374
    29  C    4.275718   4.127161   5.333431   5.703288   6.180780
    30  C    2.827049   3.348378   5.720756   5.224198   6.109827
    31  H    3.920272   4.424659   6.744851   6.168160   7.126150
    32  H    2.637910   3.387638   5.718443   5.623022   6.289670
    33  H    2.667869   3.247309   5.747902   4.861998   5.887864
    34  C    4.171218   4.233067   5.364807   6.254073   6.463331
    35  H    4.085294   4.424201   5.937336   6.663730   6.966632
    36  H    5.223016   5.243508   6.083492   7.178748   7.279243
    37  H    3.635467   3.609708   4.467479   5.674828   5.678795
    38  C    5.468819   5.456626   6.843932   6.959391   7.598117
    39  H    5.419169   5.618530   7.322180   7.326732   8.040539
    40  H    5.932040   5.815735   7.168432   6.972787   7.753248
    41  H    6.316905   6.287029   7.446737   7.818998   8.327110
    42  C    5.055555   4.586677   5.059478   5.642259   5.939157
    43  H    5.954051   5.535611   5.822646   6.657448   6.824312
    44  H    5.550911   4.993502   5.445340   5.628470   6.095321
    45  H    4.656340   4.034425   4.083570   4.969934   5.054017
    46  H    5.265950   4.547393   2.805651   3.549230   2.218741
    47  H    5.195285   4.496690   3.534962   2.795645   2.223779
                    6          7          8          9         10
     6  C    0.000000
     7  C    2.540013   0.000000
     8  H    3.391144   2.166181   0.000000
     9  H    2.145075   3.318017   2.601713   0.000000
    10  H    1.103203   2.773481   4.026815   3.050870   0.000000
    11  H    2.806455   1.098698   3.073719   3.999987   2.587645
    12  H    3.976202   2.188696   1.767847   3.777012   4.156332
    13  H    3.479107   1.095077   2.487116   4.125409   3.765810
    14  O    3.788253   3.817516   2.919045   2.874718   3.971839
    15  C    3.441727   3.436196   3.421500   3.418858   3.224830
    16  O    2.424867   4.256462   4.119637   2.074706   2.660965
    17  H    3.240893   4.690632   4.164069   2.344099   3.493729
    18  O    1.418509   3.758196   4.474870   2.695949   2.065887
    19  C    2.405614   4.893224   5.666038   3.629816   2.515803
    20  H    2.755930   5.276819   5.739401   3.455795   2.865900
    21  H    3.301546   5.716834   6.456709   4.357728   3.519407
    22  H    2.668961   4.934665   6.050836   4.316238   2.313013
    23  O    2.448464   2.392516   2.658762   2.639989   3.375599
    24  Si   3.605011   3.994207   4.197909   3.757132   4.546491
    25  C    4.100008   5.243722   4.956558   3.630990   5.137971
    26  H    5.085321   6.229749   5.996934   4.711605   6.079102
    27  H    3.588955   5.233280   5.107484   3.289547   4.562705
    28  H    4.438239   5.400102   4.658229   3.409783   5.529312
    29  C    5.233586   4.817677   4.665155   5.052198   6.152857
    30  C    4.057721   4.664326   5.583011   5.017268   4.689718
    31  H    5.059704   5.734683   6.522487   5.868252   5.710094
    32  H    4.362508   4.470684   5.679122   5.538154   4.835887
    33  H    3.574301   4.692263   5.757924   4.810147   4.083844
    34  C    5.619240   4.601103   4.858114   5.805584   6.359786
    35  H    5.796732   4.935969   5.584290   6.326782   6.435737
    36  H    6.646751   5.440178   5.495843   6.675645   7.390650
    37  H    5.089943   3.688462   4.050630   5.339904   5.750719
    38  C    6.432700   6.298065   6.157874   6.250276   7.361661
    39  H    6.587805   6.572597   6.763102   6.728392   7.431876
    40  H    6.574333   6.771294   6.425531   6.164972   7.568572
    41  H    7.360227   6.955879   6.699560   7.083668   8.281763
    42  C    5.585906   4.988509   4.157968   4.829590   6.573403
    43  H    6.621503   5.775867   4.895736   5.852212   7.577881
    44  H    5.734096   5.545713   4.489809   4.682523   6.792155
    45  H    5.054830   4.178761   3.143364   4.218605   5.997089
    46  H    4.204643   3.594112   3.732283   4.332283   3.877801
    47  H    3.549409   4.147346   4.338824   3.750857   3.139039
                   11         12         13         14         15
    11  H    0.000000
    12  H    2.503497   0.000000
    13  H    1.766293   2.546546   0.000000
    14  O    4.040489   2.725132   4.676168   0.000000
    15  C    3.264627   2.705386   4.394743   1.445011   0.000000
    16  O    4.446966   4.581666   5.298422   2.771807   2.822895
    17  H    4.920125   4.565028   5.704380   2.280766   2.689899
    18  O    4.079026   5.323076   4.536357   4.929498   4.714006
    19  C    4.987379   6.324102   5.760713   5.506197   5.147427
    20  H    5.381150   6.371374   6.234733   5.086851   4.843345
    21  H    5.879799   7.263099   6.487708   6.494317   6.217866
    22  H    4.789808   6.432527   5.810713   5.776583   5.142884
    23  O    3.336093   3.949423   2.599060   4.757638   4.887445
    24  Si   4.858425   5.607947   4.007298   6.279080   6.477912
    25  C    6.102572   6.541844   5.509831   6.469307   6.905551
    26  H    7.074363   7.595691   6.414827   7.557794   7.991571
    27  H    5.964841   6.563533   5.694313   6.157358   6.498676
    28  H    6.342105   6.351180   5.668238   6.133289   6.787172
    29  C    5.786367   6.110572   4.418703   7.258212   7.609900
    30  C    5.216534   6.668526   4.660489   7.439412   7.311186
    31  H    6.308509   7.697980   5.674753   8.418366   8.354298
    32  H    4.915892   6.556866   4.288617   7.681778   7.422638
    33  H    5.093651   6.733312   4.914149   7.211876   6.970210
    34  C    5.449693   5.965859   3.904885   7.630378   7.790395
    35  H    5.639336   6.566693   4.262466   8.233013   8.235847
    36  H    6.292693   6.565281   4.637795   8.363539   8.599728
    37  H    4.521571   4.979875   2.888179   6.849035   6.940513
    38  C    7.228544   7.646422   5.911745   8.653262   9.037259
    39  H    7.400972   8.151389   6.189150   9.196638   9.436501
    40  H    7.731987   8.033826   6.528399   8.715186   9.208594
    41  H    7.903933   8.151687   6.441274   9.332766   9.768512
    42  C    6.061039   5.735188   4.620821   6.777683   7.387675
    43  H    6.832712   6.363605   5.258934   7.600971   8.242842
    44  H    6.629730   6.193261   5.359295   6.807331   7.556649
    45  H    5.267278   4.691772   3.829228   5.849617   6.470937
    46  H    3.240534   2.495216   4.401818   2.142802   1.089976
    47  H    3.853689   3.760609   5.180334   2.143970   1.087702
                   16         17         18         19         20
    16  O    0.000000
    17  H    0.973980   0.000000
    18  O    2.918304   3.824886   0.000000
    19  C    3.015246   3.960956   1.422705   0.000000
    20  H    2.372250   3.230114   2.091393   1.093495   0.000000
    21  H    3.951119   4.852374   2.023107   1.093415   1.790173
    22  H    3.466948   4.422305   2.087981   1.101155   1.786934
    23  O    4.290301   4.829164   2.819505   4.239835   4.732513
    24  Si   5.384572   5.985131   3.289115   4.603661   5.233860
    25  C    5.136194   5.653126   3.381332   4.402243   4.781210
    26  H    6.128203   6.657456   4.214208   5.086081   5.514917
    27  H    4.421271   5.016284   2.635490   3.448171   3.774024
    28  H    5.097002   5.435384   3.953291   4.984282   5.163682
    29  C    6.935921   7.390241   5.159906   6.509086   7.095732
    30  C    6.170309   6.956108   3.448226   4.475167   5.391502
    31  H    7.044837   7.823209   4.286118   5.175264   6.084308
    32  H    6.665577   7.453068   4.028650   5.066464   6.027174
    33  H    5.621648   6.483636   2.740777   3.551381   4.537675
    34  C    7.589990   8.074404   5.775996   7.143634   7.827548
    35  H    7.951207   8.537651   5.823367   7.107448   7.908541
    36  H    8.534911   8.955585   6.845707   8.223389   8.879593
    37  H    7.062458   7.512549   5.501445   6.890081   7.530008
    38  C    8.080943   8.564479   6.085560   7.314020   7.939457
    39  H    8.410971   8.993077   6.115226   7.258153   7.996758
    40  H    7.971798   8.418275   6.082712   7.226082   7.760837
    41  H    8.990893   9.419230   7.114386   8.375346   8.984750
    42  C    6.874883   7.132932   5.713860   7.083072   7.469373
    43  H    7.910409   8.122627   6.794757   8.171852   8.567498
    44  H    6.719708   6.922148   5.710077   6.995618   7.275707
    45  H    6.262011   6.454404   5.437163   6.828542   7.147131
    46  H    3.902838   3.765189   5.557208   6.040766   5.825330
    47  H    2.507252   2.435273   4.649348   4.774485   4.345237
                   21         22         23         24         25
    21  H    0.000000
    22  H    1.784277   0.000000
    23  O    4.710682   4.727272   0.000000
    24  Si   4.684921   5.226919   1.688624   0.000000
    25  C    4.265042   5.317992   2.919480   1.886392   0.000000
    26  H    4.734694   5.997217   3.868473   2.509794   1.096891
    27  H    3.265203   4.433270   3.139273   2.475019   1.094305
    28  H    4.976514   5.947583   3.169058   2.507495   1.096142
    29  C    6.598746   7.101613   2.861067   1.919972   3.131686
    30  C    4.331356   4.839936   2.942220   1.890511   3.096346
    31  H    4.825303   5.595272   3.876657   2.498573   3.310705
    32  H    5.046847   5.233671   3.206489   2.525144   4.064647
    33  H    3.346653   3.857816   3.191244   2.486189   3.284101
    34  C    7.331291   7.536043   3.303742   2.844705   4.475928
    35  H    7.208000   7.404641   3.711864   3.064781   4.774929
    36  H    8.405583   8.629896   4.286344   3.836102   5.307141
    37  H    7.235459   7.200172   2.881442   3.025480   4.758787
    38  C    7.185799   7.963759   4.216980   2.846211   3.503584
    39  H    7.030036   7.826657   4.549315   3.049646   3.830241
    40  H    7.013734   7.991418   4.513192   3.054462   3.061805
    41  H    8.277033   9.009925   5.037454   3.836876   4.513232
    42  C    7.293994   7.763161   3.225182   2.842323   3.527792
    43  H    8.373041   8.829686   4.229251   3.834391   4.536814
    44  H    7.136887   7.795962   3.584148   3.057339   3.096980
    45  H    7.199828   7.449095   2.790049   3.025122   3.848594
    46  H    7.119022   5.919943   5.439252   7.095617   7.722215
    47  H    5.854727   4.679735   5.422431   6.907955   7.181374
                   26         27         28         29         30
    26  H    0.000000
    27  H    1.776749   0.000000
    28  H    1.770828   1.769623   0.000000
    29  C    3.399666   4.069544   3.320599   0.000000
    30  C    3.312018   3.298413   4.056988   3.146168   0.000000
    31  H    3.153042   3.618101   4.316120   3.381492   1.096685
    32  H    4.331795   4.305596   4.937696   3.368549   1.096306
    33  H    3.580918   3.111943   4.297086   4.087268   1.094708
    34  C    4.796746   5.279409   4.750802   1.543101   3.489745
    35  H    4.981575   5.487654   5.265523   2.202435   3.058136
    36  H    5.535722   6.196373   5.458706   2.186921   4.514823
    37  H    5.292450   5.432646   4.968591   2.196995   3.766977
    38  C    3.265094   4.521558   3.780363   1.543739   3.578691
    39  H    3.463247   4.718335   4.366493   2.204536   3.144686
    40  H    2.604713   4.110037   3.232463   2.203007   3.943871
    41  H    4.262600   5.562253   4.641111   2.186451   4.572146
    42  C    3.941845   4.487994   3.208978   1.543564   4.484540
    43  H    4.812738   5.538342   4.189005   2.186927   5.318508
    44  H    3.438645   4.080017   2.525647   2.203030   4.807625
    45  H    4.505278   4.641281   3.464294   2.196513   4.734789
    46  H    8.810287   7.394253   7.610009   8.072824   7.882272
    47  H    8.237593   6.620233   7.136159   8.231984   7.582275
                   31         32         33         34         35
    31  H    0.000000
    32  H    1.767764   0.000000
    33  H    1.771360   1.773233   0.000000
    34  C    3.839364   3.200741   4.483274   0.000000
    35  H    3.299569   2.543573   4.082556   1.096958   0.000000
    36  H    4.729483   4.201551   5.541425   1.099976   1.768597
    37  H    4.374605   3.372697   4.608186   1.096467   1.772695
    38  C    3.312982   3.918853   4.571162   2.513920   2.765946
    39  H    2.633443   3.412453   4.160945   2.783716   2.584166
    40  H    3.589551   4.528341   4.792364   3.488395   3.793379
    41  H    4.290219   4.761888   5.603562   2.748134   3.087326
    42  C    4.803500   4.766692   5.289488   2.509283   3.484853
    43  H    5.536589   5.485993   6.209529   2.738673   3.747544
    44  H    5.035440   5.303430   5.506524   3.484933   4.360338
    45  H    5.270561   4.929679   5.423699   2.776538   3.802502
    46  H    8.954397   7.857408   7.604647   8.066285   8.509882
    47  H    8.603825   7.754768   7.092510   8.486973   8.851427
                   36         37         38         39         40
    36  H    0.000000
    37  H    1.771220   0.000000
    38  C    2.766545   3.485308   0.000000
    39  H    3.140537   3.796547   1.097403   0.000000
    40  H    3.773445   4.358173   1.096707   1.772210   0.000000
    41  H    2.543310   3.766877   1.099876   1.767611   1.768193
    42  C    2.735428   2.779573   2.515658   3.491203   2.777518
    43  H    2.503205   3.109720   2.763804   3.776185   3.124646
    44  H    3.747037   3.803429   2.771994   3.796225   2.582402
    45  H    3.100084   2.596773   3.485841   4.359624   3.792402
    46  H    8.810839   7.126496   9.556162   9.953533   9.825149
    47  H    9.362385   7.692381   9.594367   9.925820   9.706613
                   41         42         43         44         45
    41  H    0.000000
    42  C    2.757506   0.000000
    43  H    2.548504   1.100231   0.000000
    44  H    3.106817   1.096824   1.768331   0.000000
    45  H    3.772081   1.095852   1.772916   1.771194   0.000000
    46  H   10.219422   7.835537   8.606458   8.119914   6.856650
    47  H   10.399435   8.111723   9.029139   8.210306   7.263869
                   46         47
    46  H    0.000000
    47  H    1.845268   0.000000
 Stoichiometry    C14H28O4Si
 Framework group  C1[X(C14H28O4Si)]
 Deg. of freedom   135
 Full point group                 C1      NOp   1
 Largest Abelian subgroup         C1      NOp   1
 Largest concise Abelian subgroup C1      NOp   1
                         Standard orientation:                         
 ---------------------------------------------------------------------
 Center     Atomic      Atomic             Coordinates (Angstroms)
 Number     Number       Type             X           Y           Z
 ---------------------------------------------------------------------
      1          1           0        0.070645    0.381982   -2.060044
      2          6           0        0.487614   -0.097746   -1.164106
      3          6           0        1.813257   -2.113241   -0.354258
      4          6           0        2.277544    0.207226    0.599177
      5          6           0        2.847854   -1.150534    0.186901
      6          6           0        1.565252    0.854064   -0.597816
      7          6           0        1.099270   -1.454824   -1.548376
      8          1           0        1.080112   -2.341631    0.427869
      9          1           0        1.526548    0.036150    1.384825
     10          1           0        2.312740    1.034007   -1.388979
     11          1           0        1.810505   -1.306154   -2.372499
     12          1           0        2.288938   -3.055422   -0.646619
     13          1           0        0.300570   -2.104214   -1.921959
     14          8           0        3.834719   -1.654748    1.106954
     15          6           0        4.259541   -1.252906   -0.214449
     16          8           0        3.302199    1.065300    1.080986
     17          1           0        3.789216    0.536479    1.738101
     18          8           0        0.921724    2.075391   -0.271624
     19          6           0        1.743013    3.236312   -0.314490
     20          1           0        2.515818    3.215213    0.458853
     21          1           0        1.077922    4.088940   -0.152518
     22          1           0        2.223701    3.343568   -1.299364
     23          8           0       -0.540828   -0.334443   -0.214600
     24         14           0       -1.961069    0.530866    0.077986
     25          6           0       -1.779544    1.507838    1.681435
     26          1           0       -2.683172    2.085672    1.911074
     27          1           0       -0.939696    2.203356    1.589705
     28          1           0       -1.578191    0.850711    2.535349
     29          6           0       -3.323268   -0.811097    0.250732
     30          6           0       -2.329033    1.702235   -1.359557
     31          1           0       -3.262524    2.250376   -1.183905
     32          1           0       -2.431057    1.178212   -2.317094
     33          1           0       -1.522394    2.435691   -1.458355
     34          6           0       -3.475920   -1.581576   -1.077507
     35          1           0       -3.795945   -0.926686   -1.897275
     36          1           0       -4.232407   -2.374071   -0.979390
     37          1           0       -2.535312   -2.059051   -1.376697
     38          6           0       -4.672550   -0.152241    0.609168
     39          1           0       -5.001316    0.558470   -0.159660
     40          1           0       -4.625903    0.385773    1.563700
     41          1           0       -5.459878   -0.914468    0.703256
     42          6           0       -2.936376   -1.809587    1.362453
     43          1           0       -3.699592   -2.596479    1.456319
     44          1           0       -2.851506   -1.321813    2.341175
     45          1           0       -1.979225   -2.298446    1.148513
     46          1           0        4.572482   -2.072771   -0.860929
     47          1           0        4.881453   -0.361055   -0.244828
 ---------------------------------------------------------------------
 Rotational constants (GHZ):      0.5603384      0.2196396      0.1882459
 Standard basis: 6-31+G(d,p) (6D, 7F)
 There are   505 symmetry adapted basis functions of A   symmetry.
 Integral buffers will be    131072 words long.
 Raffenetti 2 integral format.
 Two-electron integral symmetry is turned on.
   505 basis functions,   828 primitive gaussians,   505 cartesian basis functions
    79 alpha electrons       79 beta electrons
       nuclear repulsion energy      1829.3983878861 Hartrees.
 NAtoms=   47 NActive=   47 NUniq=   47 SFac= 1.00D+00 NAtFMM=   60 NAOKFM=F Big=F
 ------------------------------------------------------------------------------
 Polarizable Continuum Model (PCM)
 =================================
 Model                : PCM.
 Atomic radii         : UFF (Universal Force Field).
 Polarization charges : Total charges.
 Charge compensation  : None.
 Solution method      : Matrix inversion.
 Cavity type          : Scaled VdW (van der Waals Surface) (Alpha=1.100).
 Cavity algorithm     : GePol (No added spheres)
                        Default sphere list used, NSphG=   47.
                        Lebedev-Laikov grids with approx.  5.0 points / Ang**2.
                        Smoothing algorithm: Karplus/York (Gamma=1.0000).
                        Polarization charges: spherical gaussians, with
                                              point-specific exponents (IZeta= 3).
                        Self-potential: point-specific (ISelfS= 7).
                        Self-field    : sphere-specific E.n sum rule (ISelfD= 2).
 Solvent              : Chloroform, Eps=   4.711300 Eps(inf)=   2.090627
 ------------------------------------------------------------------------------
 One-electron integrals computed using PRISM.
 NBasis=   505 RedAO= T  NBF=   505
 NBsUse=   505 1.00D-06 NBFU=   505
 Harris functional with IExCor=  908 diagonalized for initial guess.
 ExpMin= 3.31D-02 ExpMax= 1.61D+04 ExpMxC= 2.43D+03 IAcc=3 IRadAn=         5 AccDes= 0.00D+00
 HarFok:  IExCor=  908 AccDes= 0.00D+00 IRadAn=         5 IDoV= 1
 ScaDFX=  1.000000  1.000000  1.000000  1.000000
 FoFCou: FMM=F IPFlag=           0 FMFlag=      100000 FMFlg1=           0
         NFxFlg=           0 DoJE=T BraDBF=F KetDBF=T FulRan=T
         Omega=  0.000000  0.000000  1.000000  0.000000  0.000000 ICntrl=     500 IOpCl=  0
         NMat0=    1 NMatS0=    1 NMatT0=    0 NMatD0=    1 NMtDS0=    0 NMtDT0=    0
         I1Cent=           4 NGrid=           0.
 Petite list used in FoFCou.
 Initial guess orbital symmetries:
       Occupied  (A) (A) (A) (A) (A) (A) (A) (A) (A) (A) (A) (A)
                 (A) (A) (A) (A) (A) (A) (A) (A) (A) (A) (A) (A)
                 (A) (A) (A) (A) (A) (A) (A) (A) (A) (A) (A) (A)
                 (A) (A) (A) (A) (A) (A) (A) (A) (A) (A) (A) (A)
                 (A) (A) (A) (A) (A) (A) (A) (A) (A) (A) (A) (A)
                 (A) (A) (A) (A) (A) (A) (A) (A) (A) (A) (A) (A)
                 (A) (A) (A) (A) (A) (A) (A)
       Virtual   (A) (A) (A) (A) (A) (A) (A) (A) (A) (A) (A) (A)
                 (A) (A) (A) (A) (A) (A) (A) (A) (A) (A) (A) (A)
                 (A) (A) (A) (A) (A) (A) (A) (A) (A) (A) (A) (A)
                 (A) (A) (A) (A) (A) (A) (A) (A) (A) (A) (A) (A)
                 (A) (A) (A) (A) (A) (A) (A) (A) (A) (A) (A) (A)
                 (A) (A) (A) (A) (A) (A) (A) (A) (A) (A) (A) (A)
                 (A) (A) (A) (A) (A) (A) (A) (A) (A) (A) (A) (A)
                 (A) (A) (A) (A) (A) (A) (A) (A) (A) (A) (A) (A)
                 (A) (A) (A) (A) (A) (A) (A) (A) (A) (A) (A) (A)
                 (A) (A) (A) (A) (A) (A) (A) (A) (A) (A) (A) (A)
                 (A) (A) (A) (A) (A) (A) (A) (A) (A) (A) (A) (A)
                 (A) (A) (A) (A) (A) (A) (A) (A) (A) (A) (A) (A)
                 (A) (A) (A) (A) (A) (A) (A) (A) (A) (A) (A) (A)
                 (A) (A) (A) (A) (A) (A) (A) (A) (A) (A) (A) (A)
                 (A) (A) (A) (A) (A) (A) (A) (A) (A) (A) (A) (A)
                 (A) (A) (A) (A) (A) (A) (A) (A) (A) (A) (A) (A)
                 (A) (A) (A) (A) (A) (A) (A) (A) (A) (A) (A) (A)
                 (A) (A) (A) (A) (A) (A) (A) (A) (A) (A) (A) (A)
                 (A) (A) (A) (A) (A) (A) (A) (A) (A) (A) (A) (A)
                 (A) (A) (A) (A) (A) (A) (A) (A) (A) (A) (A) (A)
                 (A) (A) (A) (A) (A) (A) (A) (A) (A) (A) (A) (A)
                 (A) (A) (A) (A) (A) (A) (A) (A) (A) (A) (A) (A)
                 (A) (A) (A) (A) (A) (A) (A) (A) (A) (A) (A) (A)
                 (A) (A) (A) (A) (A) (A) (A) (A) (A) (A) (A) (A)
                 (A) (A) (A) (A) (A) (A) (A) (A) (A) (A) (A) (A)
                 (A) (A) (A) (A) (A) (A) (A) (A) (A) (A) (A) (A)
                 (A) (A) (A) (A) (A) (A) (A) (A) (A) (A) (A) (A)
                 (A) (A) (A) (A) (A) (A) (A) (A) (A) (A) (A) (A)
                 (A) (A) (A) (A) (A) (A) (A) (A) (A) (A) (A) (A)
                 (A) (A) (A) (A) (A) (A) (A) (A) (A) (A) (A) (A)
                 (A) (A) (A) (A) (A) (A) (A) (A) (A) (A) (A) (A)
                 (A) (A) (A) (A) (A) (A) (A) (A) (A) (A) (A) (A)
                 (A) (A) (A) (A) (A) (A) (A) (A) (A) (A) (A) (A)
                 (A) (A) (A) (A) (A) (A) (A) (A) (A) (A) (A) (A)
                 (A) (A) (A) (A) (A) (A) (A) (A) (A) (A) (A) (A)
                 (A) (A) (A) (A) (A) (A)
 The electronic state of the initial guess is 1-A.
 Requested convergence on RMS density matrix=1.00D-08 within 128 cycles.
 Requested convergence on MAX density matrix=1.00D-06.
 Requested convergence on             energy=1.00D-06.
 No special actions if energy rises.
 Error on total polarization charges =  0.01546
 SCF Done:  E(RmPW1PW91) =  -1140.62541577     A.U. after   13 cycles
             Convg  =    0.4322D-08             -V/T =  2.0080
 Range of M.O.s used for correlation:     1   505
 NBasis=   505 NAE=    79 NBE=    79 NFC=     0 NFV=     0
 NROrb=    505 NOA=    79 NOB=    79 NVA=   426 NVB=   426

 **** Warning!!: The largest alpha MO coefficient is  0.82429123D+02

 NEqPCM:  Using equilibrium solvation (IEInf=0, Eps=   4.7113, EpsInf=   2.0906)
          Differentiating once with respect to magnetic field using GIAOs.
          Electric field/nuclear overlap derivatives assumed to be zero.
 FoFCou: FMM=F IPFlag=           0 FMFlag=    10101102 FMFlg1=           0
         NFxFlg=    40000000 DoJE=F BraDBF=F KetDBF=T FulRan=T
         Omega=  0.000000  0.000000  1.000000  0.000000  0.000000 ICntrl=    6100 IOpCl=  0
         NMat0=    1 NMatS0=    1 NMatT0=    0 NMatD0=    1 NMtDS0=    0 NMtDT0=    0
         I1Cent=           7 NGrid=        3020.
 Symmetry not used in FoFCou.
          There are     3 degrees of freedom in the 1st order CPHF.  IDoFFX=0.
      3 vectors produced by pass  0 Test12= 1.12D-12 3.33D-08 XBig12= 1.49D+02 2.21D+00.
 AX will form     3 AO Fock derivatives at one time.
      3 vectors produced by pass  1 Test12= 1.12D-12 3.33D-08 XBig12= 3.79D-01 8.86D-02.
      3 vectors produced by pass  2 Test12= 1.12D-12 3.33D-08 XBig12= 8.48D-04 4.81D-03.
      3 vectors produced by pass  3 Test12= 1.12D-12 3.33D-08 XBig12= 4.12D-06 3.19D-04.
      3 vectors produced by pass  4 Test12= 1.12D-12 3.33D-08 XBig12= 1.49D-08 1.58D-05.
      3 vectors produced by pass  5 Test12= 1.12D-12 3.33D-08 XBig12= 3.89D-11 9.27D-07.
      2 vectors produced by pass  6 Test12= 1.12D-12 3.33D-08 XBig12= 1.40D-13 4.46D-08.
 Inverted reduced A of dimension    20 with in-core refinement.
 Calculating GIAO nuclear magnetic shielding tensors.
 SCF GIAO Magnetic shielding tensor (ppm):
      1  H    Isotropic =    27.4142   Anisotropy =     3.8811
   XX=    28.4455   YX=    -1.2920   ZX=    -2.0121
   XY=    -1.6937   YY=    24.6008   ZY=    -1.2248
   XZ=    -0.0161   YZ=    -2.2357   ZZ=    29.1962
   Eigenvalues:    23.4174    28.8236    30.0016
      2  C    Isotropic =   122.0464   Anisotropy =    37.8240
   XX=   131.2935   YX=    12.9279   ZX=   -20.9973
   XY=     3.8704   YY=   115.8203   ZY=     5.6581
   XZ=   -19.5545   YZ=    -0.7435   ZZ=   119.0253
   Eigenvalues:   100.6344   118.2424   147.2623
      3  C    Isotropic =   168.1214   Anisotropy =    29.1350
   XX=   169.9048   YX=     4.0077   ZX=    16.4315
   XY=     5.9017   YY=   174.9710   ZY=     8.1078
   XZ=    13.4443   YZ=     9.7517   ZZ=   159.4883
   Eigenvalues:   148.0757   168.7438   187.5447
      4  C    Isotropic =   122.7283   Anisotropy =    39.5286
   XX=   127.0715   YX=     9.2827   ZX=     9.8322
   XY=    18.6094   YY=   132.7847   ZY=     8.8923
   XZ=    16.5193   YZ=     5.7239   ZZ=   108.3287
   Eigenvalues:   101.5311   117.5732   149.0807
      5  C    Isotropic =   133.5561   Anisotropy =    59.8627
   XX=    91.9641   YX=     8.2093   ZX=    18.7859
   XY=    10.5742   YY=   169.9546   ZY=    10.7071
   XZ=    22.1673   YZ=     1.5190   ZZ=   138.7495
   Eigenvalues:    83.7486   143.4550   173.4645
      6  C    Isotropic =   111.0946   Anisotropy =    40.4376
   XX=   106.4944   YX=   -10.0982   ZX=    -0.9174
   XY=   -14.4089   YY=   129.3027   ZY=     9.3145
   XZ=   -11.2349   YZ=    11.0501   ZZ=    97.4866
   Eigenvalues:    93.7921   101.4386   138.0530
      7  C    Isotropic =   163.2059   Anisotropy =    20.2066
   XX=   163.6325   YX=    -6.5675   ZX=    -5.5800
   XY=    -9.8746   YY=   168.3412   ZY=     8.0580
   XZ=    -2.3646   YZ=     1.9316   ZZ=   157.6440
   Eigenvalues:   155.4929   157.4478   176.6769
      8  H    Isotropic =    29.1733   Anisotropy =     6.4614
   XX=    31.5592   YX=     0.6448   ZX=    -1.8768
   XY=     1.6459   YY=    28.7910   ZY=    -3.5784
   XZ=    -1.8521   YZ=    -2.6940   ZZ=    27.1696
   Eigenvalues:    24.6458    29.3931    33.4808
      9  H    Isotropic =    27.1565   Anisotropy =     6.8642
   XX=    31.3625   YX=     1.5886   ZX=     0.0508
   XY=     1.6210   YY=    24.5603   ZY=     0.0492
   XZ=     0.1229   YZ=     1.5034   ZZ=    25.5467
   Eigenvalues:    23.8732    25.8637    31.7326
     10  H    Isotropic =    28.5066   Anisotropy =     3.2699
   XX=    28.2510   YX=    -0.0593   ZX=    -1.2584
   XY=    -2.4753   YY=    29.9901   ZY=     0.3857
   XZ=    -2.1792   YZ=    -1.6042   ZZ=    27.2787
   Eigenvalues:    25.6126    29.2206    30.6865
     11  H    Isotropic =    30.0098   Anisotropy =     9.0780
   XX=    29.3981   YX=    -1.6946   ZX=    -3.1196
   XY=    -1.4469   YY=    26.4146   ZY=     1.7702
   XZ=    -2.9034   YZ=     1.0483   ZZ=    34.2169
   Eigenvalues:    25.7382    28.2295    36.0619
     12  H    Isotropic =    30.4871   Anisotropy =    10.9155
   XX=    29.0328   YX=    -2.3078   ZX=     1.1129
   XY=    -2.3252   YY=    36.5369   ZY=     3.0326
   XZ=     0.9533   YZ=     2.8814   ZZ=    25.8915
   Eigenvalues:    24.5294    29.1677    37.7640
     13  H    Isotropic =    29.7083   Anisotropy =     8.8730
   XX=    31.2104   YX=     1.1294   ZX=     3.1886
   XY=     2.1641   YY=    29.4308   ZY=     3.8859
   XZ=     3.3420   YZ=     3.9442   ZZ=    28.4836
   Eigenvalues:    24.6591    28.8422    35.6236
     14  O    Isotropic =   315.5386   Anisotropy =   110.0429
   XX=   366.0796   YX=    16.5303   ZX=   -13.9536
   XY=    10.3346   YY=   360.8584   ZY=    69.5616
   XZ=   -38.6964   YZ=    67.1820   ZZ=   219.6779
   Eigenvalues:   187.1492   370.5661   388.9006
     15  C    Isotropic =   146.3554   Anisotropy =    33.9599
   XX=   113.1111   YX=     6.6260   ZX=    13.7439
   XY=     3.7480   YY=   163.4340   ZY=    -1.5031
   XZ=    14.2228   YZ=     6.6826   ZZ=   162.5212
   Eigenvalues:   109.0774   160.9935   168.9954
     16  O    Isotropic =   312.1047   Anisotropy =    44.4364
   XX=   329.4170   YX=    15.4081   ZX=    26.0999
   XY=   -18.8995   YY=   294.5561   ZY=   -23.9743
   XZ=     0.7535   YZ=   -24.8278   ZZ=   312.3408
   Eigenvalues:   276.6916   317.8935   341.7289
     17  H    Isotropic =    29.6502   Anisotropy =    17.5022
   XX=    27.0361   YX=    -4.0864   ZX=    10.1774
   XY=    -2.7020   YY=    30.6503   ZY=    -2.5285
   XZ=    11.0577   YZ=    -1.6576   ZZ=    31.2642
   Eigenvalues:    18.1820    29.4503    41.3183
     18  O    Isotropic =   296.0333   Anisotropy =    68.0906
   XX=   314.0421   YX=   -37.2118   ZX=   -12.2424
   XY=   -25.2307   YY=   297.2619   ZY=     5.5650
   XZ=   -14.8641   YZ=     8.0920   ZZ=   276.7959
   Eigenvalues:   270.5810   276.0918   341.4271
     19  C    Isotropic =   136.8908   Anisotropy =    85.7498
   XX=   127.8826   YX=    36.8531   ZX=    -3.3904
   XY=    35.5784   YY=   174.1239   ZY=    -2.5385
   XZ=    -3.8091   YZ=     0.2620   ZZ=   108.6658
   Eigenvalues:   105.6850   110.9300   194.0573
     20  H    Isotropic =    27.2163   Anisotropy =     8.8799
   XX=    27.3949   YX=     2.4442   ZX=     4.1558
   XY=     3.7390   YY=    30.5849   ZY=     1.5317
   XZ=     2.9278   YZ=    -0.2639   ZZ=    23.6692
   Eigenvalues:    21.3928    27.1199    33.1363
     21  H    Isotropic =    27.8751   Anisotropy =    10.6187
   XX=    25.6205   YX=     2.2776   ZX=    -0.1046
   XY=    -0.9073   YY=    34.8943   ZY=     0.6185
   XZ=    -0.4630   YZ=     0.0989   ZZ=    23.1106
   Eigenvalues:    23.0629    25.6083    34.9543
     22  H    Isotropic =    28.3333   Anisotropy =    10.3196
   XX=    27.5419   YX=     3.3499   ZX=    -2.5919
   XY=     4.4609   YY=    30.3174   ZY=    -4.9292
   XZ=    -1.2271   YZ=    -2.5261   ZZ=    27.1405
   Eigenvalues:    24.3566    25.4303    35.2131
     23  O    Isotropic =   287.0311   Anisotropy =    20.0632
   XX=   283.9053   YX=    -2.5486   ZX=    17.2005
   XY=     3.1088   YY=   300.3900   ZY=    -1.9591
   XZ=    10.4914   YZ=     2.2402   ZZ=   276.7979
   Eigenvalues:   266.0568   294.6299   300.4065
     24  Si   Isotropic =   377.7872   Anisotropy =    32.0990
   XX=   396.1074   YX=   -16.6262   ZX=     5.6101
   XY=    -1.0221   YY=   373.6169   ZY=     3.4237
   XZ=    -0.1840   YZ=     6.0198   ZZ=   363.6373
   Eigenvalues:   360.7084   373.4667   399.1865
     25  C    Isotropic =   198.7493   Anisotropy =     8.7606
   XX=   202.1878   YX=    -2.7328   ZX=     0.1062
   XY=    -3.3963   YY=   192.9856   ZY=     5.6354
   XZ=    -1.3402   YZ=     2.9540   ZZ=   201.0746
   Eigenvalues:   190.5510   201.1073   204.5897
     26  H    Isotropic =    31.7335   Anisotropy =    10.9416
   XX=    34.3450   YX=    -4.0641   ZX=    -2.8346
   XY=    -3.6920   YY=    31.5405   ZY=     3.6222
   XZ=    -2.7479   YZ=     3.4882   ZZ=    29.3151
   Eigenvalues:    26.7021    29.4706    39.0279
     27  H    Isotropic =    30.9086   Anisotropy =    10.0836
   XX=    34.1187   YX=     4.9175   ZX=    -2.2909
   XY=     5.0129   YY=    30.4200   ZY=     1.4354
   XZ=    -1.5984   YZ=     1.5289   ZZ=    28.1870
   Eigenvalues:    25.1570    29.9378    37.6310
     28  H    Isotropic =    31.2865   Anisotropy =     8.2551
   XX=    28.2942   YX=    -0.0223   ZX=     1.2307
   XY=     0.3842   YY=    29.9709   ZY=    -2.2317
   XZ=     1.2868   YZ=    -3.0667   ZZ=    35.5943
   Eigenvalues:    27.7994    29.2701    36.7899
     29  C    Isotropic =   172.5859   Anisotropy =     7.2889
   XX=   174.7779   YX=    -4.0265   ZX=    -0.6503
   XY=    -1.7957   YY=   173.0712   ZY=     1.2979
   XZ=    -1.9571   YZ=     1.6032   ZZ=   169.9086
   Eigenvalues:   169.3359   170.9767   177.4451
     30  C    Isotropic =   201.1215   Anisotropy =     4.8164
   XX=   203.1253   YX=    -1.2852   ZX=     1.7389
   XY=     0.3016   YY=   198.0360   ZY=    -0.7028
   XZ=     1.4674   YZ=     2.0724   ZZ=   202.2034
   Eigenvalues:   197.8127   201.2194   204.3325
     31  H    Isotropic =    31.6991   Anisotropy =    10.6960
   XX=    35.5316   YX=    -4.9516   ZX=    -0.0735
   XY=    -4.5553   YY=    31.8941   ZY=    -1.3967
   XZ=    -0.3435   YZ=    -1.1470   ZZ=    27.6715
   Eigenvalues:    26.8706    29.3969    38.8297
     32  H    Isotropic =    31.4458   Anisotropy =     8.7929
   XX=    28.3527   YX=     0.5941   ZX=     1.8195
   XY=     0.5896   YY=    29.4429   ZY=     1.4315
   XZ=     1.8101   YZ=     1.8590   ZZ=    36.5418
   Eigenvalues:    27.9207    29.1089    37.3077
     33  H    Isotropic =    31.0509   Anisotropy =     9.6705
   XX=    33.9618   YX=     3.9774   ZX=     0.4068
   XY=     4.3160   YY=    32.1153   ZY=    -2.6232
   XZ=     0.3579   YZ=    -2.9194   ZZ=    27.0757
   Eigenvalues:    25.2675    30.3874    37.4979
     34  C    Isotropic =   170.3234   Anisotropy =    37.5594
   XX=   156.9359   YX=     3.6304   ZX=     3.0408
   XY=     1.9901   YY=   166.2682   ZY=    16.9452
   XZ=    -0.2338   YZ=    12.3784   ZZ=   187.7661
   Eigenvalues:   155.6688   159.9385   195.3630
     35  H    Isotropic =    30.6403   Anisotropy =     8.3106
   XX=    28.1347   YX=     0.9545   ZX=     2.8927
   XY=     1.2393   YY=    28.8834   ZY=    -0.7319
   XZ=     3.1359   YZ=    -2.1523   ZZ=    34.9027
   Eigenvalues:    26.1057    29.6344    36.1807
     36  H    Isotropic =    31.0505   Anisotropy =     9.8216
   XX=    31.1690   YX=     4.4317   ZX=     1.0923
   XY=     4.8549   YY=    32.8952   ZY=     1.9122
   XZ=     1.8143   YZ=     2.6346   ZZ=    29.0874
   Eigenvalues:    27.2093    28.3440    37.5982
     37  H    Isotropic =    30.4121   Anisotropy =     7.8028
   XX=    32.5840   YX=    -0.8083   ZX=    -1.7973
   XY=    -1.5694   YY=    29.6169   ZY=     4.0274
   XZ=    -2.9451   YZ=     4.3335   ZZ=    29.0356
   Eigenvalues:    25.0113    30.6111    35.6140
     38  C    Isotropic =   170.3576   Anisotropy =    38.9011
   XX=   185.4330   YX=   -17.9190   ZX=    -7.9273
   XY=   -13.5282   YY=   165.8965   ZY=     3.6442
   XZ=    -7.3925   YZ=     4.9969   ZZ=   159.7432
   Eigenvalues:   157.1482   157.6328   196.2916
     39  H    Isotropic =    30.7241   Anisotropy =     9.0379
   XX=    33.3238   YX=    -3.6400   ZX=     1.9364
   XY=    -3.0581   YY=    30.8979   ZY=    -3.6552
   XZ=     0.7483   YZ=    -2.9549   ZZ=    27.9505
   Eigenvalues:    25.7229    29.7000    36.7493
     40  H    Isotropic =    30.6980   Anisotropy =     8.8794
   XX=    31.2915   YX=    -1.3268   ZX=    -3.6126
   XY=    -0.8494   YY=    29.3307   ZY=     4.6524
   XZ=    -2.2368   YZ=     4.1541   ZZ=    31.4717
   Eigenvalues:    25.6753    29.8010    36.6176
     41  H    Isotropic =    30.9266   Anisotropy =    10.2501
   XX=    36.5450   YX=     3.3691   ZX=    -1.7683
   XY=     2.1211   YY=    29.0340   ZY=    -0.3034
   XZ=    -1.8358   YZ=    -0.4768   ZZ=    27.2008
   Eigenvalues:    26.8553    28.1644    37.7600
     42  C    Isotropic =   170.3799   Anisotropy =    37.5225
   XX=   161.5386   YX=    -2.9934   ZX=     7.6986
   XY=    -7.3785   YY=   171.8356   ZY=   -19.0498
   XZ=    11.1701   YZ=   -15.0185   ZZ=   177.7654
   Eigenvalues:   155.8306   159.9141   195.3948
     43  H    Isotropic =    31.0454   Anisotropy =     9.7954
   XX=    30.0745   YX=     3.2731   ZX=    -0.9637
   XY=     3.9988   YY=    33.8723   ZY=    -3.2051
   XZ=    -1.4899   YZ=    -3.5777   ZZ=    29.1893
   Eigenvalues:    27.1227    28.4378    37.5757
     44  H    Isotropic =    30.4889   Anisotropy =     8.3118
   XX=    27.1233   YX=     1.5726   ZX=     1.1279
   XY=     1.2451   YY=    28.4519   ZY=    -1.3324
   XZ=     0.9486   YZ=     0.2818   ZZ=    35.8913
   Eigenvalues:    26.0931    29.3434    36.0301
     45  H    Isotropic =    30.2165   Anisotropy =     8.1440
   XX=    33.6504   YX=    -2.5939   ZX=    -0.8987
   XY=    -3.3158   YY=    30.6056   ZY=    -2.6223
   XZ=     0.2997   YZ=    -3.2126   ZZ=    26.3935
   Eigenvalues:    24.5858    30.4179    35.6459
     46  H    Isotropic =    28.9847   Anisotropy =    10.8597
   XX=    28.1843   YX=    -0.4230   ZX=    -2.4023
   XY=    -4.2826   YY=    29.0745   ZY=     4.7911
   XZ=    -4.7501   YZ=     4.4137   ZZ=    29.6954
   Eigenvalues:    24.4857    26.2440    36.2245
     47  H    Isotropic =    28.4199   Anisotropy =     8.0597
   XX=    30.3122   YX=     1.2019   ZX=    -3.9038
   XY=     4.8710   YY=    30.4930   ZY=    -0.1547
   XZ=    -1.9143   YZ=     0.9880   ZZ=    24.4545
   Eigenvalues:    22.9041    28.5626    33.7931
 End of Minotr Frequency-dependent properties file   721 does not exist.
 End of Minotr Frequency-dependent properties file   722 does not exist.

 **********************************************************************

            Population analysis using the SCF density.

 **********************************************************************

 Orbital symmetries:
       Occupied  (A) (A) (A) (A) (A) (A) (A) (A) (A) (A) (A) (A)
                 (A) (A) (A) (A) (A) (A) (A) (A) (A) (A) (A) (A)
                 (A) (A) (A) (A) (A) (A) (A) (A) (A) (A) (A) (A)
                 (A) (A) (A) (A) (A) (A) (A) (A) (A) (A) (A) (A)
                 (A) (A) (A) (A) (A) (A) (A) (A) (A) (A) (A) (A)
                 (A) (A) (A) (A) (A) (A) (A) (A) (A) (A) (A) (A)
                 (A) (A) (A) (A) (A) (A) (A)
       Virtual   (A) (A) (A) (A) (A) (A) (A) (A) (A) (A) (A) (A)
                 (A) (A) (A) (A) (A) (A) (A) (A) (A) (A) (A) (A)
                 (A) (A) (A) (A) (A) (A) (A) (A) (A) (A) (A) (A)
                 (A) (A) (A) (A) (A) (A) (A) (A) (A) (A) (A) (A)
                 (A) (A) (A) (A) (A) (A) (A) (A) (A) (A) (A) (A)
                 (A) (A) (A) (A) (A) (A) (A) (A) (A) (A) (A) (A)
                 (A) (A) (A) (A) (A) (A) (A) (A) (A) (A) (A) (A)
                 (A) (A) (A) (A) (A) (A) (A) (A) (A) (A) (A) (A)
                 (A) (A) (A) (A) (A) (A) (A) (A) (A) (A) (A) (A)
                 (A) (A) (A) (A) (A) (A) (A) (A) (A) (A) (A) (A)
                 (A) (A) (A) (A) (A) (A) (A) (A) (A) (A) (A) (A)
                 (A) (A) (A) (A) (A) (A) (A) (A) (A) (A) (A) (A)
                 (A) (A) (A) (A) (A) (A) (A) (A) (A) (A) (A) (A)
                 (A) (A) (A) (A) (A) (A) (A) (A) (A) (A) (A) (A)
                 (A) (A) (A) (A) (A) (A) (A) (A) (A) (A) (A) (A)
                 (A) (A) (A) (A) (A) (A) (A) (A) (A) (A) (A) (A)
                 (A) (A) (A) (A) (A) (A) (A) (A) (A) (A) (A) (A)
                 (A) (A) (A) (A) (A) (A) (A) (A) (A) (A) (A) (A)
                 (A) (A) (A) (A) (A) (A) (A) (A) (A) (A) (A) (A)
                 (A) (A) (A) (A) (A) (A) (A) (A) (A) (A) (A) (A)
                 (A) (A) (A) (A) (A) (A) (A) (A) (A) (A) (A) (A)
                 (A) (A) (A) (A) (A) (A) (A) (A) (A) (A) (A) (A)
                 (A) (A) (A) (A) (A) (A) (A) (A) (A) (A) (A) (A)
                 (A) (A) (A) (A) (A) (A) (A) (A) (A) (A) (A) (A)
                 (A) (A) (A) (A) (A) (A) (A) (A) (A) (A) (A) (A)
                 (A) (A) (A) (A) (A) (A) (A) (A) (A) (A) (A) (A)
                 (A) (A) (A) (A) (A) (A) (A) (A) (A) (A) (A) (A)
                 (A) (A) (A) (A) (A) (A) (A) (A) (A) (A) (A) (A)
                 (A) (A) (A) (A) (A) (A) (A) (A) (A) (A) (A) (A)
                 (A) (A) (A) (A) (A) (A) (A) (A) (A) (A) (A) (A)
                 (A) (A) (A) (A) (A) (A) (A) (A) (A) (A) (A) (A)
                 (A) (A) (A) (A) (A) (A) (A) (A) (A) (A) (A) (A)
                 (A) (A) (A) (A) (A) (A) (A) (A) (A) (A) (A) (A)
                 (A) (A) (A) (A) (A) (A) (A) (A) (A) (A) (A) (A)
                 (A) (A) (A) (A) (A) (A) (A) (A) (A) (A) (A) (A)
                 (A) (A) (A) (A) (A) (A)
 The electronic state is 1-A.
 Alpha  occ. eigenvalues --  -66.30041 -19.27074 -19.25532 -19.25345 -19.23116
 Alpha  occ. eigenvalues --  -10.31670 -10.30903 -10.30558 -10.30511 -10.30194
 Alpha  occ. eigenvalues --  -10.28287 -10.25403 -10.25358 -10.24337 -10.23378
 Alpha  occ. eigenvalues --  -10.23185 -10.23067 -10.22029 -10.21563  -5.33396
 Alpha  occ. eigenvalues --   -3.67320  -3.67024  -3.66989  -1.11620  -1.07524
 Alpha  occ. eigenvalues --   -1.05522  -1.02926  -0.84906  -0.81918  -0.77632
 Alpha  occ. eigenvalues --   -0.75079  -0.71759  -0.70182  -0.70061  -0.69822
 Alpha  occ. eigenvalues --   -0.69272  -0.69086  -0.63349  -0.62529  -0.58694
 Alpha  occ. eigenvalues --   -0.56141  -0.55097  -0.52541  -0.52187  -0.51668
 Alpha  occ. eigenvalues --   -0.49004  -0.47955  -0.47201  -0.46296  -0.45377
 Alpha  occ. eigenvalues --   -0.44339  -0.44301  -0.43987  -0.43380  -0.42607
 Alpha  occ. eigenvalues --   -0.41676  -0.41001  -0.40480  -0.40181  -0.39769
 Alpha  occ. eigenvalues --   -0.39384  -0.39079  -0.38791  -0.38481  -0.37625
 Alpha  occ. eigenvalues --   -0.36991  -0.36522  -0.35833  -0.34085  -0.33528
 Alpha  occ. eigenvalues --   -0.33431  -0.32846  -0.31860  -0.31188  -0.30409
 Alpha  occ. eigenvalues --   -0.29368  -0.28366  -0.27201  -0.25952
 Alpha virt. eigenvalues --   -0.00060   0.00552   0.01289   0.01499   0.02316
 Alpha virt. eigenvalues --    0.02962   0.03274   0.03730   0.03991   0.04896
 Alpha virt. eigenvalues --    0.05092   0.05454   0.05729   0.06108   0.06373
 Alpha virt. eigenvalues --    0.06755   0.06908   0.07908   0.08124   0.08184
 Alpha virt. eigenvalues --    0.08241   0.09070   0.09189   0.09379   0.09802
 Alpha virt. eigenvalues --    0.10011   0.10258   0.10772   0.10959   0.11626
 Alpha virt. eigenvalues --    0.12037   0.12213   0.12716   0.12822   0.13275
 Alpha virt. eigenvalues --    0.13637   0.13997   0.14143   0.14461   0.14762
 Alpha virt. eigenvalues --    0.14847   0.15467   0.15671   0.16239   0.16549
 Alpha virt. eigenvalues --    0.16778   0.17076   0.17189   0.17534   0.18114
 Alpha virt. eigenvalues --    0.18606   0.18744   0.19092   0.19351   0.19983
 Alpha virt. eigenvalues --    0.20136   0.20522   0.20717   0.21079   0.21601
 Alpha virt. eigenvalues --    0.21828   0.21963   0.22256   0.22589   0.22863
 Alpha virt. eigenvalues --    0.23025   0.23292   0.23920   0.24099   0.24287
 Alpha virt. eigenvalues --    0.24503   0.24754   0.25238   0.25557   0.25971
 Alpha virt. eigenvalues --    0.26219   0.27029   0.27260   0.27605   0.27788
 Alpha virt. eigenvalues --    0.28153   0.28757   0.29185   0.29376   0.29552
 Alpha virt. eigenvalues --    0.29885   0.30515   0.30726   0.30972   0.31322
 Alpha virt. eigenvalues --    0.31877   0.32380   0.32487   0.33237   0.33400
 Alpha virt. eigenvalues --    0.33725   0.34798   0.35065   0.35452   0.35950
 Alpha virt. eigenvalues --    0.36856   0.37273   0.37645   0.38132   0.38631
 Alpha virt. eigenvalues --    0.39257   0.39863   0.40224   0.40599   0.41108
 Alpha virt. eigenvalues --    0.42132   0.42599   0.43664   0.44611   0.45414
 Alpha virt. eigenvalues --    0.45859   0.46073   0.46911   0.48052   0.48937
 Alpha virt. eigenvalues --    0.49415   0.50463   0.52363   0.53531   0.54863
 Alpha virt. eigenvalues --    0.55179   0.58565   0.62226   0.63330   0.65307
 Alpha virt. eigenvalues --    0.67508   0.69385   0.70053   0.71217   0.71512
 Alpha virt. eigenvalues --    0.72050   0.73048   0.73890   0.74477   0.75513
 Alpha virt. eigenvalues --    0.76093   0.77138   0.77657   0.78720   0.79484
 Alpha virt. eigenvalues --    0.79723   0.80292   0.81031   0.81567   0.81790
 Alpha virt. eigenvalues --    0.82551   0.84360   0.84905   0.85519   0.86059
 Alpha virt. eigenvalues --    0.87727   0.88051   0.88479   0.89179   0.90183
 Alpha virt. eigenvalues --    0.90864   0.91729   0.92866   0.93115   0.93700
 Alpha virt. eigenvalues --    0.93919   0.96590   0.97043   0.97477   0.98887
 Alpha virt. eigenvalues --    0.99289   0.99811   1.00637   1.01647   1.02564
 Alpha virt. eigenvalues --    1.02801   1.04033   1.04655   1.05638   1.06023
 Alpha virt. eigenvalues --    1.06410   1.06810   1.07354   1.07936   1.08469
 Alpha virt. eigenvalues --    1.08703   1.09468   1.09814   1.11312   1.12218
 Alpha virt. eigenvalues --    1.13435   1.14766   1.15265   1.16011   1.16929
 Alpha virt. eigenvalues --    1.17575   1.18414   1.19155   1.20480   1.22407
 Alpha virt. eigenvalues --    1.23189   1.23665   1.24327   1.24706   1.25622
 Alpha virt. eigenvalues --    1.28266   1.29897   1.30545   1.32411   1.34102
 Alpha virt. eigenvalues --    1.35088   1.35642   1.36131   1.36733   1.37601
 Alpha virt. eigenvalues --    1.38675   1.40279   1.40687   1.42328   1.42782
 Alpha virt. eigenvalues --    1.42993   1.45455   1.47097   1.48005   1.48325
 Alpha virt. eigenvalues --    1.50186   1.51639   1.53209   1.53357   1.54850
 Alpha virt. eigenvalues --    1.57150   1.58257   1.58896   1.62647   1.63257
 Alpha virt. eigenvalues --    1.64567   1.66777   1.68707   1.69645   1.70980
 Alpha virt. eigenvalues --    1.71194   1.72767   1.73384   1.75777   1.76747
 Alpha virt. eigenvalues --    1.78139   1.78934   1.80706   1.81201   1.82167
 Alpha virt. eigenvalues --    1.82348   1.83770   1.85636   1.87614   1.88826
 Alpha virt. eigenvalues --    1.89724   1.90315   1.91397   1.91598   1.92929
 Alpha virt. eigenvalues --    1.93515   1.94860   1.95684   1.96365   1.97086
 Alpha virt. eigenvalues --    1.98521   1.99538   1.99979   2.00036   2.02308
 Alpha virt. eigenvalues --    2.03080   2.03883   2.05977   2.06408   2.06868
 Alpha virt. eigenvalues --    2.07478   2.07722   2.08053   2.09299   2.10319
 Alpha virt. eigenvalues --    2.10872   2.11263   2.11810   2.12875   2.14110
 Alpha virt. eigenvalues --    2.14675   2.14975   2.15358   2.16266   2.16591
 Alpha virt. eigenvalues --    2.16674   2.17776   2.17991   2.18105   2.19448
 Alpha virt. eigenvalues --    2.19821   2.19918   2.20987   2.21741   2.22310
 Alpha virt. eigenvalues --    2.22483   2.23825   2.24730   2.25992   2.26669
 Alpha virt. eigenvalues --    2.27933   2.30006   2.30437   2.32760   2.35485
 Alpha virt. eigenvalues --    2.35943   2.36681   2.38679   2.38877   2.39694
 Alpha virt. eigenvalues --    2.40062   2.42134   2.43457   2.44169   2.45229
 Alpha virt. eigenvalues --    2.46216   2.46949   2.49492   2.52370   2.53310
 Alpha virt. eigenvalues --    2.55111   2.56567   2.57155   2.57632   2.57859
 Alpha virt. eigenvalues --    2.59889   2.60395   2.61669   2.64035   2.65568
 Alpha virt. eigenvalues --    2.65671   2.66716   2.68242   2.70113   2.70598
 Alpha virt. eigenvalues --    2.70982   2.72610   2.73270   2.74081   2.75343
 Alpha virt. eigenvalues --    2.76932   2.77393   2.78287   2.79027   2.79097
 Alpha virt. eigenvalues --    2.80913   2.81569   2.83811   2.85048   2.86055
 Alpha virt. eigenvalues --    2.86250   2.87359   2.87397   2.88421   2.88643
 Alpha virt. eigenvalues --    2.89055   2.89281   2.89968   2.90334   2.90623
 Alpha virt. eigenvalues --    2.92041   2.92913   2.94792   2.95384   2.97646
 Alpha virt. eigenvalues --    2.99170   3.00008   3.01465   3.03437   3.09197
 Alpha virt. eigenvalues --    3.11326   3.14492   3.20197   3.23375   3.27935
 Alpha virt. eigenvalues --    3.28835   3.29623   3.30101   3.30770   3.31571
 Alpha virt. eigenvalues --    3.31783   3.37329   3.38560   3.40084   3.43737
 Alpha virt. eigenvalues --    3.47989   3.48141   3.48716   3.49096   3.49786
 Alpha virt. eigenvalues --    3.50255   3.50698   3.51283   3.51504   3.52128
 Alpha virt. eigenvalues --    3.53277   3.53690   3.55471   3.56028   3.56655
 Alpha virt. eigenvalues --    3.57935   3.60159   3.61284   4.35295   4.43005
 Alpha virt. eigenvalues --    4.46440   4.48877   4.54575   4.55933   4.59400
 Alpha virt. eigenvalues --    4.62014   4.64853   4.65690   4.66954   4.68920
 Alpha virt. eigenvalues --    4.71855   4.75428   4.80934   4.83769   4.93655
 Alpha virt. eigenvalues --    4.95192
          Condensed to atoms (all electrons):
              1          2          3          4          5          6
     1  H    0.595938   0.161001   0.014080   0.045937  -0.007287   0.081313
     2  C    0.161001  10.965568  -0.077851  -1.422025   2.090235  -4.174763
     3  C    0.014080  -0.077851   7.483507  -1.280397  -1.321120   0.069897
     4  C    0.045937  -1.422025  -1.280397  11.666269  -3.078845   0.092688
     5  C   -0.007287   2.090235  -1.321120  -3.078845  15.489029  -3.440462
     6  C    0.081313  -4.174763   0.069897   0.092688  -3.440462  12.533218
     7  C    0.004876  -1.274862   0.464210   0.077022  -1.081716   0.409416
     8  H   -0.000055   0.015194   0.408023  -0.050633   0.074193  -0.040900
     9  H   -0.000164   0.119903  -0.052123   0.238659   0.279308  -0.248298
    10  H   -0.005228   0.163978  -0.013591  -0.164956   0.184557   0.146633
    11  H   -0.002450  -0.091045  -0.048789  -0.000511   0.055896  -0.000305
    12  H   -0.000097   0.048474   0.362491   0.051712  -0.129175   0.011729
    13  H   -0.004720  -0.022039  -0.019356  -0.012814   0.044247   0.029316
    14  O    0.000002  -0.078980  -0.074816  -0.168341   0.012876   0.158985
    15  C   -0.001972  -0.446423   0.137447  -0.150013  -2.654233   0.952273
    16  O   -0.000838   0.163842   0.056784   0.077390   0.023598  -0.198136
    17  H    0.000005  -0.021118   0.015603   0.002367  -0.084105   0.065746
    18  O    0.001152  -0.136479  -0.000105  -0.161505   0.072168   0.271215
    19  C   -0.004776   0.055533   0.029017   0.018805  -0.171746  -0.089743
    20  H    0.000016  -0.033016  -0.002596   0.006282  -0.015706   0.068451
    21  H   -0.000016  -0.003179  -0.000133   0.005173   0.002703  -0.000517
    22  H   -0.000067   0.052014   0.001513  -0.005774   0.010555  -0.078792
    23  O   -0.049666   0.173168   0.011679  -0.017439   0.145069  -0.292699
    24  Si   0.033640  -0.405540  -0.011587  -0.298030   0.265393   0.042034
    25  C   -0.003263   0.120060   0.000451   0.029155  -0.015073  -0.088499
    26  H    0.000002   0.004779  -0.000025  -0.000169   0.000028  -0.001985
    27  H    0.000004  -0.013926   0.000646   0.002565  -0.002079   0.004206
    28  H   -0.000003   0.004918  -0.000575  -0.002916   0.002764  -0.005993
    29  C    0.001799  -0.089040  -0.022563  -0.008048   0.006269   0.129665
    30  C   -0.005921   0.119776   0.000879   0.058822  -0.012454  -0.116214
    31  H    0.000064  -0.001595   0.000025   0.000221   0.000019   0.001459
    32  H   -0.000087  -0.012940  -0.000075  -0.000031  -0.000210   0.008557
    33  H   -0.000286  -0.010889   0.000504  -0.000138  -0.001262   0.011822
    34  C   -0.006421  -0.043543   0.039801   0.007627  -0.021188  -0.004626
    35  H    0.000005   0.001002  -0.000612  -0.000029   0.000147   0.001014
    36  H    0.000000  -0.000146  -0.000120   0.000070  -0.000136  -0.000132
    37  H    0.000017  -0.002255   0.004930   0.000640  -0.000890  -0.000771
    38  C    0.000704  -0.021585   0.001833  -0.005676   0.004627   0.027380
    39  H    0.000000   0.000633  -0.000014  -0.000038   0.000027   0.000097
    40  H    0.000000  -0.000199   0.000023  -0.000013  -0.000011  -0.000093
    41  H    0.000000  -0.000491  -0.000039   0.000014  -0.000007   0.000059
    42  C    0.001639   0.037825  -0.022676   0.014856  -0.024640  -0.025402
    43  H    0.000000  -0.000161  -0.000195   0.000078  -0.000169   0.000367
    44  H    0.000000   0.000816   0.000943  -0.000260  -0.000219  -0.000915
    45  H   -0.000005  -0.003105  -0.001467   0.000798   0.000165   0.001365
    46  H    0.000001  -0.012823   0.046964   0.000849  -0.143040   0.012889
    47  H    0.000000  -0.013351  -0.022021   0.098311  -0.190073   0.017615
              7          8          9         10         11         12
     1  H    0.004876  -0.000055  -0.000164  -0.005228  -0.002450  -0.000097
     2  C   -1.274862   0.015194   0.119903   0.163978  -0.091045   0.048474
     3  C    0.464210   0.408023  -0.052123  -0.013591  -0.048789   0.362491
     4  C    0.077022  -0.050633   0.238659  -0.164956  -0.000511   0.051712
     5  C   -1.081716   0.074193   0.279308   0.184557   0.055896  -0.129175
     6  C    0.409416  -0.040900  -0.248298   0.146633  -0.000305   0.011729
     7  C    6.887269  -0.062326  -0.014744  -0.005422   0.398176  -0.036207
     8  H   -0.062326   0.504847   0.002092   0.000037   0.004179  -0.026352
     9  H   -0.014744   0.002092   0.555372   0.005120   0.000016  -0.000158
    10  H   -0.005422   0.000037   0.005120   0.585759   0.000459  -0.000049
    11  H    0.398176   0.004179   0.000016   0.000459   0.533210  -0.004157
    12  H   -0.036207  -0.026352  -0.000158  -0.000049  -0.004157   0.531292
    13  H    0.328432  -0.002956  -0.000014   0.000010  -0.023329  -0.002099
    14  O    0.061295  -0.012030  -0.016816  -0.002217  -0.001318   0.005252
    15  C    0.257631  -0.024367  -0.029485  -0.017923  -0.005290   0.022068
    16  O    0.004441  -0.000348  -0.045816   0.003708  -0.000265  -0.000599
    17  H   -0.001355   0.000000  -0.004213  -0.000141   0.000000  -0.000014
    18  O    0.036480  -0.000528  -0.000294  -0.052345  -0.001088   0.000137
    19  C   -0.010206  -0.000620  -0.007489  -0.006024  -0.000517   0.000274
    20  H    0.001326   0.000000   0.000104  -0.001513   0.000000   0.000000
    21  H   -0.000977   0.000000   0.000015   0.000069   0.000000   0.000000
    22  H    0.001710   0.000000   0.000010   0.010184   0.000000   0.000000
    23  O   -0.070795   0.009294   0.012808   0.014371   0.013148  -0.001780
    24  Si   0.106320   0.011904   0.036709   0.007946  -0.000431  -0.004189
    25  C   -0.032366  -0.001018  -0.009102  -0.001536  -0.000015   0.000109
    26  H    0.000101   0.000000   0.000002   0.000000   0.000000   0.000000
    27  H   -0.000573   0.000000   0.000047   0.000001   0.000000   0.000000
    28  H    0.001649  -0.000001   0.000173   0.000000   0.000000   0.000000
    29  C   -0.015645   0.000691  -0.002192  -0.000224   0.000008   0.000306
    30  C   -0.059160   0.000213  -0.000104  -0.000050   0.000562   0.000129
    31  H    0.000721   0.000000   0.000000   0.000000   0.000000   0.000000
    32  H    0.000143   0.000000   0.000000   0.000001   0.000001   0.000000
    33  H   -0.001381   0.000000  -0.000001  -0.000014   0.000000   0.000000
    34  C    0.015003   0.000208   0.000247   0.000133   0.000338  -0.000294
    35  H   -0.000625   0.000000   0.000000   0.000000   0.000000   0.000000
    36  H    0.000811   0.000000   0.000000   0.000000   0.000000   0.000000
    37  H   -0.004684   0.000017   0.000000   0.000000   0.000001  -0.000001
    38  C   -0.010394   0.000300   0.000332   0.000010   0.000048  -0.000003
    39  H    0.000026   0.000000   0.000000   0.000000   0.000000   0.000000
    40  H   -0.000084   0.000000   0.000000   0.000000   0.000000   0.000000
    41  H    0.000012   0.000000   0.000000   0.000000   0.000000   0.000000
    42  C    0.031554  -0.003035  -0.001413  -0.000107  -0.000208   0.000369
    43  H    0.000003  -0.000001   0.000000   0.000000   0.000000   0.000000
    44  H   -0.000645  -0.000007  -0.000001   0.000000   0.000000   0.000000
    45  H    0.002490   0.000559   0.000006   0.000000   0.000001  -0.000003
    46  H    0.007425   0.000027  -0.000079  -0.000095  -0.000026   0.000731
    47  H    0.003264  -0.000123  -0.000111  -0.000285  -0.000102   0.000164
             13         14         15         16         17         18
     1  H   -0.004720   0.000002  -0.001972  -0.000838   0.000005   0.001152
     2  C   -0.022039  -0.078980  -0.446423   0.163842  -0.021118  -0.136479
     3  C   -0.019356  -0.074816   0.137447   0.056784   0.015603  -0.000105
     4  C   -0.012814  -0.168341  -0.150013   0.077390   0.002367  -0.161505
     5  C    0.044247   0.012876  -2.654233   0.023598  -0.084105   0.072168
     6  C    0.029316   0.158985   0.952273  -0.198136   0.065746   0.271215
     7  C    0.328432   0.061295   0.257631   0.004441  -0.001355   0.036480
     8  H   -0.002956  -0.012030  -0.024367  -0.000348   0.000000  -0.000528
     9  H   -0.000014  -0.016816  -0.029485  -0.045816  -0.004213  -0.000294
    10  H    0.000010  -0.002217  -0.017923   0.003708  -0.000141  -0.052345
    11  H   -0.023329  -0.001318  -0.005290  -0.000265   0.000000  -0.001088
    12  H   -0.002099   0.005252   0.022068  -0.000599  -0.000014   0.000137
    13  H    0.525869  -0.000402  -0.002756   0.000124   0.000000  -0.000666
    14  O   -0.000402   8.360553   0.160063   0.014012   0.030176  -0.001104
    15  C   -0.002756   0.160063   7.051451  -0.035534  -0.000853  -0.007184
    16  O    0.000124   0.014012  -0.035534   8.304123   0.236376   0.017316
    17  H    0.000000   0.030176  -0.000853   0.236376   0.358813   0.000318
    18  O   -0.000666  -0.001104  -0.007184   0.017316   0.000318   8.348149
    19  C    0.000427   0.001456   0.021059  -0.027635   0.002018  -0.030563
    20  H    0.000000   0.000002   0.000294  -0.017838   0.000221  -0.062800
    21  H    0.000000  -0.000005  -0.000222   0.001261  -0.000005  -0.068964
    22  H    0.000000  -0.000005  -0.000909   0.002888  -0.000002  -0.056417
    23  O   -0.009079  -0.002700  -0.015410  -0.006774   0.000347   0.043360
    24  Si  -0.001606  -0.003559  -0.022541  -0.016871   0.001832   0.088401
    25  C   -0.000057   0.000141   0.000983   0.006011  -0.000198  -0.036544
    26  H    0.000000   0.000000   0.000000   0.000002   0.000000   0.000746
    27  H    0.000000   0.000002   0.000109   0.000112   0.000000   0.000427
    28  H    0.000000   0.000002   0.000110  -0.000011   0.000000   0.000016
    29  C   -0.000112   0.000083   0.004664  -0.000414   0.000038   0.009216
    30  C   -0.000119  -0.000252  -0.002464   0.000452  -0.000070  -0.033630
    31  H    0.000000   0.000000  -0.000004   0.000000   0.000000   0.000549
    32  H    0.000006   0.000000  -0.000012  -0.000002   0.000000  -0.000543
    33  H   -0.000002   0.000000   0.000059  -0.000011   0.000000   0.000859
    34  C    0.002398   0.000024  -0.001109   0.000014  -0.000007  -0.003915
    35  H   -0.000008   0.000000   0.000004   0.000000   0.000000  -0.000011
    36  H   -0.000004   0.000000   0.000001   0.000000   0.000000   0.000002
    37  H    0.000723   0.000000  -0.000083   0.000000   0.000000  -0.000048
    38  C    0.000064  -0.000026  -0.000046  -0.000055   0.000003  -0.001306
    39  H    0.000000   0.000000   0.000000   0.000000   0.000000  -0.000002
    40  H    0.000000   0.000000   0.000000   0.000000   0.000000  -0.000004
    41  H    0.000000   0.000000   0.000000   0.000000   0.000000   0.000002
    42  C   -0.002861   0.000384   0.002415   0.000359  -0.000001   0.003173
    43  H   -0.000001   0.000000   0.000002   0.000000   0.000000   0.000004
    44  H    0.000001   0.000000  -0.000007   0.000000   0.000000  -0.000025
    45  H    0.000011  -0.000001  -0.000100  -0.000001   0.000000  -0.000064
    46  H   -0.000018  -0.028383   0.450637   0.000169   0.000187   0.000026
    47  H   -0.000001  -0.029587   0.472398   0.002008  -0.001684  -0.000180
             19         20         21         22         23         24
     1  H   -0.004776   0.000016  -0.000016  -0.000067  -0.049666   0.033640
     2  C    0.055533  -0.033016  -0.003179   0.052014   0.173168  -0.405540
     3  C    0.029017  -0.002596  -0.000133   0.001513   0.011679  -0.011587
     4  C    0.018805   0.006282   0.005173  -0.005774  -0.017439  -0.298030
     5  C   -0.171746  -0.015706   0.002703   0.010555   0.145069   0.265393
     6  C   -0.089743   0.068451  -0.000517  -0.078792  -0.292699   0.042034
     7  C   -0.010206   0.001326  -0.000977   0.001710  -0.070795   0.106320
     8  H   -0.000620   0.000000   0.000000   0.000000   0.009294   0.011904
     9  H   -0.007489   0.000104   0.000015   0.000010   0.012808   0.036709
    10  H   -0.006024  -0.001513   0.000069   0.010184   0.014371   0.007946
    11  H   -0.000517   0.000000   0.000000   0.000000   0.013148  -0.000431
    12  H    0.000274   0.000000   0.000000   0.000000  -0.001780  -0.004189
    13  H    0.000427   0.000000   0.000000   0.000000  -0.009079  -0.001606
    14  O    0.001456   0.000002  -0.000005  -0.000005  -0.002700  -0.003559
    15  C    0.021059   0.000294  -0.000222  -0.000909  -0.015410  -0.022541
    16  O   -0.027635  -0.017838   0.001261   0.002888  -0.006774  -0.016871
    17  H    0.002018   0.000221  -0.000005  -0.000002   0.000347   0.001832
    18  O   -0.030563  -0.062800  -0.068964  -0.056417   0.043360   0.088401
    19  C    5.163288   0.409481   0.426087   0.418543  -0.009465  -0.074706
    20  H    0.409481   0.537332  -0.028886  -0.041530   0.000152   0.004801
    21  H    0.426087  -0.028886   0.533128  -0.027331  -0.000240  -0.001708
    22  H    0.418543  -0.041530  -0.027331   0.573921  -0.000047  -0.003448
    23  O   -0.009465   0.000152  -0.000240  -0.000047   8.381235   0.082064
    24  Si  -0.074706   0.004801  -0.001708  -0.003448   0.082064  13.402832
    25  C    0.016882  -0.001667   0.000832   0.000287  -0.045119   0.119297
    26  H    0.000011   0.000000  -0.000001   0.000000   0.009834  -0.031150
    27  H    0.005322  -0.000029   0.000214  -0.000006  -0.002031  -0.048718
    28  H    0.000160   0.000000  -0.000002   0.000000  -0.010207  -0.019929
    29  C    0.001901   0.000041  -0.000172  -0.000084  -0.031083   0.253761
    30  C    0.018538  -0.000569   0.001384  -0.000285  -0.066384   0.170321
    31  H   -0.000581   0.000000  -0.000003   0.000000   0.009772  -0.029342
    32  H   -0.000320   0.000000  -0.000001   0.000000  -0.004518  -0.017622
    33  H    0.004873  -0.000002   0.000161  -0.000004  -0.004909  -0.058183
    34  C    0.000544  -0.000035   0.000016   0.000053   0.028952  -0.095955
    35  H   -0.000014   0.000000   0.000000   0.000000  -0.002374  -0.003008
    36  H    0.000004   0.000000   0.000000   0.000000  -0.000930   0.017073
    37  H   -0.000014   0.000000   0.000000   0.000000   0.008520  -0.007479
    38  C   -0.000291   0.000005   0.000002  -0.000004   0.016686  -0.055772
    39  H    0.000004   0.000000   0.000000   0.000000   0.000728  -0.014844
    40  H    0.000000   0.000000   0.000000   0.000000   0.000454  -0.010780
    41  H    0.000003   0.000000   0.000000   0.000000  -0.000631   0.019781
    42  C    0.001469   0.000039   0.000023  -0.000031  -0.012871  -0.136680
    43  H    0.000003   0.000000   0.000000   0.000000  -0.000614   0.019202
    44  H    0.000002   0.000000   0.000000   0.000000  -0.003813   0.006758
    45  H   -0.000043   0.000000   0.000000   0.000000   0.007098  -0.023763
    46  H    0.000096   0.000000   0.000000   0.000000  -0.000046   0.000143
    47  H    0.001653   0.000002   0.000000  -0.000001  -0.000125  -0.001130
             25         26         27         28         29         30
     1  H   -0.003263   0.000002   0.000004  -0.000003   0.001799  -0.005921
     2  C    0.120060   0.004779  -0.013926   0.004918  -0.089040   0.119776
     3  C    0.000451  -0.000025   0.000646  -0.000575  -0.022563   0.000879
     4  C    0.029155  -0.000169   0.002565  -0.002916  -0.008048   0.058822
     5  C   -0.015073   0.000028  -0.002079   0.002764   0.006269  -0.012454
     6  C   -0.088499  -0.001985   0.004206  -0.005993   0.129665  -0.116214
     7  C   -0.032366   0.000101  -0.000573   0.001649  -0.015645  -0.059160
     8  H   -0.001018   0.000000   0.000000  -0.000001   0.000691   0.000213
     9  H   -0.009102   0.000002   0.000047   0.000173  -0.002192  -0.000104
    10  H   -0.001536   0.000000   0.000001   0.000000  -0.000224  -0.000050
    11  H   -0.000015   0.000000   0.000000   0.000000   0.000008   0.000562
    12  H    0.000109   0.000000   0.000000   0.000000   0.000306   0.000129
    13  H   -0.000057   0.000000   0.000000   0.000000  -0.000112  -0.000119
    14  O    0.000141   0.000000   0.000002   0.000002   0.000083  -0.000252
    15  C    0.000983   0.000000   0.000109   0.000110   0.004664  -0.002464
    16  O    0.006011   0.000002   0.000112  -0.000011  -0.000414   0.000452
    17  H   -0.000198   0.000000   0.000000   0.000000   0.000038  -0.000070
    18  O   -0.036544   0.000746   0.000427   0.000016   0.009216  -0.033630
    19  C    0.016882   0.000011   0.005322   0.000160   0.001901   0.018538
    20  H   -0.001667   0.000000  -0.000029   0.000000   0.000041  -0.000569
    21  H    0.000832  -0.000001   0.000214  -0.000002  -0.000172   0.001384
    22  H    0.000287   0.000000  -0.000006   0.000000  -0.000084  -0.000285
    23  O   -0.045119   0.009834  -0.002031  -0.010207  -0.031083  -0.066384
    24  Si   0.119297  -0.031150  -0.048718  -0.019929   0.253761   0.170321
    25  C    5.578192   0.396070   0.409387   0.397046  -0.118727   0.031334
    26  H    0.396070   0.499813  -0.021711  -0.022795  -0.017981  -0.010978
    27  H    0.409387  -0.021711   0.473499  -0.021473   0.012420  -0.003803
    28  H    0.397046  -0.022795  -0.021473   0.495884  -0.014192   0.007103
    29  C   -0.118727  -0.017981   0.012420  -0.014192   7.987852  -0.131852
    30  C    0.031334  -0.010978  -0.003803   0.007103  -0.131852   5.555363
    31  H   -0.009033   0.000147   0.000086   0.000023  -0.018868   0.395370
    32  H    0.005077   0.000021   0.000003  -0.000017  -0.016738   0.395124
    33  H   -0.007654   0.000113   0.000406   0.000005   0.014556   0.415431
    34  C   -0.017931   0.000206  -0.001294  -0.002687  -0.289424   0.023473
    35  H   -0.000305   0.000001  -0.000001   0.000000  -0.063118   0.001691
    36  H   -0.001515   0.000000   0.000000   0.000000  -0.157704   0.000641
    37  H   -0.001052   0.000000   0.000000   0.000002  -0.109220  -0.001153
    38  C    0.019982   0.005983  -0.001286  -0.001241  -0.377718   0.009279
    39  H   -0.000257  -0.000004  -0.000006   0.000020  -0.082749   0.004095
    40  H    0.004214  -0.000015   0.000012   0.000026  -0.085730  -0.000806
    41  H   -0.000122   0.000026   0.000000  -0.000007  -0.153599   0.001121
    42  C   -0.019632   0.008790   0.002228   0.011218  -0.287196  -0.029350
    43  H    0.000041  -0.000001   0.000000  -0.000006  -0.162872  -0.001201
    44  H    0.000914   0.000057   0.000003   0.000193  -0.064077  -0.000428
    45  H    0.000290   0.000005  -0.000006   0.000034  -0.093326  -0.000718
    46  H    0.000000   0.000000   0.000000   0.000000  -0.000006  -0.000010
    47  H    0.000053   0.000000   0.000000   0.000000   0.000005   0.000018
             31         32         33         34         35         36
     1  H    0.000064  -0.000087  -0.000286  -0.006421   0.000005   0.000000
     2  C   -0.001595  -0.012940  -0.010889  -0.043543   0.001002  -0.000146
     3  C    0.000025  -0.000075   0.000504   0.039801  -0.000612  -0.000120
     4  C    0.000221  -0.000031  -0.000138   0.007627  -0.000029   0.000070
     5  C    0.000019  -0.000210  -0.001262  -0.021188   0.000147  -0.000136
     6  C    0.001459   0.008557   0.011822  -0.004626   0.001014  -0.000132
     7  C    0.000721   0.000143  -0.001381   0.015003  -0.000625   0.000811
     8  H    0.000000   0.000000   0.000000   0.000208   0.000000   0.000000
     9  H    0.000000   0.000000  -0.000001   0.000247   0.000000   0.000000
    10  H    0.000000   0.000001  -0.000014   0.000133   0.000000   0.000000
    11  H    0.000000   0.000001   0.000000   0.000338   0.000000   0.000000
    12  H    0.000000   0.000000   0.000000  -0.000294   0.000000   0.000000
    13  H    0.000000   0.000006  -0.000002   0.002398  -0.000008  -0.000004
    14  O    0.000000   0.000000   0.000000   0.000024   0.000000   0.000000
    15  C   -0.000004  -0.000012   0.000059  -0.001109   0.000004   0.000001
    16  O    0.000000  -0.000002  -0.000011   0.000014   0.000000   0.000000
    17  H    0.000000   0.000000   0.000000  -0.000007   0.000000   0.000000
    18  O    0.000549  -0.000543   0.000859  -0.003915  -0.000011   0.000002
    19  C   -0.000581  -0.000320   0.004873   0.000544  -0.000014   0.000004
    20  H    0.000000   0.000000  -0.000002  -0.000035   0.000000   0.000000
    21  H   -0.000003  -0.000001   0.000161   0.000016   0.000000   0.000000
    22  H    0.000000   0.000000  -0.000004   0.000053   0.000000   0.000000
    23  O    0.009772  -0.004518  -0.004909   0.028952  -0.002374  -0.000930
    24  Si  -0.029342  -0.017622  -0.058183  -0.095955  -0.003008   0.017073
    25  C   -0.009033   0.005077  -0.007654  -0.017931  -0.000305  -0.001515
    26  H    0.000147   0.000021   0.000113   0.000206   0.000001   0.000000
    27  H    0.000086   0.000003   0.000406  -0.001294  -0.000001   0.000000
    28  H    0.000023  -0.000017   0.000005  -0.002687   0.000000   0.000000
    29  C   -0.018868  -0.016738   0.014556  -0.289424  -0.063118  -0.157704
    30  C    0.395370   0.395124   0.415431   0.023473   0.001691   0.000641
    31  H    0.490920  -0.021608  -0.020447   0.005795   0.000088  -0.000002
    32  H   -0.021608   0.495748  -0.023028   0.009714   0.000048  -0.000002
    33  H   -0.020447  -0.023028   0.473581   0.001009   0.000015   0.000000
    34  C    0.005795   0.009714   0.001009   5.857019   0.423278   0.455992
    35  H    0.000088   0.000048   0.000015   0.423278   0.536770  -0.028008
    36  H   -0.000002  -0.000002   0.000000   0.455992  -0.028008   0.544812
    37  H    0.000011   0.000045  -0.000005   0.475177  -0.026970  -0.027387
    38  C    0.008360   0.004725  -0.000556   0.003522  -0.005282   0.008604
    39  H    0.000279   0.000005  -0.000004  -0.011630   0.002773  -0.000316
    40  H    0.000001   0.000008  -0.000005   0.004370   0.000031  -0.000002
    41  H    0.000011  -0.000005   0.000000   0.006282  -0.000332   0.005360
    42  C    0.001405  -0.004305  -0.000429  -0.275782   0.000357   0.016173
    43  H    0.000000   0.000000   0.000000   0.002401   0.000039   0.005616
    44  H    0.000000   0.000000  -0.000001   0.001022  -0.000153   0.000026
    45  H    0.000000   0.000002   0.000000  -0.002961   0.000020  -0.000310
    46  H    0.000000   0.000000   0.000000   0.000002   0.000000   0.000000
    47  H    0.000000   0.000000   0.000000  -0.000001   0.000000   0.000000
             37         38         39         40         41         42
     1  H    0.000017   0.000704   0.000000   0.000000   0.000000   0.001639
     2  C   -0.002255  -0.021585   0.000633  -0.000199  -0.000491   0.037825
     3  C    0.004930   0.001833  -0.000014   0.000023  -0.000039  -0.022676
     4  C    0.000640  -0.005676  -0.000038  -0.000013   0.000014   0.014856
     5  C   -0.000890   0.004627   0.000027  -0.000011  -0.000007  -0.024640
     6  C   -0.000771   0.027380   0.000097  -0.000093   0.000059  -0.025402
     7  C   -0.004684  -0.010394   0.000026  -0.000084   0.000012   0.031554
     8  H    0.000017   0.000300   0.000000   0.000000   0.000000  -0.003035
     9  H    0.000000   0.000332   0.000000   0.000000   0.000000  -0.001413
    10  H    0.000000   0.000010   0.000000   0.000000   0.000000  -0.000107
    11  H    0.000001   0.000048   0.000000   0.000000   0.000000  -0.000208
    12  H   -0.000001  -0.000003   0.000000   0.000000   0.000000   0.000369
    13  H    0.000723   0.000064   0.000000   0.000000   0.000000  -0.002861
    14  O    0.000000  -0.000026   0.000000   0.000000   0.000000   0.000384
    15  C   -0.000083  -0.000046   0.000000   0.000000   0.000000   0.002415
    16  O    0.000000  -0.000055   0.000000   0.000000   0.000000   0.000359
    17  H    0.000000   0.000003   0.000000   0.000000   0.000000  -0.000001
    18  O   -0.000048  -0.001306  -0.000002  -0.000004   0.000002   0.003173
    19  C   -0.000014  -0.000291   0.000004   0.000000   0.000003   0.001469
    20  H    0.000000   0.000005   0.000000   0.000000   0.000000   0.000039
    21  H    0.000000   0.000002   0.000000   0.000000   0.000000   0.000023
    22  H    0.000000  -0.000004   0.000000   0.000000   0.000000  -0.000031
    23  O    0.008520   0.016686   0.000728   0.000454  -0.000631  -0.012871
    24  Si  -0.007479  -0.055772  -0.014844  -0.010780   0.019781  -0.136680
    25  C   -0.001052   0.019982  -0.000257   0.004214  -0.000122  -0.019632
    26  H    0.000000   0.005983  -0.000004  -0.000015   0.000026   0.008790
    27  H    0.000000  -0.001286  -0.000006   0.000012   0.000000   0.002228
    28  H    0.000002  -0.001241   0.000020   0.000026  -0.000007   0.011218
    29  C   -0.109220  -0.377718  -0.082749  -0.085730  -0.153599  -0.287196
    30  C   -0.001153   0.009279   0.004095  -0.000806   0.001121  -0.029350
    31  H    0.000011   0.008360   0.000279   0.000001   0.000011   0.001405
    32  H    0.000045   0.004725   0.000005   0.000008  -0.000005  -0.004305
    33  H   -0.000005  -0.000556  -0.000004  -0.000005   0.000000  -0.000429
    34  C    0.475177   0.003522  -0.011630   0.004370   0.006282  -0.275782
    35  H   -0.026970  -0.005282   0.002773   0.000031  -0.000332   0.000357
    36  H   -0.027387   0.008604  -0.000316  -0.000002   0.005360   0.016173
    37  H    0.527046  -0.001150   0.000036  -0.000146   0.000018  -0.007894
    38  C   -0.001150   5.665883   0.449309   0.460166   0.449512  -0.122605
    39  H    0.000036   0.449309   0.535613  -0.027302  -0.028127   0.006294
    40  H   -0.000146   0.460166  -0.027302   0.531631  -0.027710  -0.018989
    41  H    0.000018   0.449512  -0.028127  -0.027710   0.542400   0.017653
    42  C   -0.007894  -0.122605   0.006294  -0.018989   0.017653   6.041408
    43  H   -0.000325   0.010790  -0.000008  -0.000312   0.005369   0.471626
    44  H    0.000032  -0.003839   0.000033   0.002775  -0.000357   0.415186
    45  H    0.003063   0.001538  -0.000146   0.000038   0.000011   0.464201
    46  H    0.000000   0.000000   0.000000   0.000000   0.000000   0.000007
    47  H    0.000000   0.000000   0.000000   0.000000   0.000000   0.000004
             43         44         45         46         47
     1  H    0.000000   0.000000  -0.000005   0.000001   0.000000
     2  C   -0.000161   0.000816  -0.003105  -0.012823  -0.013351
     3  C   -0.000195   0.000943  -0.001467   0.046964  -0.022021
     4  C    0.000078  -0.000260   0.000798   0.000849   0.098311
     5  C   -0.000169  -0.000219   0.000165  -0.143040  -0.190073
     6  C    0.000367  -0.000915   0.001365   0.012889   0.017615
     7  C    0.000003  -0.000645   0.002490   0.007425   0.003264
     8  H   -0.000001  -0.000007   0.000559   0.000027  -0.000123
     9  H    0.000000  -0.000001   0.000006  -0.000079  -0.000111
    10  H    0.000000   0.000000   0.000000  -0.000095  -0.000285
    11  H    0.000000   0.000000   0.000001  -0.000026  -0.000102
    12  H    0.000000   0.000000  -0.000003   0.000731   0.000164
    13  H   -0.000001   0.000001   0.000011  -0.000018  -0.000001
    14  O    0.000000   0.000000  -0.000001  -0.028383  -0.029587
    15  C    0.000002  -0.000007  -0.000100   0.450637   0.472398
    16  O    0.000000   0.000000  -0.000001   0.000169   0.002008
    17  H    0.000000   0.000000   0.000000   0.000187  -0.001684
    18  O    0.000004  -0.000025  -0.000064   0.000026  -0.000180
    19  C    0.000003   0.000002  -0.000043   0.000096   0.001653
    20  H    0.000000   0.000000   0.000000   0.000000   0.000002
    21  H    0.000000   0.000000   0.000000   0.000000   0.000000
    22  H    0.000000   0.000000   0.000000   0.000000  -0.000001
    23  O   -0.000614  -0.003813   0.007098  -0.000046  -0.000125
    24  Si   0.019202   0.006758  -0.023763   0.000143  -0.001130
    25  C    0.000041   0.000914   0.000290   0.000000   0.000053
    26  H   -0.000001   0.000057   0.000005   0.000000   0.000000
    27  H    0.000000   0.000003  -0.000006   0.000000   0.000000
    28  H   -0.000006   0.000193   0.000034   0.000000   0.000000
    29  C   -0.162872  -0.064077  -0.093326  -0.000006   0.000005
    30  C   -0.001201  -0.000428  -0.000718  -0.000010   0.000018
    31  H    0.000000   0.000000   0.000000   0.000000   0.000000
    32  H    0.000000   0.000000   0.000002   0.000000   0.000000
    33  H    0.000000  -0.000001   0.000000   0.000000   0.000000
    34  C    0.002401   0.001022  -0.002961   0.000002  -0.000001
    35  H    0.000039  -0.000153   0.000020   0.000000   0.000000
    36  H    0.005616   0.000026  -0.000310   0.000000   0.000000
    37  H   -0.000325   0.000032   0.003063   0.000000   0.000000
    38  C    0.010790  -0.003839   0.001538   0.000000   0.000000
    39  H   -0.000008   0.000033  -0.000146   0.000000   0.000000
    40  H   -0.000312   0.002775   0.000038   0.000000   0.000000
    41  H    0.005369  -0.000357   0.000011   0.000000   0.000000
    42  C    0.471626   0.415186   0.464201   0.000007   0.000004
    43  H    0.545757  -0.028297  -0.027656   0.000000   0.000000
    44  H   -0.028297   0.535860  -0.025976   0.000000   0.000000
    45  H   -0.027656  -0.025976   0.520943   0.000000   0.000000
    46  H    0.000000   0.000000   0.000000   0.522389  -0.031483
    47  H    0.000000   0.000000   0.000000  -0.031483   0.510588
 Mulliken atomic charges:
              1
     1  H    0.151124
     2  C    0.114649
     3  C   -0.178403
     4  C    0.332294
     5  C   -0.368031
     6  C   -0.340167
     7  C   -0.417641
     8  H    0.193524
     9  H    0.181695
    10  H    0.148742
    11  H    0.173804
    12  H    0.169941
    13  H    0.173390
    14  O   -0.384769
    15  C   -0.114724
    16  O   -0.563841
    17  H    0.399714
    18  O   -0.237404
    19  C   -0.162698
    20  H    0.177638
    21  H    0.161297
    22  H    0.143059
    23  O   -0.306988
    24  Si   0.708360
    25  C   -0.726123
    26  H    0.180079
    27  H    0.205242
    28  H    0.180709
    29  C   -0.008598
    30  C   -0.733147
    31  H    0.186159
    32  H    0.182835
    33  H    0.205817
    34  C   -0.585818
    35  H    0.163567
    36  H    0.161529
    37  H    0.171249
    38  C   -0.540812
    39  H    0.165478
    40  H    0.168454
    41  H    0.163791
    42  C   -0.554548
    43  H    0.160521
    44  H    0.164397
    45  H    0.177011
    46  H    0.173468
    47  H    0.184175
 Sum of Mulliken atomic charges =   0.00000
 Mulliken charges with hydrogens summed into heavy atoms:
              1
     2  C    0.265773
     3  C    0.185063
     4  C    0.513989
     5  C   -0.368031
     6  C   -0.191426
     7  C   -0.070447
    14  O   -0.384769
    15  C    0.242919
    16  O   -0.164127
    18  O   -0.237404
    19  C    0.319295
    23  O   -0.306988
    24  Si   0.708360
    25  C   -0.160093
    29  C   -0.008598
    30  C   -0.158336
    34  C   -0.089472
    38  C   -0.043089
    42  C   -0.052619
 Sum of Mulliken charges with hydrogens summed into heavy atoms =   0.00000
 Electronic spatial extent (au):  <R**2>=           6310.0650
 Charge=              0.0000 electrons
 Dipole moment (field-independent basis, Debye):
    X=              0.5098    Y=              0.2566    Z=             -2.9421  Tot=              2.9970
 Quadrupole moment (field-independent basis, Debye-Ang):
   XX=           -124.4895   YY=           -126.1787   ZZ=           -124.4836
   XY=             -0.0072   XZ=             -8.2231   YZ=              2.9642
 Traceless Quadrupole moment (field-independent basis, Debye-Ang):
   XX=              0.5611   YY=             -1.1281   ZZ=              0.5670
   XY=             -0.0072   XZ=             -8.2231   YZ=              2.9642
 Octapole moment (field-independent basis, Debye-Ang**2):
  XXX=             51.2266  YYY=             22.7877  ZZZ=              2.1109  XYY=              9.3109
  XXY=             11.6297  XXZ=            -25.6327  XZZ=             16.9983  YZZ=              3.4504
  YYZ=            -13.5144  XYZ=             12.8426
 Hexadecapole moment (field-independent basis, Debye-Ang**3):
 XXXX=          -5612.9389 YYYY=          -1870.8517 ZZZZ=           -910.3350 XXXY=             -4.8011
 XXXZ=            -66.8981 YYYX=             25.3424 YYYZ=             16.4443 ZZZX=             32.1317
 ZZZY=              2.7244 XXYY=          -1300.8801 XXZZ=          -1099.1627 YYZZ=           -502.9958
 XXYZ=             60.9536 YYXZ=            -47.1066 ZZXY=             15.1907
 N-N= 1.829398387886D+03 E-N=-6.329685084058D+03  KE= 1.131545012953D+03
 1\1\GINC-COMPUTE-8-17\SP\RmPW1PW91\6-31+G(d,p)\C14H28O4Si1\ELUCIANO.IQ
 UIR\07-Dec-2022\0\\# mPW1PW91/6-31+g** scrf=(PCM,solvent=chloroform) n
 mr\\comment\\0,1\H,0,0.070645,0.381982,-2.060044\C,0,0.487614,-0.09774
 6,-1.164106\C,0,1.813257,-2.113241,-0.354258\C,0,2.277544,0.207226,0.5
 99177\C,0,2.847854,-1.150534,0.186901\C,0,1.565252,0.854064,-0.597816\
 C,0,1.09927,-1.454824,-1.548376\H,0,1.080112,-2.341631,0.427869\H,0,1.
 526548,0.03615,1.384825\H,0,2.31274,1.034007,-1.388979\H,0,1.810505,-1
 .306154,-2.372499\H,0,2.288938,-3.055422,-0.646619\H,0,0.30057,-2.1042
 14,-1.921959\O,0,3.834719,-1.654748,1.106954\C,0,4.259541,-1.252906,-0
 .214449\O,0,3.302199,1.0653,1.080986\H,0,3.789216,0.536479,1.738101\O,
 0,0.921724,2.075391,-0.271624\C,0,1.743013,3.236312,-0.31449\H,0,2.515
 818,3.215213,0.458853\H,0,1.077922,4.08894,-0.152518\H,0,2.223701,3.34
 3568,-1.299364\O,0,-0.540828,-0.334443,-0.2146\Si,0,-1.961069,0.530866
 ,0.077986\C,0,-1.779544,1.507838,1.681435\H,0,-2.683172,2.085672,1.911
 074\H,0,-0.939696,2.203356,1.589705\H,0,-1.578191,0.850711,2.535349\C,
 0,-3.323268,-0.811097,0.250732\C,0,-2.329033,1.702235,-1.359557\H,0,-3
 .262524,2.250376,-1.183905\H,0,-2.431057,1.178212,-2.317094\H,0,-1.522
 394,2.435691,-1.458355\C,0,-3.47592,-1.581576,-1.077507\H,0,-3.795945,
 -0.926686,-1.897275\H,0,-4.232407,-2.374071,-0.97939\H,0,-2.535312,-2.
 059051,-1.376697\C,0,-4.67255,-0.152241,0.609168\H,0,-5.001316,0.55847
 ,-0.15966\H,0,-4.625903,0.385773,1.5637\H,0,-5.459878,-0.914468,0.7032
 56\C,0,-2.936376,-1.809587,1.362453\H,0,-3.699592,-2.596479,1.456319\H
 ,0,-2.851506,-1.321813,2.341175\H,0,-1.979225,-2.298446,1.148513\H,0,4
 .572482,-2.072771,-0.860929\H,0,4.881453,-0.361055,-0.244828\\Version=
 EM64L-G09RevC.01\State=1-A\HF=-1140.6254158\RMSD=4.322e-09\Dipole=0.20
 05773,0.100967,-1.1575102\Quadrupole=0.4171493,-0.838697,0.4215477,-0.
 0053167,-6.1136833,2.203789\PG=C01 [X(C14H28O4Si1)]\\@


 I DON'T EXACTLY UNDERSTAND WHAT YOU ARE SAYING,
 BUT YOU ARE ABSOLUTELY RIGHT.
     M.S.GORDON, IN A NDSU FACULTY MEETING
 Job cpu time:  0 days  4 hours  5 minutes 28.9 seconds.
 File lengths (MBytes):  RWF=    297 Int=      0 D2E=      0 Chk=     16 Scr=      1
 Normal termination of Gaussian 09 at Wed Dec  7 00:23:39 2022.
