 Entering Gaussian System, Link 0=g09
 Input=/home/eluciano.iquir/todos_optB3L_MPW_B_PCM/02_epoxido28_019_optB3L_nmr_MPW_B_PCM.gjc
 Output=/home/eluciano.iquir/todos_optB3L_MPW_B_PCM/02_epoxido28_019_optB3L_nmr_MPW_B_PCM.log
 Initial command:
 /share/apps/Gaussian09/EM64T.SSE4.2-enabled/g09/l1.exe /tmp/Gau-5668.inp -scrdir=/tmp/
 Entering Link 1 = /share/apps/Gaussian09/EM64T.SSE4.2-enabled/g09/l1.exe PID=      5669.
  
 Copyright (c) 1988,1990,1992,1993,1995,1998,2003,2009,2011,
            Gaussian, Inc.  All Rights Reserved.
  
 This is part of the Gaussian(R) 09 program.  It is based on
 the Gaussian(R) 03 system (copyright 2003, Gaussian, Inc.),
 the Gaussian(R) 98 system (copyright 1998, Gaussian, Inc.),
 the Gaussian(R) 94 system (copyright 1995, Gaussian, Inc.),
 the Gaussian 92(TM) system (copyright 1992, Gaussian, Inc.),
 the Gaussian 90(TM) system (copyright 1990, Gaussian, Inc.),
 the Gaussian 88(TM) system (copyright 1988, Gaussian, Inc.),
 the Gaussian 86(TM) system (copyright 1986, Carnegie Mellon
 University), and the Gaussian 82(TM) system (copyright 1983,
 Carnegie Mellon University). Gaussian is a federally registered
 trademark of Gaussian, Inc.
  
 This software contains proprietary and confidential information,
 including trade secrets, belonging to Gaussian, Inc.
  
 This software is provided under written license and may be
 used, copied, transmitted, or stored only in accord with that
 written license.
  
 The following legend is applicable only to US Government
 contracts under FAR:
  
                    RESTRICTED RIGHTS LEGEND
  
 Use, reproduction and disclosure by the US Government is
 subject to restrictions as set forth in subparagraphs (a)
 and (c) of the Commercial Computer Software - Restricted
 Rights clause in FAR 52.227-19.
  
 Gaussian, Inc.
 340 Quinnipiac St., Bldg. 40, Wallingford CT 06492
  
  
 ---------------------------------------------------------------
 Warning -- This program may not be used in any manner that
 competes with the business of Gaussian, Inc. or will provide
 assistance to any competitor of Gaussian, Inc.  The licensee
 of this program is prohibited from giving any competitor of
 Gaussian, Inc. access to this program.  By using this program,
 the user acknowledges that Gaussian, Inc. is engaged in the
 business of creating and licensing software in the field of
 computational chemistry and represents and warrants to the
 licensee that it is not a competitor of Gaussian, Inc. and that
 it will not use this program in any manner prohibited above.
 ---------------------------------------------------------------
  

 Cite this work as:
 Gaussian 09, Revision C.01,
 M. J. Frisch, G. W. Trucks, H. B. Schlegel, G. E. Scuseria, 
 M. A. Robb, J. R. Cheeseman, G. Scalmani, V. Barone, B. Mennucci, 
 G. A. Petersson, H. Nakatsuji, M. Caricato, X. Li, H. P. Hratchian, 
 A. F. Izmaylov, J. Bloino, G. Zheng, J. L. Sonnenberg, M. Hada, 
 M. Ehara, K. Toyota, R. Fukuda, J. Hasegawa, M. Ishida, T. Nakajima, 
 Y. Honda, O. Kitao, H. Nakai, T. Vreven, J. A. Montgomery, Jr., 
 J. E. Peralta, F. Ogliaro, M. Bearpark, J. J. Heyd, E. Brothers, 
 K. N. Kudin, V. N. Staroverov, T. Keith, R. Kobayashi, J. Normand, 
 K. Raghavachari, A. Rendell, J. C. Burant, S. S. Iyengar, J. Tomasi, 
 M. Cossi, N. Rega, J. M. Millam, M. Klene, J. E. Knox, J. B. Cross, 
 V. Bakken, C. Adamo, J. Jaramillo, R. Gomperts, R. E. Stratmann, 
 O. Yazyev, A. J. Austin, R. Cammi, C. Pomelli, J. W. Ochterski, 
 R. L. Martin, K. Morokuma, V. G. Zakrzewski, G. A. Voth, 
 P. Salvador, J. J. Dannenberg, S. Dapprich, A. D. Daniels, 
 O. Farkas, J. B. Foresman, J. V. Ortiz, J. Cioslowski, 
 and D. J. Fox, Gaussian, Inc., Wallingford CT, 2010.
 
 ******************************************
 Gaussian 09:  EM64L-G09RevC.01 23-Sep-2011
                 6-Dec-2022 
 ******************************************
 %nprocshared=4
 Will use up to    4 processors via shared memory.
 %mem=80MW
 -----------------------------------------------------
 # mPW1PW91/6-31+g** scrf=(PCM,solvent=chloroform) nmr
 -----------------------------------------------------
 1/38=1/1;
 2/12=2,17=6,18=5,40=1/2;
 3/5=1,6=6,7=111,11=2,16=1,25=1,30=1,70=2201,72=7,74=-7/1,2,8,3;
 4//1;
 5/5=2,38=5,53=7/2;
 8/6=1,10=90,11=11/1;
 10/13=100,45=16/2;
 6/7=2,8=2,9=2,10=2,28=1/1;
 99/9=1/99;
 -------
 comment
 -------
 Charge =  0 Multiplicity = 1
 Symbolic Z-Matrix:
 1                    -0.51516  -1.44151   0.56196 
 6                    -0.52396  -0.57234  -0.11166 
 6                    -2.67764  -1.42879  -1.13266 
 6                    -2.73136   0.07881   0.94249 
 6                    -3.44763  -0.41035  -0.3118 
 6                    -1.29484   0.54523   0.61723 
 6                    -1.23931  -0.95834  -1.41144 
 1                    -3.21391  -1.61472  -2.06947 
 1                    -3.30326   0.91899   1.36206 
 1                    -0.78518   0.77648   1.56589 
 1                    -0.67072  -1.74982  -1.91232 
 1                    -2.65488  -2.37396  -0.57325 
 1                    -1.24672  -0.08541  -2.07192 
 8                    -4.12189   0.62722  -1.0468 
 6                    -4.91942  -0.34651  -0.36387 
 8                    -2.6002   -0.9707    1.90619 
 1                    -3.4929   -1.27735   2.13027 
 8                    -1.30108   1.67963  -0.22811 
 6                    -1.60735   2.9064    0.40252 
 1                    -2.66233   2.97537   0.7039 
 1                    -1.40613   3.69254  -0.32991 
 1                    -0.97388   3.07301   1.28807 
 8                     0.79742  -0.14746  -0.40735 
 14                    2.20504  -0.60787   0.38208 
 6                     2.07049  -0.2599    2.23837 
 1                     2.96574  -0.5987    2.77408 
 1                     1.21279  -0.7853    2.67641 
 1                     1.94248   0.80883   2.44433 
 6                     3.55979   0.4542   -0.44657 
 6                     2.50061  -2.46252   0.14371 
 1                     2.56908  -2.72892  -0.91691 
 1                     1.68365  -3.05075   0.58008 
 1                     3.42776  -2.78739   0.63172 
 6                     3.63034   0.12493  -1.95364 
 1                     3.92366  -0.9171   -2.13274 
 1                     4.3774    0.76237  -2.44915 
 1                     2.66715   0.29325  -2.44752 
 6                     4.93387   0.17673   0.19936 
 1                     5.23611  -0.87282   0.09277 
 1                     4.94321   0.4214    1.26898 
 1                     5.71195   0.78839  -0.28013 
 6                     3.20853   1.94874  -0.27944 
 1                     3.95688   2.57618  -0.78574 
 1                     3.19377   2.24958   0.77574 
 1                     2.22732   2.17897  -0.70823 
 1                    -5.46477  -1.04021  -1.00487 
 1                    -5.4863    0.03165   0.48983 
 
                          Input orientation:                          
 ---------------------------------------------------------------------
 Center     Atomic      Atomic             Coordinates (Angstroms)
 Number     Number       Type             X           Y           Z
 ---------------------------------------------------------------------
      1          1           0       -0.515160   -1.441506    0.561956
      2          6           0       -0.523963   -0.572336   -0.111657
      3          6           0       -2.677639   -1.428789   -1.132657
      4          6           0       -2.731357    0.078807    0.942486
      5          6           0       -3.447633   -0.410350   -0.311801
      6          6           0       -1.294838    0.545226    0.617227
      7          6           0       -1.239306   -0.958344   -1.411443
      8          1           0       -3.213911   -1.614720   -2.069473
      9          1           0       -3.303257    0.918991    1.362056
     10          1           0       -0.785178    0.776482    1.565894
     11          1           0       -0.670715   -1.749816   -1.912319
     12          1           0       -2.654879   -2.373957   -0.573250
     13          1           0       -1.246718   -0.085410   -2.071920
     14          8           0       -4.121889    0.627216   -1.046802
     15          6           0       -4.919418   -0.346512   -0.363865
     16          8           0       -2.600204   -0.970701    1.906187
     17          1           0       -3.492897   -1.277347    2.130265
     18          8           0       -1.301083    1.679632   -0.228113
     19          6           0       -1.607350    2.906399    0.402524
     20          1           0       -2.662334    2.975365    0.703896
     21          1           0       -1.406125    3.692539   -0.329909
     22          1           0       -0.973882    3.073013    1.288070
     23          8           0        0.797415   -0.147460   -0.407347
     24         14           0        2.205036   -0.607874    0.382079
     25          6           0        2.070493   -0.259902    2.238369
     26          1           0        2.965741   -0.598704    2.774079
     27          1           0        1.212789   -0.785298    2.676407
     28          1           0        1.942482    0.808828    2.444331
     29          6           0        3.559788    0.454201   -0.446570
     30          6           0        2.500608   -2.462519    0.143708
     31          1           0        2.569078   -2.728920   -0.916912
     32          1           0        1.683645   -3.050751    0.580083
     33          1           0        3.427760   -2.787385    0.631723
     34          6           0        3.630341    0.124928   -1.953641
     35          1           0        3.923656   -0.917098   -2.132741
     36          1           0        4.377403    0.762373   -2.449151
     37          1           0        2.667153    0.293247   -2.447522
     38          6           0        4.933873    0.176732    0.199358
     39          1           0        5.236114   -0.872824    0.092765
     40          1           0        4.943206    0.421398    1.268977
     41          1           0        5.711949    0.788391   -0.280132
     42          6           0        3.208528    1.948736   -0.279439
     43          1           0        3.956876    2.576180   -0.785743
     44          1           0        3.193766    2.249584    0.775738
     45          1           0        2.227318    2.178973   -0.708226
     46          1           0       -5.464766   -1.040205   -1.004868
     47          1           0       -5.486300    0.031651    0.489826
 ---------------------------------------------------------------------
                    Distance matrix (angstroms):
                    1          2          3          4          5
     1  H    0.000000
     2  C    1.099677   0.000000
     3  C    2.747397   2.532642   0.000000
     4  C    2.714348   2.531362   2.565531   0.000000
     5  C    3.228952   2.934986   1.517865   1.524979   0.000000
     6  C    2.134961   1.540930   2.978417   1.544968   2.531945
     7  C    2.156881   1.533024   1.538779   2.973698   2.527097
     8  H    3.773285   3.486464   1.095346   3.488952   2.143489
     9  H    3.739731   3.481431   3.482393   1.099553   2.142379
    10  H    2.449545   2.168345   3.965704   2.159398   3.467416
    11  H    2.498257   2.156474   2.176850   3.967369   3.473773
    12  H    2.595487   2.828376   1.098543   2.884329   2.133675
    13  H    3.051471   2.145251   2.175872   3.364188   2.836835
    14  O    4.458274   3.906212   2.514038   2.488292   1.439233
    15  C    4.631808   4.408473   2.605367   2.583614   1.474089
    16  O    2.525079   2.922527   3.074153   1.430870   2.439590
    17  H    3.369489   3.786532   3.366636   1.957017   2.591798
    18  O    3.314119   2.385128   3.517867   2.445123   2.997116
    19  C    4.485819   3.679634   4.721880   3.090344   3.859757
    20  H    4.913171   4.221841   4.771764   2.907187   3.620967
    21  H    5.286555   4.360620   5.337523   4.053923   4.582770
    22  H    4.595492   3.930678   5.387850   3.489042   4.562110
    23  O    2.082536   1.419152   3.774106   3.784901   4.254253
    24  Si   2.850748   2.773531   5.177726   5.015333   5.698522
    25  C    3.300326   3.514461   5.939265   4.985158   6.080766
    26  H    4.209569   4.528377   6.913708   6.022514   7.119656
    27  H    2.808437   3.291650   5.482561   4.394252   5.548829
    28  H    3.827185   3.811042   6.256780   4.963188   6.175435
    29  C    4.606086   4.224094   6.551478   6.453596   7.061838
    30  C    3.211270   3.575756   5.432490   5.871102   6.308760
    31  H    3.654724   3.855670   5.409707   6.279753   6.476321
    32  H    2.724838   3.390365   4.958330   5.423810   5.839280
    33  H    4.166878   4.590770   6.498824   6.800467   7.335636
    34  C    5.095795   4.597535   6.548180   6.990056   7.285594
    35  H    5.219146   4.897444   6.696200   7.398516   7.609765
    36  H    6.153131   5.591844   7.503863   7.906006   8.196019
    37  H    4.710992   4.048298   5.767242   6.378248   6.515133
    38  C    5.695800   5.517772   7.892216   7.701791   8.417576
    39  H    5.798335   5.771531   8.027343   8.068967   8.705459
    40  H    5.810684   5.725696   8.201726   7.689141   8.578860
    41  H    6.667716   6.384870   8.719396   8.560825   9.237745
    42  C    5.105638   4.507266   6.839782   6.346020   7.061927
    43  H    6.160941   5.517741   7.757378   7.345482   7.998171
    44  H    5.236982   4.751022   7.186501   6.312461   7.236447
    45  H    4.716187   3.936387   6.103662   5.632407   6.250345
    46  H    5.207166   5.042644   2.816985   3.537782   2.223935
    47  H    5.185328   5.035014   3.557234   2.792281   2.234756
                    6          7          8          9         10
     6  C    0.000000
     7  C    2.525729   0.000000
     8  H    3.945449   2.182406   0.000000
     9  H    2.174446   3.934028   4.266505   0.000000
    10  H    1.101454   3.475685   4.983220   2.530332   0.000000
    11  H    3.472082   1.095719   2.551626   4.977383   4.300378
    12  H    3.433450   2.170340   1.768514   3.874185   4.242285
    13  H    2.762522   1.094668   2.491715   4.126786   3.766904
    14  O    3.281453   3.310022   2.626130   2.560837   4.240531
    15  C    3.859445   3.874917   2.725106   2.681842   4.698620
    16  O    2.379797   3.585926   4.073975   2.088372   2.542197
    17  H    3.231489   4.210004   4.222494   2.334525   3.445065
    18  O    1.414749   2.891886   4.231108   2.667567   2.073716
    19  C    2.391422   4.285110   5.397437   2.783270   2.562410
    20  H    2.789827   4.687615   5.391168   2.252250   3.016926
    21  H    3.288621   4.777893   5.870364   3.762237   3.533134
    22  H    2.634910   4.858977   6.185925   3.173527   2.320959
    23  O    2.430450   2.411218   4.583258   4.591690   2.692944
    24  Si   3.692432   3.899108   6.032316   5.799393   3.501320
    25  C    3.821228   4.976316   6.951112   5.570898   3.111458
    26  H    4.910511   5.943934   7.917094   6.602844   4.173756
    27  H    3.506952   4.770035   6.542705   5.002678   2.768441
    28  H    3.726666   5.302232   7.268865   5.357353   2.865803
    29  C    4.970648   5.094857   7.266171   7.112562   4.799230
    30  C    4.865816   4.320647   6.186490   6.826700   4.828057
    31  H    5.291830   4.228864   6.001067   7.279098   5.450064
    32  H    4.669453   4.109499   5.750512   6.421801   4.659895
    33  H    5.780090   5.413079   7.265218   7.718627   5.596666
    34  C    5.571661   5.018059   7.062831   7.726523   5.684053
    35  H    6.077285   5.213267   7.171858   8.234871   6.222639
    36  H    6.451678   5.965327   7.963842   8.575685   6.540109
    37  H    5.015332   4.230882   6.194366   7.109869   5.315977
    38  C    6.253578   6.480063   8.645420   8.351834   5.910555
    39  H    6.703675   6.648385   8.753777   8.817174   6.414536
    40  H    6.273221   6.878357   9.045971   8.261986   5.747054
    41  H    7.068200   7.256094   9.415289   9.164485   6.754303
    42  C    4.801474   5.432842   7.559773   6.793984   4.552924
    43  H    5.802896   6.315431   8.404272   7.750409   5.590723
    44  H    4.803908   5.892936   8.005398   6.657744   4.315828
    45  H    4.102626   4.728081   6.771416   6.038285   4.026628
    46  H    4.746902   4.245765   2.555347   3.756714   5.639833
    47  H    4.224730   4.757297   3.797934   2.512734   4.879882
                   11         12         13         14         15
    11  H    0.000000
    12  H    2.473775   0.000000
    13  H    1.768474   3.076748   0.000000
    14  O    4.279019   3.373931   3.134535   0.000000
    15  C    4.734812   3.046722   4.058861   1.431992   0.000000
    16  O    4.348671   2.849513   4.294299   3.686327   3.304770
    17  H    4.952820   3.035428   4.911659   3.757226   3.020282
    18  O    3.872341   4.287595   2.553028   3.120061   4.149221
    19  C    5.283571   5.470979   3.899211   3.690275   4.705165
    20  H    5.756602   5.499673   4.367776   3.272468   4.155648
    21  H    5.715250   6.198466   4.163281   4.157585   5.353346
    22  H    5.796040   5.996644   4.619481   4.619902   5.476248
    23  O    2.643462   4.111344   2.636879   5.020814   5.720463
    24  Si   3.852043   5.258372   4.267281   6.602812   7.168165
    25  C    5.192521   5.890974   5.441776   7.065757   7.459087
    26  H    6.042450   6.778459   6.441427   8.144723   8.490349
    27  H    5.053146   5.295561   5.393109   6.657047   6.858553
    28  H    5.688221   6.353868   5.600641   6.999828   7.503762
    29  C    4.990317   6.829100   5.102494   7.707034   8.517330
    30  C    3.846100   5.205854   4.960051   7.404137   7.732522
    31  H    3.527852   5.247269   4.783564   7.486625   7.877773
    32  H    3.667085   4.539936   4.940991   7.062466   7.197526
    33  H    4.934187   6.214610   6.038303   8.454238   8.753539
    34  C    4.692063   6.903180   4.883025   7.821235   8.709077
    35  H    4.674425   6.916037   5.237191   8.264077   9.036285
    36  H    5.664166   7.925185   5.700156   8.615266   9.592128
    37  H    3.949926   6.241065   3.950044   6.940075   7.893477
    38  C    6.291437   8.043140   6.589926   9.152195   9.883236
    39  H    6.299215   8.060071   6.879898   9.545730  10.179408
    40  H    6.808151   8.302934   7.052206   9.358480  10.026326
    41  H    7.060094   8.949311   7.238583   9.864995  10.692099
    42  C    5.603045   7.290510   5.215358   7.488009   8.446230
    43  H    6.434129   8.262222   5.984622   8.314629   9.354609
    44  H    6.176979   7.576513   5.768817   7.711844   8.594310
    45  H    5.028302   6.677068   4.365320   6.544846   7.587654
    46  H    4.930511   3.140168   4.454454   2.141348   1.090642
    47  H    5.668667   3.864457   4.954826   2.139519   1.092314
                   16         17         18         19         20
    16  O    0.000000
    17  H    0.970126   0.000000
    18  O    3.642419   4.371467   0.000000
    19  C    4.275356   4.903479   1.412961   0.000000
    20  H    4.125627   4.561789   2.097753   1.099351   0.000000
    21  H    5.307707   5.925103   2.018215   1.093145   1.777963
    22  H    4.402115   5.097093   2.085038   1.101469   1.789320
    23  O    4.192133   5.111056   2.788204   3.970496   4.791321
    24  Si   5.054194   5.997565   4.230590   5.185057   6.052641
    25  C    4.736137   5.656694   4.605741   5.188672   5.934746
    26  H    5.645473   6.526029   5.692957   6.230825   6.981035
    27  H    3.894423   4.762758   4.564172   5.172268   5.748910
    28  H    4.908393   5.830447   4.291966   4.601096   5.378413
    29  C    6.746207   7.705758   5.017716   5.782175   6.811361
    30  C    5.599119   6.424418   5.634583   6.765174   7.519333
    31  H    6.146763   6.938292   5.906600   7.137246   7.907816
    32  H    4.943331   5.687232   5.651399   6.808070   7.430810
    33  H    6.423469   7.240258   6.561670   7.604212   8.384733
    34  C    7.410693   8.329777   5.451009   6.381340   7.401706
    35  H    7.673106   8.562024   6.137468   7.186009   8.159230
    36  H    8.405921   9.331298   6.166002   6.967508   8.024770
    37  H    6.949633   7.833844   4.753392   5.763914   6.747490
    38  C    7.809749   8.766596   6.427761   7.090836   8.111058
    39  H    8.044001   8.972774   7.025165   7.823776   8.807243
    40  H    7.697208   8.648433   6.543361   7.059444   8.042780
    41  H    8.773043   9.736862   7.069628   7.650106   8.710900
    42  C    6.858676   7.818144   4.517925   4.957305   6.040524
    43  H    7.926043   8.879859   5.362917   5.699266   6.796493
    44  H    6.724451   7.680198   4.640714   4.860186   5.901341
    45  H    6.329342   7.261132   3.595756   4.058028   5.151410
    46  H    4.084702   3.711275   5.033599   5.695269   5.186357
    47  H    3.367542   2.894507   4.554923   4.828877   4.084858
                   21         22         23         24         25
    21  H    0.000000
    22  H    1.785638   0.000000
    23  O    4.427999   4.047639   0.000000
    24  Si   5.660474   4.947249   1.678264   0.000000
    25  C    5.857023   4.612983   2.938228   1.893409   0.000000
    26  H    6.867512   5.586623   3.876433   2.510064   1.096923
    27  H    5.995638   4.647104   3.176305   2.505988   1.097075
    28  H    5.217793   3.868934   3.218343   2.515723   1.095897
    29  C    5.929649   5.515552   2.827409   1.910501   3.152275
    30  C    7.305588   6.635040   2.926436   1.893117   3.069874
    31  H    7.575087   7.146813   3.172126   2.513710   4.037380
    32  H    7.473067   6.712986   3.192103   2.505734   3.269312
    33  H    8.141290   7.358635   3.868796   2.511502   3.288108
    34  C    6.382033   6.356002   3.238933   2.832681   4.489339
    35  H    7.273618   7.183927   3.652767   3.061633   4.792987
    36  H    6.821016   6.924026   4.220554   3.822645   5.323507
    37  H    5.712361   5.910912   2.802224   3.005364   4.756002
    38  C    7.268879   6.668981   4.193266   2.845267   3.542197
    39  H    8.070968   7.454021   4.525297   3.056360   3.873041
    40  H    7.319208   6.484085   4.507909   3.056724   3.107470
    41  H    7.687882   7.237340   5.004463   3.832299   4.549941
    42  C    4.933398   4.605826   3.197478   2.825041   3.537310
    43  H    5.496892   5.372143   4.188507   3.817192   4.554894
    44  H    4.946066   4.278996   3.589987   3.049200   3.114250
    45  H    3.954227   3.877136   2.747261   2.992621   3.828202
    46  H    6.271124   6.507240   6.353655   7.806177   8.240606
    47  H    5.542733   5.499908   6.349966   7.718630   7.761928
                   26         27         28         29         30
    26  H    0.000000
    27  H    1.765559   0.000000
    28  H    1.771141   1.768488   0.000000
    29  C    3.440070   4.098506   3.331478   0.000000
    30  C    3.257147   3.299411   4.038079   3.158725   0.000000
    31  H    4.280021   4.304547   4.919984   3.366747   1.095706
    32  H    3.531278   3.122268   4.294039   4.105925   1.097209
    33  H    3.097334   3.618727   4.292359   3.418776   1.096954
    34  C    4.828734   5.301925   4.760120   1.544235   3.517108
    35  H    5.009577   5.522144   5.277638   2.203641   3.097678
    36  H    5.579198   6.219438   5.466001   2.184902   4.543700
    37  H    5.305643   5.434435   4.972042   2.196932   3.786351
    38  C    3.332271   4.572498   3.793134   1.543477   3.590198
    39  H    3.524086   4.782260   4.382445   2.204982   3.164288
    40  H    2.686319   4.165691   3.245906   2.204092   3.943284
    41  H    4.335193   5.608927   4.651021   2.184303   4.589201
    42  C    3.984014   4.493878   3.212660   1.544329   4.487691
    43  H    4.871814   5.551219   4.196986   2.185295   5.326639
    44  H    3.486848   4.092349   2.534895   2.202591   4.804565
    45  H    4.515219   4.612148   3.449209   2.195172   4.726936
    46  H    9.249260   7.629319   8.377543   9.164471   8.172477
    47  H    8.777936   7.094106   7.720809   9.104235   8.374448
                   31         32         33         34         35
    31  H    0.000000
    32  H    1.768774   0.000000
    33  H    1.771729   1.764643   0.000000
    34  C    3.216448   4.504922   3.899579   0.000000
    35  H    2.568233   4.114552   3.374337   1.097237   0.000000
    36  H    4.219825   5.565295   4.795246   1.099985   1.768226
    37  H    3.389082   4.616926   4.421602   1.095436   1.772801
    38  C    3.909108   4.596257   3.352806   2.517396   2.766891
    39  H    3.402590   4.195340   2.688152   2.786000   2.584063
    40  H    4.509889   4.811978   3.605407   3.492388   3.795094
    41  H    4.759685   5.630827   4.339951   2.752073   3.088502
    42  C    4.764004   5.297067   4.827952   2.511405   3.486996
    43  H    5.485187   6.220564   5.572881   2.734821   3.744129
    44  H    5.295357   5.514735   5.044457   3.486298   4.361177
    45  H    4.924202   5.413440   5.282162   2.781840   3.806897
    46  H    8.209881   7.593033   9.209131   9.218388   9.456729
    47  H    8.630688   7.804964   9.350271   9.438876   9.814543
                   36         37         38         39         40
    36  H    0.000000
    37  H    1.773425   0.000000
    38  C    2.768977   3.486771   0.000000
    39  H    3.142068   3.796359   1.097397   0.000000
    40  H    3.776357   4.359955   1.097285   1.773212   0.000000
    41  H    2.546828   3.770084   1.099745   1.767797   1.767877
    42  C    2.735210   2.781064   2.519139   3.494401   2.781989
    43  H    2.496731   3.104300   2.771696   3.782044   3.136528
    44  H    3.743354   3.807096   2.767111   3.793029   2.578001
    45  H    3.108125   2.602800   3.486849   4.359806   3.791365
    46  H   10.109576   8.365850  10.538633  10.758329  10.753257
    47  H   10.318148   8.670366  10.425230  10.767818  10.465829
                   41         42         43         44         45
    41  H    0.000000
    42  C    2.759260   0.000000
    43  H    2.555800   1.100025   0.000000
    44  H    3.096965   1.097327   1.768396   0.000000
    45  H    3.776193   1.095281   1.776275   1.772331   0.000000
    46  H   11.348478   9.202502  10.094236   9.432044   8.343816
    47  H   11.250168   8.936835   9.862823   8.963510   8.096062
                   46         47
    46  H    0.000000
    47  H    1.839415   0.000000
 Stoichiometry    C14H28O4Si
 Framework group  C1[X(C14H28O4Si)]
 Deg. of freedom   135
 Full point group                 C1      NOp   1
 Largest Abelian subgroup         C1      NOp   1
 Largest concise Abelian subgroup C1      NOp   1
                         Standard orientation:                         
 ---------------------------------------------------------------------
 Center     Atomic      Atomic             Coordinates (Angstroms)
 Number     Number       Type             X           Y           Z
 ---------------------------------------------------------------------
      1          1           0       -0.515160   -1.441506    0.561956
      2          6           0       -0.523963   -0.572336   -0.111657
      3          6           0       -2.677639   -1.428789   -1.132657
      4          6           0       -2.731357    0.078807    0.942486
      5          6           0       -3.447633   -0.410350   -0.311801
      6          6           0       -1.294838    0.545226    0.617227
      7          6           0       -1.239306   -0.958344   -1.411443
      8          1           0       -3.213911   -1.614720   -2.069473
      9          1           0       -3.303257    0.918991    1.362056
     10          1           0       -0.785178    0.776482    1.565894
     11          1           0       -0.670715   -1.749816   -1.912319
     12          1           0       -2.654879   -2.373957   -0.573250
     13          1           0       -1.246718   -0.085410   -2.071920
     14          8           0       -4.121889    0.627216   -1.046802
     15          6           0       -4.919418   -0.346512   -0.363865
     16          8           0       -2.600204   -0.970701    1.906187
     17          1           0       -3.492897   -1.277347    2.130265
     18          8           0       -1.301083    1.679632   -0.228113
     19          6           0       -1.607350    2.906399    0.402524
     20          1           0       -2.662334    2.975365    0.703896
     21          1           0       -1.406125    3.692539   -0.329909
     22          1           0       -0.973882    3.073013    1.288070
     23          8           0        0.797415   -0.147460   -0.407347
     24         14           0        2.205036   -0.607874    0.382079
     25          6           0        2.070493   -0.259902    2.238369
     26          1           0        2.965741   -0.598704    2.774079
     27          1           0        1.212789   -0.785298    2.676407
     28          1           0        1.942482    0.808828    2.444331
     29          6           0        3.559788    0.454201   -0.446570
     30          6           0        2.500608   -2.462519    0.143708
     31          1           0        2.569078   -2.728920   -0.916912
     32          1           0        1.683645   -3.050751    0.580083
     33          1           0        3.427760   -2.787385    0.631723
     34          6           0        3.630341    0.124928   -1.953641
     35          1           0        3.923656   -0.917098   -2.132741
     36          1           0        4.377403    0.762373   -2.449151
     37          1           0        2.667153    0.293247   -2.447522
     38          6           0        4.933873    0.176732    0.199358
     39          1           0        5.236114   -0.872824    0.092765
     40          1           0        4.943206    0.421398    1.268977
     41          1           0        5.711949    0.788391   -0.280132
     42          6           0        3.208528    1.948736   -0.279439
     43          1           0        3.956876    2.576180   -0.785743
     44          1           0        3.193766    2.249584    0.775738
     45          1           0        2.227318    2.178973   -0.708226
     46          1           0       -5.464766   -1.040205   -1.004868
     47          1           0       -5.486300    0.031651    0.489826
 ---------------------------------------------------------------------
 Rotational constants (GHZ):      0.6616362      0.1862133      0.1781081
 Standard basis: 6-31+G(d,p) (6D, 7F)
 There are   505 symmetry adapted basis functions of A   symmetry.
 Integral buffers will be    131072 words long.
 Raffenetti 2 integral format.
 Two-electron integral symmetry is turned on.
   505 basis functions,   828 primitive gaussians,   505 cartesian basis functions
    79 alpha electrons       79 beta electrons
       nuclear repulsion energy      1806.9118652897 Hartrees.
 NAtoms=   47 NActive=   47 NUniq=   47 SFac= 1.00D+00 NAtFMM=   60 NAOKFM=F Big=F
 ------------------------------------------------------------------------------
 Polarizable Continuum Model (PCM)
 =================================
 Model                : PCM.
 Atomic radii         : UFF (Universal Force Field).
 Polarization charges : Total charges.
 Charge compensation  : None.
 Solution method      : Matrix inversion.
 Cavity type          : Scaled VdW (van der Waals Surface) (Alpha=1.100).
 Cavity algorithm     : GePol (No added spheres)
                        Default sphere list used, NSphG=   47.
                        Lebedev-Laikov grids with approx.  5.0 points / Ang**2.
                        Smoothing algorithm: Karplus/York (Gamma=1.0000).
                        Polarization charges: spherical gaussians, with
                                              point-specific exponents (IZeta= 3).
                        Self-potential: point-specific (ISelfS= 7).
                        Self-field    : sphere-specific E.n sum rule (ISelfD= 2).
 Solvent              : Chloroform, Eps=   4.711300 Eps(inf)=   2.090627
 ------------------------------------------------------------------------------
 One-electron integrals computed using PRISM.
 NBasis=   505 RedAO= T  NBF=   505
 NBsUse=   505 1.00D-06 NBFU=   505
 Harris functional with IExCor=  908 diagonalized for initial guess.
 ExpMin= 3.31D-02 ExpMax= 1.61D+04 ExpMxC= 2.43D+03 IAcc=3 IRadAn=         5 AccDes= 0.00D+00
 HarFok:  IExCor=  908 AccDes= 0.00D+00 IRadAn=         5 IDoV= 1
 ScaDFX=  1.000000  1.000000  1.000000  1.000000
 FoFCou: FMM=F IPFlag=           0 FMFlag=      100000 FMFlg1=           0
         NFxFlg=           0 DoJE=T BraDBF=F KetDBF=T FulRan=T
         Omega=  0.000000  0.000000  1.000000  0.000000  0.000000 ICntrl=     500 IOpCl=  0
         NMat0=    1 NMatS0=    1 NMatT0=    0 NMatD0=    1 NMtDS0=    0 NMtDT0=    0
         I1Cent=           4 NGrid=           0.
 Petite list used in FoFCou.
 Initial guess orbital symmetries:
       Occupied  (A) (A) (A) (A) (A) (A) (A) (A) (A) (A) (A) (A)
                 (A) (A) (A) (A) (A) (A) (A) (A) (A) (A) (A) (A)
                 (A) (A) (A) (A) (A) (A) (A) (A) (A) (A) (A) (A)
                 (A) (A) (A) (A) (A) (A) (A) (A) (A) (A) (A) (A)
                 (A) (A) (A) (A) (A) (A) (A) (A) (A) (A) (A) (A)
                 (A) (A) (A) (A) (A) (A) (A) (A) (A) (A) (A) (A)
                 (A) (A) (A) (A) (A) (A) (A)
       Virtual   (A) (A) (A) (A) (A) (A) (A) (A) (A) (A) (A) (A)
                 (A) (A) (A) (A) (A) (A) (A) (A) (A) (A) (A) (A)
                 (A) (A) (A) (A) (A) (A) (A) (A) (A) (A) (A) (A)
                 (A) (A) (A) (A) (A) (A) (A) (A) (A) (A) (A) (A)
                 (A) (A) (A) (A) (A) (A) (A) (A) (A) (A) (A) (A)
                 (A) (A) (A) (A) (A) (A) (A) (A) (A) (A) (A) (A)
                 (A) (A) (A) (A) (A) (A) (A) (A) (A) (A) (A) (A)
                 (A) (A) (A) (A) (A) (A) (A) (A) (A) (A) (A) (A)
                 (A) (A) (A) (A) (A) (A) (A) (A) (A) (A) (A) (A)
                 (A) (A) (A) (A) (A) (A) (A) (A) (A) (A) (A) (A)
                 (A) (A) (A) (A) (A) (A) (A) (A) (A) (A) (A) (A)
                 (A) (A) (A) (A) (A) (A) (A) (A) (A) (A) (A) (A)
                 (A) (A) (A) (A) (A) (A) (A) (A) (A) (A) (A) (A)
                 (A) (A) (A) (A) (A) (A) (A) (A) (A) (A) (A) (A)
                 (A) (A) (A) (A) (A) (A) (A) (A) (A) (A) (A) (A)
                 (A) (A) (A) (A) (A) (A) (A) (A) (A) (A) (A) (A)
                 (A) (A) (A) (A) (A) (A) (A) (A) (A) (A) (A) (A)
                 (A) (A) (A) (A) (A) (A) (A) (A) (A) (A) (A) (A)
                 (A) (A) (A) (A) (A) (A) (A) (A) (A) (A) (A) (A)
                 (A) (A) (A) (A) (A) (A) (A) (A) (A) (A) (A) (A)
                 (A) (A) (A) (A) (A) (A) (A) (A) (A) (A) (A) (A)
                 (A) (A) (A) (A) (A) (A) (A) (A) (A) (A) (A) (A)
                 (A) (A) (A) (A) (A) (A) (A) (A) (A) (A) (A) (A)
                 (A) (A) (A) (A) (A) (A) (A) (A) (A) (A) (A) (A)
                 (A) (A) (A) (A) (A) (A) (A) (A) (A) (A) (A) (A)
                 (A) (A) (A) (A) (A) (A) (A) (A) (A) (A) (A) (A)
                 (A) (A) (A) (A) (A) (A) (A) (A) (A) (A) (A) (A)
                 (A) (A) (A) (A) (A) (A) (A) (A) (A) (A) (A) (A)
                 (A) (A) (A) (A) (A) (A) (A) (A) (A) (A) (A) (A)
                 (A) (A) (A) (A) (A) (A) (A) (A) (A) (A) (A) (A)
                 (A) (A) (A) (A) (A) (A) (A) (A) (A) (A) (A) (A)
                 (A) (A) (A) (A) (A) (A) (A) (A) (A) (A) (A) (A)
                 (A) (A) (A) (A) (A) (A) (A) (A) (A) (A) (A) (A)
                 (A) (A) (A) (A) (A) (A) (A) (A) (A) (A) (A) (A)
                 (A) (A) (A) (A) (A) (A) (A) (A) (A) (A) (A) (A)
                 (A) (A) (A) (A) (A) (A)
 The electronic state of the initial guess is 1-A.
 Requested convergence on RMS density matrix=1.00D-08 within 128 cycles.
 Requested convergence on MAX density matrix=1.00D-06.
 Requested convergence on             energy=1.00D-06.
 No special actions if energy rises.
 Error on total polarization charges =  0.01535
 SCF Done:  E(RmPW1PW91) =  -1140.62111102     A.U. after   13 cycles
             Convg  =    0.4236D-08             -V/T =  2.0080
 Range of M.O.s used for correlation:     1   505
 NBasis=   505 NAE=    79 NBE=    79 NFC=     0 NFV=     0
 NROrb=    505 NOA=    79 NOB=    79 NVA=   426 NVB=   426

 **** Warning!!: The largest alpha MO coefficient is  0.11084029D+03

 NEqPCM:  Using equilibrium solvation (IEInf=0, Eps=   4.7113, EpsInf=   2.0906)
          Differentiating once with respect to magnetic field using GIAOs.
          Electric field/nuclear overlap derivatives assumed to be zero.
 FoFCou: FMM=F IPFlag=           0 FMFlag=    10101102 FMFlg1=           0
         NFxFlg=    40000000 DoJE=F BraDBF=F KetDBF=T FulRan=T
         Omega=  0.000000  0.000000  1.000000  0.000000  0.000000 ICntrl=    6100 IOpCl=  0
         NMat0=    1 NMatS0=    1 NMatT0=    0 NMatD0=    1 NMtDS0=    0 NMtDT0=    0
         I1Cent=           7 NGrid=        3088.
 Symmetry not used in FoFCou.
          There are     3 degrees of freedom in the 1st order CPHF.  IDoFFX=0.
      3 vectors produced by pass  0 Test12= 1.12D-12 3.33D-08 XBig12= 1.62D+02 1.97D+00.
 AX will form     3 AO Fock derivatives at one time.
      3 vectors produced by pass  1 Test12= 1.12D-12 3.33D-08 XBig12= 4.19D-01 8.27D-02.
      3 vectors produced by pass  2 Test12= 1.12D-12 3.33D-08 XBig12= 7.90D-04 3.97D-03.
      3 vectors produced by pass  3 Test12= 1.12D-12 3.33D-08 XBig12= 3.27D-06 3.37D-04.
      3 vectors produced by pass  4 Test12= 1.12D-12 3.33D-08 XBig12= 1.92D-08 1.87D-05.
      3 vectors produced by pass  5 Test12= 1.12D-12 3.33D-08 XBig12= 6.69D-11 9.71D-07.
      2 vectors produced by pass  6 Test12= 1.12D-12 3.33D-08 XBig12= 2.02D-13 4.39D-08.
 Inverted reduced A of dimension    20 with in-core refinement.
 Calculating GIAO nuclear magnetic shielding tensors.
 SCF GIAO Magnetic shielding tensor (ppm):
      1  H    Isotropic =    27.3213   Anisotropy =     8.0402
   XX=    32.6160   YX=     1.1736   ZX=    -1.0866
   XY=    -0.8326   YY=    25.3151   ZY=    -2.2162
   XZ=    -0.1823   YZ=    -2.8022   ZZ=    24.0329
   Eigenvalues:    22.0692    27.2133    32.6815
      2  C    Isotropic =   126.8598   Anisotropy =    53.4696
   XX=   154.2536   YX=    11.5229   ZX=    -7.6049
   XY=    27.5980   YY=   113.8616   ZY=     4.9162
   XZ=    -5.6185   YZ=     6.2189   ZZ=   112.4641
   Eigenvalues:   100.8127   117.2604   162.5061
      3  C    Isotropic =   166.9265   Anisotropy =    22.2066
   XX=   174.6691   YX=    -8.7880   ZX=     0.4066
   XY=    -5.9792   YY=   160.7893   ZY=    10.7254
   XZ=    -4.0688   YZ=    14.4754   ZZ=   165.3212
   Eigenvalues:   149.4071   169.6416   181.7309
      4  C    Isotropic =   122.1867   Anisotropy =    41.9565
   XX=   105.8756   YX=    -4.4831   ZX=    15.1837
   XY=    -0.4214   YY=   125.5635   ZY=   -14.9798
   XZ=    10.9554   YZ=   -16.6439   ZZ=   135.1210
   Eigenvalues:   100.2996   116.1028   150.1577
      5  C    Isotropic =   137.2834   Anisotropy =    59.8501
   XX=    86.9628   YX=     2.7155   ZX=    -1.5603
   XY=     2.0013   YY=   154.1943   ZY=    14.1358
   XZ=    -2.4418   YZ=    10.2826   ZZ=   170.6931
   Eigenvalues:    86.8081   147.8587   177.1835
      6  C    Isotropic =   113.3406   Anisotropy =    46.0522
   XX=   100.3545   YX=     7.4420   ZX=    -2.5701
   XY=   -10.8137   YY=   128.3280   ZY=   -21.4912
   XZ=     9.9852   YZ=   -23.2490   ZZ=   111.3395
   Eigenvalues:    95.0392   100.9406   144.0421
      7  C    Isotropic =   167.2392   Anisotropy =    29.0950
   XX=   183.0190   YX=     5.7341   ZX=    -0.3351
   XY=     8.8752   YY=   152.3472   ZY=     7.9183
   XZ=     9.1675   YZ=     8.3576   ZZ=   166.3513
   Eigenvalues:   147.9131   167.1686   186.6359
      8  H    Isotropic =    30.5166   Anisotropy =    10.7016
   XX=    31.6456   YX=     1.7385   ZX=     3.5974
   XY=     1.4947   YY=    27.4105   ZY=     5.2933
   XZ=     2.3425   YZ=     5.1357   ZZ=    32.4935
   Eigenvalues:    24.1448    29.7539    37.6510
      9  H    Isotropic =    27.9620   Anisotropy =     4.2973
   XX=    27.0173   YX=    -1.3908   ZX=    -2.0034
   XY=    -0.3305   YY=    29.7405   ZY=     2.1390
   XZ=    -0.4215   YZ=     0.7510   ZZ=    27.1283
   Eigenvalues:    25.8094    27.2498    30.8269
     10  H    Isotropic =    28.1332   Anisotropy =     4.2927
   XX=    29.8453   YX=    -0.8333   ZX=     1.1336
   XY=    -0.8622   YY=    26.1269   ZY=    -1.8548
   XZ=     1.7853   YZ=     0.5239   ZZ=    28.4274
   Eigenvalues:    25.8833    27.5213    30.9950
     11  H    Isotropic =    30.1426   Anisotropy =     8.2425
   XX=    32.4577   YX=    -2.2474   ZX=    -1.1042
   XY=    -1.7325   YY=    29.1506   ZY=     4.6435
   XZ=    -1.8594   YZ=     4.8366   ZZ=    28.8193
   Eigenvalues:    24.2288    30.5613    35.6375
     12  H    Isotropic =    29.1731   Anisotropy =     7.7061
   XX=    28.0751   YX=     1.2926   ZX=    -0.5323
   XY=     0.3217   YY=    34.1659   ZY=    -0.9007
   XZ=    -1.0134   YZ=    -0.0973   ZZ=    25.2784
   Eigenvalues:    25.0700    28.1388    34.3105
     13  H    Isotropic =    29.2558   Anisotropy =     4.0804
   XX=    28.7914   YX=     0.9156   ZX=     0.2240
   XY=     0.2948   YY=    27.8857   ZY=    -1.5347
   XZ=    -0.3895   YZ=    -2.1823   ZZ=    31.0903
   Eigenvalues:    26.8924    28.8988    31.9761
     14  O    Isotropic =   296.6828   Anisotropy =   132.2639
   XX=   351.3493   YX=   -63.5399   ZX=    47.9968
   XY=   -15.0450   YY=   232.3749   ZY=   109.0513
   XZ=    29.6751   YZ=   101.4813   ZZ=   306.3242
   Eigenvalues:   143.4604   361.7293   384.8587
     15  C    Isotropic =   147.4306   Anisotropy =    44.2448
   XX=   114.3283   YX=     2.0889   ZX=    -5.2035
   XY=    -0.8266   YY=   161.3610   ZY=    12.1176
   XZ=     1.2882   YZ=    13.1961   ZZ=   166.6026
   Eigenvalues:   114.2275   151.1373   176.9272
     16  O    Isotropic =   293.3924   Anisotropy =    64.2357
   XX=   319.7670   YX=    42.5776   ZX=   -13.4494
   XY=    17.4911   YY=   269.9329   ZY=   -24.5128
   XZ=     9.2771   YZ=   -13.4943   ZZ=   290.4775
   Eigenvalues:   249.1908   294.7704   336.2162
     17  H    Isotropic =    30.5044   Anisotropy =    18.8970
   XX=    37.7144   YX=     5.1359   ZX=    -5.2792
   XY=     6.1135   YY=    25.3852   ZY=    -5.5326
   XZ=    -4.4982   YZ=    -6.3016   ZZ=    28.4136
   Eigenvalues:    20.6281    27.7828    43.1024
     18  O    Isotropic =   316.7618   Anisotropy =    44.1906
   XX=   296.3341   YX=    13.1637   ZX=     5.5646
   XY=     2.0053   YY=   310.1870   ZY=    -6.5455
   XZ=    -7.3910   YZ=   -11.6325   ZZ=   343.7643
   Eigenvalues:   292.8196   311.2435   346.2222
     19  C    Isotropic =   139.2860   Anisotropy =    83.3034
   XX=   113.1866   YX=   -15.4354   ZX=     1.9317
   XY=   -13.1055   YY=   178.8808   ZY=    30.6614
   XZ=     0.0150   YZ=    30.6067   ZZ=   125.7905
   Eigenvalues:   104.7793   118.2570   194.8216
     20  H    Isotropic =    28.0385   Anisotropy =     9.8305
   XX=    29.1155   YX=    -2.0875   ZX=    -1.2440
   XY=    -4.2348   YY=    31.3701   ZY=     3.2683
   XZ=    -2.1387   YZ=     2.4182   ZZ=    23.6299
   Eigenvalues:    22.6233    26.9000    34.5921
     21  H    Isotropic =    27.8206   Anisotropy =    10.6545
   XX=    24.4856   YX=    -1.1935   ZX=    -0.0308
   XY=    -0.0202   YY=    34.6859   ZY=    -2.8334
   XZ=    -0.4465   YZ=    -0.1277   ZZ=    24.2904
   Eigenvalues:    23.8994    24.6388    34.9236
     22  H    Isotropic =    28.5469   Anisotropy =     9.2053
   XX=    27.2322   YX=    -0.2060   ZX=     0.8462
   XY=     1.5727   YY=    30.8467   ZY=     6.1930
   XZ=     2.0082   YZ=     3.7138   ZZ=    27.5618
   Eigenvalues:    23.8088    27.1481    34.6838
     23  O    Isotropic =   284.6402   Anisotropy =    48.6735
   XX=   283.9945   YX=     0.9694   ZX=    13.6888
   XY=    10.1412   YY=   273.3399   ZY=    14.5818
   XZ=    27.2059   YZ=    15.2664   ZZ=   296.5863
   Eigenvalues:   264.2455   272.5859   317.0892
     24  Si   Isotropic =   381.3787   Anisotropy =    40.6820
   XX=   407.5878   YX=    -1.4837   ZX=    11.5361
   XY=    11.3954   YY=   370.5350   ZY=    -0.9526
   XZ=    -3.9448   YZ=    -5.9560   ZZ=   366.0132
   Eigenvalues:   363.3992   372.2367   408.5000
     25  C    Isotropic =   199.6387   Anisotropy =     7.7806
   XX=   201.1869   YX=    -4.0271   ZX=     1.7044
   XY=    -5.3672   YY=   197.6704   ZY=     2.6040
   XZ=     2.8302   YZ=     7.0776   ZZ=   200.0589
   Eigenvalues:   191.2416   202.8487   204.8258
     26  H    Isotropic =    31.6961   Anisotropy =    10.9480
   XX=    34.2229   YX=    -2.0158   ZX=     4.6077
   XY=    -2.1214   YY=    27.4641   ZY=    -2.0453
   XZ=     4.3424   YZ=    -1.7828   ZZ=    33.4013
   Eigenvalues:    26.7752    29.3183    38.9948
     27  H    Isotropic =    31.2634   Anisotropy =     8.5206
   XX=    34.0463   YX=     2.9846   ZX=    -2.5243
   XY=     2.4152   YY=    27.9674   ZY=    -1.8813
   XZ=    -2.5062   YZ=    -2.2127   ZZ=    31.7766
   Eigenvalues:    26.6793    30.1672    36.9438
     28  H    Isotropic =    31.4292   Anisotropy =     8.1868
   XX=    28.5554   YX=    -0.8760   ZX=    -0.4894
   XY=    -0.5490   YY=    35.1834   ZY=     2.6690
   XZ=    -0.8381   YZ=     3.6441   ZZ=    30.5488
   Eigenvalues:    28.3334    29.0671    36.8871
     29  C    Isotropic =   174.5378   Anisotropy =     7.8760
   XX=   175.9177   YX=    -2.8862   ZX=     3.4641
   XY=    -2.3375   YY=   173.0499   ZY=    -1.2193
   XZ=     2.8858   YZ=    -1.6042   ZZ=   174.6459
   Eigenvalues:   171.3805   172.4445   179.7885
     30  C    Isotropic =   200.9010   Anisotropy =     9.8838
   XX=   199.8769   YX=    -2.2135   ZX=     3.4887
   XY=    -4.1064   YY=   201.2231   ZY=     8.5970
   XZ=     5.0225   YZ=     3.2749   ZZ=   201.6031
   Eigenvalues:   191.9859   203.2270   207.4903
     31  H    Isotropic =    31.5435   Anisotropy =     9.2579
   XX=    27.8999   YX=    -0.4326   ZX=    -1.1766
   XY=    -0.3546   YY=    31.4460   ZY=     4.2509
   XZ=    -1.5184   YZ=     3.1364   ZZ=    35.2845
   Eigenvalues:    27.6303    29.2848    37.7154
     32  H    Isotropic =    31.2978   Anisotropy =     8.7844
   XX=    32.9559   YX=     2.8160   ZX=    -2.4557
   XY=     2.9663   YY=    33.4823   ZY=    -2.2872
   XZ=    -2.2309   YZ=    -1.9961   ZZ=    27.4553
   Eigenvalues:    26.4057    30.3338    37.1541
     33  H    Isotropic =    31.6789   Anisotropy =    10.8487
   XX=    34.8956   YX=    -3.7687   ZX=     3.4059
   XY=    -3.5816   YY=    31.8357   ZY=    -1.9533
   XZ=     3.6548   YZ=    -2.1396   ZZ=    28.3054
   Eigenvalues:    26.7200    29.4053    38.9114
     34  C    Isotropic =   170.3291   Anisotropy =    38.2084
   XX=   156.8542   YX=     1.3304   ZX=    -3.3297
   XY=     1.8339   YY=   161.1012   ZY=     7.3559
   XZ=     0.8554   YZ=    12.1929   ZZ=   193.0320
   Eigenvalues:   155.5879   159.5980   195.8014
     35  H    Isotropic =    30.5847   Anisotropy =     8.8080
   XX=    27.5664   YX=    -1.0273   ZX=    -2.5610
   XY=    -1.0636   YY=    33.1463   ZY=     2.7356
   XZ=    -2.9518   YZ=     4.2416   ZZ=    31.0415
   Eigenvalues:    25.9337    29.3637    36.4568
     36  H    Isotropic =    31.0449   Anisotropy =     9.7560
   XX=    30.7260   YX=     2.3149   ZX=    -3.8362
   XY=     2.0529   YY=    28.8496   ZY=    -1.7061
   XZ=    -4.5508   YZ=    -2.3324   ZZ=    33.5591
   Eigenvalues:    27.2214    28.3644    37.5489
     37  H    Isotropic =    30.1790   Anisotropy =     7.6822
   XX=    32.2659   YX=     0.3597   ZX=     1.7108
   XY=     0.4917   YY=    24.9349   ZY=    -0.2995
   XZ=     3.1691   YZ=    -0.7008   ZZ=    33.3363
   Eigenvalues:    24.8570    30.3795    35.3005
     38  C    Isotropic =   170.6974   Anisotropy =    39.3293
   XX=   186.7550   YX=    -9.2468   ZX=    17.1859
   XY=    -6.9719   YY=   159.1195   ZY=    -2.6226
   XZ=    13.6119   YZ=    -3.1782   ZZ=   166.2177
   Eigenvalues:   156.2906   158.8847   196.9170
     39  H    Isotropic =    30.6861   Anisotropy =     9.4171
   XX=    33.1230   YX=    -4.2390   ZX=     0.5183
   XY=    -3.1748   YY=    33.0933   ZY=    -0.6519
   XZ=     1.1465   YZ=    -1.3252   ZZ=    25.8419
   Eigenvalues:    25.6895    29.4046    36.9641
     40  H    Isotropic =    30.7185   Anisotropy =     8.9802
   XX=    31.5957   YX=     1.2213   ZX=     3.7246
   XY=     0.6458   YY=    25.8409   ZY=     0.2469
   XZ=     2.4688   YZ=     0.7875   ZZ=    34.7189
   Eigenvalues:    25.6932    29.7570    36.7053
     41  H    Isotropic =    30.8563   Anisotropy =    10.1992
   XX=    36.5535   YX=     3.3507   ZX=    -1.4528
   XY=     2.5096   YY=    28.2934   ZY=    -1.3011
   XZ=    -0.5236   YZ=    -0.9898   ZZ=    27.7219
   Eigenvalues:    26.6658    28.2473    37.6557
     42  C    Isotropic =   170.5295   Anisotropy =    37.9896
   XX=   160.8810   YX=    -6.7633   ZX=    -4.0429
   XY=   -11.9050   YY=   192.4929   ZY=     6.5133
   XZ=    -3.3520   YZ=     2.9115   ZZ=   158.2147
   Eigenvalues:   155.5206   160.2120   195.8559
     43  H    Isotropic =    31.0298   Anisotropy =     9.5490
   XX=    30.1026   YX=     2.9881   ZX=    -1.9173
   XY=     3.7446   YY=    34.8245   ZY=    -2.3350
   XZ=    -1.8498   YZ=    -1.8928   ZZ=    28.1625
   Eigenvalues:    27.0132    28.6805    37.3958
     44  H    Isotropic =    30.5585   Anisotropy =     8.0464
   XX=    27.4828   YX=     0.5634   ZX=    -1.6270
   XY=     0.5628   YY=    32.1392   ZY=     4.5196
   XZ=    -1.3321   YZ=     3.0324   ZZ=    32.0536
   Eigenvalues:    26.3665    29.3863    35.9228
     45  H    Isotropic =    30.0401   Anisotropy =     8.5973
   XX=    34.1011   YX=    -1.6077   ZX=     1.2594
   XY=    -3.1713   YY=    31.1485   ZY=    -2.1489
   XZ=     1.0779   YZ=    -1.4802   ZZ=    24.8708
   Eigenvalues:    24.3545    29.9942    35.7717
     46  H    Isotropic =    29.1501   Anisotropy =    11.3778
   XX=    31.1405   YX=     3.1828   ZX=     0.2514
   XY=     6.4070   YY=    28.7411   ZY=     3.5654
   XZ=     3.9537   YZ=     4.2396   ZZ=    27.5688
   Eigenvalues:    23.6827    27.0324    36.7353
     47  H    Isotropic =    29.1079   Anisotropy =    10.7707
   XX=    31.5268   YX=     0.9553   ZX=    -2.9714
   XY=    -1.7467   YY=    25.2207   ZY=     2.3197
   XZ=    -6.8420   YZ=     2.2458   ZZ=    30.5762
   Eigenvalues:    23.9906    27.0448    36.2884
 End of Minotr Frequency-dependent properties file   721 does not exist.
 End of Minotr Frequency-dependent properties file   722 does not exist.

 **********************************************************************

            Population analysis using the SCF density.

 **********************************************************************

 Orbital symmetries:
       Occupied  (A) (A) (A) (A) (A) (A) (A) (A) (A) (A) (A) (A)
                 (A) (A) (A) (A) (A) (A) (A) (A) (A) (A) (A) (A)
                 (A) (A) (A) (A) (A) (A) (A) (A) (A) (A) (A) (A)
                 (A) (A) (A) (A) (A) (A) (A) (A) (A) (A) (A) (A)
                 (A) (A) (A) (A) (A) (A) (A) (A) (A) (A) (A) (A)
                 (A) (A) (A) (A) (A) (A) (A) (A) (A) (A) (A) (A)
                 (A) (A) (A) (A) (A) (A) (A)
       Virtual   (A) (A) (A) (A) (A) (A) (A) (A) (A) (A) (A) (A)
                 (A) (A) (A) (A) (A) (A) (A) (A) (A) (A) (A) (A)
                 (A) (A) (A) (A) (A) (A) (A) (A) (A) (A) (A) (A)
                 (A) (A) (A) (A) (A) (A) (A) (A) (A) (A) (A) (A)
                 (A) (A) (A) (A) (A) (A) (A) (A) (A) (A) (A) (A)
                 (A) (A) (A) (A) (A) (A) (A) (A) (A) (A) (A) (A)
                 (A) (A) (A) (A) (A) (A) (A) (A) (A) (A) (A) (A)
                 (A) (A) (A) (A) (A) (A) (A) (A) (A) (A) (A) (A)
                 (A) (A) (A) (A) (A) (A) (A) (A) (A) (A) (A) (A)
                 (A) (A) (A) (A) (A) (A) (A) (A) (A) (A) (A) (A)
                 (A) (A) (A) (A) (A) (A) (A) (A) (A) (A) (A) (A)
                 (A) (A) (A) (A) (A) (A) (A) (A) (A) (A) (A) (A)
                 (A) (A) (A) (A) (A) (A) (A) (A) (A) (A) (A) (A)
                 (A) (A) (A) (A) (A) (A) (A) (A) (A) (A) (A) (A)
                 (A) (A) (A) (A) (A) (A) (A) (A) (A) (A) (A) (A)
                 (A) (A) (A) (A) (A) (A) (A) (A) (A) (A) (A) (A)
                 (A) (A) (A) (A) (A) (A) (A) (A) (A) (A) (A) (A)
                 (A) (A) (A) (A) (A) (A) (A) (A) (A) (A) (A) (A)
                 (A) (A) (A) (A) (A) (A) (A) (A) (A) (A) (A) (A)
                 (A) (A) (A) (A) (A) (A) (A) (A) (A) (A) (A) (A)
                 (A) (A) (A) (A) (A) (A) (A) (A) (A) (A) (A) (A)
                 (A) (A) (A) (A) (A) (A) (A) (A) (A) (A) (A) (A)
                 (A) (A) (A) (A) (A) (A) (A) (A) (A) (A) (A) (A)
                 (A) (A) (A) (A) (A) (A) (A) (A) (A) (A) (A) (A)
                 (A) (A) (A) (A) (A) (A) (A) (A) (A) (A) (A) (A)
                 (A) (A) (A) (A) (A) (A) (A) (A) (A) (A) (A) (A)
                 (A) (A) (A) (A) (A) (A) (A) (A) (A) (A) (A) (A)
                 (A) (A) (A) (A) (A) (A) (A) (A) (A) (A) (A) (A)
                 (A) (A) (A) (A) (A) (A) (A) (A) (A) (A) (A) (A)
                 (A) (A) (A) (A) (A) (A) (A) (A) (A) (A) (A) (A)
                 (A) (A) (A) (A) (A) (A) (A) (A) (A) (A) (A) (A)
                 (A) (A) (A) (A) (A) (A) (A) (A) (A) (A) (A) (A)
                 (A) (A) (A) (A) (A) (A) (A) (A) (A) (A) (A) (A)
                 (A) (A) (A) (A) (A) (A) (A) (A) (A) (A) (A) (A)
                 (A) (A) (A) (A) (A) (A) (A) (A) (A) (A) (A) (A)
                 (A) (A) (A) (A) (A) (A)
 The electronic state is 1-A.
 Alpha  occ. eigenvalues --  -66.30034 -19.26625 -19.26450 -19.25128 -19.22919
 Alpha  occ. eigenvalues --  -10.31617 -10.31096 -10.30384 -10.30247 -10.30202
 Alpha  occ. eigenvalues --  -10.28596 -10.25328 -10.24509 -10.24210 -10.23465
 Alpha  occ. eigenvalues --  -10.23047 -10.22976 -10.22235 -10.22218  -5.33454
 Alpha  occ. eigenvalues --   -3.67359  -3.67084  -3.67060  -1.11401  -1.07609
 Alpha  occ. eigenvalues --   -1.06455  -1.02803  -0.84186  -0.81951  -0.77537
 Alpha  occ. eigenvalues --   -0.74955  -0.72027  -0.70259  -0.70209  -0.69968
 Alpha  occ. eigenvalues --   -0.69280  -0.68724  -0.64455  -0.62365  -0.57554
 Alpha  occ. eigenvalues --   -0.56956  -0.54103  -0.53427  -0.52664  -0.50275
 Alpha  occ. eigenvalues --   -0.48478  -0.48134  -0.47591  -0.46281  -0.45533
 Alpha  occ. eigenvalues --   -0.44320  -0.44183  -0.43559  -0.43222  -0.42638
 Alpha  occ. eigenvalues --   -0.41731  -0.41396  -0.40990  -0.40122  -0.39930
 Alpha  occ. eigenvalues --   -0.39738  -0.39257  -0.38822  -0.38571  -0.38154
 Alpha  occ. eigenvalues --   -0.36967  -0.36019  -0.35634  -0.34239  -0.33557
 Alpha  occ. eigenvalues --   -0.33344  -0.32311  -0.31674  -0.31432  -0.30549
 Alpha  occ. eigenvalues --   -0.28660  -0.27628  -0.27128  -0.26840
 Alpha virt. eigenvalues --   -0.00297   0.00482   0.01138   0.01599   0.02292
 Alpha virt. eigenvalues --    0.02926   0.03188   0.03971   0.04216   0.04610
 Alpha virt. eigenvalues --    0.04954   0.05181   0.05678   0.05834   0.06301
 Alpha virt. eigenvalues --    0.06935   0.07310   0.07398   0.08091   0.08138
 Alpha virt. eigenvalues --    0.08495   0.08611   0.08998   0.09303   0.09472
 Alpha virt. eigenvalues --    0.09958   0.10366   0.10629   0.11189   0.11603
 Alpha virt. eigenvalues --    0.11704   0.12121   0.12389   0.12797   0.13119
 Alpha virt. eigenvalues --    0.13372   0.14017   0.14177   0.14340   0.14593
 Alpha virt. eigenvalues --    0.14713   0.14972   0.15470   0.15604   0.16492
 Alpha virt. eigenvalues --    0.16693   0.17210   0.17333   0.17687   0.18045
 Alpha virt. eigenvalues --    0.18349   0.18565   0.19097   0.19501   0.19926
 Alpha virt. eigenvalues --    0.20572   0.20701   0.20870   0.21126   0.21304
 Alpha virt. eigenvalues --    0.21414   0.21762   0.22548   0.22872   0.23082
 Alpha virt. eigenvalues --    0.23371   0.23849   0.24303   0.24323   0.24493
 Alpha virt. eigenvalues --    0.24738   0.25455   0.25950   0.26331   0.26590
 Alpha virt. eigenvalues --    0.26957   0.27072   0.27177   0.27609   0.28012
 Alpha virt. eigenvalues --    0.28227   0.28360   0.28911   0.29355   0.29746
 Alpha virt. eigenvalues --    0.30157   0.30404   0.30477   0.30688   0.31566
 Alpha virt. eigenvalues --    0.32079   0.32201   0.32412   0.33105   0.33484
 Alpha virt. eigenvalues --    0.33809   0.34287   0.34634   0.35445   0.36587
 Alpha virt. eigenvalues --    0.36636   0.36770   0.37633   0.37993   0.38277
 Alpha virt. eigenvalues --    0.38601   0.39575   0.40509   0.40771   0.41359
 Alpha virt. eigenvalues --    0.41768   0.43191   0.43402   0.44234   0.44663
 Alpha virt. eigenvalues --    0.45825   0.46520   0.47397   0.48230   0.48995
 Alpha virt. eigenvalues --    0.50113   0.50830   0.52735   0.53856   0.55401
 Alpha virt. eigenvalues --    0.55597   0.60285   0.64270   0.65873   0.67085
 Alpha virt. eigenvalues --    0.68348   0.68644   0.69055   0.70588   0.71258
 Alpha virt. eigenvalues --    0.71396   0.72066   0.72407   0.73005   0.73645
 Alpha virt. eigenvalues --    0.74523   0.75540   0.77323   0.78213   0.78606
 Alpha virt. eigenvalues --    0.79261   0.80405   0.80835   0.81263   0.81885
 Alpha virt. eigenvalues --    0.82766   0.82928   0.84208   0.85256   0.86064
 Alpha virt. eigenvalues --    0.86594   0.87268   0.88158   0.88832   0.89710
 Alpha virt. eigenvalues --    0.90856   0.91399   0.92320   0.93151   0.94664
 Alpha virt. eigenvalues --    0.95048   0.95719   0.96618   0.97267   0.97754
 Alpha virt. eigenvalues --    0.99059   0.99226   0.99970   1.00950   1.01055
 Alpha virt. eigenvalues --    1.02438   1.03687   1.04001   1.05075   1.05655
 Alpha virt. eigenvalues --    1.05846   1.06206   1.06427   1.07706   1.08283
 Alpha virt. eigenvalues --    1.08459   1.09013   1.10087   1.10752   1.11325
 Alpha virt. eigenvalues --    1.12050   1.13598   1.14696   1.15598   1.16794
 Alpha virt. eigenvalues --    1.17642   1.18344   1.19191   1.20112   1.20793
 Alpha virt. eigenvalues --    1.22074   1.23285   1.23484   1.25036   1.25539
 Alpha virt. eigenvalues --    1.27460   1.28452   1.29843   1.31006   1.33054
 Alpha virt. eigenvalues --    1.33903   1.35018   1.35827   1.36328   1.36718
 Alpha virt. eigenvalues --    1.38067   1.40278   1.41629   1.42130   1.44235
 Alpha virt. eigenvalues --    1.45622   1.47598   1.47897   1.48677   1.49615
 Alpha virt. eigenvalues --    1.51301   1.51516   1.52094   1.52900   1.54187
 Alpha virt. eigenvalues --    1.57667   1.58312   1.59874   1.61470   1.63320
 Alpha virt. eigenvalues --    1.65212   1.66159   1.66421   1.67864   1.68777
 Alpha virt. eigenvalues --    1.69887   1.70548   1.72715   1.75166   1.75425
 Alpha virt. eigenvalues --    1.77222   1.77830   1.79755   1.81307   1.82604
 Alpha virt. eigenvalues --    1.83479   1.84151   1.85271   1.86293   1.87083
 Alpha virt. eigenvalues --    1.89390   1.90758   1.91096   1.91917   1.93430
 Alpha virt. eigenvalues --    1.93490   1.94708   1.95709   1.95986   1.97083
 Alpha virt. eigenvalues --    1.97916   1.98744   2.00269   2.00543   2.02469
 Alpha virt. eigenvalues --    2.03586   2.03904   2.04925   2.06086   2.06389
 Alpha virt. eigenvalues --    2.06784   2.07711   2.08455   2.09330   2.09649
 Alpha virt. eigenvalues --    2.10816   2.11171   2.11346   2.12194   2.12935
 Alpha virt. eigenvalues --    2.13848   2.14237   2.14666   2.15625   2.15973
 Alpha virt. eigenvalues --    2.16134   2.16338   2.17146   2.17201   2.18040
 Alpha virt. eigenvalues --    2.18969   2.19630   2.20102   2.20842   2.21607
 Alpha virt. eigenvalues --    2.22032   2.22800   2.24584   2.25695   2.27600
 Alpha virt. eigenvalues --    2.28588   2.29224   2.30391   2.34762   2.35067
 Alpha virt. eigenvalues --    2.35852   2.37178   2.38033   2.39186   2.39758
 Alpha virt. eigenvalues --    2.40015   2.41461   2.42385   2.43085   2.43724
 Alpha virt. eigenvalues --    2.45815   2.46872   2.48247   2.49059   2.51022
 Alpha virt. eigenvalues --    2.55051   2.56979   2.57662   2.57964   2.58635
 Alpha virt. eigenvalues --    2.60196   2.60548   2.62525   2.63107   2.64295
 Alpha virt. eigenvalues --    2.67598   2.67993   2.68974   2.69287   2.70922
 Alpha virt. eigenvalues --    2.71719   2.72909   2.73432   2.73961   2.74214
 Alpha virt. eigenvalues --    2.76444   2.76964   2.78217   2.78359   2.79151
 Alpha virt. eigenvalues --    2.81077   2.82240   2.83120   2.85104   2.85484
 Alpha virt. eigenvalues --    2.85728   2.86666   2.87180   2.87715   2.88537
 Alpha virt. eigenvalues --    2.88784   2.88876   2.89461   2.90108   2.91130
 Alpha virt. eigenvalues --    2.92099   2.93991   2.94617   2.96660   2.97875
 Alpha virt. eigenvalues --    2.99238   2.99614   3.00747   3.03923   3.05558
 Alpha virt. eigenvalues --    3.09953   3.16521   3.17926   3.24578   3.26707
 Alpha virt. eigenvalues --    3.27439   3.27970   3.29948   3.30811   3.32110
 Alpha virt. eigenvalues --    3.32264   3.35729   3.39035   3.39965   3.46508
 Alpha virt. eigenvalues --    3.47774   3.47953   3.48258   3.48518   3.48751
 Alpha virt. eigenvalues --    3.49949   3.50217   3.50748   3.51412   3.52192
 Alpha virt. eigenvalues --    3.52842   3.53015   3.55466   3.55949   3.56376
 Alpha virt. eigenvalues --    3.57298   3.60041   3.62971   4.35042   4.43106
 Alpha virt. eigenvalues --    4.46489   4.49256   4.54646   4.57274   4.59923
 Alpha virt. eigenvalues --    4.62465   4.64006   4.65767   4.66476   4.68576
 Alpha virt. eigenvalues --    4.71462   4.73229   4.78620   4.85308   4.97309
 Alpha virt. eigenvalues --    5.04990
          Condensed to atoms (all electrons):
              1          2          3          4          5          6
     1  H    0.583580   0.254412  -0.016941  -0.040748  -0.000967   0.155801
     2  C    0.254412  13.158849   0.331221  -0.140746   0.383895  -5.128547
     3  C   -0.016941   0.331221   8.552077  -2.043879  -0.359454   0.379468
     4  C   -0.040748  -0.140746  -2.043879  11.062581  -2.669861  -1.582639
     5  C   -0.000967   0.383895  -0.359454  -2.669861  11.582787  -0.078875
     6  C    0.155801  -5.128547   0.379468  -1.582639  -0.078875  12.725494
     7  C   -0.095571  -0.995592  -0.475274   0.793034  -0.185779  -1.424376
     8  H   -0.000034   0.040163   0.409886   0.029276  -0.061462  -0.002773
     9  H   -0.000099  -0.030048   0.044873   0.198845  -0.019477   0.120221
    10  H   -0.004729   0.201536  -0.034248  -0.035113   0.046404   0.096006
    11  H   -0.005139  -0.055668   0.009391  -0.005000   0.011157   0.074408
    12  H    0.002696  -0.035174   0.333983   0.038404  -0.054819   0.035846
    13  H    0.004462  -0.108923  -0.083454   0.003683   0.009023   0.036381
    14  O    0.000160  -0.008290  -0.120342  -0.149420   0.264948   0.045920
    15  C   -0.008173  -0.539649  -0.219748   0.195023  -2.498484   0.108377
    16  O   -0.001820  -0.065121   0.006264   0.054083   0.034855   0.018887
    17  H   -0.000005  -0.014312  -0.009605   0.039334   0.013032   0.028220
    18  O    0.012516  -0.085214  -0.068086  -0.092735   0.104255   0.338561
    19  C    0.004649  -0.121616  -0.037724   0.077629  -0.155689  -0.007619
    20  H    0.000005  -0.019268   0.000417  -0.048109  -0.003599   0.065129
    21  H    0.000003  -0.007361   0.003734   0.018743  -0.002569  -0.004955
    22  H   -0.000008   0.025305  -0.003835   0.002589   0.000302  -0.056435
    23  O   -0.073670   0.162419   0.004630   0.071343   0.016464  -0.087921
    24  Si   0.099969  -0.796359  -0.099188  -0.112463   0.044582   0.486712
    25  C   -0.014776   0.165406   0.003275  -0.008123  -0.001063  -0.111857
    26  H   -0.000013   0.009293  -0.000002   0.000982   0.000043  -0.004188
    27  H    0.000536  -0.002579  -0.000908   0.002979   0.001807  -0.004415
    28  H    0.000035  -0.024305  -0.000442  -0.003169   0.000474   0.015117
    29  C    0.004153  -0.305180   0.001966  -0.017180   0.003495   0.163658
    30  C   -0.018565   0.063399   0.014218   0.003925  -0.010634  -0.050497
    31  H   -0.000042  -0.014466  -0.000194  -0.000088  -0.000454   0.003713
    32  H    0.001167  -0.019012   0.000689  -0.000647   0.000318   0.006794
    33  H   -0.000039   0.008700   0.000257   0.000143   0.000010  -0.002641
    34  C   -0.002323  -0.004007   0.021020   0.001657  -0.007718   0.037158
    35  H    0.000001  -0.001747  -0.000034  -0.000061   0.000056  -0.000075
    36  H    0.000000   0.000036  -0.000001  -0.000014   0.000021   0.000232
    37  H    0.000000   0.009709   0.000110   0.000762  -0.000375  -0.002541
    38  C    0.000912  -0.045510   0.001817  -0.005059  -0.000226   0.019150
    39  H    0.000000   0.000719   0.000008  -0.000018   0.000005  -0.000240
    40  H    0.000000  -0.000317   0.000004   0.000012  -0.000006   0.000306
    41  H    0.000000  -0.001014  -0.000003  -0.000004   0.000001   0.000171
    42  C    0.001359   0.140629  -0.011061   0.015822   0.003626  -0.106097
    43  H    0.000000   0.000863  -0.000013   0.000078   0.000027  -0.000090
    44  H    0.000000  -0.004039   0.000044   0.000023   0.000035   0.003210
    45  H    0.000000   0.008363   0.000327   0.000415  -0.000454  -0.005948
    46  H    0.000000   0.003544   0.064040  -0.033696  -0.109661  -0.006564
    47  H    0.000000  -0.005235  -0.030755   0.116430  -0.110183   0.005356
              7          8          9         10         11         12
     1  H   -0.095571  -0.000034  -0.000099  -0.004729  -0.005139   0.002696
     2  C   -0.995592   0.040163  -0.030048   0.201536  -0.055668  -0.035174
     3  C   -0.475274   0.409886   0.044873  -0.034248   0.009391   0.333983
     4  C    0.793034   0.029276   0.198845  -0.035113  -0.005000   0.038404
     5  C   -0.185779  -0.061462  -0.019477   0.046404   0.011157  -0.054819
     6  C   -1.424376  -0.002773   0.120221   0.096006   0.074408   0.035846
     7  C    7.883864  -0.035911  -0.038986   0.017373   0.306861  -0.019601
     8  H   -0.035911   0.523336  -0.000110   0.000011  -0.001936  -0.022583
     9  H   -0.038986  -0.000110   0.593901  -0.006637   0.000013  -0.000084
    10  H    0.017373   0.000011  -0.006637   0.598447  -0.000122  -0.000020
    11  H    0.306861  -0.001936   0.000013  -0.000122   0.537002  -0.004376
    12  H   -0.019601  -0.022583  -0.000084  -0.000020  -0.004376   0.529229
    13  H    0.451494  -0.003296  -0.000053  -0.000055  -0.025459   0.004192
    14  O    0.025519   0.000374   0.007213  -0.000311   0.000014   0.011047
    15  C    0.067452  -0.048893   0.013911   0.013650   0.003606  -0.008637
    16  O   -0.012841   0.000370  -0.030464   0.004143   0.000427   0.002878
    17  H    0.011575  -0.000023  -0.008139  -0.000098  -0.000005   0.000049
    18  O   -0.039794   0.000557  -0.011878  -0.043444  -0.001435   0.000894
    19  C   -0.040868  -0.000055   0.014555  -0.004712   0.000173   0.001090
    20  H   -0.001787   0.000001   0.002358  -0.001563   0.000000   0.000000
    21  H    0.003084   0.000000  -0.000007  -0.000074  -0.000001   0.000000
    22  H   -0.001185   0.000000  -0.000351   0.011343   0.000001   0.000000
    23  O   -0.020384  -0.000698  -0.000974   0.003865  -0.002723  -0.000237
    24  Si  -0.055135  -0.000589   0.003356  -0.005570  -0.014807   0.003886
    25  C   -0.002747   0.000037  -0.000661   0.002636   0.000486  -0.000146
    26  H   -0.000451   0.000000   0.000000   0.000073   0.000000   0.000000
    27  H    0.002447   0.000000   0.000000   0.000149   0.000000   0.000000
    28  H   -0.000298   0.000000   0.000000   0.000105   0.000000   0.000000
    29  C    0.074222  -0.000046  -0.000031  -0.006892  -0.002118  -0.000002
    30  C   -0.000383   0.000021  -0.000056   0.000038   0.003601  -0.000998
    31  H    0.004931   0.000000   0.000000   0.000000  -0.000006   0.000000
    32  H    0.003133   0.000000   0.000000   0.000000  -0.000005  -0.000001
    33  H    0.000548   0.000000   0.000000   0.000000   0.000001   0.000000
    34  C   -0.004546   0.000003   0.000018   0.000058   0.002536  -0.000016
    35  H   -0.000001   0.000000   0.000000   0.000000  -0.000001   0.000000
    36  H   -0.000129   0.000000   0.000000   0.000000   0.000000   0.000000
    37  H   -0.001808   0.000000   0.000000   0.000000  -0.000010   0.000000
    38  C   -0.006358  -0.000002   0.000002  -0.000254  -0.000091   0.000002
    39  H   -0.000070   0.000000   0.000000   0.000000   0.000000   0.000000
    40  H   -0.000084   0.000000   0.000000   0.000000   0.000000   0.000000
    41  H    0.000106   0.000000   0.000000   0.000000   0.000000   0.000000
    42  C   -0.042373   0.000019   0.000064   0.002679  -0.000080   0.000004
    43  H    0.000110   0.000000   0.000000   0.000000   0.000000   0.000000
    44  H    0.000160   0.000000   0.000000  -0.000007   0.000000   0.000000
    45  H   -0.000555   0.000000   0.000000  -0.000012  -0.000001   0.000000
    46  H    0.002154   0.000385   0.000152   0.000001  -0.000001  -0.000293
    47  H   -0.000295   0.000063   0.001200   0.000000   0.000001   0.000267
             13         14         15         16         17         18
     1  H    0.004462   0.000160  -0.008173  -0.001820  -0.000005   0.012516
     2  C   -0.108923  -0.008290  -0.539649  -0.065121  -0.014312  -0.085214
     3  C   -0.083454  -0.120342  -0.219748   0.006264  -0.009605  -0.068086
     4  C    0.003683  -0.149420   0.195023   0.054083   0.039334  -0.092735
     5  C    0.009023   0.264948  -2.498484   0.034855   0.013032   0.104255
     6  C    0.036381   0.045920   0.108377   0.018887   0.028220   0.338561
     7  C    0.451494   0.025519   0.067452  -0.012841   0.011575  -0.039794
     8  H   -0.003296   0.000374  -0.048893   0.000370  -0.000023   0.000557
     9  H   -0.000053   0.007213   0.013911  -0.030464  -0.008139  -0.011878
    10  H   -0.000055  -0.000311   0.013650   0.004143  -0.000098  -0.043444
    11  H   -0.025459   0.000014   0.003606   0.000427  -0.000005  -0.001435
    12  H    0.004192   0.011047  -0.008637   0.002878   0.000049   0.000894
    13  H    0.496040   0.004382  -0.006665   0.000278   0.000002   0.008603
    14  O    0.004382   8.223493   0.068338   0.012953  -0.000342  -0.019179
    15  C   -0.006665   0.068338   8.016079  -0.049295  -0.036451  -0.008413
    16  O    0.000278   0.012953  -0.049295   8.303852   0.203061   0.021878
    17  H    0.000002  -0.000342  -0.036451   0.203061   0.389747  -0.001035
    18  O    0.008603  -0.019179  -0.008413   0.021878  -0.001035   8.227668
    19  C    0.004984  -0.008135   0.018100   0.004058  -0.001027   0.005323
    20  H    0.000013   0.003088   0.009218  -0.000499   0.000029  -0.058744
    21  H   -0.000003   0.000067  -0.001979   0.000061   0.000000  -0.072641
    22  H   -0.000010  -0.000194   0.001829   0.000041  -0.000003  -0.045663
    23  O   -0.001431  -0.000622   0.016022  -0.001855   0.000148  -0.001882
    24  Si   0.012071   0.001777  -0.013797   0.010114  -0.001749   0.036975
    25  C   -0.000778  -0.000195  -0.001712  -0.004745   0.000593  -0.007156
    26  H    0.000000   0.000000   0.000008   0.000004   0.000000  -0.000049
    27  H    0.000000   0.000000   0.000159   0.000818   0.000005   0.000069
    28  H    0.000000   0.000000   0.000033   0.000053   0.000000   0.000581
    29  C    0.002053   0.000010   0.000552   0.000105   0.000014   0.001748
    30  C   -0.002177  -0.000139  -0.001061  -0.001636  -0.000030  -0.002153
    31  H    0.000000   0.000000  -0.000029  -0.000009   0.000000  -0.000025
    32  H    0.000002   0.000000  -0.000057  -0.000036   0.000000   0.000017
    33  H    0.000000   0.000000   0.000006   0.000002   0.000000   0.000002
    34  C   -0.001330   0.000046  -0.000467  -0.000024   0.000000  -0.000480
    35  H    0.000000   0.000000   0.000001   0.000000   0.000000   0.000004
    36  H    0.000000   0.000000   0.000000   0.000000   0.000000   0.000005
    37  H   -0.000002   0.000000  -0.000010   0.000000   0.000000  -0.000039
    38  C    0.000094  -0.000004  -0.000288   0.000027  -0.000001  -0.000084
    39  H    0.000000   0.000000   0.000000   0.000000   0.000000   0.000000
    40  H    0.000000   0.000000   0.000000   0.000000   0.000000   0.000000
    41  H    0.000000   0.000000   0.000000   0.000000   0.000000   0.000000
    42  C    0.000105   0.000039  -0.000112   0.000448  -0.000005   0.001405
    43  H    0.000000   0.000000   0.000001   0.000000   0.000000  -0.000033
    44  H    0.000000   0.000000  -0.000001   0.000000   0.000000   0.000019
    45  H   -0.000004   0.000001  -0.000028   0.000001   0.000000   0.000049
    46  H   -0.000018  -0.036270   0.453156   0.000768  -0.000071  -0.000100
    47  H    0.000004  -0.033488   0.386789   0.000395  -0.000319   0.000395
             19         20         21         22         23         24
     1  H    0.004649   0.000005   0.000003  -0.000008  -0.073670   0.099969
     2  C   -0.121616  -0.019268  -0.007361   0.025305   0.162419  -0.796359
     3  C   -0.037724   0.000417   0.003734  -0.003835   0.004630  -0.099188
     4  C    0.077629  -0.048109   0.018743   0.002589   0.071343  -0.112463
     5  C   -0.155689  -0.003599  -0.002569   0.000302   0.016464   0.044582
     6  C   -0.007619   0.065129  -0.004955  -0.056435  -0.087921   0.486712
     7  C   -0.040868  -0.001787   0.003084  -0.001185  -0.020384  -0.055135
     8  H   -0.000055   0.000001   0.000000   0.000000  -0.000698  -0.000589
     9  H    0.014555   0.002358  -0.000007  -0.000351  -0.000974   0.003356
    10  H   -0.004712  -0.001563  -0.000074   0.011343   0.003865  -0.005570
    11  H    0.000173   0.000000  -0.000001   0.000001  -0.002723  -0.014807
    12  H    0.001090   0.000000   0.000000   0.000000  -0.000237   0.003886
    13  H    0.004984   0.000013  -0.000003  -0.000010  -0.001431   0.012071
    14  O   -0.008135   0.003088   0.000067  -0.000194  -0.000622   0.001777
    15  C    0.018100   0.009218  -0.001979   0.001829   0.016022  -0.013797
    16  O    0.004058  -0.000499   0.000061   0.000041  -0.001855   0.010114
    17  H   -0.001027   0.000029   0.000000  -0.000003   0.000148  -0.001749
    18  O    0.005323  -0.058744  -0.072641  -0.045663  -0.001882   0.036975
    19  C    5.154513   0.407750   0.430752   0.415708  -0.010500   0.015970
    20  H    0.407750   0.569317  -0.029877  -0.044891  -0.000423   0.000780
    21  H    0.430752  -0.029877   0.524360  -0.026054  -0.000401  -0.002531
    22  H    0.415708  -0.044891  -0.026054   0.567969   0.002266   0.005825
    23  O   -0.010500  -0.000423  -0.000401   0.002266   8.342873  -0.053239
    24  Si   0.015970   0.000780  -0.002531   0.005825  -0.053239  13.328272
    25  C   -0.002970  -0.000315   0.000081   0.000237  -0.035013   0.187627
    26  H   -0.000088   0.000000   0.000000   0.000000   0.008287  -0.039828
    27  H    0.000159   0.000000   0.000000  -0.000005  -0.004823  -0.033600
    28  H    0.000862   0.000000   0.000000   0.000021  -0.004770  -0.006787
    29  C   -0.000871   0.000168  -0.000013  -0.002012  -0.088243   0.528968
    30  C   -0.000564  -0.000005   0.000001  -0.000052  -0.037774   0.219088
    31  H   -0.000015   0.000000   0.000000   0.000000  -0.003539  -0.024532
    32  H    0.000006   0.000000   0.000000   0.000000  -0.007099  -0.009747
    33  H   -0.000003   0.000000   0.000000   0.000000   0.008797  -0.041214
    34  C   -0.003154  -0.000001   0.000108  -0.000106   0.044106  -0.170236
    35  H    0.000011   0.000000   0.000000   0.000000  -0.002315   0.009177
    36  H    0.000007   0.000000   0.000000   0.000000  -0.000620   0.015483
    37  H   -0.000069   0.000000   0.000000   0.000000   0.006063  -0.032104
    38  C    0.001726  -0.000001  -0.000014  -0.000048   0.012946  -0.124626
    39  H    0.000000   0.000000   0.000000   0.000000   0.000640  -0.010129
    40  H    0.000025   0.000000   0.000000   0.000000   0.000509  -0.015404
    41  H    0.000002   0.000000   0.000000   0.000000  -0.000563   0.016167
    42  C    0.003174   0.000024   0.000038   0.000187   0.027489  -0.170486
    43  H   -0.000191   0.000000   0.000000   0.000000  -0.000569   0.013597
    44  H   -0.000019   0.000000   0.000000  -0.000007  -0.002984   0.004205
    45  H   -0.000089   0.000001   0.000010  -0.000008   0.005367  -0.021197
    46  H   -0.000349   0.000001   0.000000   0.000000  -0.000007  -0.000026
    47  H    0.002189  -0.000007   0.000000   0.000000  -0.000008   0.000139
             25         26         27         28         29         30
     1  H   -0.014776  -0.000013   0.000536   0.000035   0.004153  -0.018565
     2  C    0.165406   0.009293  -0.002579  -0.024305  -0.305180   0.063399
     3  C    0.003275  -0.000002  -0.000908  -0.000442   0.001966   0.014218
     4  C   -0.008123   0.000982   0.002979  -0.003169  -0.017180   0.003925
     5  C   -0.001063   0.000043   0.001807   0.000474   0.003495  -0.010634
     6  C   -0.111857  -0.004188  -0.004415   0.015117   0.163658  -0.050497
     7  C   -0.002747  -0.000451   0.002447  -0.000298   0.074222  -0.000383
     8  H    0.000037   0.000000   0.000000   0.000000  -0.000046   0.000021
     9  H   -0.000661   0.000000   0.000000   0.000000  -0.000031  -0.000056
    10  H    0.002636   0.000073   0.000149   0.000105  -0.006892   0.000038
    11  H    0.000486   0.000000   0.000000   0.000000  -0.002118   0.003601
    12  H   -0.000146   0.000000   0.000000   0.000000  -0.000002  -0.000998
    13  H   -0.000778   0.000000   0.000000   0.000000   0.002053  -0.002177
    14  O   -0.000195   0.000000   0.000000   0.000000   0.000010  -0.000139
    15  C   -0.001712   0.000008   0.000159   0.000033   0.000552  -0.001061
    16  O   -0.004745   0.000004   0.000818   0.000053   0.000105  -0.001636
    17  H    0.000593   0.000000   0.000005   0.000000   0.000014  -0.000030
    18  O   -0.007156  -0.000049   0.000069   0.000581   0.001748  -0.002153
    19  C   -0.002970  -0.000088   0.000159   0.000862  -0.000871  -0.000564
    20  H   -0.000315   0.000000   0.000000   0.000000   0.000168  -0.000005
    21  H    0.000081   0.000000   0.000000   0.000000  -0.000013   0.000001
    22  H    0.000237   0.000000  -0.000005   0.000021  -0.002012  -0.000052
    23  O   -0.035013   0.008287  -0.004823  -0.004770  -0.088243  -0.037774
    24  Si   0.187627  -0.039828  -0.033600  -0.006787   0.528968   0.219088
    25  C    5.459954   0.406247   0.390180   0.394093  -0.146553  -0.004182
    26  H    0.406247   0.489662  -0.021644  -0.021804  -0.028228  -0.005598
    27  H    0.390180  -0.021644   0.496862  -0.023061   0.019931  -0.012540
    28  H    0.394093  -0.021804  -0.023061   0.492089  -0.022049   0.006810
    29  C   -0.146553  -0.028228   0.019931  -0.022049   8.231876  -0.140502
    30  C   -0.004182  -0.005598  -0.012540   0.006810  -0.140502   5.451908
    31  H    0.007838   0.000026  -0.000005  -0.000017  -0.022277   0.405683
    32  H   -0.011053   0.000135   0.000396   0.000002   0.018408   0.383643
    33  H   -0.006252   0.000110   0.000121   0.000025  -0.028585   0.409316
    34  C   -0.010685   0.000937  -0.000408  -0.004664  -0.361034  -0.008739
    35  H   -0.000194   0.000001  -0.000001   0.000000  -0.060577  -0.000995
    36  H   -0.001578   0.000000   0.000000   0.000000  -0.159741  -0.000129
    37  H    0.000386   0.000000  -0.000001   0.000001  -0.103785   0.002755
    38  C    0.031187   0.009145  -0.001676   0.003724  -0.446353   0.020064
    39  H   -0.000852   0.000021  -0.000005   0.000017  -0.077748   0.004043
    40  H    0.005065   0.000066   0.000000   0.000014  -0.083096  -0.000031
    41  H    0.000173   0.000014   0.000000  -0.000006  -0.158706   0.000162
    42  C    0.005929   0.009638   0.001530   0.011395  -0.479839   0.000442
    43  H    0.000363  -0.000001   0.000001  -0.000010  -0.162729  -0.001684
    44  H    0.000058   0.000065   0.000001   0.000244  -0.060896   0.000305
    45  H    0.002337   0.000004  -0.000007   0.000034  -0.094201  -0.000091
    46  H   -0.000001   0.000000   0.000000   0.000000   0.000000   0.000001
    47  H   -0.000009   0.000000   0.000000   0.000000  -0.000002  -0.000002
             31         32         33         34         35         36
     1  H   -0.000042   0.001167  -0.000039  -0.002323   0.000001   0.000000
     2  C   -0.014466  -0.019012   0.008700  -0.004007  -0.001747   0.000036
     3  C   -0.000194   0.000689   0.000257   0.021020  -0.000034  -0.000001
     4  C   -0.000088  -0.000647   0.000143   0.001657  -0.000061  -0.000014
     5  C   -0.000454   0.000318   0.000010  -0.007718   0.000056   0.000021
     6  C    0.003713   0.006794  -0.002641   0.037158  -0.000075   0.000232
     7  C    0.004931   0.003133   0.000548  -0.004546  -0.000001  -0.000129
     8  H    0.000000   0.000000   0.000000   0.000003   0.000000   0.000000
     9  H    0.000000   0.000000   0.000000   0.000018   0.000000   0.000000
    10  H    0.000000   0.000000   0.000000   0.000058   0.000000   0.000000
    11  H   -0.000006  -0.000005   0.000001   0.002536  -0.000001   0.000000
    12  H    0.000000  -0.000001   0.000000  -0.000016   0.000000   0.000000
    13  H    0.000000   0.000002   0.000000  -0.001330   0.000000   0.000000
    14  O    0.000000   0.000000   0.000000   0.000046   0.000000   0.000000
    15  C   -0.000029  -0.000057   0.000006  -0.000467   0.000001   0.000000
    16  O   -0.000009  -0.000036   0.000002  -0.000024   0.000000   0.000000
    17  H    0.000000   0.000000   0.000000   0.000000   0.000000   0.000000
    18  O   -0.000025   0.000017   0.000002  -0.000480   0.000004   0.000005
    19  C   -0.000015   0.000006  -0.000003  -0.003154   0.000011   0.000007
    20  H    0.000000   0.000000   0.000000  -0.000001   0.000000   0.000000
    21  H    0.000000   0.000000   0.000000   0.000108   0.000000   0.000000
    22  H    0.000000   0.000000   0.000000  -0.000106   0.000000   0.000000
    23  O   -0.003539  -0.007099   0.008797   0.044106  -0.002315  -0.000620
    24  Si  -0.024532  -0.009747  -0.041214  -0.170236   0.009177   0.015483
    25  C    0.007838  -0.011053  -0.006252  -0.010685  -0.000194  -0.001578
    26  H    0.000026   0.000135   0.000110   0.000937   0.000001   0.000000
    27  H   -0.000005   0.000396   0.000121  -0.000408  -0.000001   0.000000
    28  H   -0.000017   0.000002   0.000025  -0.004664   0.000000   0.000000
    29  C   -0.022277   0.018408  -0.028585  -0.361034  -0.060577  -0.159741
    30  C    0.405683   0.383643   0.409316  -0.008739  -0.000995  -0.000129
    31  H    0.490433  -0.022959  -0.022095   0.011942   0.000123  -0.000007
    32  H   -0.022959   0.497892  -0.022257  -0.000396   0.000007   0.000000
    33  H   -0.022095  -0.022257   0.489640   0.012480   0.000055  -0.000001
    34  C    0.011942  -0.000396   0.012480   6.023075   0.405476   0.464452
    35  H    0.000123   0.000007   0.000055   0.405476   0.537323  -0.028084
    36  H   -0.000007   0.000000  -0.000001   0.464452  -0.028084   0.544336
    37  H    0.000041  -0.000007   0.000011   0.480915  -0.026095  -0.026778
    38  C    0.003598  -0.001093   0.007494  -0.011133  -0.002018   0.011678
    39  H    0.000034  -0.000005   0.000189  -0.015796   0.002781  -0.000309
    40  H    0.000010  -0.000005   0.000014   0.004248   0.000031  -0.000009
    41  H   -0.000005   0.000000   0.000010   0.010961  -0.000322   0.005344
    42  C   -0.003817  -0.000920  -0.001083  -0.339451   0.004040   0.009279
    43  H    0.000000   0.000000   0.000000   0.015219   0.000046   0.005570
    44  H    0.000000  -0.000001   0.000001   0.002387  -0.000156   0.000045
    45  H    0.000002   0.000000   0.000000  -0.006456   0.000015  -0.000304
    46  H    0.000000   0.000000   0.000000   0.000000   0.000000   0.000000
    47  H    0.000000   0.000000   0.000000   0.000000   0.000000   0.000000
             37         38         39         40         41         42
     1  H    0.000000   0.000912   0.000000   0.000000   0.000000   0.001359
     2  C    0.009709  -0.045510   0.000719  -0.000317  -0.001014   0.140629
     3  C    0.000110   0.001817   0.000008   0.000004  -0.000003  -0.011061
     4  C    0.000762  -0.005059  -0.000018   0.000012  -0.000004   0.015822
     5  C   -0.000375  -0.000226   0.000005  -0.000006   0.000001   0.003626
     6  C   -0.002541   0.019150  -0.000240   0.000306   0.000171  -0.106097
     7  C   -0.001808  -0.006358  -0.000070  -0.000084   0.000106  -0.042373
     8  H    0.000000  -0.000002   0.000000   0.000000   0.000000   0.000019
     9  H    0.000000   0.000002   0.000000   0.000000   0.000000   0.000064
    10  H    0.000000  -0.000254   0.000000   0.000000   0.000000   0.002679
    11  H   -0.000010  -0.000091   0.000000   0.000000   0.000000  -0.000080
    12  H    0.000000   0.000002   0.000000   0.000000   0.000000   0.000004
    13  H   -0.000002   0.000094   0.000000   0.000000   0.000000   0.000105
    14  O    0.000000  -0.000004   0.000000   0.000000   0.000000   0.000039
    15  C   -0.000010  -0.000288   0.000000   0.000000   0.000000  -0.000112
    16  O    0.000000   0.000027   0.000000   0.000000   0.000000   0.000448
    17  H    0.000000  -0.000001   0.000000   0.000000   0.000000  -0.000005
    18  O   -0.000039  -0.000084   0.000000   0.000000   0.000000   0.001405
    19  C   -0.000069   0.001726   0.000000   0.000025   0.000002   0.003174
    20  H    0.000000  -0.000001   0.000000   0.000000   0.000000   0.000024
    21  H    0.000000  -0.000014   0.000000   0.000000   0.000000   0.000038
    22  H    0.000000  -0.000048   0.000000   0.000000   0.000000   0.000187
    23  O    0.006063   0.012946   0.000640   0.000509  -0.000563   0.027489
    24  Si  -0.032104  -0.124626  -0.010129  -0.015404   0.016167  -0.170486
    25  C    0.000386   0.031187  -0.000852   0.005065   0.000173   0.005929
    26  H    0.000000   0.009145   0.000021   0.000066   0.000014   0.009638
    27  H   -0.000001  -0.001676  -0.000005   0.000000   0.000000   0.001530
    28  H    0.000001   0.003724   0.000017   0.000014  -0.000006   0.011395
    29  C   -0.103785  -0.446353  -0.077748  -0.083096  -0.158706  -0.479839
    30  C    0.002755   0.020064   0.004043  -0.000031   0.000162   0.000442
    31  H    0.000041   0.003598   0.000034   0.000010  -0.000005  -0.003817
    32  H   -0.000007  -0.001093  -0.000005  -0.000005   0.000000  -0.000920
    33  H    0.000011   0.007494   0.000189   0.000014   0.000010  -0.001083
    34  C    0.480915  -0.011133  -0.015796   0.004248   0.010961  -0.339451
    35  H   -0.026095  -0.002018   0.002781   0.000031  -0.000322   0.004040
    36  H   -0.026778   0.011678  -0.000309  -0.000009   0.005344   0.009279
    37  H    0.512931  -0.001003   0.000041  -0.000143   0.000019  -0.004585
    38  C   -0.001003   5.649010   0.443045   0.455212   0.460190   0.055678
    39  H    0.000041   0.443045   0.533641  -0.027197  -0.027843   0.008165
    40  H   -0.000143   0.455212  -0.027197   0.532568  -0.027697  -0.014530
    41  H    0.000019   0.460190  -0.027843  -0.027697   0.540039   0.012582
    42  C   -0.004585   0.055678   0.008165  -0.014530   0.012582   6.100240
    43  H   -0.000293   0.005691  -0.000013  -0.000321   0.005259   0.467685
    44  H    0.000018   0.002407   0.000030   0.002815  -0.000323   0.404674
    45  H    0.002950  -0.000322  -0.000142   0.000044   0.000017   0.468107
    46  H    0.000000   0.000000   0.000000   0.000000   0.000000   0.000001
    47  H    0.000000   0.000000   0.000000   0.000000   0.000000   0.000000
             43         44         45         46         47
     1  H    0.000000   0.000000   0.000000   0.000000   0.000000
     2  C    0.000863  -0.004039   0.008363   0.003544  -0.005235
     3  C   -0.000013   0.000044   0.000327   0.064040  -0.030755
     4  C    0.000078   0.000023   0.000415  -0.033696   0.116430
     5  C    0.000027   0.000035  -0.000454  -0.109661  -0.110183
     6  C   -0.000090   0.003210  -0.005948  -0.006564   0.005356
     7  C    0.000110   0.000160  -0.000555   0.002154  -0.000295
     8  H    0.000000   0.000000   0.000000   0.000385   0.000063
     9  H    0.000000   0.000000   0.000000   0.000152   0.001200
    10  H    0.000000  -0.000007  -0.000012   0.000001   0.000000
    11  H    0.000000   0.000000  -0.000001  -0.000001   0.000001
    12  H    0.000000   0.000000   0.000000  -0.000293   0.000267
    13  H    0.000000   0.000000  -0.000004  -0.000018   0.000004
    14  O    0.000000   0.000000   0.000001  -0.036270  -0.033488
    15  C    0.000001  -0.000001  -0.000028   0.453156   0.386789
    16  O    0.000000   0.000000   0.000001   0.000768   0.000395
    17  H    0.000000   0.000000   0.000000  -0.000071  -0.000319
    18  O   -0.000033   0.000019   0.000049  -0.000100   0.000395
    19  C   -0.000191  -0.000019  -0.000089  -0.000349   0.002189
    20  H    0.000000   0.000000   0.000001   0.000001  -0.000007
    21  H    0.000000   0.000000   0.000010   0.000000   0.000000
    22  H    0.000000  -0.000007  -0.000008   0.000000   0.000000
    23  O   -0.000569  -0.002984   0.005367  -0.000007  -0.000008
    24  Si   0.013597   0.004205  -0.021197  -0.000026   0.000139
    25  C    0.000363   0.000058   0.002337  -0.000001  -0.000009
    26  H   -0.000001   0.000065   0.000004   0.000000   0.000000
    27  H    0.000001   0.000001  -0.000007   0.000000   0.000000
    28  H   -0.000010   0.000244   0.000034   0.000000   0.000000
    29  C   -0.162729  -0.060896  -0.094201   0.000000  -0.000002
    30  C   -0.001684   0.000305  -0.000091   0.000001  -0.000002
    31  H    0.000000   0.000000   0.000002   0.000000   0.000000
    32  H    0.000000  -0.000001   0.000000   0.000000   0.000000
    33  H    0.000000   0.000001   0.000000   0.000000   0.000000
    34  C    0.015219   0.002387  -0.006456   0.000000   0.000000
    35  H    0.000046  -0.000156   0.000015   0.000000   0.000000
    36  H    0.005570   0.000045  -0.000304   0.000000   0.000000
    37  H   -0.000293   0.000018   0.002950   0.000000   0.000000
    38  C    0.005691   0.002407  -0.000322   0.000000   0.000000
    39  H   -0.000013   0.000030  -0.000142   0.000000   0.000000
    40  H   -0.000321   0.002815   0.000044   0.000000   0.000000
    41  H    0.005259  -0.000323   0.000017   0.000000   0.000000
    42  C    0.467685   0.404674   0.468107   0.000001   0.000000
    43  H    0.545418  -0.028172  -0.026497   0.000000   0.000000
    44  H   -0.028172   0.540475  -0.025555   0.000000   0.000000
    45  H   -0.026497  -0.025555   0.505912   0.000000   0.000000
    46  H    0.000000   0.000000   0.000000   0.524310  -0.035443
    47  H    0.000000   0.000000   0.000000  -0.035443   0.534367
 Mulliken atomic charges:
              1
     1  H    0.157247
     2  C   -0.389164
     3  C   -0.568525
     4  C    0.260981
     5  C   -0.189811
     6  C   -0.301005
     7  C   -0.144885
     8  H    0.173907
     9  H    0.147374
    10  H    0.145346
    11  H    0.169308
    12  H    0.182522
    13  H    0.195793
    14  O   -0.292458
    15  C    0.071638
    16  O   -0.512477
    17  H    0.387411
    18  O   -0.201263
    19  C   -0.167088
    20  H    0.150788
    21  H    0.167441
    22  H    0.147245
    23  O   -0.288947
    24  Si   0.810604
    25  C   -0.690572
    26  H    0.187133
    27  H    0.187526
    28  H    0.185651
    29  C    0.008161
    30  C   -0.688207
    31  H    0.186207
    32  H    0.182689
    33  H    0.186239
    34  C   -0.585633
    35  H    0.163529
    36  H    0.161216
    37  H    0.182931
    38  C   -0.548635
    39  H    0.166989
    40  H    0.167899
    41  H    0.165267
    42  C   -0.582058
    43  H    0.160692
    44  H    0.160939
    45  H    0.187915
    46  H    0.173989
    47  H    0.168153
 Sum of Mulliken atomic charges =   0.00000
 Mulliken charges with hydrogens summed into heavy atoms:
              1
     2  C   -0.231917
     3  C   -0.212096
     4  C    0.408354
     5  C   -0.189811
     6  C   -0.155659
     7  C    0.220216
    14  O   -0.292458
    15  C    0.413781
    16  O   -0.125066
    18  O   -0.201263
    19  C    0.298386
    23  O   -0.288947
    24  Si   0.810604
    25  C   -0.130262
    29  C    0.008161
    30  C   -0.133073
    34  C   -0.077956
    38  C   -0.048481
    42  C   -0.072512
 Sum of Mulliken charges with hydrogens summed into heavy atoms =   0.00000
 Electronic spatial extent (au):  <R**2>=           6738.0989
 Charge=              0.0000 electrons
 Dipole moment (field-independent basis, Debye):
    X=             -2.2328    Y=             -2.0053    Z=              2.7655  Tot=              4.0810
 Quadrupole moment (field-independent basis, Debye-Ang):
   XX=           -109.9032   YY=           -121.6325   ZZ=           -128.7048
   XY=              6.7297   XZ=             -7.1774   YZ=              5.4841
 Traceless Quadrupole moment (field-independent basis, Debye-Ang):
   XX=             10.1770   YY=             -1.5524   ZZ=             -8.6246
   XY=              6.7297   XZ=             -7.1774   YZ=              5.4841
 Octapole moment (field-independent basis, Debye-Ang**2):
  XXX=           -122.6481  YYY=             19.0459  ZZZ=             -1.7918  XYY=            -22.6618
  XXY=            -42.5293  XXZ=             44.9936  XZZ=            -14.0504  YZZ=             -2.3554
  YYZ=              5.0633  XYZ=            -12.2647
 Hexadecapole moment (field-independent basis, Debye-Ang**3):
 XXXX=          -6186.6347 YYYY=          -1392.6619 ZZZZ=          -1101.4338 XXXY=            174.4096
 XXXZ=           -175.9736 YYYX=            -19.2776 YYYZ=             -5.9111 ZZZX=            -13.1361
 ZZZY=             -2.2880 XXYY=          -1325.0894 XXZZ=          -1262.2059 YYZZ=           -403.6120
 XXYZ=             20.0866 YYXZ=            -16.9853 ZZXY=             22.1336
 N-N= 1.806911865290D+03 E-N=-6.285213248639D+03  KE= 1.131549562117D+03
 1\1\GINC-COMPUTE-8-10\SP\RmPW1PW91\6-31+G(d,p)\C14H28O4Si1\ELUCIANO.IQ
 UIR\06-Dec-2022\0\\# mPW1PW91/6-31+g** scrf=(PCM,solvent=chloroform) n
 mr\\comment\\0,1\H,0,-0.51516,-1.441506,0.561956\C,0,-0.523963,-0.5723
 36,-0.111657\C,0,-2.677639,-1.428789,-1.132657\C,0,-2.731357,0.078807,
 0.942486\C,0,-3.447633,-0.41035,-0.311801\C,0,-1.294838,0.545226,0.617
 227\C,0,-1.239306,-0.958344,-1.411443\H,0,-3.213911,-1.61472,-2.069473
 \H,0,-3.303257,0.918991,1.362056\H,0,-0.785178,0.776482,1.565894\H,0,-
 0.670715,-1.749816,-1.912319\H,0,-2.654879,-2.373957,-0.57325\H,0,-1.2
 46718,-0.08541,-2.07192\O,0,-4.121889,0.627216,-1.046802\C,0,-4.919418
 ,-0.346512,-0.363865\O,0,-2.600204,-0.970701,1.906187\H,0,-3.492897,-1
 .277347,2.130265\O,0,-1.301083,1.679632,-0.228113\C,0,-1.60735,2.90639
 9,0.402524\H,0,-2.662334,2.975365,0.703896\H,0,-1.406125,3.692539,-0.3
 29909\H,0,-0.973882,3.073013,1.28807\O,0,0.797415,-0.14746,-0.407347\S
 i,0,2.205036,-0.607874,0.382079\C,0,2.070493,-0.259902,2.238369\H,0,2.
 965741,-0.598704,2.774079\H,0,1.212789,-0.785298,2.676407\H,0,1.942482
 ,0.808828,2.444331\C,0,3.559788,0.454201,-0.44657\C,0,2.500608,-2.4625
 19,0.143708\H,0,2.569078,-2.72892,-0.916912\H,0,1.683645,-3.050751,0.5
 80083\H,0,3.42776,-2.787385,0.631723\C,0,3.630341,0.124928,-1.953641\H
 ,0,3.923656,-0.917098,-2.132741\H,0,4.377403,0.762373,-2.449151\H,0,2.
 667153,0.293247,-2.447522\C,0,4.933873,0.176732,0.199358\H,0,5.236114,
 -0.872824,0.092765\H,0,4.943206,0.421398,1.268977\H,0,5.711949,0.78839
 1,-0.280132\C,0,3.208528,1.948736,-0.279439\H,0,3.956876,2.57618,-0.78
 5743\H,0,3.193766,2.249584,0.775738\H,0,2.227318,2.178973,-0.708226\H,
 0,-5.464766,-1.040205,-1.004868\H,0,-5.4863,0.031651,0.489826\\Version
 =EM64L-G09RevC.01\State=1-A\HF=-1140.621111\RMSD=4.236e-09\Dipole=-0.8
 784695,-0.7889346,1.0880186\Quadrupole=7.5663327,-1.1541545,-6.4121782
 ,5.0033668,-5.3361983,4.0772999\PG=C01 [X(C14H28O4Si1)]\\@


 CHINESE FORTUNE COOKIE OF JAN 1 1967 SAY....
 ALL THINGS ARE DIFFICULT BEFORE THEY ARE EASY.
 WE LEARN SO LITTLE AND FORGET SO MUCH.
 YOU WILL OVERCOME OBSTACLES TO ACHIEVE SUCCESS.
 AH SO.
 Job cpu time:  0 days  3 hours 30 minutes  5.9 seconds.
 File lengths (MBytes):  RWF=    304 Int=      0 D2E=      0 Chk=     16 Scr=      1
 Normal termination of Gaussian 09 at Tue Dec  6 21:52:18 2022.
