 Entering Gaussian System, Link 0=g09
 Input=/home/eluciano.iquir/wb9/73a_008.gjc
 Output=/home/eluciano.iquir/wb9/73a_008.log
 Initial command:
 /share/apps/Gaussian09/EM64T.SSE4.2-enabled/g09/l1.exe /tmp/Gau-28731.inp -scrdir=/tmp/
 Entering Link 1 = /share/apps/Gaussian09/EM64T.SSE4.2-enabled/g09/l1.exe PID=     28732.
  
 Copyright (c) 1988,1990,1992,1993,1995,1998,2003,2009,2011,
            Gaussian, Inc.  All Rights Reserved.
  
 This is part of the Gaussian(R) 09 program.  It is based on
 the Gaussian(R) 03 system (copyright 2003, Gaussian, Inc.),
 the Gaussian(R) 98 system (copyright 1998, Gaussian, Inc.),
 the Gaussian(R) 94 system (copyright 1995, Gaussian, Inc.),
 the Gaussian 92(TM) system (copyright 1992, Gaussian, Inc.),
 the Gaussian 90(TM) system (copyright 1990, Gaussian, Inc.),
 the Gaussian 88(TM) system (copyright 1988, Gaussian, Inc.),
 the Gaussian 86(TM) system (copyright 1986, Carnegie Mellon
 University), and the Gaussian 82(TM) system (copyright 1983,
 Carnegie Mellon University). Gaussian is a federally registered
 trademark of Gaussian, Inc.
  
 This software contains proprietary and confidential information,
 including trade secrets, belonging to Gaussian, Inc.
  
 This software is provided under written license and may be
 used, copied, transmitted, or stored only in accord with that
 written license.
  
 The following legend is applicable only to US Government
 contracts under FAR:
  
                    RESTRICTED RIGHTS LEGEND
  
 Use, reproduction and disclosure by the US Government is
 subject to restrictions as set forth in subparagraphs (a)
 and (c) of the Commercial Computer Software - Restricted
 Rights clause in FAR 52.227-19.
  
 Gaussian, Inc.
 340 Quinnipiac St., Bldg. 40, Wallingford CT 06492
  
  
 ---------------------------------------------------------------
 Warning -- This program may not be used in any manner that
 competes with the business of Gaussian, Inc. or will provide
 assistance to any competitor of Gaussian, Inc.  The licensee
 of this program is prohibited from giving any competitor of
 Gaussian, Inc. access to this program.  By using this program,
 the user acknowledges that Gaussian, Inc. is engaged in the
 business of creating and licensing software in the field of
 computational chemistry and represents and warrants to the
 licensee that it is not a competitor of Gaussian, Inc. and that
 it will not use this program in any manner prohibited above.
 ---------------------------------------------------------------
  

 Cite this work as:
 Gaussian 09, Revision C.01,
 M. J. Frisch, G. W. Trucks, H. B. Schlegel, G. E. Scuseria, 
 M. A. Robb, J. R. Cheeseman, G. Scalmani, V. Barone, B. Mennucci, 
 G. A. Petersson, H. Nakatsuji, M. Caricato, X. Li, H. P. Hratchian, 
 A. F. Izmaylov, J. Bloino, G. Zheng, J. L. Sonnenberg, M. Hada, 
 M. Ehara, K. Toyota, R. Fukuda, J. Hasegawa, M. Ishida, T. Nakajima, 
 Y. Honda, O. Kitao, H. Nakai, T. Vreven, J. A. Montgomery, Jr., 
 J. E. Peralta, F. Ogliaro, M. Bearpark, J. J. Heyd, E. Brothers, 
 K. N. Kudin, V. N. Staroverov, T. Keith, R. Kobayashi, J. Normand, 
 K. Raghavachari, A. Rendell, J. C. Burant, S. S. Iyengar, J. Tomasi, 
 M. Cossi, N. Rega, J. M. Millam, M. Klene, J. E. Knox, J. B. Cross, 
 V. Bakken, C. Adamo, J. Jaramillo, R. Gomperts, R. E. Stratmann, 
 O. Yazyev, A. J. Austin, R. Cammi, C. Pomelli, J. W. Ochterski, 
 R. L. Martin, K. Morokuma, V. G. Zakrzewski, G. A. Voth, 
 P. Salvador, J. J. Dannenberg, S. Dapprich, A. D. Daniels, 
 O. Farkas, J. B. Foresman, J. V. Ortiz, J. Cioslowski, 
 and D. J. Fox, Gaussian, Inc., Wallingford CT, 2010.
 
 ******************************************
 Gaussian 09:  EM64L-G09RevC.01 23-Sep-2011
                17-May-2022 
 ******************************************
 %nprocshared=4
 Will use up to    4 processors via shared memory.
 ----------------------------------------------------------------
 # wb97xd/6-31+g** scrf=(pcm,solvent=chloroform,smd,dovacuum) nmr
 ----------------------------------------------------------------
 1/38=1/1;
 2/12=2,17=6,18=5,40=1/2;
 3/5=1,6=6,7=111,11=2,16=1,25=1,30=1,70=32101,72=7,74=-58/1,2,8,3;
 4//1;
 5/5=2,38=5,53=7/2;
 8/6=1,10=90,11=11/1;
 10/13=100,45=16/2;
 6/7=2,8=2,9=2,10=2,28=1/1;
 99/9=1/99;
 -------
 comment
 -------
 Charge =  0 Multiplicity = 1
 Symbolic Z-Matrix:
 6                     1.29636   0.68694  -1.30905 
 6                    -0.57948   2.62936  -2.00329 
 6                     1.12387   1.04705  -2.64658 
 6                     0.52827   1.29083  -0.30249 
 6                    -0.40882   2.27063  -0.66547 
 6                     0.18579   2.01688  -2.99312 
 6                     0.72204   0.89015   1.14772 
 6                    -0.52767   0.28636   1.80527 
 6                    -1.01669  -0.93143   1.05324 
 8                    -0.01462  -1.83314   0.85507 
 6                    -0.3879   -3.03998   0.17324 
 8                     1.13121   2.05021   1.88419 
 6                    -0.28952  -0.08969   3.26847 
 8                    -2.18199  -1.09157   0.71211 
 6                    -0.3045   -2.84119  -1.32849 
 1                     2.03207  -0.07539  -1.06041 
 1                    -1.31207   3.38596  -2.27286 
 1                     1.72028   0.5689   -3.41945 
 1                    -1.01278   2.76274   0.09481 
 1                     0.04991   2.29512  -4.03499 
 1                     1.55739   0.18262   1.2181 
 1                    -1.3392    1.02578   1.79052 
 1                    -1.38424  -3.3792    0.47896 
 1                     0.32259  -3.8139    0.48165 
 1                     1.62324   2.6244    1.27071 
 1                    -0.06818   0.79543   3.87331 
 1                    -1.17538  -0.57363   3.69461 
 1                     0.54739  -0.78939   3.37006 
 1                    -0.99325  -2.05833  -1.66134 
 1                    -0.54677  -3.76796  -1.85613 
 1                     0.70263  -2.52456  -1.61836 
 
                          Input orientation:                          
 ---------------------------------------------------------------------
 Center     Atomic      Atomic             Coordinates (Angstroms)
 Number     Number       Type             X           Y           Z
 ---------------------------------------------------------------------
      1          6           0        1.296364    0.686937   -1.309045
      2          6           0       -0.579475    2.629357   -2.003288
      3          6           0        1.123875    1.047054   -2.646582
      4          6           0        0.528273    1.290825   -0.302491
      5          6           0       -0.408817    2.270629   -0.665473
      6          6           0        0.185786    2.016882   -2.993117
      7          6           0        0.722040    0.890153    1.147722
      8          6           0       -0.527669    0.286363    1.805268
      9          6           0       -1.016688   -0.931427    1.053243
     10          8           0       -0.014620   -1.833139    0.855074
     11          6           0       -0.387902   -3.039980    0.173235
     12          8           0        1.131213    2.050207    1.884192
     13          6           0       -0.289520   -0.089692    3.268470
     14          8           0       -2.181991   -1.091575    0.712110
     15          6           0       -0.304496   -2.841190   -1.328488
     16          1           0        2.032066   -0.075387   -1.060410
     17          1           0       -1.312066    3.385964   -2.272860
     18          1           0        1.720285    0.568897   -3.419452
     19          1           0       -1.012783    2.762742    0.094808
     20          1           0        0.049913    2.295123   -4.034988
     21          1           0        1.557394    0.182625    1.218097
     22          1           0       -1.339200    1.025778    1.790520
     23          1           0       -1.384235   -3.379201    0.478960
     24          1           0        0.322586   -3.813897    0.481648
     25          1           0        1.623237    2.624395    1.270711
     26          1           0       -0.068182    0.795425    3.873309
     27          1           0       -1.175384   -0.573627    3.694609
     28          1           0        0.547390   -0.789390    3.370055
     29          1           0       -0.993251   -2.058327   -1.661343
     30          1           0       -0.546773   -3.767958   -1.856133
     31          1           0        0.702632   -2.524564   -1.618365
 ---------------------------------------------------------------------
                    Distance matrix (angstroms):
                    1          2          3          4          5
     1  C    0.000000
     2  C    2.788143   0.000000
     3  C    1.395866   2.412242   0.000000
     4  C    1.402782   2.431354   2.430829   0.000000
     5  C    2.414520   1.395550   2.787664   1.403534   0.000000
     6  C    2.416243   1.393023   1.393076   2.807832   2.415754
     7  C    2.531176   3.827223   3.818748   1.516971   2.544057
     8  C    3.631322   4.471846   4.808869   2.562539   3.171119
     9  C    3.680994   4.713037   4.710106   3.027098   3.684651
    10  O    3.571116   5.329462   4.674749   3.375476   4.394128
    11  C    4.350151   6.075799   5.190442   4.452142   5.376471
    12  O    3.475995   4.286533   4.640504   2.392024   2.986816
    13  C    4.906304   5.938748   6.186898   3.914891   4.589254
    14  O    4.398537   4.877169   5.175258   3.748437   4.043055
    15  C    3.874379   5.518864   4.346960   4.338171   5.155693
    16  H    1.088216   3.876184   2.144907   2.168495   3.408471
    17  H    3.875253   1.087111   3.397642   3.414499   2.154884
    18  H    2.155796   3.397045   1.087045   3.414311   3.874709
    19  H    3.407628   2.146521   3.876094   2.167773   1.088567
    20  H    3.401568   2.153055   2.153773   3.894737   3.400686
    21  H    2.590157   4.574935   3.983832   2.144618   3.431265
    22  H    4.082684   4.188272   5.074944   2.817516   2.906401
    23  H    5.188068   6.550722   5.970876   5.106613   5.846515
    24  H    4.940884   6.964491   5.835815   5.168691   6.234764
    25  H    3.242797   3.946015   4.252358   2.335020   2.828993
    26  H    5.360089   6.177307   6.632744   4.247174   4.784642
    27  H    5.721461   6.563555   6.937140   4.728154   5.261913
    28  H    4.963314   6.467648   6.317023   4.220812   5.153982
    29  H    3.592064   4.718317   3.885397   3.921522   4.480310
    30  H    4.852066   6.399091   5.157540   5.400075   6.156397
    31  H    3.280539   5.324929   3.740473   4.039693   5.013701
                    6          7          8          9         10
     6  C    0.000000
     7  C    4.324769   0.000000
     8  C    5.150554   1.535806   0.000000
     9  C    5.148931   2.519972   1.512513   0.000000
    10  O    5.447145   2.836306   2.378734   1.362533   0.000000
    11  C    5.993893   4.198517   3.707779   2.369764   1.435517
    12  O    4.968207   1.433714   2.422656   3.767506   4.177606
    13  C    6.623521   2.545765   1.529409   2.478815   2.989926
    14  O    5.384940   3.542654   2.414641   1.224725   2.295181
    15  C    5.158704   4.594379   4.433038   3.134813   2.422424
    16  H    3.394362   2.743043   3.859432   3.807261   3.308730
    17  H    2.153303   4.697556   5.182078   5.458028   6.221444
    18  H    2.152466   4.686019   5.694806   5.454080   5.201080
    19  H    3.395313   2.761309   3.048519   3.816478   4.764080
    20  H    1.086911   5.411670   6.203008   6.118689   6.399954
    21  H    4.793759   1.096981   2.168644   2.809660   2.581921
    22  H    5.117719   2.163398   1.097968   2.116186   3.286788
    23  H    6.605906   4.807392   3.991135   2.540962   2.099432
    24  H    6.789012   4.767736   4.391701   3.229397   2.043662
    25  H    4.540436   1.958284   3.221574   4.434002   4.767069
    26  H    6.978844   2.839410   2.178776   3.440125   4.002745
    27  H    7.299945   3.497071   2.174564   2.670210   3.316128
    28  H    6.963898   2.791081   2.182098   2.798952   2.780359
    29  H    4.446468   4.418892   4.210906   2.939290   2.709387
    30  H    5.940854   5.686038   5.462942   4.090378   3.373033
    31  H    4.773029   4.394532   4.597414   3.554101   2.666537
                   11         12         13         14         15
    11  C    0.000000
    12  O    5.580779   0.000000
    13  C    4.277190   2.917855   0.000000
    14  O    2.702856   4.714010   3.334695   0.000000
    15  C    1.517118   6.025641   5.357517   3.278748   0.000000
    16  H    4.020813   3.741706   4.912145   4.683241   3.630573
    17  H    6.937594   5.003492   6.620583   5.451162   6.378439
    18  H    5.511428   5.538043   7.014367   5.920703   4.483365
    19  H    5.836799   2.882069   4.328005   4.074784   5.825075
    20  H    6.809122   6.022116   7.690452   6.243881   5.816568
    21  H    3.906545   2.028097   2.772954   3.982789   4.369804
    22  H    4.477831   2.676036   2.128483   2.521200   5.074669
    23  H    1.096001   6.146595   4.449790   2.433929   2.173054
    24  H    1.094923   6.083480   4.691562   3.706354   2.148484
    25  H    6.110179   0.973724   3.875042   5.347918   6.351741
    26  H    5.338830   2.640003   1.094648   4.245249   6.351340
    27  H    4.370710   3.934782   1.095694   3.190114   5.579588
    28  H    4.019899   3.257599   1.095588   3.821716   5.197298
    29  H    2.166972   5.827883   5.354793   2.825065   1.094555
    30  H    2.161833   7.117353   6.313269   4.053743   1.093620
    31  H    2.159803   5.777553   5.549245   3.975629   1.094800
                   16         17         18         19         20
    16  H    0.000000
    17  H    4.963285   0.000000
    18  H    2.465236   4.294844   0.000000
    19  H    4.319793   2.466541   4.963128   0.000000
    20  H    4.289098   2.479922   2.479695   4.289895   0.000000
    21  H    2.341683   5.539130   4.656458   3.811115   5.859185
    22  H    4.550362   4.699177   6.059124   2.449292   6.121879
    23  H    4.995594   7.303778   6.357919   6.165145   7.391242
    24  H    4.390527   7.880190   6.031668   6.721982   7.602267
    25  H    3.590277   4.663998   5.121730   2.889721   5.543844
    26  H    5.432397   6.784802   7.512276   4.363448   8.050106
    27  H    5.757273   7.162942   7.765315   4.910842   8.335331
    28  H    4.726847   7.261794   7.022680   5.077305   8.037186
    29  H    3.666840   5.487795   4.166117   5.130999   5.067042
    30  H    4.573693   7.206797   5.137298   6.831792   6.470270
    31  H    2.842038   6.278671   3.721429   5.816633   5.430975
                   21         22         23         24         25
    21  H    0.000000
    22  H    3.070640   0.000000
    23  H    4.678259   4.596309   0.000000
    24  H    4.247269   5.281773   1.761308   0.000000
    25  H    2.443225   3.406143   6.761281   6.615582   0.000000
    26  H    3.173039   2.450828   5.539053   5.736020   3.602714
    27  H    3.764719   2.492085   4.272618   4.802747   4.892332
    28  H    2.568238   3.057611   4.335519   4.188207   4.149533
    29  H    4.451834   4.641847   2.545284   3.066897   6.113169
    30  H    5.430056   6.075024   2.511002   2.494617   7.439642
    31  H    4.013104   5.328649   3.079641   2.493364   5.975454
                   26         27         28         29         30
    26  H    0.000000
    27  H    1.769785   0.000000
    28  H    1.773086   1.766307   0.000000
    29  H    6.295397   5.560911   5.412831   0.000000
    30  H    7.340301   6.435032   6.114090   1.777673   0.000000
    31  H    6.463356   5.963287   5.283868   1.759331   1.778644
                   31
    31  H    0.000000
 Stoichiometry    C12H16O3
 Framework group  C1[X(C12H16O3)]
 Deg. of freedom    87
 Full point group                 C1      NOp   1
 Largest Abelian subgroup         C1      NOp   1
 Largest concise Abelian subgroup C1      NOp   1
                         Standard orientation:                         
 ---------------------------------------------------------------------
 Center     Atomic      Atomic             Coordinates (Angstroms)
 Number     Number       Type             X           Y           Z
 ---------------------------------------------------------------------
      1          6           0        1.549938    0.572469   -1.108489
      2          6           0        3.057021    0.003520    1.167195
      3          6           0        2.641345    1.375386   -0.772936
      4          6           0        1.195839   -0.522401   -0.306200
      5          6           0        1.966095   -0.800356    0.833693
      6          6           0        3.393454    1.091364    0.364749
      7          6           0        0.006284   -1.386933   -0.678688
      8          6           0       -1.113005   -1.402624    0.372809
      9          6           0       -1.628137   -0.008910    0.655470
     10          8           0       -1.966986    0.641913   -0.492617
     11          6           0       -2.495960    1.965933   -0.325682
     12          8           0        0.472733   -2.725436   -0.894024
     13          6           0       -2.283818   -2.296358   -0.038927
     14          8           0       -1.760606    0.445954    1.784851
     15          6           0       -1.367104    2.977461   -0.261320
     16          1           0        0.973683    0.813976   -1.999455
     17          1           0        3.643127   -0.218591    2.055428
     18          1           0        2.903865    2.224830   -1.398392
     19          1           0        1.720475   -1.648556    1.470250
     20          1           0        4.241620    1.718371    0.627143
     21          1           0       -0.394933   -1.052447   -1.643318
     22          1           0       -0.719190   -1.801886    1.316755
     23          1           0       -3.142761    2.028902    0.556872
     24          1           0       -3.124255    2.171262   -1.198575
     25          1           0        1.390129   -2.664646   -1.214694
     26          1           0       -1.973690   -3.343211   -0.117507
     27          1           0       -3.092911   -2.241098    0.697863
     28          1           0       -2.698992   -1.990831   -1.005672
     29          1           0       -0.712134    2.783324    0.593885
     30          1           0       -1.761837    3.993798   -0.176179
     31          1           0       -0.745036    2.916049   -1.160124
 ---------------------------------------------------------------------
 Rotational constants (GHZ):      0.7401231      0.5082108      0.3696096
 Standard basis: 6-31+G(d,p) (6D, 7F)
 There are   365 symmetry adapted basis functions of A   symmetry.
 Integral buffers will be    131072 words long.
 Raffenetti 2 integral format.
 Two-electron integral symmetry is turned on.
   365 basis functions,   592 primitive gaussians,   365 cartesian basis functions
    56 alpha electrons       56 beta electrons
       nuclear repulsion energy      1028.9375355293 Hartrees.
 NAtoms=   31 NActive=   31 NUniq=   31 SFac= 1.00D+00 NAtFMM=   60 NAOKFM=F Big=F
 Nuclear repulsion after empirical dispersion term =     1028.9151887294 Hartrees.
 ------------------------------------------------------------------------------
 Polarizable Continuum Model (PCM)
 =================================
 Model                : C-PCM.
 Atomic radii         : SMD-Coulomb.
 Polarization charges : Total charges.
 Charge compensation  : None.
 Solution method      : Matrix inversion.
 Cavity type          : VdW (van der Waals Surface) (Alpha=1.000).
 Cavity algorithm     : GePol (No added spheres)
                        Default sphere list used, NSphG=   31.
                        Lebedev-Laikov grids with approx.  5.0 points / Ang**2.
                        Smoothing algorithm: Karplus/York (Gamma=1.0000).
                        Polarization charges: spherical gaussians, with
                                              point-specific exponents (IZeta= 3).
                        Self-potential: point-specific (ISelfS= 7).
                        Self-field    : sphere-specific E.n sum rule (ISelfD= 2).
 Solvent              : Chloroform, Eps=   4.711300 Eps(inf)=   2.090627
 ------------------------------------------------------------------------------
 ------------------------------------------------------------------------------
 Atomic radii for non-electrostatic terms: SMD-CDS.
 ------------------------------------------------------------------------------
 Nuclear repulsion after PCM non-electrostatic terms =     1028.9088912796 Hartrees.
 One-electron integrals computed using PRISM.
 NBasis=   365 RedAO= T  NBF=   365
 NBsUse=   365 1.00D-06 NBFU=   365
 Harris functional with IExCor= 4639 diagonalized for initial guess.
 ExpMin= 4.38D-02 ExpMax= 5.48D+03 ExpMxC= 8.25D+02 IAcc=2 IRadAn=         4 AccDes= 0.00D+00
 HarFok:  IExCor= 4639 AccDes= 0.00D+00 IRadAn=         4 IDoV= 1
 ScaDFX=  1.000000  1.000000  1.000000  1.000000
 FoFCou: FMM=F IPFlag=           0 FMFlag=      100000 FMFlg1=           0
         NFxFlg=           0 DoJE=T BraDBF=F KetDBF=T FulRan=T
         Omega=  0.000000  0.000000  1.000000  0.000000  0.000000 ICntrl=     500 IOpCl=  0
         NMat0=    1 NMatS0=    1 NMatT0=    0 NMatD0=    1 NMtDS0=    0 NMtDT0=    0
         I1Cent=           4 NGrid=           0.
 Petite list used in FoFCou.
 Initial guess orbital symmetries:
       Occupied  (A) (A) (A) (A) (A) (A) (A) (A) (A) (A) (A) (A)
                 (A) (A) (A) (A) (A) (A) (A) (A) (A) (A) (A) (A)
                 (A) (A) (A) (A) (A) (A) (A) (A) (A) (A) (A) (A)
                 (A) (A) (A) (A) (A) (A) (A) (A) (A) (A) (A) (A)
                 (A) (A) (A) (A) (A) (A) (A) (A)
       Virtual   (A) (A) (A) (A) (A) (A) (A) (A) (A) (A) (A) (A)
                 (A) (A) (A) (A) (A) (A) (A) (A) (A) (A) (A) (A)
                 (A) (A) (A) (A) (A) (A) (A) (A) (A) (A) (A) (A)
                 (A) (A) (A) (A) (A) (A) (A) (A) (A) (A) (A) (A)
                 (A) (A) (A) (A) (A) (A) (A) (A) (A) (A) (A) (A)
                 (A) (A) (A) (A) (A) (A) (A) (A) (A) (A) (A) (A)
                 (A) (A) (A) (A) (A) (A) (A) (A) (A) (A) (A) (A)
                 (A) (A) (A) (A) (A) (A) (A) (A) (A) (A) (A) (A)
                 (A) (A) (A) (A) (A) (A) (A) (A) (A) (A) (A) (A)
                 (A) (A) (A) (A) (A) (A) (A) (A) (A) (A) (A) (A)
                 (A) (A) (A) (A) (A) (A) (A) (A) (A) (A) (A) (A)
                 (A) (A) (A) (A) (A) (A) (A) (A) (A) (A) (A) (A)
                 (A) (A) (A) (A) (A) (A) (A) (A) (A) (A) (A) (A)
                 (A) (A) (A) (A) (A) (A) (A) (A) (A) (A) (A) (A)
                 (A) (A) (A) (A) (A) (A) (A) (A) (A) (A) (A) (A)
                 (A) (A) (A) (A) (A) (A) (A) (A) (A) (A) (A) (A)
                 (A) (A) (A) (A) (A) (A) (A) (A) (A) (A) (A) (A)
                 (A) (A) (A) (A) (A) (A) (A) (A) (A) (A) (A) (A)
                 (A) (A) (A) (A) (A) (A) (A) (A) (A) (A) (A) (A)
                 (A) (A) (A) (A) (A) (A) (A) (A) (A) (A) (A) (A)
                 (A) (A) (A) (A) (A) (A) (A) (A) (A) (A) (A) (A)
                 (A) (A) (A) (A) (A) (A) (A) (A) (A) (A) (A) (A)
                 (A) (A) (A) (A) (A) (A) (A) (A) (A) (A) (A) (A)
                 (A) (A) (A) (A) (A) (A) (A) (A) (A) (A) (A) (A)
                 (A) (A) (A) (A) (A) (A) (A) (A) (A) (A) (A) (A)
                 (A) (A) (A) (A) (A) (A) (A) (A) (A)
 The electronic state of the initial guess is 1-A.
 Requested convergence on RMS density matrix=1.00D-08 within 128 cycles.
 Requested convergence on MAX density matrix=1.00D-06.
 Requested convergence on             energy=1.00D-06.
 No special actions if energy rises.
 FoFJK:  IHMeth= 1 ICntrl=     0 DoSepK=T KAlg= 1 I1Cent= 0 FoldK=F
 FoFJK:  IHMeth= 1 ICntrl=     0 DoSepK=T KAlg= 1 I1Cent= 0 FoldK=F
 FoFJK:  IHMeth= 1 ICntrl=     0 DoSepK=T KAlg= 1 I1Cent= 0 FoldK=F
 FoFJK:  IHMeth= 1 ICntrl=     0 DoSepK=T KAlg= 1 I1Cent= 0 FoldK=F
 FoFJK:  IHMeth= 1 ICntrl=     0 DoSepK=T KAlg= 1 I1Cent= 0 FoldK=F
 FoFJK:  IHMeth= 1 ICntrl=     0 DoSepK=T KAlg= 1 I1Cent= 0 FoldK=F
 FoFJK:  IHMeth= 1 ICntrl=     0 DoSepK=T KAlg= 1 I1Cent= 0 FoldK=F
 FoFJK:  IHMeth= 1 ICntrl=     0 DoSepK=T KAlg= 1 I1Cent= 0 FoldK=F
 FoFJK:  IHMeth= 1 ICntrl=     0 DoSepK=T KAlg= 1 I1Cent= 0 FoldK=F
 FoFJK:  IHMeth= 1 ICntrl=     0 DoSepK=T KAlg= 1 I1Cent= 0 FoldK=F
 FoFJK:  IHMeth= 1 ICntrl=     0 DoSepK=T KAlg= 1 I1Cent= 0 FoldK=F
 FoFJK:  IHMeth= 1 ICntrl=     0 DoSepK=T KAlg= 1 I1Cent= 0 FoldK=F
 FoFJK:  IHMeth= 1 ICntrl=     0 DoSepK=T KAlg= 1 I1Cent= 0 FoldK=F
 FoFJK:  IHMeth= 1 ICntrl=     0 DoSepK=T KAlg= 1 I1Cent= 0 FoldK=F
 FoFJK:  IHMeth= 1 ICntrl=     0 DoSepK=T KAlg= 1 I1Cent= 0 FoldK=F
 FoFJK:  IHMeth= 1 ICntrl=     0 DoSepK=T KAlg= 1 I1Cent= 0 FoldK=F
 Error on total polarization charges =  0.03775
 SCF Done:  E(RwB97XD) =  -692.445650033     A.U. after   16 cycles
             Convg  =    0.4264D-08             -V/T =  2.0095
 SMD-CDS (non-electrostatic) energy       (kcal/mol) =      -3.95
 (included in total energy above)
 Range of M.O.s used for correlation:     1   365
 NBasis=   365 NAE=    56 NBE=    56 NFC=     0 NFV=     0
 NROrb=    365 NOA=    56 NOB=    56 NVA=   309 NVB=   309

 **** Warning!!: The largest alpha MO coefficient is  0.15882611D+03

 NEqPCM:  Using equilibrium solvation (IEInf=0, Eps=   4.7113, EpsInf=   2.0906)
          Differentiating once with respect to magnetic field using GIAOs.
          Electric field/nuclear overlap derivatives assumed to be zero.
 FoFCou: FMM=F IPFlag=           0 FMFlag=    10101102 FMFlg1=           0
         NFxFlg=    40000000 DoJE=F BraDBF=F KetDBF=T FulRan=T
         Omega=  0.000000  0.000000  1.000000  0.000000  0.000000 ICntrl=    6100 IOpCl=  0
         NMat0=    1 NMatS0=    1 NMatT0=    0 NMatD0=    1 NMtDS0=    0 NMtDT0=    0
         I1Cent=           7 NGrid=        2288.
 Symmetry not used in FoFCou.
 FoFJK:  IHMeth= 1 ICntrl=  6127 DoSepK=T KAlg= 1 I1Cent= 0 FoldK=F
 FoFJK:  IHMeth= 1 ICntrl=     0 DoSepK=T KAlg= 1 I1Cent= 0 FoldK=F
          There are     3 degrees of freedom in the 1st order CPHF.  IDoFFX=0.
      3 vectors produced by pass  0 Test12= 5.77D-13 3.33D-08 XBig12= 1.49D+02 2.80D+00.
 AX will form     3 AO Fock derivatives at one time.
 FoFJK:  IHMeth= 1 ICntrl=     0 DoSepK=T KAlg= 1 I1Cent= 0 FoldK=F
      3 vectors produced by pass  1 Test12= 5.77D-13 3.33D-08 XBig12= 1.03D+00 2.13D-01.
 FoFJK:  IHMeth= 1 ICntrl=     0 DoSepK=T KAlg= 1 I1Cent= 0 FoldK=F
      3 vectors produced by pass  2 Test12= 5.77D-13 3.33D-08 XBig12= 1.50D-02 3.82D-02.
 FoFJK:  IHMeth= 1 ICntrl=     0 DoSepK=T KAlg= 1 I1Cent= 0 FoldK=F
      3 vectors produced by pass  3 Test12= 5.77D-13 3.33D-08 XBig12= 2.80D-04 4.08D-03.
 FoFJK:  IHMeth= 1 ICntrl=     0 DoSepK=T KAlg= 1 I1Cent= 0 FoldK=F
      3 vectors produced by pass  4 Test12= 5.77D-13 3.33D-08 XBig12= 5.20D-06 4.48D-04.
 FoFJK:  IHMeth= 1 ICntrl=     0 DoSepK=T KAlg= 1 I1Cent= 0 FoldK=F
      3 vectors produced by pass  5 Test12= 5.77D-13 3.33D-08 XBig12= 8.36D-08 6.60D-05.
 FoFJK:  IHMeth= 1 ICntrl=     0 DoSepK=T KAlg= 1 I1Cent= 0 FoldK=F
      3 vectors produced by pass  6 Test12= 5.77D-13 3.33D-08 XBig12= 1.60D-09 9.46D-06.
 FoFJK:  IHMeth= 1 ICntrl=     0 DoSepK=T KAlg= 1 I1Cent= 0 FoldK=F
      3 vectors produced by pass  7 Test12= 5.77D-13 3.33D-08 XBig12= 2.03D-11 9.25D-07.
 FoFJK:  IHMeth= 1 ICntrl=     0 DoSepK=T KAlg= 1 I1Cent= 0 FoldK=F
      3 vectors produced by pass  8 Test12= 5.77D-13 3.33D-08 XBig12= 2.22D-13 9.27D-08.
 FoFJK:  IHMeth= 1 ICntrl=     0 DoSepK=T KAlg= 1 I1Cent= 0 FoldK=F
 Inverted reduced A of dimension    27 with in-core refinement.
 Calculating GIAO nuclear magnetic shielding tensors.
 SCF GIAO Magnetic shielding tensor (ppm):
      1  C    Isotropic =    69.4005   Anisotropy =   165.0302
   XX=    76.4348   YX=   -34.7641   ZX=   -76.2655
   XY=   -29.6649   YY=    97.7717   ZY=    56.7349
   XZ=   -72.7430   YZ=    58.5276   ZZ=    33.9950
   Eigenvalues:   -29.0339    57.8147   179.4207
      2  C    Isotropic =    68.8102   Anisotropy =   177.1438
   XX=    79.2563   YX=   -38.7671   ZX=   -78.9670
   XY=   -35.1930   YY=    95.4506   ZY=    58.3821
   XZ=   -82.5432   YZ=    58.7641   ZZ=    31.7238
   Eigenvalues:   -34.4742    53.9987   186.9061
      3  C    Isotropic =    69.9174   Anisotropy =   173.4255
   XX=    99.0373   YX=   -61.8254   ZX=   -31.8827
   XY=   -62.5800   YY=    45.7123   ZY=    80.0379
   XZ=   -28.8286   YZ=    80.7374   ZZ=    65.0026
   Eigenvalues:   -32.1218    56.3396   185.5344
      4  C    Isotropic =    52.5283   Anisotropy =   185.9934
   XX=    43.5482   YX=   -80.1829   ZX=   -54.4912
   XY=   -80.8172   YY=    59.6514   ZY=    48.0432
   XZ=   -60.1514   YZ=    45.5130   ZZ=    54.3852
   Eigenvalues:   -31.6148    12.6758   176.5239
      5  C    Isotropic =    73.6228   Anisotropy =   182.6289
   XX=    97.9659   YX=   -63.7828   ZX=   -35.7494
   XY=   -62.8344   YY=    56.3219   ZY=    80.0260
   XZ=   -36.1412   YZ=    85.9604   ZZ=    66.5805
   Eigenvalues:   -26.5077    52.0006   195.3754
      6  C    Isotropic =    70.9389   Anisotropy =   179.9630
   XX=    51.7811   YX=   -87.0541   ZX=   -59.4472
   XY=   -88.9295   YY=    70.7608   ZY=    32.1433
   XZ=   -61.0973   YZ=    30.2935   ZZ=    90.2747
   Eigenvalues:   -32.9213    54.8237   190.9142
      7  C    Isotropic =   120.5929   Anisotropy =    26.2308
   XX=   114.0109   YX=    -6.8996   ZX=    -0.2646
   XY=    -7.7295   YY=   135.6794   ZY=    -1.6210
   XZ=    -0.6897   YZ=    -2.9680   ZZ=   112.0885
   Eigenvalues:   110.7227   112.9761   138.0801
      8  C    Isotropic =   146.4257   Anisotropy =    29.6499
   XX=   144.4056   YX=   -14.9975   ZX=    -2.8798
   XY=   -15.7700   YY=   154.5169   ZY=    -3.2082
   XZ=    -7.3052   YZ=     4.9687   ZZ=   140.3545
   Eigenvalues:   131.6915   141.3933   166.1923
      9  C    Isotropic =    20.3266   Anisotropy =   103.9066
   XX=    70.2724   YX=    43.4258   ZX=   -19.9320
   XY=    45.0328   YY=   -16.2737   ZY=    28.0281
   XZ=   -32.5796   YZ=    62.6210   ZZ=     6.9811
   Eigenvalues:   -70.0511    41.4332    89.5977
     10  O    Isotropic =   135.7156   Anisotropy =   168.2572
   XX=   214.5996   YX=    68.6554   ZX=     5.0476
   XY=    72.4447   YY=    76.8990   ZY=   -45.6405
   XZ=    55.2808   YZ=  -177.1226   ZZ=   115.6483
   Eigenvalues:   -38.2624   197.5222   247.8871
     11  C    Isotropic =   137.4989   Anisotropy =    66.4536
   XX=   137.5364   YX=   -13.8977   ZX=     2.4814
   XY=   -18.3874   YY=   175.7561   ZY=     6.5362
   XZ=     0.7107   YZ=     1.8595   ZZ=    99.2044
   Eigenvalues:    98.8019   131.8936   181.8014
     12  O    Isotropic =   268.1472   Anisotropy =    42.8421
   XX=   294.6660   YX=    -1.7295   ZX=   -14.9049
   XY=    11.3598   YY=   285.3360   ZY=    14.8552
   XZ=     1.3853   YZ=    19.0870   ZZ=   224.4396
   Eigenvalues:   219.2310   288.5019   296.7086
     13  C    Isotropic =   179.7759   Anisotropy =    28.3571
   XX=   187.2001   YX=    15.0389   ZX=     5.4311
   XY=    12.6875   YY=   177.3014   ZY=     1.1269
   XZ=     7.9183   YZ=     2.0049   ZZ=   174.8263
   Eigenvalues:   166.5792   174.0680   198.6806
     14  O    Isotropic =   -48.8063   Anisotropy =   533.5614
   XX=   238.2015   YX=   159.9656   ZX=   -53.3709
   XY=   162.8719   YY=   -92.5576   ZY=    -4.3669
   XZ=   -38.9340   YZ=     7.1033   ZZ=  -292.0627
   Eigenvalues:  -297.5309  -155.7892   306.9013
     15  C    Isotropic =   181.1523   Anisotropy =    22.8426
   XX=   188.4601   YX=     7.7481   ZX=    -1.2268
   XY=     2.5289   YY=   192.9759   ZY=     1.8310
   XZ=    -0.8656   YZ=     2.6488   ZZ=   162.0209
   Eigenvalues:   161.7826   185.2937   196.3807
     16  H    Isotropic =    23.6812   Anisotropy =     6.7457
   XX=    24.6136   YX=     2.8755   ZX=    -1.6301
   XY=     3.0689   YY=    24.5389   ZY=    -1.6155
   XZ=    -0.9387   YZ=    -1.4440   ZZ=    21.8910
   Eigenvalues:    21.1865    21.6787    28.1783
     17  H    Isotropic =    23.7265   Anisotropy =     4.9880
   XX=    24.6264   YX=     2.6355   ZX=     1.2385
   XY=     2.6868   YY=    24.1287   ZY=    -1.1837
   XZ=     0.9768   YZ=    -1.4778   ZZ=    22.4244
   Eigenvalues:    20.2976    23.8301    27.0518
     18  H    Isotropic =    23.9295   Anisotropy =     4.9011
   XX=    25.5228   YX=     1.9494   ZX=     1.8632
   XY=     1.9773   YY=    22.6326   ZY=    -0.6665
   XZ=     2.0214   YZ=    -0.4463   ZZ=    23.6329
   Eigenvalues:    20.8521    23.7394    27.1969
     19  H    Isotropic =    23.2797   Anisotropy =     9.3887
   XX=    26.2436   YX=     1.1704   ZX=     4.8351
   XY=     2.0641   YY=    20.5569   ZY=     0.0715
   XZ=     3.9971   YZ=    -0.0405   ZZ=    23.0385
   Eigenvalues:    19.2208    21.0794    29.5388
     20  H    Isotropic =    23.6881   Anisotropy =     4.3201
   XX=    23.4208   YX=     1.0320   ZX=     1.5897
   XY=     1.3084   YY=    23.1770   ZY=    -2.5008
   XZ=     1.7306   YZ=    -2.5410   ZZ=    24.4666
   Eigenvalues:    20.0735    24.4227    26.5682
     21  H    Isotropic =    26.7008   Anisotropy =     6.1043
   XX=    24.4819   YX=    -1.2224   ZX=     0.6486
   XY=    -1.8176   YY=    28.8702   ZY=    -2.7704
   XZ=     0.8545   YZ=    -1.7750   ZZ=    26.7505
   Eigenvalues:    24.0059    25.3263    30.7704
     22  H    Isotropic =    28.3573   Anisotropy =     5.4887
   XX=    28.9228   YX=     1.4434   ZX=     2.8089
   XY=    -0.5459   YY=    25.7224   ZY=    -1.7151
   XZ=     1.4891   YZ=    -0.4616   ZZ=    30.4268
   Eigenvalues:    25.2106    27.8450    32.0165
     23  H    Isotropic =    27.1239   Anisotropy =     7.4395
   XX=    29.3715   YX=    -2.1262   ZX=    -3.4453
   XY=    -2.7482   YY=    27.6858   ZY=     1.0663
   XZ=    -2.8400   YZ=    -0.6774   ZZ=    24.3143
   Eigenvalues:    22.6351    26.6529    32.0835
     24  H    Isotropic =    27.8375   Anisotropy =     8.5707
   XX=    29.8298   YX=    -1.6466   ZX=     5.6576
   XY=    -2.1936   YY=    28.2721   ZY=    -1.8213
   XZ=     3.2941   YZ=    -0.4378   ZZ=    25.4106
   Eigenvalues:    22.6281    27.3331    33.5513
     25  H    Isotropic =    30.1158   Anisotropy =    13.7637
   XX=    36.8534   YX=    -3.2221   ZX=    -6.6221
   XY=    -0.7211   YY=    29.3970   ZY=     1.9895
   XZ=    -3.4080   YZ=     2.6276   ZZ=    24.0969
   Eigenvalues:    22.0221    29.0336    39.2916
     26  H    Isotropic =    29.8174   Anisotropy =     9.0958
   XX=    28.6403   YX=     1.5326   ZX=     0.0685
   XY=     0.5914   YY=    35.6997   ZY=     0.5056
   XZ=    -0.4423   YZ=     0.6030   ZZ=    25.1122
   Eigenvalues:    25.0664    28.5046    35.8812
     27  H    Isotropic =    30.4238   Anisotropy =     9.8231
   XX=    33.8704   YX=     2.8358   ZX=    -4.3126
   XY=     2.5984   YY=    28.0985   ZY=    -0.6270
   XZ=    -3.6736   YZ=    -0.4852   ZZ=    29.3026
   Eigenvalues:    26.2870    28.0119    36.9726
     28  H    Isotropic =    30.3344   Anisotropy =     8.0433
   XX=    30.4909   YX=     1.1231   ZX=     5.0464
   XY=     1.0035   YY=    28.5197   ZY=    -0.1142
   XZ=     3.7350   YZ=    -1.5394   ZZ=    31.9927
   Eigenvalues:    26.0529    29.2537    35.6966
     29  H    Isotropic =    31.1598   Anisotropy =     4.7808
   XX=    32.2412   YX=     0.3291   ZX=     4.1939
   XY=    -0.4223   YY=    31.0379   ZY=    -0.0900
   XZ=     1.7113   YZ=     0.5225   ZZ=    30.2005
   Eigenvalues:    28.0829    31.0496    34.3471
     30  H    Isotropic =    30.9031   Anisotropy =    11.8954
   XX=    28.1365   YX=    -1.6086   ZX=    -0.1405
   XY=    -2.5895   YY=    38.3755   ZY=     0.4287
   XZ=    -0.6592   YZ=     0.9377   ZZ=    26.1973
   Eigenvalues:    26.1112    27.7647    38.8334
     31  H    Isotropic =    30.6539   Anisotropy =     6.7907
   XX=    31.7597   YX=    -0.1310   ZX=    -3.9247
   XY=     0.1946   YY=    30.0453   ZY=    -2.3022
   XZ=    -4.0879   YZ=    -0.2388   ZZ=    30.1569
   Eigenvalues:    26.5975    30.1833    35.1811
 End of Minotr Frequency-dependent properties file   721 does not exist.
 End of Minotr Frequency-dependent properties file   722 does not exist.

 **********************************************************************

            Population analysis using the SCF density.

 **********************************************************************

 Orbital symmetries:
       Occupied  (A) (A) (A) (A) (A) (A) (A) (A) (A) (A) (A) (A)
                 (A) (A) (A) (A) (A) (A) (A) (A) (A) (A) (A) (A)
                 (A) (A) (A) (A) (A) (A) (A) (A) (A) (A) (A) (A)
                 (A) (A) (A) (A) (A) (A) (A) (A) (A) (A) (A) (A)
                 (A) (A) (A) (A) (A) (A) (A) (A)
       Virtual   (A) (A) (A) (A) (A) (A) (A) (A) (A) (A) (A) (A)
                 (A) (A) (A) (A) (A) (A) (A) (A) (A) (A) (A) (A)
                 (A) (A) (A) (A) (A) (A) (A) (A) (A) (A) (A) (A)
                 (A) (A) (A) (A) (A) (A) (A) (A) (A) (A) (A) (A)
                 (A) (A) (A) (A) (A) (A) (A) (A) (A) (A) (A) (A)
                 (A) (A) (A) (A) (A) (A) (A) (A) (A) (A) (A) (A)
                 (A) (A) (A) (A) (A) (A) (A) (A) (A) (A) (A) (A)
                 (A) (A) (A) (A) (A) (A) (A) (A) (A) (A) (A) (A)
                 (A) (A) (A) (A) (A) (A) (A) (A) (A) (A) (A) (A)
                 (A) (A) (A) (A) (A) (A) (A) (A) (A) (A) (A) (A)
                 (A) (A) (A) (A) (A) (A) (A) (A) (A) (A) (A) (A)
                 (A) (A) (A) (A) (A) (A) (A) (A) (A) (A) (A) (A)
                 (A) (A) (A) (A) (A) (A) (A) (A) (A) (A) (A) (A)
                 (A) (A) (A) (A) (A) (A) (A) (A) (A) (A) (A) (A)
                 (A) (A) (A) (A) (A) (A) (A) (A) (A) (A) (A) (A)
                 (A) (A) (A) (A) (A) (A) (A) (A) (A) (A) (A) (A)
                 (A) (A) (A) (A) (A) (A) (A) (A) (A) (A) (A) (A)
                 (A) (A) (A) (A) (A) (A) (A) (A) (A) (A) (A) (A)
                 (A) (A) (A) (A) (A) (A) (A) (A) (A) (A) (A) (A)
                 (A) (A) (A) (A) (A) (A) (A) (A) (A) (A) (A) (A)
                 (A) (A) (A) (A) (A) (A) (A) (A) (A) (A) (A) (A)
                 (A) (A) (A) (A) (A) (A) (A) (A) (A) (A) (A) (A)
                 (A) (A) (A) (A) (A) (A) (A) (A) (A) (A) (A) (A)
                 (A) (A) (A) (A) (A) (A) (A) (A) (A) (A) (A) (A)
                 (A) (A) (A) (A) (A) (A) (A) (A) (A) (A) (A) (A)
                 (A) (A) (A) (A) (A) (A) (A) (A) (A)
 The electronic state is 1-A.
 Alpha  occ. eigenvalues --  -19.32888 -19.28158 -19.27523 -10.44104 -10.35969
 Alpha  occ. eigenvalues --  -10.35061 -10.31850 -10.31648 -10.30948 -10.30940
 Alpha  occ. eigenvalues --  -10.30825 -10.30787 -10.30723 -10.29048 -10.28627
 Alpha  occ. eigenvalues --   -1.21002  -1.12918  -1.12431  -0.96410  -0.91589
 Alpha  occ. eigenvalues --   -0.86551  -0.85377  -0.84943  -0.77808  -0.75826
 Alpha  occ. eigenvalues --   -0.71587  -0.70062  -0.68595  -0.64806  -0.62239
 Alpha  occ. eigenvalues --   -0.60292  -0.57608  -0.57324  -0.56073  -0.55506
 Alpha  occ. eigenvalues --   -0.53263  -0.52652  -0.52335  -0.50831  -0.50388
 Alpha  occ. eigenvalues --   -0.49533  -0.47984  -0.46652  -0.46349  -0.45414
 Alpha  occ. eigenvalues --   -0.45061  -0.44910  -0.43260  -0.42533  -0.41727
 Alpha  occ. eigenvalues --   -0.40051  -0.38854  -0.37293  -0.35894  -0.33467
 Alpha  occ. eigenvalues --   -0.32763
 Alpha virt. eigenvalues --    0.04480   0.05184   0.06499   0.07274   0.07631
 Alpha virt. eigenvalues --    0.08252   0.08353   0.09406   0.09649   0.09976
 Alpha virt. eigenvalues --    0.10725   0.10997   0.11708   0.12564   0.12981
 Alpha virt. eigenvalues --    0.13297   0.13900   0.14426   0.14842   0.15489
 Alpha virt. eigenvalues --    0.16005   0.16265   0.17238   0.17624   0.18132
 Alpha virt. eigenvalues --    0.18735   0.19061   0.19325   0.19812   0.19930
 Alpha virt. eigenvalues --    0.20847   0.21214   0.21837   0.22680   0.22788
 Alpha virt. eigenvalues --    0.22977   0.23493   0.23932   0.24571   0.24720
 Alpha virt. eigenvalues --    0.25330   0.25641   0.25937   0.26532   0.26978
 Alpha virt. eigenvalues --    0.27659   0.27778   0.28053   0.28500   0.28927
 Alpha virt. eigenvalues --    0.29438   0.30591   0.31088   0.31227   0.31357
 Alpha virt. eigenvalues --    0.31986   0.32297   0.32640   0.32919   0.33859
 Alpha virt. eigenvalues --    0.34057   0.34689   0.35824   0.35968   0.36074
 Alpha virt. eigenvalues --    0.36393   0.37614   0.37965   0.38505   0.39137
 Alpha virt. eigenvalues --    0.40112   0.40353   0.41092   0.41623   0.42213
 Alpha virt. eigenvalues --    0.42527   0.43300   0.43574   0.44655   0.45034
 Alpha virt. eigenvalues --    0.45255   0.45871   0.46610   0.47104   0.47746
 Alpha virt. eigenvalues --    0.48989   0.50125   0.50338   0.52916   0.53474
 Alpha virt. eigenvalues --    0.54346   0.58437   0.61206   0.66544   0.70141
 Alpha virt. eigenvalues --    0.72946   0.73670   0.75070   0.75467   0.76394
 Alpha virt. eigenvalues --    0.77525   0.78586   0.79492   0.80191   0.81309
 Alpha virt. eigenvalues --    0.82288   0.82866   0.83337   0.84529   0.84871
 Alpha virt. eigenvalues --    0.85467   0.87131   0.87668   0.89367   0.90277
 Alpha virt. eigenvalues --    0.90667   0.91883   0.93508   0.94284   0.95485
 Alpha virt. eigenvalues --    0.97510   0.99194   1.00908   1.01464   1.02280
 Alpha virt. eigenvalues --    1.03420   1.04601   1.06558   1.07242   1.07886
 Alpha virt. eigenvalues --    1.09249   1.10098   1.10475   1.11990   1.13072
 Alpha virt. eigenvalues --    1.14242   1.14845   1.16903   1.18010   1.19521
 Alpha virt. eigenvalues --    1.21423   1.22103   1.22901   1.24671   1.25214
 Alpha virt. eigenvalues --    1.25633   1.27253   1.28517   1.29505   1.29916
 Alpha virt. eigenvalues --    1.32937   1.34077   1.35146   1.37652   1.38574
 Alpha virt. eigenvalues --    1.40232   1.41827   1.42542   1.42970   1.45223
 Alpha virt. eigenvalues --    1.45717   1.46010   1.47377   1.49303   1.49439
 Alpha virt. eigenvalues --    1.51173   1.52438   1.53844   1.54638   1.58451
 Alpha virt. eigenvalues --    1.58850   1.60074   1.63514   1.63819   1.66530
 Alpha virt. eigenvalues --    1.68870   1.69666   1.70717   1.73631   1.76317
 Alpha virt. eigenvalues --    1.78168   1.80919   1.85987   1.87256   1.88678
 Alpha virt. eigenvalues --    1.89485   1.89990   1.91817   1.94362   1.95706
 Alpha virt. eigenvalues --    1.97542   1.98607   1.98995   2.00778   2.01466
 Alpha virt. eigenvalues --    2.02416   2.04092   2.04510   2.05030   2.06693
 Alpha virt. eigenvalues --    2.07173   2.08662   2.10393   2.10772   2.11601
 Alpha virt. eigenvalues --    2.13007   2.13540   2.15272   2.16230   2.18387
 Alpha virt. eigenvalues --    2.18501   2.21022   2.21440   2.21910   2.23518
 Alpha virt. eigenvalues --    2.24732   2.26463   2.27857   2.29932   2.32691
 Alpha virt. eigenvalues --    2.34088   2.35494   2.36458   2.38870   2.41020
 Alpha virt. eigenvalues --    2.42348   2.43557   2.43985   2.47661   2.48363
 Alpha virt. eigenvalues --    2.49138   2.49908   2.50954   2.52018   2.54664
 Alpha virt. eigenvalues --    2.54991   2.56821   2.57882   2.59077   2.60801
 Alpha virt. eigenvalues --    2.62436   2.63809   2.64306   2.64766   2.67452
 Alpha virt. eigenvalues --    2.68962   2.71970   2.72903   2.73561   2.74974
 Alpha virt. eigenvalues --    2.77423   2.78632   2.79339   2.81766   2.83133
 Alpha virt. eigenvalues --    2.84506   2.85388   2.87059   2.88538   2.90692
 Alpha virt. eigenvalues --    2.91133   2.93156   2.95397   2.96850   2.97452
 Alpha virt. eigenvalues --    2.98359   3.00902   3.01378   3.05601   3.10296
 Alpha virt. eigenvalues --    3.12167   3.14978   3.16419   3.21559   3.25867
 Alpha virt. eigenvalues --    3.27407   3.31283   3.36946   3.37253   3.38645
 Alpha virt. eigenvalues --    3.38915   3.43737   3.44965   3.47800   3.52339
 Alpha virt. eigenvalues --    3.54538   3.58472   3.59652   3.60798   3.62222
 Alpha virt. eigenvalues --    3.64345   3.66501   3.69894   3.99754   4.42138
 Alpha virt. eigenvalues --    4.44056   4.44817   4.50533   4.53358   4.56623
 Alpha virt. eigenvalues --    4.57774   4.59650   4.64458   4.65235   4.76151
 Alpha virt. eigenvalues --    4.81007   4.83121   4.92976   4.97893
          Condensed to atoms (all electrons):
              1          2          3          4          5          6
     1  C   22.532458  -1.347192  -0.713151  -7.638544  -9.905237   0.975934
     2  C   -1.347192   7.274658   0.259817   0.311898   0.131942   0.441853
     3  C   -0.713151   0.259817   7.010145   0.283325  -0.473433   0.343631
     4  C   -7.638544   0.311898   0.283325  21.737966  -1.715885  -1.693474
     5  C   -9.905237   0.131942  -0.473433  -1.715885  17.939847   0.080504
     6  C    0.975934   0.441853   0.343631  -1.693474   0.080504   5.797777
     7  C    2.972421  -1.449258  -0.874401  -6.786044  -0.571795   0.017914
     8  C   -2.371990   0.228402  -0.063273   1.102204   1.767614  -0.117072
     9  C    0.601924   0.086705   0.061387   0.665843  -0.625082   0.032718
    10  O    0.089265   0.004456   0.015833   0.109257  -0.070185   0.002939
    11  C    0.088253   0.010274   0.012488   0.023049  -0.073886   0.003097
    12  O   -0.112593   0.075194   0.012719   0.504286  -0.072278   0.001361
    13  C    0.200460  -0.100912  -0.033791  -0.725497  -0.279499  -0.005294
    14  O   -0.002934   0.002442   0.009673   0.016477  -0.022215   0.000026
    15  C    0.008596  -0.001532  -0.011295  -0.024560   0.017313  -0.000174
    16  H    0.157663   0.014802   0.089538   0.107684  -0.025812  -0.015077
    17  H    0.007460   0.273501  -0.000930   0.057955   0.007224  -0.010595
    18  H    0.033535  -0.003118   0.258021   0.008360  -0.000351   0.032506
    19  H    0.045707  -0.039753  -0.003538   0.088715   0.189266  -0.016930
    20  H    0.003880   0.013069   0.022109  -0.000856   0.000811   0.286208
    21  H    0.417461  -0.006359   0.071879  -0.081925  -0.215597   0.008712
    22  H    0.077529  -0.017875   0.004272   0.125678  -0.144950  -0.002669
    23  H   -0.006334   0.000461   0.000966   0.008422   0.000624  -0.000377
    24  H    0.005959  -0.000091  -0.000676  -0.005221   0.000468   0.000173
    25  H   -0.042634   0.012759   0.003476   0.098205  -0.049417  -0.007824
    26  H   -0.006453   0.001860  -0.000138  -0.011190   0.017683   0.000095
    27  H    0.001359  -0.000571  -0.000111  -0.010034  -0.006421  -0.000017
    28  H    0.021912  -0.000793   0.000739  -0.005169  -0.018302   0.000035
    29  H    0.021188   0.000823  -0.006737  -0.012091   0.001154   0.001100
    30  H   -0.001047  -0.000176  -0.000993   0.002081   0.000473  -0.000014
    31  H   -0.024361   0.001725   0.016876   0.012427  -0.002467  -0.003074
              7          8          9         10         11         12
     1  C    2.972421  -2.371990   0.601924   0.089265   0.088253  -0.112593
     2  C   -1.449258   0.228402   0.086705   0.004456   0.010274   0.075194
     3  C   -0.874401  -0.063273   0.061387   0.015833   0.012488   0.012719
     4  C   -6.786044   1.102204   0.665843   0.109257   0.023049   0.504286
     5  C   -0.571795   1.767614  -0.625082  -0.070185  -0.073886  -0.072278
     6  C    0.017914  -0.117072   0.032718   0.002939   0.003097   0.001361
     7  C   14.094197  -1.424637  -1.036483  -0.149199  -0.120355  -0.198608
     8  C   -1.424637   8.995322  -0.663713  -0.433477  -0.041753  -0.143517
     9  C   -1.036483  -0.663713   5.969131   0.435219  -0.113516   0.050617
    10  O   -0.149199  -0.433477   0.435219   8.455509   0.098891  -0.001057
    11  C   -0.120355  -0.041753  -0.113516   0.098891   5.173956  -0.000537
    12  O   -0.198608  -0.143517   0.050617  -0.001057  -0.000537   8.291411
    13  C    1.156380  -0.817158  -0.220764  -0.049006  -0.025331  -0.051802
    14  O   -0.025561  -0.101006   0.682399  -0.160271   0.002415  -0.000690
    15  C    0.009846  -0.022191  -0.011826  -0.051715   0.293759   0.000197
    16  H   -0.021561   0.005067  -0.000735   0.000623  -0.002339  -0.000008
    17  H   -0.007631  -0.001048   0.001560   0.000003  -0.000006   0.000078
    18  H   -0.002578  -0.001061   0.000387  -0.000039   0.000234   0.000016
    19  H    0.051374  -0.016993   0.006497  -0.000142   0.000037   0.000206
    20  H    0.002047  -0.000025  -0.000355   0.000000   0.000005  -0.000006
    21  H    0.122181  -0.060015   0.035859   0.021841   0.008094  -0.045855
    22  H   -0.051100   0.302128   0.001615   0.015259   0.003730   0.004166
    23  H   -0.005530   0.014182   0.000223  -0.037062   0.392932   0.000008
    24  H    0.002303  -0.001715   0.007289  -0.060469   0.428534   0.000004
    25  H   -0.012001   0.018269  -0.001043   0.000195   0.000201   0.235584
    26  H   -0.002484  -0.064284  -0.016141  -0.000709  -0.000661   0.006566
    27  H    0.061135  -0.149993   0.008534  -0.002829  -0.003186  -0.000564
    28  H    0.004564  -0.089481   0.001283   0.010382   0.003424  -0.001474
    29  H   -0.002557  -0.002330  -0.008416  -0.004986  -0.031091  -0.000001
    30  H    0.000080   0.001742   0.007483   0.007084  -0.046833   0.000000
    31  H   -0.002475   0.004202   0.010248  -0.004117  -0.054401   0.000003
             13         14         15         16         17         18
     1  C    0.200460  -0.002934   0.008596   0.157663   0.007460   0.033535
     2  C   -0.100912   0.002442  -0.001532   0.014802   0.273501  -0.003118
     3  C   -0.033791   0.009673  -0.011295   0.089538  -0.000930   0.258021
     4  C   -0.725497   0.016477  -0.024560   0.107684   0.057955   0.008360
     5  C   -0.279499  -0.022215   0.017313  -0.025812   0.007224  -0.000351
     6  C   -0.005294   0.000026  -0.000174  -0.015077  -0.010595   0.032506
     7  C    1.156380  -0.025561   0.009846  -0.021561  -0.007631  -0.002578
     8  C   -0.817158  -0.101006  -0.022191   0.005067  -0.001048  -0.001061
     9  C   -0.220764   0.682399  -0.011826  -0.000735   0.001560   0.000387
    10  O   -0.049006  -0.160271  -0.051715   0.000623   0.000003  -0.000039
    11  C   -0.025331   0.002415   0.293759  -0.002339  -0.000006   0.000234
    12  O   -0.051802  -0.000690   0.000197  -0.000008   0.000078   0.000016
    13  C    6.337533  -0.047330   0.006828   0.000105   0.000005   0.000037
    14  O   -0.047330   8.144222  -0.031478  -0.000134  -0.000028  -0.000006
    15  C    0.006828  -0.031478   5.165464   0.001961   0.000006   0.000669
    16  H    0.000105  -0.000134   0.001961   0.515593   0.000011  -0.003970
    17  H    0.000005  -0.000028   0.000006   0.000011   0.493727  -0.000123
    18  H    0.000037  -0.000006   0.000669  -0.003970  -0.000123   0.498687
    19  H    0.014375  -0.000500  -0.000110  -0.000111  -0.003915   0.000011
    20  H   -0.000021   0.000005  -0.000040  -0.000126  -0.003804  -0.003852
    21  H   -0.053449  -0.000340  -0.000477   0.003328   0.000002  -0.000003
    22  H   -0.022741  -0.007415  -0.000443  -0.000001   0.000004   0.000000
    23  H   -0.001272  -0.000665  -0.034539  -0.000001   0.000000   0.000000
    24  H   -0.001376   0.000715  -0.044870  -0.000015   0.000000   0.000000
    25  H   -0.007202  -0.000022  -0.000081   0.000120  -0.000002   0.000000
    26  H    0.441450   0.000054  -0.000014   0.000000   0.000000   0.000000
    27  H    0.460024   0.001116   0.000156   0.000000   0.000000   0.000000
    28  H    0.423803   0.000003  -0.000063   0.000000   0.000000   0.000000
    29  H   -0.001609   0.003161   0.406485  -0.000077   0.000000  -0.000009
    30  H    0.000074  -0.000211   0.393899   0.000006   0.000000   0.000001
    31  H    0.000795  -0.000856   0.407055   0.000260   0.000000  -0.000024
             19         20         21         22         23         24
     1  C    0.045707   0.003880   0.417461   0.077529  -0.006334   0.005959
     2  C   -0.039753   0.013069  -0.006359  -0.017875   0.000461  -0.000091
     3  C   -0.003538   0.022109   0.071879   0.004272   0.000966  -0.000676
     4  C    0.088715  -0.000856  -0.081925   0.125678   0.008422  -0.005221
     5  C    0.189266   0.000811  -0.215597  -0.144950   0.000624   0.000468
     6  C   -0.016930   0.286208   0.008712  -0.002669  -0.000377   0.000173
     7  C    0.051374   0.002047   0.122181  -0.051100  -0.005530   0.002303
     8  C   -0.016993  -0.000025  -0.060015   0.302128   0.014182  -0.001715
     9  C    0.006497  -0.000355   0.035859   0.001615   0.000223   0.007289
    10  O   -0.000142   0.000000   0.021841   0.015259  -0.037062  -0.060469
    11  C    0.000037   0.000005   0.008094   0.003730   0.392932   0.428534
    12  O    0.000206  -0.000006  -0.045855   0.004166   0.000008   0.000004
    13  C    0.014375  -0.000021  -0.053449  -0.022741  -0.001272  -0.001376
    14  O   -0.000500   0.000005  -0.000340  -0.007415  -0.000665   0.000715
    15  C   -0.000110  -0.000040  -0.000477  -0.000443  -0.034539  -0.044870
    16  H   -0.000111  -0.000126   0.003328  -0.000001  -0.000001  -0.000015
    17  H   -0.003915  -0.003804   0.000002   0.000004   0.000000   0.000000
    18  H    0.000011  -0.003852  -0.000003   0.000000   0.000000   0.000000
    19  H    0.503916  -0.000120  -0.000095  -0.000105   0.000000   0.000000
    20  H   -0.000120   0.496660   0.000000   0.000000   0.000000   0.000000
    21  H   -0.000095   0.000000   0.617728   0.004784  -0.000008   0.000010
    22  H   -0.000105   0.000000   0.004784   0.512942  -0.000003   0.000002
    23  H    0.000000   0.000000  -0.000008  -0.000003   0.521134  -0.031216
    24  H    0.000000   0.000000   0.000010   0.000002  -0.031216   0.529158
    25  H   -0.000173   0.000000  -0.002226  -0.000037   0.000000   0.000000
    26  H    0.000000   0.000000   0.000110  -0.003836   0.000000   0.000000
    27  H    0.000003   0.000000  -0.000041  -0.003074  -0.000004   0.000001
    28  H   -0.000001   0.000000   0.003546   0.004132   0.000009   0.000012
    29  H   -0.000001   0.000000   0.000005   0.000005  -0.004754   0.003925
    30  H    0.000000   0.000000   0.000000   0.000000  -0.001204  -0.001046
    31  H    0.000000   0.000000  -0.000017   0.000000   0.003856  -0.005316
             25         26         27         28         29         30
     1  C   -0.042634  -0.006453   0.001359   0.021912   0.021188  -0.001047
     2  C    0.012759   0.001860  -0.000571  -0.000793   0.000823  -0.000176
     3  C    0.003476  -0.000138  -0.000111   0.000739  -0.006737  -0.000993
     4  C    0.098205  -0.011190  -0.010034  -0.005169  -0.012091   0.002081
     5  C   -0.049417   0.017683  -0.006421  -0.018302   0.001154   0.000473
     6  C   -0.007824   0.000095  -0.000017   0.000035   0.001100  -0.000014
     7  C   -0.012001  -0.002484   0.061135   0.004564  -0.002557   0.000080
     8  C    0.018269  -0.064284  -0.149993  -0.089481  -0.002330   0.001742
     9  C   -0.001043  -0.016141   0.008534   0.001283  -0.008416   0.007483
    10  O    0.000195  -0.000709  -0.002829   0.010382  -0.004986   0.007084
    11  C    0.000201  -0.000661  -0.003186   0.003424  -0.031091  -0.046833
    12  O    0.235584   0.006566  -0.000564  -0.001474  -0.000001   0.000000
    13  C   -0.007202   0.441450   0.460024   0.423803  -0.001609   0.000074
    14  O   -0.000022   0.000054   0.001116   0.000003   0.003161  -0.000211
    15  C   -0.000081  -0.000014   0.000156  -0.000063   0.406485   0.393899
    16  H    0.000120   0.000000   0.000000   0.000000  -0.000077   0.000006
    17  H   -0.000002   0.000000   0.000000   0.000000   0.000000   0.000000
    18  H    0.000000   0.000000   0.000000   0.000000  -0.000009   0.000001
    19  H   -0.000173   0.000000   0.000003  -0.000001  -0.000001   0.000000
    20  H    0.000000   0.000000   0.000000   0.000000   0.000000   0.000000
    21  H   -0.002226   0.000110  -0.000041   0.003546   0.000005   0.000000
    22  H   -0.000037  -0.003836  -0.003074   0.004132   0.000005   0.000000
    23  H    0.000000   0.000000  -0.000004   0.000009  -0.004754  -0.001204
    24  H    0.000000   0.000000   0.000001   0.000012   0.003925  -0.001046
    25  H    0.355918  -0.000048   0.000000  -0.000031   0.000000   0.000000
    26  H   -0.000048   0.495983  -0.023007  -0.023709   0.000000   0.000000
    27  H    0.000000  -0.023007   0.513717  -0.025495   0.000000   0.000000
    28  H   -0.000031  -0.023709  -0.025495   0.511952   0.000000   0.000000
    29  H    0.000000   0.000000   0.000000   0.000000   0.508866  -0.022137
    30  H    0.000000   0.000000   0.000000   0.000000  -0.022137   0.507616
    31  H    0.000000   0.000000   0.000000   0.000000  -0.029807  -0.023611
             31
     1  C   -0.024361
     2  C    0.001725
     3  C    0.016876
     4  C    0.012427
     5  C   -0.002467
     6  C   -0.003074
     7  C   -0.002475
     8  C    0.004202
     9  C    0.010248
    10  O   -0.004117
    11  C   -0.054401
    12  O    0.000003
    13  C    0.000795
    14  O   -0.000856
    15  C    0.407055
    16  H    0.000260
    17  H    0.000000
    18  H   -0.000024
    19  H    0.000000
    20  H    0.000000
    21  H   -0.000017
    22  H    0.000000
    23  H    0.003856
    24  H   -0.005316
    25  H    0.000000
    26  H    0.000000
    27  H    0.000000
    28  H    0.000000
    29  H   -0.029807
    30  H   -0.023611
    31  H    0.521414
 Mulliken atomic charges:
              1
     1  C   -0.090493
     2  C   -0.179014
     3  C   -0.294427
     4  C   -0.553344
     5  C    0.117889
     6  C   -0.153991
     7  C    0.249816
     8  C    0.147601
     9  C    0.031155
    10  O   -0.241493
    11  C   -0.029477
    12  O   -0.553426
    13  C   -0.597815
    14  O   -0.461045
    15  C   -0.476826
    16  H    0.173203
    17  H    0.186548
    18  H    0.182670
    19  H    0.182378
    20  H    0.184412
    21  H    0.150866
    22  H    0.198006
    23  H    0.180151
    24  H    0.173458
    25  H    0.398015
    26  H    0.188873
    27  H    0.179301
    28  H    0.178719
    29  H    0.179891
    30  H    0.176733
    31  H    0.171666
 Sum of Mulliken atomic charges =   0.00000
 Mulliken charges with hydrogens summed into heavy atoms:
              1
     1  C    0.082710
     2  C    0.007534
     3  C   -0.111756
     4  C   -0.553344
     5  C    0.300267
     6  C    0.030420
     7  C    0.400682
     8  C    0.345607
     9  C    0.031155
    10  O   -0.241493
    11  C    0.324131
    12  O   -0.155410
    13  C   -0.050921
    14  O   -0.461045
    15  C    0.051464
 Sum of Mulliken charges with hydrogens summed into heavy atoms =   0.00000
 Electronic spatial extent (au):  <R**2>=           3264.1579
 Charge=              0.0000 electrons
 Dipole moment (field-independent basis, Debye):
    X=              1.0995    Y=              1.8074    Z=             -2.4985  Tot=              3.2739
 Quadrupole moment (field-independent basis, Debye-Ang):
   XX=            -80.7004   YY=            -87.4769   ZZ=            -92.9893
   XY=             -1.3203   XZ=              5.6620   YZ=             -6.4779
 Traceless Quadrupole moment (field-independent basis, Debye-Ang):
   XX=              6.3552   YY=             -0.4214   ZZ=             -5.9338
   XY=             -1.3203   XZ=              5.6620   YZ=             -6.4779
 Octapole moment (field-independent basis, Debye-Ang**2):
  XXX=            -13.8304  YYY=             33.3608  ZZZ=            -17.2986  XYY=            -10.1248
  XXY=             14.2215  XXZ=              2.5946  XZZ=             14.4412  YZZ=             -5.7740
  YYZ=             -0.4937  XYZ=              5.4265
 Hexadecapole moment (field-independent basis, Debye-Ang**3):
 XXXX=          -2235.5467 YYYY=          -1557.2529 ZZZZ=           -521.6066 XXXY=              8.3647
 XXXZ=             66.1206 YYYX=            -52.0569 YYYZ=            -24.9595 ZZZX=             33.0755
 ZZZY=            -12.8847 XXYY=           -553.1080 XXZZ=           -466.0957 YYZZ=           -332.2842
 XXYZ=             -8.2956 YYXZ=            -18.2958 ZZXY=             -8.8178
 N-N= 1.028908891280D+03 E-N=-3.669633721539D+03  KE= 6.859065212518D+02
 1\1\GINC-COMPUTE-5-22\SP\RwB97XD\6-31+G(d,p)\C12H16O3\ELUCIANO.IQUIR\1
 7-May-2022\0\\# wb97xd/6-31+g** scrf=(pcm,solvent=chloroform,smd,dovac
 uum) nmr\\comment\\0,1\C,0,1.296363794,0.686936869,-1.309045227\C,0,-0
 .579475292,2.629356946,-2.003287769\C,0,1.12387451,1.047054331,-2.6465
 81815\C,0,0.528272876,1.290825052,-0.302490974\C,0,-0.408817117,2.2706
 28526,-0.665472622\C,0,0.185786149,2.016881655,-2.993116532\C,0,0.7220
 39628,0.890153409,1.147722364\C,0,-0.527668531,0.286363037,1.805268464
 \C,0,-1.01668808,-0.93142748,1.053242807\O,0,-0.014620081,-1.833139069
 ,0.855073832\C,0,-0.387901693,-3.039980401,0.173235002\O,0,1.131213161
 ,2.050207119,1.884191954\C,0,-0.289519534,-0.089692332,3.268469798\O,0
 ,-2.181991453,-1.091574626,0.712110209\C,0,-0.304496039,-2.841190437,-
 1.328488264\H,0,2.0320662,-0.075386663,-1.060409895\H,0,-1.312065611,3
 .385963554,-2.2728599\H,0,1.72028469,0.568896619,-3.419451652\H,0,-1.0
 12783213,2.762742188,0.09480787\H,0,0.04991259,2.295123001,-4.03498750
 6\H,0,1.557394084,0.182624824,1.218096989\H,0,-1.339199558,1.025778104
 ,1.790520033\H,0,-1.384235023,-3.379200972,0.478960236\H,0,0.32258553,
 -3.813896915,0.481647729\H,0,1.623237078,2.62439536,1.270710635\H,0,-0
 .068181737,0.795425385,3.873309384\H,0,-1.175384441,-0.573627445,3.694
 609313\H,0,0.547389761,-0.789390214,3.370055325\H,0,-0.993251163,-2.05
 8327195,-1.66134254\H,0,-0.546773493,-3.767957882,-1.856132522\H,0,0.7
 02632007,-2.524564347,-1.618364727\\Version=EM64L-G09RevC.01\State=1-A
 \HF=-692.44565\RMSD=4.264e-09\Dipole=0.9905269,-0.3363199,-0.7515207\Q
 uadrupole=-6.3764174,5.7274045,0.6490129,-4.0664066,-1.8607394,-2.4253
 812\PG=C01 [X(C12H16O3)]\\@


 IF MATHEMATICALLY YOU END UP WITH THE INCORRECT ANSWER,
 TRY MULTIPLYING BY THE PAGE NUMBER.
 Job cpu time:  0 days  0 hours 47 minutes 37.8 seconds.
 File lengths (MBytes):  RWF=    124 Int=      0 D2E=      0 Chk=      9 Scr=      1
 Normal termination of Gaussian 09 at Tue May 17 16:12:12 2022.
