 Entering Gaussian System, Link 0=g09
 Input=/home/eluciano.iquir/wb9/73a_014.gjc
 Output=/home/eluciano.iquir/wb9/73a_014.log
 Initial command:
 /share/apps/Gaussian09/EM64T.SSE4.2-enabled/g09/l1.exe /tmp/Gau-29705.inp -scrdir=/tmp/
 Entering Link 1 = /share/apps/Gaussian09/EM64T.SSE4.2-enabled/g09/l1.exe PID=     29706.
  
 Copyright (c) 1988,1990,1992,1993,1995,1998,2003,2009,2011,
            Gaussian, Inc.  All Rights Reserved.
  
 This is part of the Gaussian(R) 09 program.  It is based on
 the Gaussian(R) 03 system (copyright 2003, Gaussian, Inc.),
 the Gaussian(R) 98 system (copyright 1998, Gaussian, Inc.),
 the Gaussian(R) 94 system (copyright 1995, Gaussian, Inc.),
 the Gaussian 92(TM) system (copyright 1992, Gaussian, Inc.),
 the Gaussian 90(TM) system (copyright 1990, Gaussian, Inc.),
 the Gaussian 88(TM) system (copyright 1988, Gaussian, Inc.),
 the Gaussian 86(TM) system (copyright 1986, Carnegie Mellon
 University), and the Gaussian 82(TM) system (copyright 1983,
 Carnegie Mellon University). Gaussian is a federally registered
 trademark of Gaussian, Inc.
  
 This software contains proprietary and confidential information,
 including trade secrets, belonging to Gaussian, Inc.
  
 This software is provided under written license and may be
 used, copied, transmitted, or stored only in accord with that
 written license.
  
 The following legend is applicable only to US Government
 contracts under FAR:
  
                    RESTRICTED RIGHTS LEGEND
  
 Use, reproduction and disclosure by the US Government is
 subject to restrictions as set forth in subparagraphs (a)
 and (c) of the Commercial Computer Software - Restricted
 Rights clause in FAR 52.227-19.
  
 Gaussian, Inc.
 340 Quinnipiac St., Bldg. 40, Wallingford CT 06492
  
  
 ---------------------------------------------------------------
 Warning -- This program may not be used in any manner that
 competes with the business of Gaussian, Inc. or will provide
 assistance to any competitor of Gaussian, Inc.  The licensee
 of this program is prohibited from giving any competitor of
 Gaussian, Inc. access to this program.  By using this program,
 the user acknowledges that Gaussian, Inc. is engaged in the
 business of creating and licensing software in the field of
 computational chemistry and represents and warrants to the
 licensee that it is not a competitor of Gaussian, Inc. and that
 it will not use this program in any manner prohibited above.
 ---------------------------------------------------------------
  

 Cite this work as:
 Gaussian 09, Revision C.01,
 M. J. Frisch, G. W. Trucks, H. B. Schlegel, G. E. Scuseria, 
 M. A. Robb, J. R. Cheeseman, G. Scalmani, V. Barone, B. Mennucci, 
 G. A. Petersson, H. Nakatsuji, M. Caricato, X. Li, H. P. Hratchian, 
 A. F. Izmaylov, J. Bloino, G. Zheng, J. L. Sonnenberg, M. Hada, 
 M. Ehara, K. Toyota, R. Fukuda, J. Hasegawa, M. Ishida, T. Nakajima, 
 Y. Honda, O. Kitao, H. Nakai, T. Vreven, J. A. Montgomery, Jr., 
 J. E. Peralta, F. Ogliaro, M. Bearpark, J. J. Heyd, E. Brothers, 
 K. N. Kudin, V. N. Staroverov, T. Keith, R. Kobayashi, J. Normand, 
 K. Raghavachari, A. Rendell, J. C. Burant, S. S. Iyengar, J. Tomasi, 
 M. Cossi, N. Rega, J. M. Millam, M. Klene, J. E. Knox, J. B. Cross, 
 V. Bakken, C. Adamo, J. Jaramillo, R. Gomperts, R. E. Stratmann, 
 O. Yazyev, A. J. Austin, R. Cammi, C. Pomelli, J. W. Ochterski, 
 R. L. Martin, K. Morokuma, V. G. Zakrzewski, G. A. Voth, 
 P. Salvador, J. J. Dannenberg, S. Dapprich, A. D. Daniels, 
 O. Farkas, J. B. Foresman, J. V. Ortiz, J. Cioslowski, 
 and D. J. Fox, Gaussian, Inc., Wallingford CT, 2010.
 
 ******************************************
 Gaussian 09:  EM64L-G09RevC.01 23-Sep-2011
                17-May-2022 
 ******************************************
 %nprocshared=4
 Will use up to    4 processors via shared memory.
 ----------------------------------------------------------------
 # wb97xd/6-31+g** scrf=(pcm,solvent=chloroform,smd,dovacuum) nmr
 ----------------------------------------------------------------
 1/38=1/1;
 2/12=2,17=6,18=5,40=1/2;
 3/5=1,6=6,7=111,11=2,16=1,25=1,30=1,70=32101,72=7,74=-58/1,2,8,3;
 4//1;
 5/5=2,38=5,53=7/2;
 8/6=1,10=90,11=11/1;
 10/13=100,45=16/2;
 6/7=2,8=2,9=2,10=2,28=1/1;
 99/9=1/99;
 -------
 comment
 -------
 Charge =  0 Multiplicity = 1
 Symbolic Z-Matrix:
 6                     1.48802   0.73908  -1.64705 
 6                    -0.05528   3.01814  -2.09137 
 6                     1.22737   1.16493  -2.95091 
 6                     0.98049   1.44886  -0.5473 
 6                     0.20343   2.59268  -0.78732 
 6                     0.45615   2.30383  -3.17253 
 6                     1.24218   0.95502   0.86368 
 6                     0.04022   0.19316   1.44319 
 6                    -0.14404  -1.0979    0.67901 
 8                    -1.44324  -1.24467   0.30025 
 6                    -1.74683  -2.42791  -0.45209 
 8                     1.54033   2.09331   1.68084 
 6                     0.21188  -0.14682   2.92334 
 8                     0.75152  -1.90563   0.46622 
 6                    -2.06382  -3.57661   0.4867 
 1                     2.08796  -0.15671  -1.49539 
 1                    -0.65359   3.90925  -2.26136 
 1                     1.62714   0.60693  -3.79358 
 1                    -0.19685   3.16319   0.0487 
 1                     0.25572   2.63635  -4.18744 
 1                     2.1429    0.32735   0.85887 
 1                    -0.86531   0.80642   1.34635 
 1                    -0.93164  -2.68351  -1.13881 
 1                    -2.62465  -2.20057  -1.06572 
 1                     2.14657   1.79292   2.37862 
 1                     0.23779   0.75878   3.5376 
 1                    -0.61853  -0.76716   3.27879 
 1                     1.13786  -0.70588   3.09822 
 1                    -1.20029  -3.82239   1.11278 
 1                    -2.35271  -4.46887  -0.07582 
 1                    -2.88074  -3.30554   1.16354 
 
                          Input orientation:                          
 ---------------------------------------------------------------------
 Center     Atomic      Atomic             Coordinates (Angstroms)
 Number     Number       Type             X           Y           Z
 ---------------------------------------------------------------------
      1          6           0        1.488021    0.739079   -1.647047
      2          6           0       -0.055281    3.018138   -2.091369
      3          6           0        1.227370    1.164930   -2.950915
      4          6           0        0.980487    1.448864   -0.547301
      5          6           0        0.203428    2.592679   -0.787320
      6          6           0        0.456145    2.303827   -3.172532
      7          6           0        1.242182    0.955020    0.863678
      8          6           0        0.040220    0.193164    1.443190
      9          6           0       -0.144042   -1.097904    0.679007
     10          8           0       -1.443237   -1.244671    0.300254
     11          6           0       -1.746826   -2.427912   -0.452092
     12          8           0        1.540332    2.093308    1.680840
     13          6           0        0.211880   -0.146822    2.923337
     14          8           0        0.751521   -1.905634    0.466218
     15          6           0       -2.063820   -3.576609    0.486696
     16          1           0        2.087955   -0.156709   -1.495387
     17          1           0       -0.653588    3.909247   -2.261359
     18          1           0        1.627136    0.606929   -3.793579
     19          1           0       -0.196854    3.163186    0.048699
     20          1           0        0.255722    2.636348   -4.187436
     21          1           0        2.142896    0.327352    0.858871
     22          1           0       -0.865315    0.806421    1.346354
     23          1           0       -0.931643   -2.683509   -1.138806
     24          1           0       -2.624654   -2.200569   -1.065724
     25          1           0        2.146574    1.792917    2.378623
     26          1           0        0.237795    0.758780    3.537599
     27          1           0       -0.618530   -0.767164    3.278789
     28          1           0        1.137855   -0.705877    3.098218
     29          1           0       -1.200286   -3.822392    1.112780
     30          1           0       -2.352706   -4.468873   -0.075823
     31          1           0       -2.880738   -3.305543    1.163538
 ---------------------------------------------------------------------
                    Distance matrix (angstroms):
                    1          2          3          4          5
     1  C    0.000000
     2  C    2.788066   0.000000
     3  C    1.396194   2.412135   0.000000
     4  C    1.403862   2.433020   2.432886   0.000000
     5  C    2.413534   1.395883   2.787126   1.403476   0.000000
     6  C    2.416673   1.393094   1.393194   2.810291   2.415893
     7  C    2.531957   3.830427   3.820393   1.517638   2.546907
     8  C    3.455968   4.525783   4.654225   2.534351   3.280165
     9  C    3.383588   4.962325   4.491940   3.042108   3.986384
    10  O    4.039743   5.081125   4.848548   3.721279   4.315041
    11  C    4.682092   5.933635   5.291358   4.740959   5.396500
    12  O    3.593259   4.198912   4.734236   2.386074   2.851053
    13  C    4.827190   5.935961   6.103995   3.896446   4.612366
    14  O    3.464510   5.606756   4.618613   3.511737   4.701764
    15  C    5.982775   7.360119   6.717983   5.965931   6.695047
    16  H    1.088742   3.876637   2.146135   2.168690   3.407630
    17  H    3.874769   1.086712   3.397759   3.414920   2.154209
    18  H    2.155091   3.397348   1.086858   3.415455   3.873983
    19  H    3.404505   2.149645   3.875452   2.163388   1.088408
    20  H    3.401730   2.153133   2.153638   3.896920   3.400798
    21  H    2.622596   4.558095   4.006769   2.141566   3.406346
    22  H    3.808303   4.167228   4.793160   2.721331   2.980855
    23  H    4.222225   5.846723   4.770278   4.591581   5.408335
    24  H    5.088571   5.906652   5.451478   5.155983   5.572323
    25  H    4.213109   5.131292   5.444564   3.168463   3.799820
    26  H    5.333292   6.072551   6.576095   4.208825   4.697797
    27  H    5.565086   6.594267   6.778609   4.701765   5.338296
    28  H    4.972731   6.497975   6.332451   4.237626   5.181798
    29  H    5.970817   7.640057   6.876082   5.941193   6.836222
    30  H    6.659030   8.086775   7.267931   6.808235   7.543578
    31  H    6.583647   7.652881   7.334194   6.359278   6.935918
                    6          7          8          9         10
     6  C    0.000000
     7  C    4.327600   0.000000
     8  C    5.092424   1.536545   0.000000
     9  C    5.173621   2.483992   1.511550   0.000000
    10  O    5.315989   3.516755   2.360999   1.361214   0.000000
    11  C    5.885851   4.702090   3.695357   2.370068   1.434660
    12  O    4.977450   1.432602   2.432563   3.744946   4.685063
    13  C    6.574570   2.552993   1.528363   2.463383   3.290175
    14  O    5.572011   2.929516   2.421854   1.224638   2.298125
    15  C    7.370191   5.622048   4.421883   3.141100   2.420293
    16  H    3.395565   2.741616   3.598731   3.255096   4.108200
    17  H    2.153860   4.699708   5.292856   5.828976   5.809327
    18  H    2.153226   4.686085   5.487554   5.103681   5.441974
    19  H    3.397239   2.758807   3.289657   4.307780   4.587587
    20  H    1.086632   5.414214   6.141623   6.147090   6.171558
    21  H    4.796227   1.097851   2.186478   2.700703   3.955208
    22  H    4.940528   2.167164   1.097931   2.142905   2.373878
    23  H    5.561971   4.687680   3.985782   2.537499   2.098303
    24  H    5.849748   5.350958   4.373346   3.226979   2.043375
    25  H    5.825281   1.953216   2.805526   4.061091   5.141333
    26  H    6.889173   2.863068   2.178419   3.429959   4.161741
    27  H    7.225334   3.501561   2.173846   2.663342   3.127271
    28  H    6.988945   2.786150   2.179953   2.765778   3.844599
    29  H    7.657560   5.371347   4.215770   2.954089   2.713645
    30  H    7.959191   6.574533   5.456013   4.100169   3.371059
    31  H    7.835900   5.936395   4.566306   3.549358   2.656852
                   11         12         13         14         15
    11  C    0.000000
    12  O    5.982996   0.000000
    13  C    4.520334   2.885613   0.000000
    14  O    2.712527   4.253124   3.069539   0.000000
    15  C    1.517008   6.823771   4.783249   3.273946   0.000000
    16  H    4.577377   3.930761   4.800508   2.948337   5.732505
    17  H    6.680434   4.863318   6.639413   6.574713   8.098062
    18  H    5.635550   5.673282   6.905654   5.022504   7.031778
    19  H    5.823537   2.612727   4.403040   5.173652   7.007299
    20  H    6.603766   6.031731   7.636167   6.521649   8.113484
    21  H    4.943688   2.038949   2.866302   2.660137   5.751165
    22  H    3.804258   2.748654   2.134454   3.277810   4.624541
    23  H    1.096098   6.072812   4.923762   2.452393   2.172950
    24  H    1.094902   6.582409   5.308146   3.719192   2.148960
    25  H    6.402102   0.971938   2.793267   4.391212   7.080863
    26  H    5.478262   2.631563   1.094579   4.098341   5.779363
    27  H    4.236815   3.923828   1.095788   3.329221   4.216353
    28  H    4.887892   3.163286   1.095699   2.918235   5.031091
    29  H    2.166127   6.544401   4.333838   2.810970   1.094570
    30  H    2.161987   7.829676   5.852537   4.062047   1.093626
    31  H    2.160151   6.997218   4.758015   3.954656   1.094964
                   16         17         18         19         20
    16  H    0.000000
    17  H    4.963342   0.000000
    18  H    2.465194   4.295894   0.000000
    19  H    4.315815   2.470138   4.962307   0.000000
    20  H    4.290148   2.481308   2.480815   4.292694   0.000000
    21  H    2.404135   5.512362   4.689293   3.764673   5.861579
    22  H    4.210097   4.763187   5.715857   2.772200   5.935334
    23  H    3.953459   6.693420   4.941877   6.011150   6.245386
    24  H    5.154674   6.530276   5.779356   5.992163   6.437190
    25  H    4.337329   5.818006   6.306541   3.577407   6.884753
    26  H    5.439868   6.659424   7.463210   4.259403   7.949953
    27  H    5.521818   7.250054   7.546491   5.104796   8.251831
    28  H    4.722868   7.296143   7.032760   5.103985   8.064079
    29  H    5.572459   8.453516   7.189267   7.137048   8.481012
    30  H    6.350542   8.823631   7.444771   7.931679   8.613560
    31  H    6.455459   8.291159   7.758955   7.091584   8.589317
                   21         22         23         24         25
    21  H    0.000000
    22  H    3.084879   0.000000
    23  H    4.744343   4.284860   0.000000
    24  H    5.729222   4.237379   1.762061   0.000000
    25  H    2.111288   3.333201   6.471948   7.111685   0.000000
    26  H    3.315286   2.453706   5.923318   6.175916   2.460916
    27  H    3.831376   2.504271   4.825512   4.995395   3.874289
    28  H    2.663145   3.060843   5.113337   5.807666   2.789140
    29  H    5.334953   4.646792   2.537492   3.066759   6.658493
    30  H    6.639869   5.662476   2.517316   2.489791   8.091837
    31  H    6.207065   4.582969   3.080047   2.501230   7.262548
                   26         27         28         29         30
    26  H    0.000000
    27  H    1.768835   0.000000
    28  H    1.774368   1.766707   0.000000
    29  H    5.379123   3.790047   4.372818   0.000000
    30  H    6.862642   5.288046   6.034790   1.777297   0.000000
    31  H    5.646250   4.004403   5.162397   1.758872   1.779935
                   31
    31  H    0.000000
 Stoichiometry    C12H16O3
 Framework group  C1[X(C12H16O3)]
 Deg. of freedom    87
 Full point group                 C1      NOp   1
 Largest Abelian subgroup         C1      NOp   1
 Largest concise Abelian subgroup C1      NOp   1
                         Standard orientation:                         
 ---------------------------------------------------------------------
 Center     Atomic      Atomic             Coordinates (Angstroms)
 Number     Number       Type             X           Y           Z
 ---------------------------------------------------------------------
      1          6           0        1.660945   -0.698256    1.168233
      2          6           0        3.191663   -0.830753   -1.158280
      3          6           0        2.520220   -1.778054    0.956001
      4          6           0        1.556723    0.330876    0.219100
      5          6           0        2.331951    0.248666   -0.947951
      6          6           0        3.284960   -1.843899   -0.206681
      7          6           0        0.592846    1.480903    0.446266
      8          6           0       -0.713530    1.306672   -0.343668
      9          6           0       -1.478718    0.129594    0.216475
     10          8           0       -1.874204   -0.701005   -0.786819
     11          6           0       -2.598200   -1.871720   -0.382460
     12          8           0        1.248329    2.690699    0.047411
     13          6           0       -1.614943    2.539128   -0.277334
     14          8           0       -1.729398   -0.025723    1.405077
     15          6           0       -4.079406   -1.560371   -0.280464
     16          1           0        1.067594   -0.668524    2.080598
     17          1           0        3.790221   -0.877526   -2.064085
     18          1           0        2.592307   -2.567742    1.699275
     19          1           0        2.272965    1.036711   -1.696374
     20          1           0        3.955510   -2.683177   -0.370216
     21          1           0        0.394943    1.571070    1.522361
     22          1           0       -0.482137    1.121213   -1.400794
     23          1           0       -2.207159   -2.277002    0.557894
     24          1           0       -2.433685   -2.631853   -1.153137
     25          1           0        0.891146    3.404962    0.601407
     26          1           0       -1.150167    3.397246   -0.773034
     27          1           0       -2.573492    2.347045   -0.772350
     28          1           0       -1.831026    2.818480    0.759886
     29          1           0       -4.269681   -0.800708    0.484252
     30          1           0       -4.648372   -2.459735   -0.028593
     31          1           0       -4.453860   -1.158943   -1.227874
 ---------------------------------------------------------------------
 Rotational constants (GHZ):      0.8142719      0.4251262      0.3258685
 Standard basis: 6-31+G(d,p) (6D, 7F)
 There are   365 symmetry adapted basis functions of A   symmetry.
 Integral buffers will be    131072 words long.
 Raffenetti 2 integral format.
 Two-electron integral symmetry is turned on.
   365 basis functions,   592 primitive gaussians,   365 cartesian basis functions
    56 alpha electrons       56 beta electrons
       nuclear repulsion energy      1013.1936421218 Hartrees.
 NAtoms=   31 NActive=   31 NUniq=   31 SFac= 1.00D+00 NAtFMM=   60 NAOKFM=F Big=F
 Nuclear repulsion after empirical dispersion term =     1013.1725701649 Hartrees.
 ------------------------------------------------------------------------------
 Polarizable Continuum Model (PCM)
 =================================
 Model                : C-PCM.
 Atomic radii         : SMD-Coulomb.
 Polarization charges : Total charges.
 Charge compensation  : None.
 Solution method      : Matrix inversion.
 Cavity type          : VdW (van der Waals Surface) (Alpha=1.000).
 Cavity algorithm     : GePol (No added spheres)
                        Default sphere list used, NSphG=   31.
                        Lebedev-Laikov grids with approx.  5.0 points / Ang**2.
                        Smoothing algorithm: Karplus/York (Gamma=1.0000).
                        Polarization charges: spherical gaussians, with
                                              point-specific exponents (IZeta= 3).
                        Self-potential: point-specific (ISelfS= 7).
                        Self-field    : sphere-specific E.n sum rule (ISelfD= 2).
 Solvent              : Chloroform, Eps=   4.711300 Eps(inf)=   2.090627
 ------------------------------------------------------------------------------
 ------------------------------------------------------------------------------
 Atomic radii for non-electrostatic terms: SMD-CDS.
 ------------------------------------------------------------------------------
 Nuclear repulsion after PCM non-electrostatic terms =     1013.1658827610 Hartrees.
 One-electron integrals computed using PRISM.
 NBasis=   365 RedAO= T  NBF=   365
 NBsUse=   365 1.00D-06 NBFU=   365
 Harris functional with IExCor= 4639 diagonalized for initial guess.
 ExpMin= 4.38D-02 ExpMax= 5.48D+03 ExpMxC= 8.25D+02 IAcc=2 IRadAn=         4 AccDes= 0.00D+00
 HarFok:  IExCor= 4639 AccDes= 0.00D+00 IRadAn=         4 IDoV= 1
 ScaDFX=  1.000000  1.000000  1.000000  1.000000
 FoFCou: FMM=F IPFlag=           0 FMFlag=      100000 FMFlg1=           0
         NFxFlg=           0 DoJE=T BraDBF=F KetDBF=T FulRan=T
         Omega=  0.000000  0.000000  1.000000  0.000000  0.000000 ICntrl=     500 IOpCl=  0
         NMat0=    1 NMatS0=    1 NMatT0=    0 NMatD0=    1 NMtDS0=    0 NMtDT0=    0
         I1Cent=           4 NGrid=           0.
 Petite list used in FoFCou.
 Initial guess orbital symmetries:
       Occupied  (A) (A) (A) (A) (A) (A) (A) (A) (A) (A) (A) (A)
                 (A) (A) (A) (A) (A) (A) (A) (A) (A) (A) (A) (A)
                 (A) (A) (A) (A) (A) (A) (A) (A) (A) (A) (A) (A)
                 (A) (A) (A) (A) (A) (A) (A) (A) (A) (A) (A) (A)
                 (A) (A) (A) (A) (A) (A) (A) (A)
       Virtual   (A) (A) (A) (A) (A) (A) (A) (A) (A) (A) (A) (A)
                 (A) (A) (A) (A) (A) (A) (A) (A) (A) (A) (A) (A)
                 (A) (A) (A) (A) (A) (A) (A) (A) (A) (A) (A) (A)
                 (A) (A) (A) (A) (A) (A) (A) (A) (A) (A) (A) (A)
                 (A) (A) (A) (A) (A) (A) (A) (A) (A) (A) (A) (A)
                 (A) (A) (A) (A) (A) (A) (A) (A) (A) (A) (A) (A)
                 (A) (A) (A) (A) (A) (A) (A) (A) (A) (A) (A) (A)
                 (A) (A) (A) (A) (A) (A) (A) (A) (A) (A) (A) (A)
                 (A) (A) (A) (A) (A) (A) (A) (A) (A) (A) (A) (A)
                 (A) (A) (A) (A) (A) (A) (A) (A) (A) (A) (A) (A)
                 (A) (A) (A) (A) (A) (A) (A) (A) (A) (A) (A) (A)
                 (A) (A) (A) (A) (A) (A) (A) (A) (A) (A) (A) (A)
                 (A) (A) (A) (A) (A) (A) (A) (A) (A) (A) (A) (A)
                 (A) (A) (A) (A) (A) (A) (A) (A) (A) (A) (A) (A)
                 (A) (A) (A) (A) (A) (A) (A) (A) (A) (A) (A) (A)
                 (A) (A) (A) (A) (A) (A) (A) (A) (A) (A) (A) (A)
                 (A) (A) (A) (A) (A) (A) (A) (A) (A) (A) (A) (A)
                 (A) (A) (A) (A) (A) (A) (A) (A) (A) (A) (A) (A)
                 (A) (A) (A) (A) (A) (A) (A) (A) (A) (A) (A) (A)
                 (A) (A) (A) (A) (A) (A) (A) (A) (A) (A) (A) (A)
                 (A) (A) (A) (A) (A) (A) (A) (A) (A) (A) (A) (A)
                 (A) (A) (A) (A) (A) (A) (A) (A) (A) (A) (A) (A)
                 (A) (A) (A) (A) (A) (A) (A) (A) (A) (A) (A) (A)
                 (A) (A) (A) (A) (A) (A) (A) (A) (A) (A) (A) (A)
                 (A) (A) (A) (A) (A) (A) (A) (A) (A) (A) (A) (A)
                 (A) (A) (A) (A) (A) (A) (A) (A) (A)
 The electronic state of the initial guess is 1-A.
 Requested convergence on RMS density matrix=1.00D-08 within 128 cycles.
 Requested convergence on MAX density matrix=1.00D-06.
 Requested convergence on             energy=1.00D-06.
 No special actions if energy rises.
 FoFJK:  IHMeth= 1 ICntrl=     0 DoSepK=T KAlg= 1 I1Cent= 0 FoldK=F
 FoFJK:  IHMeth= 1 ICntrl=     0 DoSepK=T KAlg= 1 I1Cent= 0 FoldK=F
 FoFJK:  IHMeth= 1 ICntrl=     0 DoSepK=T KAlg= 1 I1Cent= 0 FoldK=F
 FoFJK:  IHMeth= 1 ICntrl=     0 DoSepK=T KAlg= 1 I1Cent= 0 FoldK=F
 FoFJK:  IHMeth= 1 ICntrl=     0 DoSepK=T KAlg= 1 I1Cent= 0 FoldK=F
 FoFJK:  IHMeth= 1 ICntrl=     0 DoSepK=T KAlg= 1 I1Cent= 0 FoldK=F
 FoFJK:  IHMeth= 1 ICntrl=     0 DoSepK=T KAlg= 1 I1Cent= 0 FoldK=F
 FoFJK:  IHMeth= 1 ICntrl=     0 DoSepK=T KAlg= 1 I1Cent= 0 FoldK=F
 FoFJK:  IHMeth= 1 ICntrl=     0 DoSepK=T KAlg= 1 I1Cent= 0 FoldK=F
 FoFJK:  IHMeth= 1 ICntrl=     0 DoSepK=T KAlg= 1 I1Cent= 0 FoldK=F
 FoFJK:  IHMeth= 1 ICntrl=     0 DoSepK=T KAlg= 1 I1Cent= 0 FoldK=F
 FoFJK:  IHMeth= 1 ICntrl=     0 DoSepK=T KAlg= 1 I1Cent= 0 FoldK=F
 FoFJK:  IHMeth= 1 ICntrl=     0 DoSepK=T KAlg= 1 I1Cent= 0 FoldK=F
 FoFJK:  IHMeth= 1 ICntrl=     0 DoSepK=T KAlg= 1 I1Cent= 0 FoldK=F
 FoFJK:  IHMeth= 1 ICntrl=     0 DoSepK=T KAlg= 1 I1Cent= 0 FoldK=F
 FoFJK:  IHMeth= 1 ICntrl=     0 DoSepK=T KAlg= 1 I1Cent= 0 FoldK=F
 Error on total polarization charges =  0.03957
 SCF Done:  E(RwB97XD) =  -692.445301348     A.U. after   16 cycles
             Convg  =    0.3371D-08             -V/T =  2.0095
 SMD-CDS (non-electrostatic) energy       (kcal/mol) =      -4.20
 (included in total energy above)
 Range of M.O.s used for correlation:     1   365
 NBasis=   365 NAE=    56 NBE=    56 NFC=     0 NFV=     0
 NROrb=    365 NOA=    56 NOB=    56 NVA=   309 NVB=   309

 **** Warning!!: The largest alpha MO coefficient is  0.14921863D+03

 NEqPCM:  Using equilibrium solvation (IEInf=0, Eps=   4.7113, EpsInf=   2.0906)
          Differentiating once with respect to magnetic field using GIAOs.
          Electric field/nuclear overlap derivatives assumed to be zero.
 FoFCou: FMM=F IPFlag=           0 FMFlag=    10101102 FMFlg1=           0
         NFxFlg=    40000000 DoJE=F BraDBF=F KetDBF=T FulRan=T
         Omega=  0.000000  0.000000  1.000000  0.000000  0.000000 ICntrl=    6100 IOpCl=  0
         NMat0=    1 NMatS0=    1 NMatT0=    0 NMatD0=    1 NMtDS0=    0 NMtDT0=    0
         I1Cent=           7 NGrid=        2285.
 Symmetry not used in FoFCou.
 FoFJK:  IHMeth= 1 ICntrl=  6127 DoSepK=T KAlg= 1 I1Cent= 0 FoldK=F
 FoFJK:  IHMeth= 1 ICntrl=     0 DoSepK=T KAlg= 1 I1Cent= 0 FoldK=F
          There are     3 degrees of freedom in the 1st order CPHF.  IDoFFX=0.
      3 vectors produced by pass  0 Test12= 5.77D-13 3.33D-08 XBig12= 1.28D+02 1.93D+00.
 AX will form     3 AO Fock derivatives at one time.
 FoFJK:  IHMeth= 1 ICntrl=     0 DoSepK=T KAlg= 1 I1Cent= 0 FoldK=F
      3 vectors produced by pass  1 Test12= 5.77D-13 3.33D-08 XBig12= 9.19D-01 2.06D-01.
 FoFJK:  IHMeth= 1 ICntrl=     0 DoSepK=T KAlg= 1 I1Cent= 0 FoldK=F
      3 vectors produced by pass  2 Test12= 5.77D-13 3.33D-08 XBig12= 1.52D-02 3.93D-02.
 FoFJK:  IHMeth= 1 ICntrl=     0 DoSepK=T KAlg= 1 I1Cent= 0 FoldK=F
      3 vectors produced by pass  3 Test12= 5.77D-13 3.33D-08 XBig12= 2.61D-04 4.43D-03.
 FoFJK:  IHMeth= 1 ICntrl=     0 DoSepK=T KAlg= 1 I1Cent= 0 FoldK=F
      3 vectors produced by pass  4 Test12= 5.77D-13 3.33D-08 XBig12= 3.69D-06 3.80D-04.
 FoFJK:  IHMeth= 1 ICntrl=     0 DoSepK=T KAlg= 1 I1Cent= 0 FoldK=F
      3 vectors produced by pass  5 Test12= 5.77D-13 3.33D-08 XBig12= 4.91D-08 4.53D-05.
 FoFJK:  IHMeth= 1 ICntrl=     0 DoSepK=T KAlg= 1 I1Cent= 0 FoldK=F
      3 vectors produced by pass  6 Test12= 5.77D-13 3.33D-08 XBig12= 7.20D-10 5.68D-06.
 FoFJK:  IHMeth= 1 ICntrl=     0 DoSepK=T KAlg= 1 I1Cent= 0 FoldK=F
      3 vectors produced by pass  7 Test12= 5.77D-13 3.33D-08 XBig12= 9.88D-12 7.08D-07.
 FoFJK:  IHMeth= 1 ICntrl=     0 DoSepK=T KAlg= 1 I1Cent= 0 FoldK=F
      2 vectors produced by pass  8 Test12= 5.77D-13 3.33D-08 XBig12= 1.03D-13 8.55D-08.
 FoFJK:  IHMeth= 1 ICntrl=     0 DoSepK=T KAlg= 1 I1Cent= 0 FoldK=F
 Inverted reduced A of dimension    26 with in-core refinement.
 Calculating GIAO nuclear magnetic shielding tensors.
 SCF GIAO Magnetic shielding tensor (ppm):
      1  C    Isotropic =    70.7742   Anisotropy =   162.9929
   XX=    98.7514   YX=    50.7184   ZX=    76.4649
   XY=    41.0423   YY=    92.3905   ZY=    24.6104
   XZ=    78.4020   YZ=    30.3902   ZZ=    21.1805
   Eigenvalues:   -26.6429    59.5293   179.4361
      2  C    Isotropic =    69.6741   Anisotropy =   176.2744
   XX=   102.0655   YX=    50.8115   ZX=    82.9969
   XY=    48.4145   YY=    87.9796   ZY=    27.7851
   XZ=    86.0441   YZ=    27.6465   ZZ=    18.9773
   Eigenvalues:   -33.7269    55.5589   187.1904
      3  C    Isotropic =    70.5587   Anisotropy =   173.5836
   XX=   127.9262   YX=    51.0851   ZX=    40.1046
   XY=    51.6920   YY=    41.1341   ZY=    73.0012
   XZ=    38.8133   YZ=    73.7041   ZZ=    42.6158
   Eigenvalues:   -32.0627    57.4577   186.2810
      4  C    Isotropic =    52.3295   Anisotropy =   183.7260
   XX=    85.5257   YX=    84.7012   ZX=    51.5056
   XY=    84.1451   YY=    26.3747   ZY=    31.5001
   XZ=    57.1199   YZ=    28.6943   ZZ=    45.0881
   Eigenvalues:   -34.3148    16.4898   174.8135
      5  C    Isotropic =    73.6133   Anisotropy =   181.4826
   XX=   127.1085   YX=    57.0937   ZX=    43.5459
   XY=    54.4384   YY=    51.0535   ZY=    70.0507
   XZ=    44.3546   YZ=    76.5812   ZZ=    42.6779
   Eigenvalues:   -26.9047    53.1428   194.6016
      6  C    Isotropic =    72.0362   Anisotropy =   176.4200
   XX=    97.4299   YX=    88.1055   ZX=    52.4979
   XY=    91.1645   YY=    35.7738   ZY=    21.4032
   XZ=    53.3063   YZ=    18.5827   ZZ=    82.9048
   Eigenvalues:   -30.3260    56.7850   189.6495
      7  C    Isotropic =   119.7596   Anisotropy =    30.0825
   XX=   121.0463   YX=     5.3725   ZX=    -0.7459
   XY=    11.3502   YY=   127.2932   ZY=   -13.2328
   XZ=    -4.1014   YZ=   -16.3090   ZZ=   110.9394
   Eigenvalues:   101.9592   117.5051   139.8146
      8  C    Isotropic =   144.3205   Anisotropy =    29.5308
   XX=   156.2662   YX=     9.4253   ZX=    -2.2925
   XY=    16.1444   YY=   141.5369   ZY=    -5.6179
   XZ=     1.6253   YZ=    -5.7902   ZZ=   135.1583
   Eigenvalues:   129.7220   139.2317   164.0076
      9  C    Isotropic =    19.1587   Anisotropy =   103.6336
   XX=    51.8592   YX=   -60.4231   ZX=    -6.1006
   XY=   -60.0960   YY=   -16.0032   ZY=   -28.6119
   XZ=   -23.9851   YZ=   -54.0426   ZZ=    21.6201
   Eigenvalues:   -71.4335    40.6618    88.2478
     10  O    Isotropic =   126.3060   Anisotropy =   150.6532
   XX=   190.1128   YX=   -56.9189   ZX=    40.3502
   XY=   -40.3140   YY=   126.2646   ZY=    34.6667
   XZ=   114.0362   YZ=   155.4646   ZZ=    62.5406
   Eigenvalues:   -41.6532   193.8297   226.7414
     11  C    Isotropic =   138.1310   Anisotropy =    65.4855
   XX=   146.5169   YX=    23.8340   ZX=   -12.6504
   XY=    20.8834   YY=   163.0442   ZY=   -13.0515
   XZ=    -7.9743   YZ=   -10.6406   ZZ=   104.8319
   Eigenvalues:   101.5700   131.0350   181.7880
     12  O    Isotropic =   298.7541   Anisotropy =    49.1689
   XX=   292.9308   YX=   -19.9323   ZX=   -21.2184
   XY=    -4.8169   YY=   323.8690   ZY=     9.3264
   XZ=   -22.6685   YZ=     0.8050   ZZ=   279.4625
   Eigenvalues:   263.0547   301.6743   331.5334
     13  C    Isotropic =   180.5557   Anisotropy =    26.2394
   XX=   181.0462   YX=   -15.3452   ZX=    -0.4506
   XY=   -12.3483   YY=   186.4325   ZY=    -0.0413
   XZ=    -4.4692   YZ=     1.6837   ZZ=   174.1884
   Eigenvalues:   169.2372   174.3812   198.0487
     14  O    Isotropic =   -31.7696   Anisotropy =   562.5934
   XX=   200.8930   YX=  -223.0982   ZX=    58.9114
   XY=  -223.9979   YY=   -37.5071   ZY=   -58.4313
   XZ=    28.9344   YZ=   -68.7727   ZZ=  -258.6946
   Eigenvalues:  -276.5218  -162.0796   343.2927
     15  C    Isotropic =   181.7445   Anisotropy =    26.3741
   XX=   198.9800   YX=     3.0297   ZX=    -3.0624
   XY=    -1.8545   YY=   181.8275   ZY=    -5.3845
   XZ=    -3.1805   YZ=    -5.2989   ZZ=   164.4259
   Eigenvalues:   162.6935   183.2127   199.3272
     16  H    Isotropic =    23.9940   Anisotropy =     8.0308
   XX=    24.0139   YX=    -3.4736   ZX=     1.5926
   XY=    -3.8100   YY=    25.0726   ZY=    -2.4870
   XZ=     1.0803   YZ=    -2.3042   ZZ=    22.8955
   Eigenvalues:    20.6280    22.0061    29.3479
     17  H    Isotropic =    23.7413   Anisotropy =     4.8518
   XX=    23.2203   YX=    -2.5820   ZX=    -1.1739
   XY=    -2.5933   YY=    25.1111   ZY=    -1.1440
   XZ=    -0.8839   YZ=    -1.3892   ZZ=    22.8924
   Eigenvalues:    20.4075    23.8404    26.9758
     18  H    Isotropic =    23.9348   Anisotropy =     5.0342
   XX=    24.0664   YX=    -2.7191   ZX=    -1.8309
   XY=    -2.8924   YY=    23.8992   ZY=    -0.1453
   XZ=    -1.7951   YZ=     0.0311   ZZ=    23.8388
   Eigenvalues:    20.6048    23.9087    27.2909
     19  H    Isotropic =    23.4002   Anisotropy =     9.5160
   XX=    24.5495   YX=    -2.7032   ZX=    -4.5107
   XY=    -3.4290   YY=    22.6745   ZY=     1.7058
   XZ=    -3.8533   YZ=     1.8163   ZZ=    22.9766
   Eigenvalues:    19.3224    21.1340    29.7442
     20  H    Isotropic =    23.8588   Anisotropy =     4.1089
   XX=    22.9654   YX=    -1.3461   ZX=    -1.8888
   XY=    -1.4080   YY=    23.3691   ZY=    -1.6563
   XZ=    -1.8456   YZ=    -1.8311   ZZ=    25.2420
   Eigenvalues:    20.4225    24.5558    26.5981
     21  H    Isotropic =    26.7290   Anisotropy =     6.3896
   XX=    23.8103   YX=     1.8630   ZX=    -0.7099
   XY=     0.2309   YY=    27.4499   ZY=    -2.8034
   XZ=    -1.4252   YZ=    -1.9624   ZZ=    28.9267
   Eigenvalues:    23.4859    25.7123    30.9887
     22  H    Isotropic =    28.7056   Anisotropy =     3.5307
   XX=    29.0046   YX=    -2.2153   ZX=    -1.1386
   XY=     0.4744   YY=    27.5367   ZY=     1.6823
   XZ=    -0.2184   YZ=     1.7295   ZZ=    29.5755
   Eigenvalues:    26.4899    28.5675    31.0594
     23  H    Isotropic =    27.3051   Anisotropy =     5.1023
   XX=    28.0229   YX=     0.6228   ZX=     0.6816
   XY=     1.2333   YY=    29.2857   ZY=    -4.0849
   XZ=     2.6317   YZ=    -1.7873   ZZ=    24.6066
   Eigenvalues:    22.5369    28.6717    30.7066
     24  H    Isotropic =    28.2217   Anisotropy =     7.3222
   XX=    28.2764   YX=     0.3050   ZX=    -1.6472
   XY=     0.6916   YY=    31.4321   ZY=     4.6610
   XZ=    -1.2299   YZ=     2.7071   ZZ=    24.9565
   Eigenvalues:    22.8648    28.6970    33.1031
     25  H    Isotropic =    29.0148   Anisotropy =    18.9516
   XX=    24.7265   YX=    -0.8537   ZX=    -4.0797
   XY=    -2.2487   YY=    37.1532   ZY=     7.8360
   XZ=    -3.1117   YZ=     8.0510   ZZ=    25.1646
   Eigenvalues:    19.7929    25.6022    41.6492
     26  H    Isotropic =    29.9999   Anisotropy =     9.0637
   XX=    28.7960   YX=    -0.3908   ZX=    -0.4773
   XY=     0.9665   YY=    33.8936   ZY=    -4.2306
   XZ=    -0.3150   YZ=    -4.3674   ZZ=    27.3101
   Eigenvalues:    25.1729    28.7844    36.0424
     27  H    Isotropic =    30.4174   Anisotropy =     9.2704
   XX=    34.5523   YX=    -1.4378   ZX=     4.1808
   XY=    -1.3460   YY=    29.2822   ZY=    -0.6402
   XZ=     3.7013   YZ=    -0.3515   ZZ=    27.4176
   Eigenvalues:    25.6655    28.9890    36.5976
     28  H    Isotropic =    30.4792   Anisotropy =     8.3816
   XX=    28.7276   YX=    -2.8922   ZX=    -3.0880
   XY=    -2.0657   YY=    30.1539   ZY=     3.2869
   XZ=    -2.2469   YZ=     2.0944   ZZ=    32.5559
   Eigenvalues:    26.7763    28.5943    36.0669
     29  H    Isotropic =    30.3788   Anisotropy =     6.1118
   XX=    32.2675   YX=    -0.7332   ZX=    -2.3625
   XY=    -0.5601   YY=    29.3067   ZY=     4.1807
   XZ=    -0.9304   YZ=     3.3521   ZZ=    29.5621
   Eigenvalues:    25.5928    31.0901    34.4533
     30  H    Isotropic =    30.7647   Anisotropy =    11.6235
   XX=    33.3886   YX=     5.7595   ZX=    -1.5094
   XY=     5.0129   YY=    32.0688   ZY=    -1.6230
   XZ=    -1.1244   YZ=    -1.5734   ZZ=    26.8368
   Eigenvalues:    26.3693    27.4112    38.5137
     31  H    Isotropic =    30.5767   Anisotropy =     8.7561
   XX=    32.1703   YX=    -0.9657   ZX=     4.4269
   XY=    -0.3295   YY=    27.4944   ZY=    -2.4000
   XZ=     3.3899   YZ=    -1.5485   ZZ=    32.0655
   Eigenvalues:    26.5789    28.7372    36.4141
 End of Minotr Frequency-dependent properties file   721 does not exist.
 End of Minotr Frequency-dependent properties file   722 does not exist.

 **********************************************************************

            Population analysis using the SCF density.

 **********************************************************************

 Orbital symmetries:
       Occupied  (A) (A) (A) (A) (A) (A) (A) (A) (A) (A) (A) (A)
                 (A) (A) (A) (A) (A) (A) (A) (A) (A) (A) (A) (A)
                 (A) (A) (A) (A) (A) (A) (A) (A) (A) (A) (A) (A)
                 (A) (A) (A) (A) (A) (A) (A) (A) (A) (A) (A) (A)
                 (A) (A) (A) (A) (A) (A) (A) (A)
       Virtual   (A) (A) (A) (A) (A) (A) (A) (A) (A) (A) (A) (A)
                 (A) (A) (A) (A) (A) (A) (A) (A) (A) (A) (A) (A)
                 (A) (A) (A) (A) (A) (A) (A) (A) (A) (A) (A) (A)
                 (A) (A) (A) (A) (A) (A) (A) (A) (A) (A) (A) (A)
                 (A) (A) (A) (A) (A) (A) (A) (A) (A) (A) (A) (A)
                 (A) (A) (A) (A) (A) (A) (A) (A) (A) (A) (A) (A)
                 (A) (A) (A) (A) (A) (A) (A) (A) (A) (A) (A) (A)
                 (A) (A) (A) (A) (A) (A) (A) (A) (A) (A) (A) (A)
                 (A) (A) (A) (A) (A) (A) (A) (A) (A) (A) (A) (A)
                 (A) (A) (A) (A) (A) (A) (A) (A) (A) (A) (A) (A)
                 (A) (A) (A) (A) (A) (A) (A) (A) (A) (A) (A) (A)
                 (A) (A) (A) (A) (A) (A) (A) (A) (A) (A) (A) (A)
                 (A) (A) (A) (A) (A) (A) (A) (A) (A) (A) (A) (A)
                 (A) (A) (A) (A) (A) (A) (A) (A) (A) (A) (A) (A)
                 (A) (A) (A) (A) (A) (A) (A) (A) (A) (A) (A) (A)
                 (A) (A) (A) (A) (A) (A) (A) (A) (A) (A) (A) (A)
                 (A) (A) (A) (A) (A) (A) (A) (A) (A) (A) (A) (A)
                 (A) (A) (A) (A) (A) (A) (A) (A) (A) (A) (A) (A)
                 (A) (A) (A) (A) (A) (A) (A) (A) (A) (A) (A) (A)
                 (A) (A) (A) (A) (A) (A) (A) (A) (A) (A) (A) (A)
                 (A) (A) (A) (A) (A) (A) (A) (A) (A) (A) (A) (A)
                 (A) (A) (A) (A) (A) (A) (A) (A) (A) (A) (A) (A)
                 (A) (A) (A) (A) (A) (A) (A) (A) (A) (A) (A) (A)
                 (A) (A) (A) (A) (A) (A) (A) (A) (A) (A) (A) (A)
                 (A) (A) (A) (A) (A) (A) (A) (A) (A) (A) (A) (A)
                 (A) (A) (A) (A) (A) (A) (A) (A) (A)
 The electronic state is 1-A.
 Alpha  occ. eigenvalues --  -19.32917 -19.28277 -19.27643 -10.44073 -10.36017
 Alpha  occ. eigenvalues --  -10.34995 -10.31635 -10.31412 -10.30551 -10.30520
 Alpha  occ. eigenvalues --  -10.30469 -10.30457 -10.30359 -10.29309 -10.28660
 Alpha  occ. eigenvalues --   -1.21035  -1.13082  -1.12574  -0.96098  -0.91350
 Alpha  occ. eigenvalues --   -0.86707  -0.85339  -0.84554  -0.77927  -0.76214
 Alpha  occ. eigenvalues --   -0.70802  -0.70155  -0.67375  -0.64400  -0.61989
 Alpha  occ. eigenvalues --   -0.60525  -0.59146  -0.57882  -0.56162  -0.54719
 Alpha  occ. eigenvalues --   -0.53155  -0.52891  -0.51675  -0.51414  -0.50145
 Alpha  occ. eigenvalues --   -0.48669  -0.48217  -0.46974  -0.46196  -0.44944
 Alpha  occ. eigenvalues --   -0.44789  -0.43875  -0.43748  -0.42182  -0.41922
 Alpha  occ. eigenvalues --   -0.40522  -0.38874  -0.37272  -0.35966  -0.33101
 Alpha  occ. eigenvalues --   -0.32562
 Alpha virt. eigenvalues --    0.05041   0.05546   0.06410   0.06906   0.07541
 Alpha virt. eigenvalues --    0.08404   0.08705   0.09583   0.09772   0.10316
 Alpha virt. eigenvalues --    0.10792   0.10895   0.11801   0.12297   0.12758
 Alpha virt. eigenvalues --    0.13129   0.13332   0.14070   0.14626   0.15335
 Alpha virt. eigenvalues --    0.15979   0.16219   0.16673   0.17115   0.17825
 Alpha virt. eigenvalues --    0.18249   0.18739   0.19247   0.19467   0.20267
 Alpha virt. eigenvalues --    0.20897   0.21226   0.21404   0.22227   0.22819
 Alpha virt. eigenvalues --    0.23301   0.24152   0.24363   0.24710   0.25334
 Alpha virt. eigenvalues --    0.25411   0.25668   0.26359   0.26567   0.27275
 Alpha virt. eigenvalues --    0.27451   0.27628   0.28534   0.29289   0.29453
 Alpha virt. eigenvalues --    0.29714   0.30430   0.30505   0.30839   0.31135
 Alpha virt. eigenvalues --    0.31876   0.32077   0.32616   0.33276   0.33684
 Alpha virt. eigenvalues --    0.34279   0.34430   0.34802   0.35516   0.35886
 Alpha virt. eigenvalues --    0.36267   0.37108   0.37742   0.37939   0.38887
 Alpha virt. eigenvalues --    0.39276   0.39830   0.40586   0.40884   0.41468
 Alpha virt. eigenvalues --    0.42873   0.43311   0.43714   0.44236   0.45019
 Alpha virt. eigenvalues --    0.45389   0.45550   0.47072   0.47761   0.48569
 Alpha virt. eigenvalues --    0.49079   0.49858   0.51322   0.53056   0.55403
 Alpha virt. eigenvalues --    0.56054   0.56723   0.61842   0.66329   0.69431
 Alpha virt. eigenvalues --    0.73129   0.73860   0.74554   0.75317   0.76123
 Alpha virt. eigenvalues --    0.77276   0.78452   0.78617   0.79815   0.80539
 Alpha virt. eigenvalues --    0.81536   0.82284   0.83108   0.83760   0.84922
 Alpha virt. eigenvalues --    0.85802   0.86878   0.87258   0.89465   0.89967
 Alpha virt. eigenvalues --    0.91062   0.91992   0.93271   0.95218   0.95795
 Alpha virt. eigenvalues --    0.97992   0.99222   1.00262   1.00970   1.02250
 Alpha virt. eigenvalues --    1.03525   1.04251   1.05194   1.05378   1.07900
 Alpha virt. eigenvalues --    1.09008   1.09768   1.10401   1.11500   1.11874
 Alpha virt. eigenvalues --    1.14474   1.14849   1.15834   1.18054   1.18585
 Alpha virt. eigenvalues --    1.20254   1.21228   1.22155   1.22386   1.23398
 Alpha virt. eigenvalues --    1.25256   1.26895   1.27774   1.28985   1.30163
 Alpha virt. eigenvalues --    1.31662   1.34319   1.36130   1.36456   1.36818
 Alpha virt. eigenvalues --    1.39343   1.41668   1.43169   1.43840   1.45002
 Alpha virt. eigenvalues --    1.45614   1.47073   1.48437   1.50028   1.50736
 Alpha virt. eigenvalues --    1.51380   1.53410   1.54167   1.54818   1.56414
 Alpha virt. eigenvalues --    1.57149   1.59297   1.61514   1.62462   1.65978
 Alpha virt. eigenvalues --    1.69948   1.71680   1.72289   1.74544   1.76085
 Alpha virt. eigenvalues --    1.77263   1.80413   1.84322   1.85127   1.87598
 Alpha virt. eigenvalues --    1.88582   1.89121   1.91976   1.94079   1.96017
 Alpha virt. eigenvalues --    1.97963   1.98910   1.99462   1.99718   2.00971
 Alpha virt. eigenvalues --    2.02399   2.02993   2.03721   2.04975   2.05701
 Alpha virt. eigenvalues --    2.08096   2.08961   2.09743   2.10544   2.10916
 Alpha virt. eigenvalues --    2.11736   2.13408   2.14391   2.15942   2.18181
 Alpha virt. eigenvalues --    2.18952   2.20502   2.21129   2.22156   2.23544
 Alpha virt. eigenvalues --    2.24722   2.26627   2.26906   2.28431   2.30291
 Alpha virt. eigenvalues --    2.31469   2.36368   2.37888   2.38851   2.40145
 Alpha virt. eigenvalues --    2.40564   2.41613   2.44769   2.47296   2.48372
 Alpha virt. eigenvalues --    2.49385   2.50314   2.51144   2.51637   2.53556
 Alpha virt. eigenvalues --    2.55997   2.56660   2.58916   2.60100   2.61257
 Alpha virt. eigenvalues --    2.63022   2.63671   2.65450   2.67291   2.68769
 Alpha virt. eigenvalues --    2.69258   2.72291   2.73444   2.73559   2.75498
 Alpha virt. eigenvalues --    2.76332   2.78500   2.81202   2.82214   2.83240
 Alpha virt. eigenvalues --    2.84537   2.84943   2.86554   2.88247   2.89018
 Alpha virt. eigenvalues --    2.89988   2.92257   2.94289   2.95023   2.96723
 Alpha virt. eigenvalues --    2.98201   3.00202   3.04428   3.07794   3.08492
 Alpha virt. eigenvalues --    3.11725   3.13994   3.16955   3.19170   3.25750
 Alpha virt. eigenvalues --    3.28095   3.31177   3.36564   3.37587   3.38306
 Alpha virt. eigenvalues --    3.38985   3.43144   3.45200   3.49443   3.51931
 Alpha virt. eigenvalues --    3.54223   3.58109   3.59222   3.60207   3.62443
 Alpha virt. eigenvalues --    3.62789   3.66055   3.68078   3.99906   4.40630
 Alpha virt. eigenvalues --    4.43207   4.45610   4.52362   4.53032   4.56274
 Alpha virt. eigenvalues --    4.58778   4.62026   4.63493   4.68530   4.70933
 Alpha virt. eigenvalues --    4.77114   4.83026   4.95843   4.97577
          Condensed to atoms (all electrons):
              1          2          3          4          5          6
     1  C   17.823381  -0.898775  -1.999313  -5.708090  -7.633329   0.197835
     2  C   -0.898775   6.930162   0.523665   0.433475  -0.396491   0.168207
     3  C   -1.999313   0.523665   6.991943   1.340270   0.058114   0.225081
     4  C   -5.708090   0.433475   1.340270  16.882820  -1.236365  -1.048879
     5  C   -7.633329  -0.396491   0.058114  -1.236365  16.596287   0.730278
     6  C    0.197835   0.168207   0.225081  -1.048879   0.730278   5.541403
     7  C    5.015201  -1.047643  -1.381413  -5.972788  -2.793679   0.101170
     8  C   -0.372421   0.192426   0.182891   0.797025   0.151214  -0.059859
     9  C   -1.034662  -0.012754  -0.003149   0.638645   0.755466   0.039691
    10  O    0.018226   0.002422   0.019530   0.016455  -0.056661  -0.004142
    11  C    0.059923   0.003549   0.008619  -0.010074  -0.050401  -0.008248
    12  O   -0.087652   0.070490  -0.031762   0.193317   0.005818  -0.002439
    13  C    0.166228  -0.011436  -0.034587  -0.419367  -0.122643   0.007712
    14  O    0.040879  -0.004916  -0.006549  -0.026489  -0.031972   0.001896
    15  C    0.000216  -0.003842  -0.005978  -0.010202   0.007116   0.001714
    16  H    0.192080   0.005582   0.054198   0.083725  -0.017670  -0.008970
    17  H    0.008660   0.264123  -0.006489   0.039228   0.016723   0.002893
    18  H    0.039430  -0.006784   0.250955   0.006129   0.002272   0.032259
    19  H    0.025101  -0.018069  -0.002240   0.030816   0.236781  -0.011493
    20  H    0.002044   0.021752   0.027001   0.003153  -0.009894   0.281557
    21  H    0.163197   0.001576   0.050303   0.072564  -0.180952  -0.005411
    22  H    0.072124  -0.021066   0.003171   0.071318  -0.136190  -0.003480
    23  H   -0.001504   0.000937  -0.003853   0.008465   0.002218  -0.001207
    24  H    0.004456  -0.001044  -0.001786  -0.004465  -0.000554   0.000793
    25  H    0.015196  -0.008161   0.001072  -0.050087   0.012610   0.001097
    26  H   -0.004288   0.003757   0.000289  -0.002004   0.015837  -0.000016
    27  H    0.000345  -0.000161  -0.000295  -0.003316  -0.003004   0.000035
    28  H    0.013763  -0.001160  -0.000006  -0.018500  -0.016814  -0.000055
    29  H    0.000000  -0.000040  -0.000037  -0.000739  -0.000119   0.000009
    30  H    0.000220  -0.000003  -0.000060  -0.000251   0.000015   0.000008
    31  H   -0.000067   0.000056  -0.000026   0.000560   0.000080  -0.000005
              7          8          9         10         11         12
     1  C    5.015201  -0.372421  -1.034662   0.018226   0.059923  -0.087652
     2  C   -1.047643   0.192426  -0.012754   0.002422   0.003549   0.070490
     3  C   -1.381413   0.182891  -0.003149   0.019530   0.008619  -0.031762
     4  C   -5.972788   0.797025   0.638645   0.016455  -0.010074   0.193317
     5  C   -2.793679   0.151214   0.755466  -0.056661  -0.050401   0.005818
     6  C    0.101170  -0.059859   0.039691  -0.004142  -0.008248  -0.002439
     7  C   13.429004  -1.705009  -0.533464   0.006414  -0.020208  -0.065430
     8  C   -1.705009   8.541265  -1.105844  -0.224789   0.138323  -0.012573
     9  C   -0.533464  -1.105844   6.918121   0.344867  -0.281147   0.054638
    10  O    0.006414  -0.224789   0.344867   8.354613   0.074323  -0.002732
    11  C   -0.020208   0.138323  -0.281147   0.074323   5.184831  -0.001628
    12  O   -0.065430  -0.012573   0.054638  -0.002732  -0.001628   8.329195
    13  C    0.580721  -0.619192  -0.224494  -0.029656  -0.018386  -0.076763
    14  O    0.044250  -0.121993   0.649933  -0.167446   0.006206  -0.003047
    15  C    0.015253  -0.088885   0.057539  -0.049750   0.212590  -0.000028
    16  H    0.009783  -0.017254   0.017381  -0.000506  -0.002356  -0.000232
    17  H    0.001587  -0.000200  -0.000022  -0.000007  -0.000003   0.000024
    18  H    0.001748  -0.002003   0.002671  -0.000051  -0.000063   0.000016
    19  H    0.034871   0.012692  -0.005321  -0.000262   0.000173   0.002608
    20  H    0.001362  -0.000069  -0.000473   0.000009   0.000061  -0.000002
    21  H    0.208735   0.068560  -0.033553   0.000733   0.001104  -0.049801
    22  H    0.032116   0.363653  -0.044856   0.000070   0.001665  -0.003750
    23  H   -0.005860   0.011170  -0.013842  -0.035023   0.401815   0.000009
    24  H    0.004415  -0.011201   0.025216  -0.058833   0.404556  -0.000003
    25  H    0.092103  -0.080100  -0.004481   0.000038   0.000059   0.243582
    26  H   -0.058332  -0.027666  -0.009438  -0.000078   0.000550   0.013175
    27  H    0.041397  -0.175496   0.027661   0.004442   0.000125   0.000245
    28  H    0.055144  -0.074410  -0.025112   0.000221  -0.000516  -0.008047
    29  H    0.002020  -0.008729   0.006049  -0.005829  -0.051712  -0.000002
    30  H    0.000339   0.002563   0.003678   0.007034  -0.046073   0.000000
    31  H   -0.001304   0.005047   0.007374  -0.003897  -0.046123   0.000000
             13         14         15         16         17         18
     1  C    0.166228   0.040879   0.000216   0.192080   0.008660   0.039430
     2  C   -0.011436  -0.004916  -0.003842   0.005582   0.264123  -0.006784
     3  C   -0.034587  -0.006549  -0.005978   0.054198  -0.006489   0.250955
     4  C   -0.419367  -0.026489  -0.010202   0.083725   0.039228   0.006129
     5  C   -0.122643  -0.031972   0.007116  -0.017670   0.016723   0.002272
     6  C    0.007712   0.001896   0.001714  -0.008970   0.002893   0.032259
     7  C    0.580721   0.044250   0.015253   0.009783   0.001587   0.001748
     8  C   -0.619192  -0.121993  -0.088885  -0.017254  -0.000200  -0.002003
     9  C   -0.224494   0.649933   0.057539   0.017381  -0.000022   0.002671
    10  O   -0.029656  -0.167446  -0.049750  -0.000506  -0.000007  -0.000051
    11  C   -0.018386   0.006206   0.212590  -0.002356  -0.000003  -0.000063
    12  O   -0.076763  -0.003047  -0.000028  -0.000232   0.000024   0.000016
    13  C    6.143798  -0.054815   0.006185   0.000093   0.000115   0.000062
    14  O   -0.054815   8.134534  -0.037186  -0.000548   0.000002  -0.000055
    15  C    0.006185  -0.037186   5.262278  -0.000190  -0.000003   0.000066
    16  H    0.000093  -0.000548  -0.000190   0.513223   0.000011  -0.003860
    17  H    0.000115   0.000002  -0.000003   0.000011   0.497048  -0.000122
    18  H    0.000062  -0.000055   0.000066  -0.003860  -0.000122   0.498815
    19  H    0.013115  -0.000040   0.000022  -0.000113  -0.003919   0.000011
    20  H   -0.000024   0.000002   0.000002  -0.000124  -0.003811  -0.003875
    21  H   -0.040672   0.006958  -0.000389   0.002156   0.000002  -0.000007
    22  H   -0.039919   0.007388  -0.001251   0.000010   0.000003   0.000000
    23  H   -0.003219   0.002472  -0.030423  -0.000035   0.000000   0.000000
    24  H    0.000512  -0.000134  -0.029420   0.000000   0.000000   0.000000
    25  H    0.034674  -0.000004   0.000003  -0.000002   0.000000   0.000000
    26  H    0.434537   0.000343  -0.000234   0.000000   0.000000   0.000000
    27  H    0.464752  -0.000364   0.001396   0.000000   0.000000   0.000000
    28  H    0.423663   0.002569  -0.000607   0.000001   0.000000   0.000000
    29  H    0.001346   0.001404   0.420416   0.000000   0.000000   0.000000
    30  H   -0.000220  -0.000174   0.396801   0.000000   0.000000   0.000000
    31  H   -0.002947  -0.000445   0.405142   0.000000   0.000000   0.000000
             19         20         21         22         23         24
     1  C    0.025101   0.002044   0.163197   0.072124  -0.001504   0.004456
     2  C   -0.018069   0.021752   0.001576  -0.021066   0.000937  -0.001044
     3  C   -0.002240   0.027001   0.050303   0.003171  -0.003853  -0.001786
     4  C    0.030816   0.003153   0.072564   0.071318   0.008465  -0.004465
     5  C    0.236781  -0.009894  -0.180952  -0.136190   0.002218  -0.000554
     6  C   -0.011493   0.281557  -0.005411  -0.003480  -0.001207   0.000793
     7  C    0.034871   0.001362   0.208735   0.032116  -0.005860   0.004415
     8  C    0.012692  -0.000069   0.068560   0.363653   0.011170  -0.011201
     9  C   -0.005321  -0.000473  -0.033553  -0.044856  -0.013842   0.025216
    10  O   -0.000262   0.000009   0.000733   0.000070  -0.035023  -0.058833
    11  C    0.000173   0.000061   0.001104   0.001665   0.401815   0.404556
    12  O    0.002608  -0.000002  -0.049801  -0.003750   0.000009  -0.000003
    13  C    0.013115  -0.000024  -0.040672  -0.039919  -0.003219   0.000512
    14  O   -0.000040   0.000002   0.006958   0.007388   0.002472  -0.000134
    15  C    0.000022   0.000002  -0.000389  -0.001251  -0.030423  -0.029420
    16  H   -0.000113  -0.000124   0.002156   0.000010  -0.000035   0.000000
    17  H   -0.003919  -0.003811   0.000002   0.000003   0.000000   0.000000
    18  H    0.000011  -0.003875  -0.000007   0.000000   0.000000   0.000000
    19  H    0.505088  -0.000118  -0.000045  -0.000241   0.000000   0.000000
    20  H   -0.000118   0.499855   0.000000   0.000000   0.000000   0.000000
    21  H   -0.000045   0.000000   0.567578   0.003636  -0.000005   0.000000
    22  H   -0.000241   0.000000   0.003636   0.498040  -0.000005  -0.000033
    23  H    0.000000   0.000000  -0.000005  -0.000005   0.521562  -0.031409
    24  H    0.000000   0.000000   0.000000  -0.000033  -0.031409   0.528428
    25  H    0.000062   0.000000  -0.008880   0.000013   0.000000   0.000000
    26  H   -0.000005   0.000000   0.000088  -0.003699   0.000000   0.000000
    27  H    0.000002   0.000000  -0.000025  -0.002323  -0.000001   0.000002
    28  H   -0.000001   0.000000   0.002265   0.003834   0.000000   0.000000
    29  H    0.000000   0.000000   0.000000  -0.000006  -0.004876   0.003917
    30  H    0.000000   0.000000   0.000000   0.000000  -0.001122  -0.001257
    31  H    0.000000   0.000000   0.000000   0.000000   0.003779  -0.005117
             25         26         27         28         29         30
     1  C    0.015196  -0.004288   0.000345   0.013763   0.000000   0.000220
     2  C   -0.008161   0.003757  -0.000161  -0.001160  -0.000040  -0.000003
     3  C    0.001072   0.000289  -0.000295  -0.000006  -0.000037  -0.000060
     4  C   -0.050087  -0.002004  -0.003316  -0.018500  -0.000739  -0.000251
     5  C    0.012610   0.015837  -0.003004  -0.016814  -0.000119   0.000015
     6  C    0.001097  -0.000016   0.000035  -0.000055   0.000009   0.000008
     7  C    0.092103  -0.058332   0.041397   0.055144   0.002020   0.000339
     8  C   -0.080100  -0.027666  -0.175496  -0.074410  -0.008729   0.002563
     9  C   -0.004481  -0.009438   0.027661  -0.025112   0.006049   0.003678
    10  O    0.000038  -0.000078   0.004442   0.000221  -0.005829   0.007034
    11  C    0.000059   0.000550   0.000125  -0.000516  -0.051712  -0.046073
    12  O    0.243582   0.013175   0.000245  -0.008047  -0.000002   0.000000
    13  C    0.034674   0.434537   0.464752   0.423663   0.001346  -0.000220
    14  O   -0.000004   0.000343  -0.000364   0.002569   0.001404  -0.000174
    15  C    0.000003  -0.000234   0.001396  -0.000607   0.420416   0.396801
    16  H   -0.000002   0.000000   0.000000   0.000001   0.000000   0.000000
    17  H    0.000000   0.000000   0.000000   0.000000   0.000000   0.000000
    18  H    0.000000   0.000000   0.000000   0.000000   0.000000   0.000000
    19  H    0.000062  -0.000005   0.000002  -0.000001   0.000000   0.000000
    20  H    0.000000   0.000000   0.000000   0.000000   0.000000   0.000000
    21  H   -0.008880   0.000088  -0.000025   0.002265   0.000000   0.000000
    22  H    0.000013  -0.003699  -0.002323   0.003834  -0.000006   0.000000
    23  H    0.000000   0.000000  -0.000001   0.000000  -0.004876  -0.001122
    24  H    0.000000   0.000000   0.000002   0.000000   0.003917  -0.001257
    25  H    0.347889  -0.001543   0.000001   0.000424   0.000000   0.000000
    26  H   -0.001543   0.499773  -0.022850  -0.025680   0.000000   0.000000
    27  H    0.000001  -0.022850   0.509134  -0.023768   0.000010   0.000000
    28  H    0.000424  -0.025680  -0.023768   0.508512  -0.000003   0.000000
    29  H    0.000000   0.000000   0.000010  -0.000003   0.508912  -0.022034
    30  H    0.000000   0.000000   0.000000   0.000000  -0.022034   0.505811
    31  H    0.000000   0.000000  -0.000018   0.000000  -0.029489  -0.022587
             31
     1  C   -0.000067
     2  C    0.000056
     3  C   -0.000026
     4  C    0.000560
     5  C    0.000080
     6  C   -0.000005
     7  C   -0.001304
     8  C    0.005047
     9  C    0.007374
    10  O   -0.003897
    11  C   -0.046123
    12  O    0.000000
    13  C   -0.002947
    14  O   -0.000445
    15  C    0.405142
    16  H    0.000000
    17  H    0.000000
    18  H    0.000000
    19  H    0.000000
    20  H    0.000000
    21  H    0.000000
    22  H    0.000000
    23  H    0.003779
    24  H   -0.005117
    25  H    0.000000
    26  H    0.000000
    27  H   -0.000018
    28  H    0.000000
    29  H   -0.029489
    30  H   -0.022587
    31  H    0.516053
 Mulliken atomic charges:
              1
     1  C   -0.118402
     2  C   -0.189833
     3  C   -0.259559
     4  C   -0.106348
     5  C    0.095908
     6  C   -0.179437
     7  C   -0.092502
     8  C    0.240865
     9  C   -0.216319
    10  O   -0.209736
    11  C    0.038465
    12  O   -0.567225
    13  C   -0.579172
    14  O   -0.442660
    15  C   -0.528350
    16  H    0.173614
    17  H    0.184159
    18  H    0.182386
    19  H    0.180523
    20  H    0.181594
    21  H    0.170285
    22  H    0.199777
    23  H    0.179957
    24  H    0.172960
    25  H    0.404434
    26  H    0.187482
    27  H    0.182075
    28  H    0.184282
    29  H    0.179531
    30  H    0.177312
    31  H    0.173935
 Sum of Mulliken atomic charges =   0.00000
 Mulliken charges with hydrogens summed into heavy atoms:
              1
     1  C    0.055212
     2  C   -0.005674
     3  C   -0.077173
     4  C   -0.106348
     5  C    0.276432
     6  C    0.002157
     7  C    0.077783
     8  C    0.440642
     9  C   -0.216319
    10  O   -0.209736
    11  C    0.391381
    12  O   -0.162791
    13  C   -0.025333
    14  O   -0.442660
    15  C    0.002428
 Sum of Mulliken charges with hydrogens summed into heavy atoms =   0.00000
 Electronic spatial extent (au):  <R**2>=           3593.1239
 Charge=              0.0000 electrons
 Dipole moment (field-independent basis, Debye):
    X=             -1.7519    Y=             -0.3910    Z=             -0.8000  Tot=              1.9652
 Quadrupole moment (field-independent basis, Debye-Ang):
   XX=            -88.6849   YY=            -77.1204   ZZ=            -90.3545
   XY=             -3.6537   XZ=              2.3924   YZ=              2.2883
 Traceless Quadrupole moment (field-independent basis, Debye-Ang):
   XX=             -3.2983   YY=              8.2662   ZZ=             -4.9679
   XY=             -3.6537   XZ=              2.3924   YZ=              2.2883
 Octapole moment (field-independent basis, Debye-Ang**2):
  XXX=            -43.5023  YYY=             16.3665  ZZZ=             -4.6286  XYY=            -18.9675
  XXY=            -36.6550  XXZ=            -24.7046  XZZ=             11.6884  YZZ=              4.6810
  YYZ=             17.1057  XYZ=             -0.0083
 Hexadecapole moment (field-independent basis, Debye-Ang**3):
 XXXX=          -2941.9256 YYYY=          -1247.5467 ZZZZ=           -443.6590 XXXY=            -10.4803
 XXXZ=            -44.0078 YYYX=             11.4065 YYYZ=             45.5010 ZZZX=             -0.1374
 ZZZY=             -0.6551 XXYY=           -663.1471 XXZZ=           -563.4048 YYZZ=           -287.8594
 XXYZ=             11.1254 YYXZ=             24.1311 ZZXY=              2.5103
 N-N= 1.013165882761D+03 E-N=-3.638458505906D+03  KE= 6.859143794377D+02
 1\1\GINC-COMPUTE-5-22\SP\RwB97XD\6-31+G(d,p)\C12H16O3\ELUCIANO.IQUIR\1
 7-May-2022\0\\# wb97xd/6-31+g** scrf=(pcm,solvent=chloroform,smd,dovac
 uum) nmr\\comment\\0,1\C,0,1.488020701,0.73907884,-1.647047124\C,0,-0.
 055280769,3.01813848,-2.091369255\C,0,1.227370235,1.164929504,-2.95091
 4937\C,0,0.980486674,1.44886369,-0.547300567\C,0,0.203427566,2.5926794
 55,-0.787320166\C,0,0.456145325,2.30382739,-3.172531948\C,0,1.24218191
 5,0.955019753,0.86367778\C,0,0.04021953,0.193163859,1.443189516\C,0,-0
 .144042057,-1.097904483,0.679007128\O,0,-1.44323743,-1.244671125,0.300
 254018\C,0,-1.746826347,-2.427912004,-0.452091555\O,0,1.540332461,2.09
 33077,1.680840442\C,0,0.211880088,-0.146821746,2.923337158\O,0,0.75152
 0921,-1.905634033,0.466217796\C,0,-2.063820486,-3.576608997,0.48669608
 4\H,0,2.08795528,-0.15670899,-1.495386887\H,0,-0.65358754,3.909246971,
 -2.261359246\H,0,1.627136249,0.606929001,-3.793578926\H,0,-0.19685408,
 3.163186291,0.048698759\H,0,0.255721885,2.636347729,-4.187435842\H,0,2
 .142896474,0.327352401,0.858871311\H,0,-0.865314591,0.806420589,1.3463
 54048\H,0,-0.931642519,-2.683508631,-1.138806064\H,0,-2.62465387,-2.20
 0569171,-1.065723815\H,0,2.14657446,1.792916586,2.378622533\H,0,0.2377
 94727,0.758779568,3.53759887\H,0,-0.618530237,-0.767163658,3.278788796
 \H,0,1.137855254,-0.705876763,3.098217651\H,0,-1.200285828,-3.82239233
 2,1.112779823\H,0,-2.352705717,-4.468872594,-0.075823042\H,0,-2.880738
 275,-3.305543281,1.163537661\\Version=EM64L-G09RevC.01\State=1-A\HF=-6
 92.4453013\RMSD=3.371e-09\Dipole=-0.5666328,-0.4705457,0.2351837\Quadr
 upole=-0.9164513,-5.1090838,6.0255351,1.6588351,2.7640835,0.3646199\PG
 =C01 [X(C12H16O3)]\\@


 IF GOD HAD MEANT MAN TO SEE THE SUN RISE, HE
 WOULD HAVE SCHEDULED IT FOR A LATER HOUR.
 Job cpu time:  0 days  0 hours 45 minutes 34.9 seconds.
 File lengths (MBytes):  RWF=    124 Int=      0 D2E=      0 Chk=      9 Scr=      1
 Normal termination of Gaussian 09 at Tue May 17 17:19:55 2022.
