 Entering Gaussian System, Link 0=g09
 Input=/home/eluciano.iquir/wb9/73a_017.gjc
 Output=/home/eluciano.iquir/wb9/73a_017.log
 Initial command:
 /share/apps/Gaussian09/EM64T.SSE4.2-enabled/g09/l1.exe /tmp/Gau-30156.inp -scrdir=/tmp/
 Entering Link 1 = /share/apps/Gaussian09/EM64T.SSE4.2-enabled/g09/l1.exe PID=     30157.
  
 Copyright (c) 1988,1990,1992,1993,1995,1998,2003,2009,2011,
            Gaussian, Inc.  All Rights Reserved.
  
 This is part of the Gaussian(R) 09 program.  It is based on
 the Gaussian(R) 03 system (copyright 2003, Gaussian, Inc.),
 the Gaussian(R) 98 system (copyright 1998, Gaussian, Inc.),
 the Gaussian(R) 94 system (copyright 1995, Gaussian, Inc.),
 the Gaussian 92(TM) system (copyright 1992, Gaussian, Inc.),
 the Gaussian 90(TM) system (copyright 1990, Gaussian, Inc.),
 the Gaussian 88(TM) system (copyright 1988, Gaussian, Inc.),
 the Gaussian 86(TM) system (copyright 1986, Carnegie Mellon
 University), and the Gaussian 82(TM) system (copyright 1983,
 Carnegie Mellon University). Gaussian is a federally registered
 trademark of Gaussian, Inc.
  
 This software contains proprietary and confidential information,
 including trade secrets, belonging to Gaussian, Inc.
  
 This software is provided under written license and may be
 used, copied, transmitted, or stored only in accord with that
 written license.
  
 The following legend is applicable only to US Government
 contracts under FAR:
  
                    RESTRICTED RIGHTS LEGEND
  
 Use, reproduction and disclosure by the US Government is
 subject to restrictions as set forth in subparagraphs (a)
 and (c) of the Commercial Computer Software - Restricted
 Rights clause in FAR 52.227-19.
  
 Gaussian, Inc.
 340 Quinnipiac St., Bldg. 40, Wallingford CT 06492
  
  
 ---------------------------------------------------------------
 Warning -- This program may not be used in any manner that
 competes with the business of Gaussian, Inc. or will provide
 assistance to any competitor of Gaussian, Inc.  The licensee
 of this program is prohibited from giving any competitor of
 Gaussian, Inc. access to this program.  By using this program,
 the user acknowledges that Gaussian, Inc. is engaged in the
 business of creating and licensing software in the field of
 computational chemistry and represents and warrants to the
 licensee that it is not a competitor of Gaussian, Inc. and that
 it will not use this program in any manner prohibited above.
 ---------------------------------------------------------------
  

 Cite this work as:
 Gaussian 09, Revision C.01,
 M. J. Frisch, G. W. Trucks, H. B. Schlegel, G. E. Scuseria, 
 M. A. Robb, J. R. Cheeseman, G. Scalmani, V. Barone, B. Mennucci, 
 G. A. Petersson, H. Nakatsuji, M. Caricato, X. Li, H. P. Hratchian, 
 A. F. Izmaylov, J. Bloino, G. Zheng, J. L. Sonnenberg, M. Hada, 
 M. Ehara, K. Toyota, R. Fukuda, J. Hasegawa, M. Ishida, T. Nakajima, 
 Y. Honda, O. Kitao, H. Nakai, T. Vreven, J. A. Montgomery, Jr., 
 J. E. Peralta, F. Ogliaro, M. Bearpark, J. J. Heyd, E. Brothers, 
 K. N. Kudin, V. N. Staroverov, T. Keith, R. Kobayashi, J. Normand, 
 K. Raghavachari, A. Rendell, J. C. Burant, S. S. Iyengar, J. Tomasi, 
 M. Cossi, N. Rega, J. M. Millam, M. Klene, J. E. Knox, J. B. Cross, 
 V. Bakken, C. Adamo, J. Jaramillo, R. Gomperts, R. E. Stratmann, 
 O. Yazyev, A. J. Austin, R. Cammi, C. Pomelli, J. W. Ochterski, 
 R. L. Martin, K. Morokuma, V. G. Zakrzewski, G. A. Voth, 
 P. Salvador, J. J. Dannenberg, S. Dapprich, A. D. Daniels, 
 O. Farkas, J. B. Foresman, J. V. Ortiz, J. Cioslowski, 
 and D. J. Fox, Gaussian, Inc., Wallingford CT, 2010.
 
 ******************************************
 Gaussian 09:  EM64L-G09RevC.01 23-Sep-2011
                17-May-2022 
 ******************************************
 %nprocshared=4
 Will use up to    4 processors via shared memory.
 ----------------------------------------------------------------
 # wb97xd/6-31+g** scrf=(pcm,solvent=chloroform,smd,dovacuum) nmr
 ----------------------------------------------------------------
 1/38=1/1;
 2/12=2,17=6,18=5,40=1/2;
 3/5=1,6=6,7=111,11=2,16=1,25=1,30=1,70=32101,72=7,74=-58/1,2,8,3;
 4//1;
 5/5=2,38=5,53=7/2;
 8/6=1,10=90,11=11/1;
 10/13=100,45=16/2;
 6/7=2,8=2,9=2,10=2,28=1/1;
 99/9=1/99;
 -------
 comment
 -------
 Charge =  0 Multiplicity = 1
 Symbolic Z-Matrix:
 6                     0.15727   2.92629  -0.36914 
 6                     1.65103   3.33807   1.9485 
 6                     0.22107   4.19671   0.20607 
 6                     0.84538   1.84551   0.20465 
 6                     1.58859   2.06711   1.3746 
 6                     0.96867   4.4023    1.36343 
 6                     0.74865   0.47063  -0.43434 
 6                    -0.41083  -0.36329   0.13541 
 6                    -0.8082   -1.36927  -0.92787 
 8                    -0.47715  -2.64509  -0.59906 
 6                    -0.78965  -3.65232  -1.57182 
 8                     1.99282  -0.22094  -0.2994 
 6                    -0.12338  -1.00259   1.49569 
 8                    -1.35839  -1.04031  -1.97424 
 6                    -2.21202  -4.14274  -1.37757 
 1                    -0.43625   2.78517  -1.27088 
 1                     2.23006   3.49633   2.85478 
 1                    -0.31497   5.02604  -0.24857 
 1                     2.12115   1.24592   1.85124 
 1                     1.01667   5.39138   1.81148 
 1                     0.61716   0.61884  -1.51399 
 1                    -1.29978   0.27017   0.26474 
 1                    -0.09017  -4.47932  -1.41168 
 1                    -0.62647  -3.2862   -2.59191 
 1                     2.69392   0.42143  -0.50954 
 1                     0.03396  -0.24061   2.26465 
 1                    -0.96964  -1.62023   1.81749 
 1                     0.76108  -1.6478    1.47047 
 1                    -2.35693  -4.50617  -0.35489 
 1                    -2.44195  -4.95235  -2.07592 
 1                    -2.93167  -3.33268  -1.53237 
 
                          Input orientation:                          
 ---------------------------------------------------------------------
 Center     Atomic      Atomic             Coordinates (Angstroms)
 Number     Number       Type             X           Y           Z
 ---------------------------------------------------------------------
      1          6           0        0.157270    2.926285   -0.369140
      2          6           0        1.651028    3.338070    1.948500
      3          6           0        0.221066    4.196714    0.206073
      4          6           0        0.845376    1.845510    0.204654
      5          6           0        1.588592    2.067109    1.374604
      6          6           0        0.968672    4.402302    1.363432
      7          6           0        0.748648    0.470627   -0.434344
      8          6           0       -0.410833   -0.363292    0.135410
      9          6           0       -0.808196   -1.369269   -0.927871
     10          8           0       -0.477150   -2.645093   -0.599058
     11          6           0       -0.789651   -3.652318   -1.571819
     12          8           0        1.992825   -0.220936   -0.299403
     13          6           0       -0.123381   -1.002590    1.495687
     14          8           0       -1.358391   -1.040313   -1.974241
     15          6           0       -2.212020   -4.142738   -1.377574
     16          1           0       -0.436252    2.785173   -1.270882
     17          1           0        2.230056    3.496331    2.854779
     18          1           0       -0.314974    5.026037   -0.248566
     19          1           0        2.121149    1.245918    1.851241
     20          1           0        1.016667    5.391381    1.811478
     21          1           0        0.617160    0.618840   -1.513991
     22          1           0       -1.299781    0.270175    0.264743
     23          1           0       -0.090173   -4.479320   -1.411682
     24          1           0       -0.626473   -3.286196   -2.591910
     25          1           0        2.693920    0.421427   -0.509544
     26          1           0        0.033956   -0.240605    2.264651
     27          1           0       -0.969639   -1.620232    1.817491
     28          1           0        0.761079   -1.647804    1.470473
     29          1           0       -2.356928   -4.506170   -0.354891
     30          1           0       -2.441950   -4.952347   -2.075924
     31          1           0       -2.931672   -3.332675   -1.532373
 ---------------------------------------------------------------------
                    Distance matrix (angstroms):
                    1          2          3          4          5
     1  C    0.000000
     2  C    2.787890   0.000000
     3  C    1.396040   2.412077   0.000000
     4  C    1.403854   2.432654   2.432679   0.000000
     5  C    2.414024   1.395921   2.787618   1.403659   0.000000
     6  C    2.416362   1.393020   1.393076   2.809831   2.416102
     7  C    2.526705   3.835944   3.817356   1.519203   2.554713
     8  C    3.376185   4.608540   4.604123   2.541980   3.382330
     9  C    4.438028   6.039896   5.772814   3.788367   4.780658
    10  O    5.612095   6.842326   6.924310   4.749794   5.510670
    11  C    6.754340   8.198480   8.111088   6.004605   6.859249
    12  O    3.644054   4.223318   4.786468   2.416798   2.863714
    13  C    4.358027   4.711145   5.367915   3.273672   3.516897
    14  O    4.539546   6.604145   5.888540   4.234636   5.436501
    15  C    7.523401   9.052535   8.830306   6.907259   7.783401
    16  H    1.088724   3.876448   2.146139   2.168581   3.407962
    17  H    3.874925   1.087043   3.397385   3.415510   2.155242
    18  H    2.155577   3.397278   1.087112   3.415784   3.874726
    19  H    3.407425   2.146526   3.876093   2.167568   1.088648
    20  H    3.401522   2.153434   2.153494   3.896720   3.401285
    21  H    2.616579   4.522382   3.989573   2.123804   3.374188
    22  H    3.095113   4.577586   4.211191   2.662141   3.578193
    23  H    7.482721   8.685286   8.831057   6.594791   7.310088
    24  H    6.644538   8.347649   8.033740   6.026734   7.021227
    25  H    3.567719   3.954289   4.569453   2.440328   2.734964
    26  H    4.120832   3.939770   4.895157   3.042017   2.921408
    27  H    5.169341   5.609796   6.152342   4.231653   4.509676
    28  H    4.966996   5.087185   6.004058   3.716536   3.807170
    29  H    7.846196   9.105022   9.094005   7.135242   7.859153
    30  H    8.470058  10.083623   9.798187   7.887864   8.799101
    31  H    7.075963   8.810020   8.345877   6.640554   7.618463
                    6          7          8          9         10
     6  C    0.000000
     7  C    4.328796   0.000000
     8  C    5.110964   1.537673   0.000000
     9  C    6.458976   2.460193   1.516725   0.000000
    10  O    7.457047   3.352226   2.398011   1.358468   0.000000
    11  C    8.751246   4.545205   3.725027   2.372198   1.434721
    12  O    5.018789   1.429841   2.446814   3.091821   3.473773
    13  C    5.515698   2.579888   1.530256   2.545007   2.685317
    14  O    6.795391   3.015598   2.409741   1.227117   2.289767
    15  C    9.520905   5.562227   4.451697   3.140873   2.420496
    16  H    3.395369   2.731466   3.448352   4.185139   5.471819
    17  H    2.153135   4.708268   5.409801   6.871207   7.548181
    18  H    2.152982   4.681620   5.403841   6.450169   7.680846
    19  H    3.395426   2.776461   3.456091   4.810793   5.281580
    20  H    1.086889   5.415660   6.161430   7.519346   8.522153
    21  H    4.766310   1.097677   2.177586   2.515503   3.562005
    22  H    4.840194   2.173699   1.099198   2.086088   3.149867
    23  H    9.365128   5.114762   4.408856   3.228320   2.043159
    24  H    8.792168   4.545302   4.003517   2.544928   2.098754
    25  H    4.725662   1.947347   3.266687   3.955555   4.412170
    26  H    4.821046   2.881182   2.178659   3.489312   3.774072
    27  H    6.343038   3.520648   2.172914   2.761532   2.670692
    28  H    6.054613   2.848900   2.192200   2.879629   2.609742
    29  H    9.662977   5.866807   4.603381   3.545000   2.656462
    30  H   10.534275   6.502564   5.484055   4.101904   3.371200
    31  H    9.133906   5.405139   4.237141   2.954578   2.714503
                   11         12         13         14         15
    11  C    0.000000
    12  O    4.597347   0.000000
    13  C    4.107867   2.882994   0.000000
    14  O    2.703327   3.834984   3.683351   0.000000
    15  C    1.517028   5.850102   4.741157   3.272574   0.000000
    16  H    6.454203   3.985082   4.700950   3.997423   7.152669
    17  H    8.934013   4.880903   5.256052   7.535086   9.797970
    18  H    8.791483   5.732299   6.278811   6.392752   9.430795
    19  H    6.647015   2.606415   3.196892   5.654057   7.631462
    20  H    9.823339   6.075097   6.502484   7.831938  10.559067
    21  H    4.497250   2.018143   3.497942   2.620576   5.540352
    22  H    4.361094   3.376493   2.125810   2.594969   4.796163
    23  H    1.094919   4.869279   4.532279   3.708318   2.148647
    24  H    1.096019   4.638117   4.709184   2.441559   2.173070
    25  H    5.464348   0.973820   3.739781   4.550082   6.756725
    26  H    5.199674   3.226752   1.093929   4.532810   5.791101
    27  H    3.955906   3.900700   1.095989   3.855472   4.256171
    28  H    3.959594   2.585654   1.095083   4.089896   4.814082
    29  H    2.160170   6.106280   4.548455   3.953674   1.094971
    30  H    2.162010   6.723800   5.807990   4.060597   1.093630
    31  H    2.166098   5.954309   4.741829   2.815206   1.094561
                   16         17         18         19         20
    16  H    0.000000
    17  H    4.963469   0.000000
    18  H    2.466032   4.295105   0.000000
    19  H    4.319404   2.466436   4.963183   0.000000
    20  H    4.290016   2.480324   2.480025   4.290260   0.000000
    21  H    2.421110   5.474262   4.679056   3.738983   5.830566
    22  H    3.070674   5.438393   4.883806   3.895101   5.829672
    23  H    7.274095   9.337942   9.578893   6.950897  10.442442
    24  H    6.216335   9.155810   8.641847   6.916002   9.868642
    25  H    3.995610   4.581361   5.506722   2.565376   5.735918
    26  H    4.677224   4.374449   5.845985   2.595580   5.735012
    27  H    5.406490   6.123171   6.990713   4.215320   7.287535
    28  H    5.347888   5.525968   6.975180   3.220000   7.052073
    29  H    7.595506   9.766393   9.749044   7.616213  10.678756
    30  H    8.033686  10.840647  10.364913   8.640774  11.578715
    31  H    6.612379   9.619037   8.852308   7.612054  10.142972
                   21         22         23         24         25
    21  H    0.000000
    22  H    2.638205   0.000000
    23  H    5.148012   5.179890   0.000000
    24  H    4.237670   4.611029   1.761846   0.000000
    25  H    2.315344   4.070878   5.708095   5.395158   0.000000
    26  H    3.918790   2.457516   5.612267   5.770440   3.899981
    27  H    4.316266   2.468533   4.401751   4.726100   4.796366
    28  H    3.750388   3.062609   4.129035   4.594843   3.455149
    29  H    6.037752   4.931022   2.501142   3.080108   7.058059
    30  H    6.380599   5.835923   2.489142   2.517589   7.596588
    31  H    5.311217   4.344332   3.066509   2.537463   6.840084
                   26         27         28         29         30
    26  H    0.000000
    27  H    1.763667   0.000000
    28  H    1.771901   1.765380   0.000000
    29  H    5.547375   3.869426   4.606971   0.000000
    30  H    6.868130   5.331920   5.810019   1.779960   0.000000
    31  H    5.724791   4.243068   5.048989   1.758944   1.777248
                   31
    31  H    0.000000
 Stoichiometry    C12H16O3
 Framework group  C1[X(C12H16O3)]
 Deg. of freedom    87
 Full point group                 C1      NOp   1
 Largest Abelian subgroup         C1      NOp   1
 Largest concise Abelian subgroup C1      NOp   1
                         Standard orientation:                         
 ---------------------------------------------------------------------
 Center     Atomic      Atomic             Coordinates (Angstroms)
 Number     Number       Type             X           Y           Z
 ---------------------------------------------------------------------
      1          6           0       -2.442136    1.354314    0.143944
      2          6           0       -3.976685   -0.926570   -0.319801
      3          6           0       -3.779516    1.476027   -0.237539
      4          6           0       -1.856025    0.088797    0.304407
      5          6           0       -2.639647   -1.050214    0.061824
      6          6           0       -4.546305    0.336010   -0.467882
      7          6           0       -0.395067   -0.015278    0.707828
      8          6           0        0.548188   -0.072290   -0.505209
      9          6           0        1.898262    0.449498   -0.051895
     10          8           0        2.845449   -0.521981    0.015201
     11          6           0        4.142902   -0.112548    0.470618
     12          8           0       -0.201938   -1.145875    1.561582
     13          6           0        0.625773   -1.441476   -1.184173
     14          8           0        2.088290    1.628056    0.232194
     15          6           0        4.971703    0.389812   -0.696471
     16          1           0       -1.858429    2.257353    0.314606
     17          1           0       -4.572669   -1.816647   -0.504814
     18          1           0       -4.222443    2.461603   -0.356983
     19          1           0       -2.209562   -2.045108    0.163648
     20          1           0       -5.587051    0.431614   -0.766269
     21          1           0       -0.163261    0.858601    1.330319
     22          1           0        0.216852    0.642808   -1.271425
     23          1           0        4.621007   -0.994786    0.908703
     24          1           0        4.068244    0.639937    1.263996
     25          1           0       -0.937089   -1.142715    2.200227
     26          1           0       -0.340945   -1.726578   -1.609441
     27          1           0        1.350561   -1.423259   -2.006087
     28          1           0        0.937834   -2.229535   -0.490784
     29          1           0        5.037440   -0.374134   -1.478153
     30          1           0        5.982852    0.649652   -0.370761
     31          1           0        4.513572    1.273107   -1.152509
 ---------------------------------------------------------------------
 Rotational constants (GHZ):      1.6411158      0.2706953      0.2565380
 Standard basis: 6-31+G(d,p) (6D, 7F)
 There are   365 symmetry adapted basis functions of A   symmetry.
 Integral buffers will be    131072 words long.
 Raffenetti 2 integral format.
 Two-electron integral symmetry is turned on.
   365 basis functions,   592 primitive gaussians,   365 cartesian basis functions
    56 alpha electrons       56 beta electrons
       nuclear repulsion energy       991.8416528889 Hartrees.
 NAtoms=   31 NActive=   31 NUniq=   31 SFac= 1.00D+00 NAtFMM=   60 NAOKFM=F Big=F
 Nuclear repulsion after empirical dispersion term =      991.8210143801 Hartrees.
 ------------------------------------------------------------------------------
 Polarizable Continuum Model (PCM)
 =================================
 Model                : C-PCM.
 Atomic radii         : SMD-Coulomb.
 Polarization charges : Total charges.
 Charge compensation  : None.
 Solution method      : Matrix inversion.
 Cavity type          : VdW (van der Waals Surface) (Alpha=1.000).
 Cavity algorithm     : GePol (No added spheres)
                        Default sphere list used, NSphG=   31.
                        Lebedev-Laikov grids with approx.  5.0 points / Ang**2.
                        Smoothing algorithm: Karplus/York (Gamma=1.0000).
                        Polarization charges: spherical gaussians, with
                                              point-specific exponents (IZeta= 3).
                        Self-potential: point-specific (ISelfS= 7).
                        Self-field    : sphere-specific E.n sum rule (ISelfD= 2).
 Solvent              : Chloroform, Eps=   4.711300 Eps(inf)=   2.090627
 ------------------------------------------------------------------------------
 ------------------------------------------------------------------------------
 Atomic radii for non-electrostatic terms: SMD-CDS.
 ------------------------------------------------------------------------------
 Nuclear repulsion after PCM non-electrostatic terms =      991.8145157007 Hartrees.
 One-electron integrals computed using PRISM.
 NBasis=   365 RedAO= T  NBF=   365
 NBsUse=   365 1.00D-06 NBFU=   365
 Harris functional with IExCor= 4639 diagonalized for initial guess.
 ExpMin= 4.38D-02 ExpMax= 5.48D+03 ExpMxC= 8.25D+02 IAcc=2 IRadAn=         4 AccDes= 0.00D+00
 HarFok:  IExCor= 4639 AccDes= 0.00D+00 IRadAn=         4 IDoV= 1
 ScaDFX=  1.000000  1.000000  1.000000  1.000000
 FoFCou: FMM=F IPFlag=           0 FMFlag=      100000 FMFlg1=           0
         NFxFlg=           0 DoJE=T BraDBF=F KetDBF=T FulRan=T
         Omega=  0.000000  0.000000  1.000000  0.000000  0.000000 ICntrl=     500 IOpCl=  0
         NMat0=    1 NMatS0=    1 NMatT0=    0 NMatD0=    1 NMtDS0=    0 NMtDT0=    0
         I1Cent=           4 NGrid=           0.
 Petite list used in FoFCou.
 Initial guess orbital symmetries:
       Occupied  (A) (A) (A) (A) (A) (A) (A) (A) (A) (A) (A) (A)
                 (A) (A) (A) (A) (A) (A) (A) (A) (A) (A) (A) (A)
                 (A) (A) (A) (A) (A) (A) (A) (A) (A) (A) (A) (A)
                 (A) (A) (A) (A) (A) (A) (A) (A) (A) (A) (A) (A)
                 (A) (A) (A) (A) (A) (A) (A) (A)
       Virtual   (A) (A) (A) (A) (A) (A) (A) (A) (A) (A) (A) (A)
                 (A) (A) (A) (A) (A) (A) (A) (A) (A) (A) (A) (A)
                 (A) (A) (A) (A) (A) (A) (A) (A) (A) (A) (A) (A)
                 (A) (A) (A) (A) (A) (A) (A) (A) (A) (A) (A) (A)
                 (A) (A) (A) (A) (A) (A) (A) (A) (A) (A) (A) (A)
                 (A) (A) (A) (A) (A) (A) (A) (A) (A) (A) (A) (A)
                 (A) (A) (A) (A) (A) (A) (A) (A) (A) (A) (A) (A)
                 (A) (A) (A) (A) (A) (A) (A) (A) (A) (A) (A) (A)
                 (A) (A) (A) (A) (A) (A) (A) (A) (A) (A) (A) (A)
                 (A) (A) (A) (A) (A) (A) (A) (A) (A) (A) (A) (A)
                 (A) (A) (A) (A) (A) (A) (A) (A) (A) (A) (A) (A)
                 (A) (A) (A) (A) (A) (A) (A) (A) (A) (A) (A) (A)
                 (A) (A) (A) (A) (A) (A) (A) (A) (A) (A) (A) (A)
                 (A) (A) (A) (A) (A) (A) (A) (A) (A) (A) (A) (A)
                 (A) (A) (A) (A) (A) (A) (A) (A) (A) (A) (A) (A)
                 (A) (A) (A) (A) (A) (A) (A) (A) (A) (A) (A) (A)
                 (A) (A) (A) (A) (A) (A) (A) (A) (A) (A) (A) (A)
                 (A) (A) (A) (A) (A) (A) (A) (A) (A) (A) (A) (A)
                 (A) (A) (A) (A) (A) (A) (A) (A) (A) (A) (A) (A)
                 (A) (A) (A) (A) (A) (A) (A) (A) (A) (A) (A) (A)
                 (A) (A) (A) (A) (A) (A) (A) (A) (A) (A) (A) (A)
                 (A) (A) (A) (A) (A) (A) (A) (A) (A) (A) (A) (A)
                 (A) (A) (A) (A) (A) (A) (A) (A) (A) (A) (A) (A)
                 (A) (A) (A) (A) (A) (A) (A) (A) (A) (A) (A) (A)
                 (A) (A) (A) (A) (A) (A) (A) (A) (A) (A) (A) (A)
                 (A) (A) (A) (A) (A) (A) (A) (A) (A)
 The electronic state of the initial guess is 1-A.
 Requested convergence on RMS density matrix=1.00D-08 within 128 cycles.
 Requested convergence on MAX density matrix=1.00D-06.
 Requested convergence on             energy=1.00D-06.
 No special actions if energy rises.
 FoFJK:  IHMeth= 1 ICntrl=     0 DoSepK=T KAlg= 1 I1Cent= 0 FoldK=F
 FoFJK:  IHMeth= 1 ICntrl=     0 DoSepK=T KAlg= 1 I1Cent= 0 FoldK=F
 FoFJK:  IHMeth= 1 ICntrl=     0 DoSepK=T KAlg= 1 I1Cent= 0 FoldK=F
 FoFJK:  IHMeth= 1 ICntrl=     0 DoSepK=T KAlg= 1 I1Cent= 0 FoldK=F
 FoFJK:  IHMeth= 1 ICntrl=     0 DoSepK=T KAlg= 1 I1Cent= 0 FoldK=F
 FoFJK:  IHMeth= 1 ICntrl=     0 DoSepK=T KAlg= 1 I1Cent= 0 FoldK=F
 FoFJK:  IHMeth= 1 ICntrl=     0 DoSepK=T KAlg= 1 I1Cent= 0 FoldK=F
 FoFJK:  IHMeth= 1 ICntrl=     0 DoSepK=T KAlg= 1 I1Cent= 0 FoldK=F
 FoFJK:  IHMeth= 1 ICntrl=     0 DoSepK=T KAlg= 1 I1Cent= 0 FoldK=F
 FoFJK:  IHMeth= 1 ICntrl=     0 DoSepK=T KAlg= 1 I1Cent= 0 FoldK=F
 FoFJK:  IHMeth= 1 ICntrl=     0 DoSepK=T KAlg= 1 I1Cent= 0 FoldK=F
 FoFJK:  IHMeth= 1 ICntrl=     0 DoSepK=T KAlg= 1 I1Cent= 0 FoldK=F
 FoFJK:  IHMeth= 1 ICntrl=     0 DoSepK=T KAlg= 1 I1Cent= 0 FoldK=F
 FoFJK:  IHMeth= 1 ICntrl=     0 DoSepK=T KAlg= 1 I1Cent= 0 FoldK=F
 FoFJK:  IHMeth= 1 ICntrl=     0 DoSepK=T KAlg= 1 I1Cent= 0 FoldK=F
 FoFJK:  IHMeth= 1 ICntrl=     0 DoSepK=T KAlg= 1 I1Cent= 0 FoldK=F
 Error on total polarization charges =  0.04046
 SCF Done:  E(RwB97XD) =  -692.441556481     A.U. after   16 cycles
             Convg  =    0.2669D-08             -V/T =  2.0096
 SMD-CDS (non-electrostatic) energy       (kcal/mol) =      -4.08
 (included in total energy above)
 Range of M.O.s used for correlation:     1   365
 NBasis=   365 NAE=    56 NBE=    56 NFC=     0 NFV=     0
 NROrb=    365 NOA=    56 NOB=    56 NVA=   309 NVB=   309

 **** Warning!!: The largest alpha MO coefficient is  0.13582932D+03

 NEqPCM:  Using equilibrium solvation (IEInf=0, Eps=   4.7113, EpsInf=   2.0906)
          Differentiating once with respect to magnetic field using GIAOs.
          Electric field/nuclear overlap derivatives assumed to be zero.
 FoFCou: FMM=F IPFlag=           0 FMFlag=    10101102 FMFlg1=           0
         NFxFlg=    40000000 DoJE=F BraDBF=F KetDBF=T FulRan=T
         Omega=  0.000000  0.000000  1.000000  0.000000  0.000000 ICntrl=    6100 IOpCl=  0
         NMat0=    1 NMatS0=    1 NMatT0=    0 NMatD0=    1 NMtDS0=    0 NMtDT0=    0
         I1Cent=           7 NGrid=        2304.
 Symmetry not used in FoFCou.
 FoFJK:  IHMeth= 1 ICntrl=  6127 DoSepK=T KAlg= 1 I1Cent= 0 FoldK=F
 FoFJK:  IHMeth= 1 ICntrl=     0 DoSepK=T KAlg= 1 I1Cent= 0 FoldK=F
          There are     3 degrees of freedom in the 1st order CPHF.  IDoFFX=0.
      3 vectors produced by pass  0 Test12= 5.77D-13 3.33D-08 XBig12= 2.06D+02 3.02D+00.
 AX will form     3 AO Fock derivatives at one time.
 FoFJK:  IHMeth= 1 ICntrl=     0 DoSepK=T KAlg= 1 I1Cent= 0 FoldK=F
      3 vectors produced by pass  1 Test12= 5.77D-13 3.33D-08 XBig12= 1.67D+00 3.85D-01.
 FoFJK:  IHMeth= 1 ICntrl=     0 DoSepK=T KAlg= 1 I1Cent= 0 FoldK=F
      3 vectors produced by pass  2 Test12= 5.77D-13 3.33D-08 XBig12= 3.21D-02 7.85D-02.
 FoFJK:  IHMeth= 1 ICntrl=     0 DoSepK=T KAlg= 1 I1Cent= 0 FoldK=F
      3 vectors produced by pass  3 Test12= 5.77D-13 3.33D-08 XBig12= 5.47D-04 6.79D-03.
 FoFJK:  IHMeth= 1 ICntrl=     0 DoSepK=T KAlg= 1 I1Cent= 0 FoldK=F
      3 vectors produced by pass  4 Test12= 5.77D-13 3.33D-08 XBig12= 7.17D-06 6.24D-04.
 FoFJK:  IHMeth= 1 ICntrl=     0 DoSepK=T KAlg= 1 I1Cent= 0 FoldK=F
      3 vectors produced by pass  5 Test12= 5.77D-13 3.33D-08 XBig12= 9.74D-08 7.56D-05.
 FoFJK:  IHMeth= 1 ICntrl=     0 DoSepK=T KAlg= 1 I1Cent= 0 FoldK=F
      3 vectors produced by pass  6 Test12= 5.77D-13 3.33D-08 XBig12= 1.34D-09 1.34D-05.
 FoFJK:  IHMeth= 1 ICntrl=     0 DoSepK=T KAlg= 1 I1Cent= 0 FoldK=F
      3 vectors produced by pass  7 Test12= 5.77D-13 3.33D-08 XBig12= 1.86D-11 1.38D-06.
 FoFJK:  IHMeth= 1 ICntrl=     0 DoSepK=T KAlg= 1 I1Cent= 0 FoldK=F
      3 vectors produced by pass  8 Test12= 5.77D-13 3.33D-08 XBig12= 2.01D-13 9.05D-08.
 FoFJK:  IHMeth= 1 ICntrl=     0 DoSepK=T KAlg= 1 I1Cent= 0 FoldK=F
 Inverted reduced A of dimension    27 with in-core refinement.
 Calculating GIAO nuclear magnetic shielding tensors.
 SCF GIAO Magnetic shielding tensor (ppm):
      1  C    Isotropic =    71.6039   Anisotropy =   165.3469
   XX=    41.3253   YX=   -33.6933   ZX=   -39.1386
   XY=   -39.2783   YY=     0.1413   ZY=   -11.6235
   XZ=   -29.1220   YZ=   -17.8279   ZZ=   173.3452
   Eigenvalues:   -25.7874    58.7640   181.8352
      2  C    Isotropic =    69.9214   Anisotropy =   174.9210
   XX=    40.2938   YX=   -38.0444   ZX=   -43.5925
   XY=   -40.4134   YY=    -4.0547   ZY=   -14.0055
   XZ=   -43.4517   YZ=   -15.8029   ZZ=   173.5251
   Eigenvalues:   -33.0856    56.3144   186.5354
      3  C    Isotropic =    69.8496   Anisotropy =   174.7955
   XX=    51.5410   YX=    31.3690   ZX=   -37.9411
   XY=    33.5427   YY=   -17.6001   ZY=     7.5597
   XZ=   -38.2808   YZ=    11.2763   ZZ=   175.6079
   Eigenvalues:   -33.0674    56.2362   186.3799
      4  C    Isotropic =    50.1482   Anisotropy =   184.1926
   XX=   -16.0726   YX=     8.0020   ZX=   -54.1935
   XY=     4.7295   YY=    10.8605   ZY=    -7.3150
   XZ=   -54.1151   YZ=   -22.9006   ZZ=   155.6566
   Eigenvalues:   -31.8128     9.3141   172.9432
      5  C    Isotropic =    73.9636   Anisotropy =   179.8306
   XX=    52.7366   YX=    28.1040   ZX=   -42.0219
   XY=    26.4800   YY=   -15.5748   ZY=     8.2420
   XZ=   -29.7290   YZ=     6.5094   ZZ=   184.7292
   Eigenvalues:   -26.9064    54.9466   193.8507
      6  C    Isotropic =    72.2023   Anisotropy =   176.5231
   XX=   -10.5305   YX=     6.9237   ZX=   -57.2923
   XY=     7.5343   YY=    55.4910   ZY=     0.7048
   XZ=   -63.5989   YZ=     1.6617   ZZ=   171.6464
   Eigenvalues:   -29.3832    56.1057   189.8843
      7  C    Isotropic =   119.7618   Anisotropy =    33.5926
   XX=   113.5833   YX=    -8.7122   ZX=     4.4523
   XY=    -4.5869   YY=   133.5036   ZY=   -15.6242
   XZ=     0.8065   YZ=   -12.2145   ZZ=   112.1984
   Eigenvalues:   105.2729   111.8556   142.1568
      8  C    Isotropic =   147.5661   Anisotropy =    24.1553
   XX=   162.9986   YX=     6.5305   ZX=     4.1362
   XY=     0.9636   YY=   142.3990   ZY=     2.1202
   XZ=    -4.9682   YZ=    -3.5126   ZZ=   137.3008
   Eigenvalues:   137.2072   141.8216   163.6696
      9  C    Isotropic =    17.5370   Anisotropy =   102.1343
   XX=   -46.0551   YX=    23.9518   ZX=   -33.5836
   XY=    59.0840   YY=    20.3927   ZY=     5.9169
   XZ=   -28.0289   YZ=     7.9869   ZZ=    78.2734
   Eigenvalues:   -72.3151    39.2996    85.6266
     10  O    Isotropic =   126.8538   Anisotropy =   177.3840
   XX=   108.8056   YX=   -33.5104   ZX=   -59.9173
   XY=  -158.8793   YY=    58.8298   ZY=   -83.7874
   XZ=   -63.6468   YZ=   -47.9077   ZZ=   212.9261
   Eigenvalues:   -46.7239   182.1756   245.1098
     11  C    Isotropic =   137.3439   Anisotropy =    65.9780
   XX=   172.7245   YX=    20.7036   ZX=    17.0354
   XY=    17.1741   YY=   107.9677   ZY=    -3.5975
   XZ=    12.5319   YZ=    -5.6609   ZZ=   131.3394
   Eigenvalues:   100.4168   130.2856   181.3292
     12  O    Isotropic =   291.1205   Anisotropy =    77.4151
   XX=   317.3284   YX=    -1.0418   ZX=   -24.7228
   XY=     3.3302   YY=   247.2482   ZY=   -14.2609
   XZ=   -27.6143   YZ=   -35.0277   ZZ=   308.7848
   Eigenvalues:   237.7914   292.8396   342.7305
     13  C    Isotropic =   188.7843   Anisotropy =     9.1426
   XX=   189.8631   YX=     2.5557   ZX=     2.5427
   XY=     0.3588   YY=   191.4752   ZY=     5.4142
   XZ=    -0.2971   YZ=     4.6397   ZZ=   185.0145
   Eigenvalues:   182.2583   189.2152   194.8793
     14  O    Isotropic =   -34.5380   Anisotropy =   533.4646
   XX=  -143.4559   YX=    34.6767   ZX=  -110.1822
   XY=    75.1085   YY=  -235.9004   ZY=   -99.3564
   XZ=  -104.9884   YZ=   -87.4149   ZZ=   275.7424
   Eigenvalues:  -265.1716  -159.5474   321.1051
     15  C    Isotropic =   181.6008   Anisotropy =    26.0654
   XX=   189.5718   YX=     9.5118   ZX=    -3.1635
   XY=    11.3176   YY=   166.7104   ZY=    -5.5778
   XZ=    -8.5573   YZ=    -5.2041   ZZ=   188.5203
   Eigenvalues:   162.3306   183.4941   198.9778
     16  H    Isotropic =    23.6644   Anisotropy =     8.2881
   XX=    26.7337   YX=    -3.6431   ZX=     1.3435
   XY=    -2.8851   YY=    24.5040   ZY=    -0.1403
   XZ=     1.2894   YZ=     0.1541   ZZ=    19.7555
   Eigenvalues:    19.4210    22.3824    29.1898
     17  H    Isotropic =    23.7569   Anisotropy =     5.1481
   XX=    26.3066   YX=    -1.0840   ZX=     1.5242
   XY=    -1.2343   YY=    24.2929   ZY=    -0.4107
   XZ=     1.4579   YZ=    -0.3583   ZZ=    20.6713
   Eigenvalues:    20.2987    23.7831    27.1890
     18  H    Isotropic =    23.8010   Anisotropy =     4.7457
   XX=    26.3887   YX=     0.6203   ZX=     1.5728
   XY=     0.6119   YY=    24.2052   ZY=     0.4194
   XZ=     1.5448   YZ=     0.2829   ZZ=    20.8092
   Eigenvalues:    20.3942    24.0441    26.9648
     19  H    Isotropic =    23.2785   Anisotropy =    10.0943
   XX=    28.5195   YX=     3.4324   ZX=     1.9913
   XY=     2.6618   YY=    21.9270   ZY=     0.7192
   XZ=     1.4973   YZ=     0.0912   ZZ=    19.3891
   Eigenvalues:    19.0547    20.7729    30.0080
     20  H    Isotropic =    23.7569   Anisotropy =     4.2737
   XX=    24.3792   YX=     0.0899   ZX=     1.0379
   XY=     0.0908   YY=    26.5923   ZY=     0.1675
   XZ=     0.8065   YZ=     0.2473   ZZ=    20.2993
   Eigenvalues:    20.0953    24.5694    26.6061
     21  H    Isotropic =    26.3024   Anisotropy =     5.6943
   XX=    25.0659   YX=    -0.7973   ZX=     0.3771
   XY=     0.2702   YY=    29.9449   ZY=     1.1173
   XZ=     0.7738   YZ=     0.7964   ZZ=    23.8966
   Eigenvalues:    23.5098    25.2989    30.0986
     22  H    Isotropic =    28.9029   Anisotropy =     5.0173
   XX=    28.2570   YX=    -1.6275   ZX=     1.3265
   XY=    -0.1940   YY=    30.5995   ZY=    -1.9743
   XZ=    -1.3014   YZ=    -3.0524   ZZ=    27.8522
   Eigenvalues:    26.2531    28.2079    32.2477
     23  H    Isotropic =    27.6399   Anisotropy =     7.7579
   XX=    29.5587   YX=    -1.8028   ZX=     2.1087
   XY=    -0.5215   YY=    26.6489   ZY=    -3.4676
   XZ=     2.6044   YZ=    -4.8982   ZZ=    26.7121
   Eigenvalues:    22.3892    27.7187    32.8118
     24  H    Isotropic =    26.8116   Anisotropy =     5.9357
   XX=    28.0678   YX=     1.9768   ZX=     1.7713
   XY=     0.1542   YY=    23.7253   ZY=     1.9366
   XZ=     1.2229   YZ=     2.7447   ZZ=    28.6416
   Eigenvalues:    22.7505    26.9155    30.7687
     25  H    Isotropic =    30.0674   Anisotropy =    16.5140
   XX=    31.6661   YX=    -0.1223   ZX=    -8.5654
   XY=     0.6389   YY=    24.6855   ZY=    -4.1645
   XZ=    -6.4363   YZ=    -4.4660   ZZ=    33.8505
   Eigenvalues:    21.9241    27.2013    41.0767
     26  H    Isotropic =    30.6139   Anisotropy =     9.4740
   XX=    34.8999   YX=     1.7774   ZX=     2.8734
   XY=     2.6142   YY=    28.0304   ZY=     3.3846
   XZ=     0.6864   YZ=     5.7469   ZZ=    28.9114
   Eigenvalues:    23.8658    31.0459    36.9299
     27  H    Isotropic =    30.6448   Anisotropy =     9.9761
   XX=    31.4570   YX=     0.3029   ZX=    -3.8316
   XY=    -0.4131   YY=    27.2904   ZY=     2.3122
   XZ=    -4.8989   YZ=     3.4198   ZZ=    33.1870
   Eigenvalues:    25.5068    29.1320    37.2955
     28  H    Isotropic =    29.7698   Anisotropy =     6.8197
   XX=    28.3522   YX=    -1.9777   ZX=     0.7802
   XY=    -2.2133   YY=    32.9928   ZY=    -2.2442
   XZ=    -0.0878   YZ=    -1.3691   ZZ=    27.9645
   Eigenvalues:    27.1798    27.8134    34.3163
     29  H    Isotropic =    30.4273   Anisotropy =     8.2734
   XX=    29.3831   YX=    -0.6600   ZX=    -2.8181
   XY=    -0.4634   YY=    29.7415   ZY=     2.7973
   XZ=    -2.9351   YZ=     4.5922   ZZ=    32.1572
   Eigenvalues:    26.3649    28.9740    35.9429
     30  H    Isotropic =    30.5719   Anisotropy =    11.5082
   XX=    37.3700   YX=     2.9592   ZX=     1.0118
   XY=     3.1651   YY=    27.2317   ZY=     0.2616
   XZ=    -0.0995   YZ=     0.0623   ZZ=    27.1140
   Eigenvalues:    26.3770    27.0947    38.2441
     31  H    Isotropic =    30.3031   Anisotropy =     6.4772
   XX=    30.0540   YX=    -0.9302   ZX=    -1.1603
   XY=    -1.0035   YY=    31.9601   ZY=    -3.1614
   XZ=    -1.6847   YZ=    -4.6457   ZZ=    28.8953
   Eigenvalues:    25.5738    30.7143    34.6213
 End of Minotr Frequency-dependent properties file   721 does not exist.
 End of Minotr Frequency-dependent properties file   722 does not exist.

 **********************************************************************

            Population analysis using the SCF density.

 **********************************************************************

 Orbital symmetries:
       Occupied  (A) (A) (A) (A) (A) (A) (A) (A) (A) (A) (A) (A)
                 (A) (A) (A) (A) (A) (A) (A) (A) (A) (A) (A) (A)
                 (A) (A) (A) (A) (A) (A) (A) (A) (A) (A) (A) (A)
                 (A) (A) (A) (A) (A) (A) (A) (A) (A) (A) (A) (A)
                 (A) (A) (A) (A) (A) (A) (A) (A)
       Virtual   (A) (A) (A) (A) (A) (A) (A) (A) (A) (A) (A) (A)
                 (A) (A) (A) (A) (A) (A) (A) (A) (A) (A) (A) (A)
                 (A) (A) (A) (A) (A) (A) (A) (A) (A) (A) (A) (A)
                 (A) (A) (A) (A) (A) (A) (A) (A) (A) (A) (A) (A)
                 (A) (A) (A) (A) (A) (A) (A) (A) (A) (A) (A) (A)
                 (A) (A) (A) (A) (A) (A) (A) (A) (A) (A) (A) (A)
                 (A) (A) (A) (A) (A) (A) (A) (A) (A) (A) (A) (A)
                 (A) (A) (A) (A) (A) (A) (A) (A) (A) (A) (A) (A)
                 (A) (A) (A) (A) (A) (A) (A) (A) (A) (A) (A) (A)
                 (A) (A) (A) (A) (A) (A) (A) (A) (A) (A) (A) (A)
                 (A) (A) (A) (A) (A) (A) (A) (A) (A) (A) (A) (A)
                 (A) (A) (A) (A) (A) (A) (A) (A) (A) (A) (A) (A)
                 (A) (A) (A) (A) (A) (A) (A) (A) (A) (A) (A) (A)
                 (A) (A) (A) (A) (A) (A) (A) (A) (A) (A) (A) (A)
                 (A) (A) (A) (A) (A) (A) (A) (A) (A) (A) (A) (A)
                 (A) (A) (A) (A) (A) (A) (A) (A) (A) (A) (A) (A)
                 (A) (A) (A) (A) (A) (A) (A) (A) (A) (A) (A) (A)
                 (A) (A) (A) (A) (A) (A) (A) (A) (A) (A) (A) (A)
                 (A) (A) (A) (A) (A) (A) (A) (A) (A) (A) (A) (A)
                 (A) (A) (A) (A) (A) (A) (A) (A) (A) (A) (A) (A)
                 (A) (A) (A) (A) (A) (A) (A) (A) (A) (A) (A) (A)
                 (A) (A) (A) (A) (A) (A) (A) (A) (A) (A) (A) (A)
                 (A) (A) (A) (A) (A) (A) (A) (A) (A) (A) (A) (A)
                 (A) (A) (A) (A) (A) (A) (A) (A) (A) (A) (A) (A)
                 (A) (A) (A) (A) (A) (A) (A) (A) (A) (A) (A) (A)
                 (A) (A) (A) (A) (A) (A) (A) (A) (A)
 The electronic state is 1-A.
 Alpha  occ. eigenvalues --  -19.32718 -19.28291 -19.27184 -10.43822 -10.36229
 Alpha  occ. eigenvalues --  -10.34945 -10.32090 -10.31596 -10.30783 -10.30766
 Alpha  occ. eigenvalues --  -10.30721 -10.30708 -10.30563 -10.28598 -10.28540
 Alpha  occ. eigenvalues --   -1.20853  -1.13188  -1.12139  -0.96266  -0.91283
 Alpha  occ. eigenvalues --   -0.86781  -0.84936  -0.84772  -0.77993  -0.75801
 Alpha  occ. eigenvalues --   -0.71501  -0.70078  -0.67797  -0.64703  -0.62263
 Alpha  occ. eigenvalues --   -0.59884  -0.58748  -0.57229  -0.56282  -0.55080
 Alpha  occ. eigenvalues --   -0.53299  -0.52699  -0.51971  -0.50633  -0.50127
 Alpha  occ. eigenvalues --   -0.49147  -0.47272  -0.46430  -0.46160  -0.45747
 Alpha  occ. eigenvalues --   -0.45021  -0.44474  -0.42870  -0.42428  -0.41556
 Alpha  occ. eigenvalues --   -0.40667  -0.38665  -0.36843  -0.36213  -0.33364
 Alpha  occ. eigenvalues --   -0.32425
 Alpha virt. eigenvalues --    0.04659   0.05251   0.06494   0.07280   0.07959
 Alpha virt. eigenvalues --    0.08236   0.08733   0.09138   0.09878   0.10293
 Alpha virt. eigenvalues --    0.10341   0.11071   0.11719   0.11924   0.12582
 Alpha virt. eigenvalues --    0.13300   0.13849   0.14193   0.14652   0.15184
 Alpha virt. eigenvalues --    0.15438   0.16316   0.16787   0.16976   0.18052
 Alpha virt. eigenvalues --    0.18804   0.19035   0.19159   0.19467   0.19775
 Alpha virt. eigenvalues --    0.21028   0.21222   0.21670   0.22203   0.22584
 Alpha virt. eigenvalues --    0.23382   0.23991   0.24164   0.24705   0.25250
 Alpha virt. eigenvalues --    0.25432   0.25801   0.26017   0.26472   0.26818
 Alpha virt. eigenvalues --    0.27226   0.27753   0.28216   0.28633   0.28967
 Alpha virt. eigenvalues --    0.29842   0.30112   0.30195   0.30510   0.31493
 Alpha virt. eigenvalues --    0.31839   0.32357   0.32802   0.33471   0.33602
 Alpha virt. eigenvalues --    0.33947   0.34743   0.35324   0.35722   0.35902
 Alpha virt. eigenvalues --    0.36328   0.36783   0.37500   0.38307   0.38655
 Alpha virt. eigenvalues --    0.39259   0.39576   0.40144   0.40980   0.41720
 Alpha virt. eigenvalues --    0.41908   0.42378   0.43095   0.43843   0.44329
 Alpha virt. eigenvalues --    0.44523   0.45771   0.46430   0.46562   0.48802
 Alpha virt. eigenvalues --    0.49398   0.49962   0.51503   0.52219   0.53355
 Alpha virt. eigenvalues --    0.54319   0.56645   0.62115   0.66513   0.70227
 Alpha virt. eigenvalues --    0.73790   0.74222   0.75325   0.75692   0.77058
 Alpha virt. eigenvalues --    0.77230   0.78740   0.79532   0.80322   0.81203
 Alpha virt. eigenvalues --    0.81708   0.82832   0.83429   0.83593   0.84192
 Alpha virt. eigenvalues --    0.85284   0.85767   0.87479   0.88391   0.88743
 Alpha virt. eigenvalues --    0.89831   0.91081   0.92239   0.93971   0.94419
 Alpha virt. eigenvalues --    0.95622   0.98054   0.99188   1.01016   1.02426
 Alpha virt. eigenvalues --    1.03751   1.04449   1.05547   1.06070   1.06425
 Alpha virt. eigenvalues --    1.07911   1.09106   1.10852   1.11903   1.12879
 Alpha virt. eigenvalues --    1.14239   1.14933   1.16450   1.17206   1.18286
 Alpha virt. eigenvalues --    1.19747   1.21217   1.22042   1.22937   1.24495
 Alpha virt. eigenvalues --    1.25527   1.26272   1.27845   1.28441   1.29642
 Alpha virt. eigenvalues --    1.32459   1.33142   1.35140   1.35624   1.36848
 Alpha virt. eigenvalues --    1.37920   1.38453   1.40951   1.43097   1.44060
 Alpha virt. eigenvalues --    1.45711   1.46257   1.48328   1.49059   1.49922
 Alpha virt. eigenvalues --    1.50100   1.50640   1.52606   1.55267   1.56248
 Alpha virt. eigenvalues --    1.58049   1.58754   1.62451   1.62785   1.66076
 Alpha virt. eigenvalues --    1.67475   1.69910   1.73856   1.75906   1.77672
 Alpha virt. eigenvalues --    1.79682   1.81462   1.83684   1.86002   1.88061
 Alpha virt. eigenvalues --    1.89425   1.90920   1.91685   1.93030   1.94325
 Alpha virt. eigenvalues --    1.96261   1.98095   1.99018   2.00605   2.01368
 Alpha virt. eigenvalues --    2.02180   2.03899   2.05094   2.05187   2.06497
 Alpha virt. eigenvalues --    2.06845   2.07824   2.08738   2.10622   2.11160
 Alpha virt. eigenvalues --    2.11917   2.13652   2.14707   2.17289   2.18805
 Alpha virt. eigenvalues --    2.19910   2.21017   2.21296   2.23555   2.24101
 Alpha virt. eigenvalues --    2.25870   2.26360   2.28075   2.29610   2.30639
 Alpha virt. eigenvalues --    2.32388   2.34916   2.37098   2.39110   2.40071
 Alpha virt. eigenvalues --    2.41432   2.43848   2.44363   2.47963   2.48751
 Alpha virt. eigenvalues --    2.49020   2.49525   2.50048   2.52144   2.54804
 Alpha virt. eigenvalues --    2.55999   2.56692   2.57328   2.59365   2.60099
 Alpha virt. eigenvalues --    2.63326   2.64803   2.65048   2.66746   2.68574
 Alpha virt. eigenvalues --    2.69556   2.70495   2.72700   2.73515   2.75719
 Alpha virt. eigenvalues --    2.76680   2.77682   2.80462   2.81517   2.82319
 Alpha virt. eigenvalues --    2.83703   2.86001   2.86707   2.87798   2.89051
 Alpha virt. eigenvalues --    2.90788   2.91335   2.94411   2.96409   2.96920
 Alpha virt. eigenvalues --    2.99335   3.00449   3.02083   3.06131   3.10127
 Alpha virt. eigenvalues --    3.12399   3.14636   3.17185   3.22973   3.25016
 Alpha virt. eigenvalues --    3.28915   3.32436   3.36577   3.37043   3.38262
 Alpha virt. eigenvalues --    3.38926   3.43482   3.44956   3.51746   3.52522
 Alpha virt. eigenvalues --    3.53847   3.56895   3.59058   3.60980   3.62907
 Alpha virt. eigenvalues --    3.65737   3.66615   3.67632   3.99393   4.40017
 Alpha virt. eigenvalues --    4.40607   4.42191   4.46908   4.51668   4.55012
 Alpha virt. eigenvalues --    4.57516   4.59704   4.62337   4.67713   4.73221
 Alpha virt. eigenvalues --    4.78617   4.81188   4.96377   4.97310
          Condensed to atoms (all electrons):
              1          2          3          4          5          6
     1  C   15.187790  -1.234429  -0.925321  -4.177237  -6.499352   0.122618
     2  C   -1.234429   8.748396   0.705302   1.641665  -1.668800   0.563569
     3  C   -0.925321   0.705302   6.767719   0.714127  -0.502657   0.437686
     4  C   -4.177237   1.641665   0.714127  21.393868  -2.820404  -0.935765
     5  C   -6.499352  -1.668800  -0.502657  -2.820404  16.496627   0.145542
     6  C    0.122618   0.563569   0.437686  -0.935765   0.145542   5.360637
     7  C    3.851864  -3.173710  -1.401781 -11.133588   0.462333   0.184501
     8  C   -0.336348   0.340758   0.287504   2.013267   0.082627  -0.050285
     9  C   -0.201138  -0.201046  -0.122011  -2.197949   0.589418   0.032730
    10  O   -0.002715   0.000462  -0.000409   0.000671   0.005587   0.000215
    11  C   -0.004877   0.000784   0.001405   0.025702   0.010959   0.000198
    12  O   -0.178356   0.218072   0.017719   0.187273   0.118642   0.004101
    13  C    0.020563   0.104263  -0.031672   0.780126  -0.380034  -0.005312
    14  O    0.012507  -0.000276   0.002056  -0.022768  -0.016275   0.000021
    15  C    0.001047  -0.000762  -0.000937  -0.022421  -0.001732   0.000034
    16  H    0.202009   0.012936   0.052428   0.098602  -0.003827  -0.013769
    17  H    0.006904   0.273889  -0.004070   0.035496   0.015241   0.009024
    18  H    0.037920  -0.004098   0.260254   0.009811   0.000890   0.023714
    19  H    0.045269  -0.040224  -0.002626   0.123513   0.218244  -0.009733
    20  H   -0.005872   0.020216   0.024697   0.006046   0.000820   0.276765
    21  H    0.110797   0.029281   0.063913   0.269972  -0.086750  -0.001279
    22  H   -0.089331   0.005995  -0.007444   0.073282   0.053478  -0.000236
    23  H    0.000070  -0.000007  -0.000008  -0.000552  -0.000266   0.000000
    24  H   -0.000379   0.000021  -0.000009  -0.000149   0.000306  -0.000002
    25  H    0.017656  -0.001055   0.001570   0.035763  -0.050967  -0.001099
    26  H    0.043794  -0.009606  -0.004789  -0.006534  -0.070533   0.000641
    27  H   -0.010853  -0.000253  -0.000056   0.012537   0.010439   0.000050
    28  H   -0.010785   0.006224  -0.001476  -0.050059   0.040975   0.000862
    29  H   -0.000071   0.000004  -0.000001  -0.000106   0.000102   0.000000
    30  H    0.000003   0.000000   0.000000   0.000015  -0.000005   0.000000
    31  H    0.000117  -0.000003  -0.000013  -0.000718  -0.000089   0.000001
              7          8          9         10         11         12
     1  C    3.851864  -0.336348  -0.201138  -0.002715  -0.004877  -0.178356
     2  C   -3.173710   0.340758  -0.201046   0.000462   0.000784   0.218072
     3  C   -1.401781   0.287504  -0.122011  -0.000409   0.001405   0.017719
     4  C  -11.133588   2.013267  -2.197949   0.000671   0.025702   0.187273
     5  C    0.462333   0.082627   0.589418   0.005587   0.010959   0.118642
     6  C    0.184501  -0.050285   0.032730   0.000215   0.000198   0.004101
     7  C   18.958253  -3.087534   2.282887  -0.017020  -0.022339  -0.215916
     8  C   -3.087534   9.204425  -2.281287  -0.334831   0.030286  -0.260121
     9  C    2.282887  -2.281287   7.659028   0.381331  -0.136455   0.133559
    10  O   -0.017020  -0.334831   0.381331   8.434515   0.055462   0.010114
    11  C   -0.022339   0.030286  -0.136455   0.055462   5.155693   0.004299
    12  O   -0.215916  -0.260121   0.133559   0.010114   0.004299   8.315504
    13  C   -0.577777  -0.078455  -0.343186   0.026551  -0.029373   0.007537
    14  O   -0.088491  -0.072570   0.629241  -0.161927   0.014825  -0.003622
    15  C    0.016515  -0.088588   0.055340  -0.057679   0.236508   0.000157
    16  H   -0.049338   0.035823  -0.020901   0.000031  -0.000129   0.000408
    17  H   -0.009968  -0.000523  -0.000295   0.000000   0.000000   0.000130
    18  H   -0.001449  -0.000588   0.000101   0.000000   0.000000   0.000015
    19  H   -0.016941  -0.013049   0.003078  -0.000007  -0.000006   0.005051
    20  H    0.003929  -0.000184   0.000030   0.000000   0.000000  -0.000006
    21  H   -0.104435   0.152405  -0.148053   0.002925   0.002093  -0.047323
    22  H   -0.059598   0.318780  -0.017083   0.007649   0.000733   0.008443
    23  H    0.002287  -0.014067   0.024439  -0.063469   0.415085  -0.000042
    24  H   -0.003578   0.014484   0.000475  -0.035451   0.391822   0.000017
    25  H   -0.016505   0.036209  -0.015330  -0.000161  -0.000279   0.243610
    26  H    0.110687  -0.103037  -0.002191   0.000953   0.000020  -0.005238
    27  H   -0.008396  -0.110582   0.016054  -0.001358  -0.001449   0.000797
    28  H   -0.005473  -0.063794  -0.004344   0.001205  -0.000376   0.005168
    29  H   -0.000987   0.002087   0.008250  -0.003469  -0.045761   0.000004
    30  H    0.000078   0.003320   0.005759   0.007574  -0.049201  -0.000001
    31  H    0.001069  -0.010306   0.009213  -0.007339  -0.047346  -0.000002
             13         14         15         16         17         18
     1  C    0.020563   0.012507   0.001047   0.202009   0.006904   0.037920
     2  C    0.104263  -0.000276  -0.000762   0.012936   0.273889  -0.004098
     3  C   -0.031672   0.002056  -0.000937   0.052428  -0.004070   0.260254
     4  C    0.780126  -0.022768  -0.022421   0.098602   0.035496   0.009811
     5  C   -0.380034  -0.016275  -0.001732  -0.003827   0.015241   0.000890
     6  C   -0.005312   0.000021   0.000034  -0.013769   0.009024   0.023714
     7  C   -0.577777  -0.088491   0.016515  -0.049338  -0.009968  -0.001449
     8  C   -0.078455  -0.072570  -0.088588   0.035823  -0.000523  -0.000588
     9  C   -0.343186   0.629241   0.055340  -0.020901  -0.000295   0.000101
    10  O    0.026551  -0.161927  -0.057679   0.000031   0.000000   0.000000
    11  C   -0.029373   0.014825   0.236508  -0.000129   0.000000   0.000000
    12  O    0.007537  -0.003622   0.000157   0.000408   0.000130   0.000015
    13  C    5.826068   0.007935   0.008046   0.003782   0.000841   0.000169
    14  O    0.007935   8.214871  -0.033710   0.000171   0.000000  -0.000002
    15  C    0.008046  -0.033710   5.253478  -0.000020   0.000000   0.000000
    16  H    0.003782   0.000171  -0.000020   0.503430   0.000011  -0.003969
    17  H    0.000841   0.000000   0.000000   0.000011   0.496460  -0.000122
    18  H    0.000169  -0.000002   0.000000  -0.003969  -0.000122   0.496084
    19  H    0.005855  -0.000016  -0.000006  -0.000109  -0.004073   0.000011
    20  H   -0.000070   0.000000   0.000000  -0.000119  -0.003843  -0.003864
    21  H   -0.005545   0.007593  -0.001260   0.001826   0.000002  -0.000003
    22  H    0.007648  -0.007934   0.000245   0.000122   0.000000   0.000002
    23  H    0.004473  -0.000243  -0.036979   0.000000   0.000000   0.000000
    24  H   -0.002841   0.001603  -0.032675   0.000000   0.000000   0.000000
    25  H    0.002129  -0.000026  -0.000006   0.000033  -0.000001   0.000000
    26  H    0.405579  -0.000178  -0.000132  -0.000003  -0.000010   0.000000
    27  H    0.454926  -0.000343   0.000005   0.000000   0.000000   0.000000
    28  H    0.442719  -0.000323   0.000031   0.000000   0.000000   0.000000
    29  H   -0.001736  -0.000386   0.405357   0.000000   0.000000   0.000000
    30  H    0.000305  -0.000211   0.396380   0.000000   0.000000   0.000000
    31  H    0.000745   0.001247   0.417389   0.000000   0.000000   0.000000
             19         20         21         22         23         24
     1  C    0.045269  -0.005872   0.110797  -0.089331   0.000070  -0.000379
     2  C   -0.040224   0.020216   0.029281   0.005995  -0.000007   0.000021
     3  C   -0.002626   0.024697   0.063913  -0.007444  -0.000008  -0.000009
     4  C    0.123513   0.006046   0.269972   0.073282  -0.000552  -0.000149
     5  C    0.218244   0.000820  -0.086750   0.053478  -0.000266   0.000306
     6  C   -0.009733   0.276765  -0.001279  -0.000236   0.000000  -0.000002
     7  C   -0.016941   0.003929  -0.104435  -0.059598   0.002287  -0.003578
     8  C   -0.013049  -0.000184   0.152405   0.318780  -0.014067   0.014484
     9  C    0.003078   0.000030  -0.148053  -0.017083   0.024439   0.000475
    10  O   -0.000007   0.000000   0.002925   0.007649  -0.063469  -0.035451
    11  C   -0.000006   0.000000   0.002093   0.000733   0.415085   0.391822
    12  O    0.005051  -0.000006  -0.047323   0.008443  -0.000042   0.000017
    13  C    0.005855  -0.000070  -0.005545   0.007648   0.004473  -0.002841
    14  O   -0.000016   0.000000   0.007593  -0.007934  -0.000243   0.001603
    15  C   -0.000006   0.000000  -0.001260   0.000245  -0.036979  -0.032675
    16  H   -0.000109  -0.000119   0.001826   0.000122   0.000000   0.000000
    17  H   -0.004073  -0.003843   0.000002   0.000000   0.000000   0.000000
    18  H    0.000011  -0.003864  -0.000003   0.000002   0.000000   0.000000
    19  H    0.501289  -0.000119  -0.000041   0.000063   0.000000   0.000000
    20  H   -0.000119   0.498907   0.000000   0.000000   0.000000   0.000000
    21  H   -0.000041   0.000000   0.590697   0.000314   0.000000  -0.000004
    22  H    0.000063   0.000000   0.000314   0.493310   0.000002  -0.000012
    23  H    0.000000   0.000000   0.000000   0.000002   0.529415  -0.031078
    24  H    0.000000   0.000000  -0.000004  -0.000012  -0.031078   0.520502
    25  H   -0.000944   0.000000  -0.004865  -0.000127   0.000000   0.000000
    26  H   -0.000153   0.000000  -0.000148  -0.003001  -0.000001   0.000001
    27  H    0.000037   0.000000  -0.000071  -0.003181   0.000006  -0.000005
    28  H   -0.000024   0.000000  -0.000044   0.003710   0.000019  -0.000008
    29  H    0.000000   0.000000   0.000000  -0.000001  -0.004987   0.003779
    30  H    0.000000   0.000000   0.000000   0.000000  -0.001196  -0.001108
    31  H    0.000000   0.000000   0.000000   0.000006   0.003935  -0.004832
             25         26         27         28         29         30
     1  C    0.017656   0.043794  -0.010853  -0.010785  -0.000071   0.000003
     2  C   -0.001055  -0.009606  -0.000253   0.006224   0.000004   0.000000
     3  C    0.001570  -0.004789  -0.000056  -0.001476  -0.000001   0.000000
     4  C    0.035763  -0.006534   0.012537  -0.050059  -0.000106   0.000015
     5  C   -0.050967  -0.070533   0.010439   0.040975   0.000102  -0.000005
     6  C   -0.001099   0.000641   0.000050   0.000862   0.000000   0.000000
     7  C   -0.016505   0.110687  -0.008396  -0.005473  -0.000987   0.000078
     8  C    0.036209  -0.103037  -0.110582  -0.063794   0.002087   0.003320
     9  C   -0.015330  -0.002191   0.016054  -0.004344   0.008250   0.005759
    10  O   -0.000161   0.000953  -0.001358   0.001205  -0.003469   0.007574
    11  C   -0.000279   0.000020  -0.001449  -0.000376  -0.045761  -0.049201
    12  O    0.243610  -0.005238   0.000797   0.005168   0.000004  -0.000001
    13  C    0.002129   0.405579   0.454926   0.442719  -0.001736   0.000305
    14  O   -0.000026  -0.000178  -0.000343  -0.000323  -0.000386  -0.000211
    15  C   -0.000006  -0.000132   0.000005   0.000031   0.405357   0.396380
    16  H    0.000033  -0.000003   0.000000   0.000000   0.000000   0.000000
    17  H   -0.000001  -0.000010   0.000000   0.000000   0.000000   0.000000
    18  H    0.000000   0.000000   0.000000   0.000000   0.000000   0.000000
    19  H   -0.000944  -0.000153   0.000037  -0.000024   0.000000   0.000000
    20  H    0.000000   0.000000   0.000000   0.000000   0.000000   0.000000
    21  H   -0.004865  -0.000148  -0.000071  -0.000044   0.000000   0.000000
    22  H   -0.000127  -0.003001  -0.003181   0.003710  -0.000001   0.000000
    23  H    0.000000  -0.000001   0.000006   0.000019  -0.004987  -0.001196
    24  H    0.000000   0.000001  -0.000005  -0.000008   0.003779  -0.001108
    25  H    0.353930  -0.000016  -0.000003  -0.000023   0.000000   0.000000
    26  H   -0.000016   0.521706  -0.024775  -0.025013   0.000000   0.000000
    27  H   -0.000003  -0.024775   0.518782  -0.025318   0.000003   0.000000
    28  H   -0.000023  -0.025013  -0.025318   0.499593  -0.000002   0.000000
    29  H    0.000000   0.000000   0.000003  -0.000002   0.516600  -0.022689
    30  H    0.000000   0.000000   0.000000   0.000000  -0.022689   0.505667
    31  H    0.000000   0.000000  -0.000002   0.000000  -0.029308  -0.022022
             31
     1  C    0.000117
     2  C   -0.000003
     3  C   -0.000013
     4  C   -0.000718
     5  C   -0.000089
     6  C    0.000001
     7  C    0.001069
     8  C   -0.010306
     9  C    0.009213
    10  O   -0.007339
    11  C   -0.047346
    12  O   -0.000002
    13  C    0.000745
    14  O    0.001247
    15  C    0.417389
    16  H    0.000000
    17  H    0.000000
    18  H    0.000000
    19  H    0.000000
    20  H    0.000000
    21  H    0.000000
    22  H    0.000006
    23  H    0.003935
    24  H   -0.004832
    25  H    0.000000
    26  H    0.000000
    27  H   -0.000002
    28  H    0.000000
    29  H   -0.029308
    30  H   -0.022022
    31  H    0.508950
 Mulliken atomic charges:
              1
     1  C    0.016135
     2  C   -0.337567
     3  C   -0.331098
     4  C   -0.053486
     5  C   -0.150540
     6  C   -0.145428
     7  C    0.120421
     8  C    0.384175
     9  C   -0.139664
    10  O   -0.249407
    11  C   -0.008283
    12  O   -0.569993
    13  C   -0.654259
    14  O   -0.482765
    15  C   -0.513627
    16  H    0.180571
    17  H    0.184906
    18  H    0.185122
    19  H    0.185660
    20  H    0.182668
    21  H    0.168002
    22  H    0.214166
    23  H    0.173164
    24  H    0.179122
    25  H    0.400505
    26  H    0.171978
    27  H    0.173008
    28  H    0.186556
    29  H    0.173319
    30  H    0.177333
    31  H    0.179307
 Sum of Mulliken atomic charges =   0.00000
 Mulliken charges with hydrogens summed into heavy atoms:
              1
     1  C    0.196706
     2  C   -0.152661
     3  C   -0.145977
     4  C   -0.053486
     5  C    0.035120
     6  C    0.037240
     7  C    0.288424
     8  C    0.598341
     9  C   -0.139664
    10  O   -0.249407
    11  C    0.344004
    12  O   -0.169488
    13  C   -0.122717
    14  O   -0.482765
    15  C    0.016332
 Sum of Mulliken charges with hydrogens summed into heavy atoms =   0.00000
 Electronic spatial extent (au):  <R**2>=           4347.8346
 Charge=              0.0000 electrons
 Dipole moment (field-independent basis, Debye):
    X=             -1.0021    Y=             -0.9868    Z=             -0.4722  Tot=              1.4836
 Quadrupole moment (field-independent basis, Debye-Ang):
   XX=            -72.2511   YY=            -92.6965   ZZ=            -88.6218
   XY=             -3.1359   XZ=             -0.1574   YZ=             -0.0565
 Traceless Quadrupole moment (field-independent basis, Debye-Ang):
   XX=             12.2720   YY=             -8.1734   ZZ=             -4.0987
   XY=             -3.1359   XZ=             -0.1574   YZ=             -0.0565
 Octapole moment (field-independent basis, Debye-Ang**2):
  XXX=             55.4500  YYY=             -7.7054  ZZZ=             16.5446  XYY=            -22.7796
  XXY=            -10.4524  XXZ=             -3.8539  XZZ=             16.2361  YZZ=             -2.9229
  YYZ=             -1.4137  XYZ=              1.4123
 Hexadecapole moment (field-independent basis, Debye-Ang**3):
 XXXX=          -4184.3855 YYYY=           -645.2102 ZZZZ=           -355.1902 XXXY=            -19.8009
 XXXZ=            141.6623 YYYX=            -30.0295 YYYZ=             -7.7878 ZZZX=            -27.3178
 ZZZY=            -13.7218 XXYY=           -881.1508 XXZZ=           -894.9996 YYZZ=           -174.6934
 XXYZ=            -13.9068 YYXZ=              0.8697 ZZXY=             13.8424
 N-N= 9.918145157007D+02 E-N=-3.595582292623D+03  KE= 6.858827390590D+02
 1\1\GINC-COMPUTE-5-22\SP\RwB97XD\6-31+G(d,p)\C12H16O3\ELUCIANO.IQUIR\1
 7-May-2022\0\\# wb97xd/6-31+g** scrf=(pcm,solvent=chloroform,smd,dovac
 uum) nmr\\comment\\0,1\C,0,0.157269506,2.926285105,-0.369139538\C,0,1.
 651028074,3.338069739,1.948499807\C,0,0.221065631,4.196714209,0.206072
 559\C,0,0.845376402,1.845509813,0.204654233\C,0,1.588592292,2.06710914
 5,1.374603964\C,0,0.968672414,4.402301972,1.363431576\C,0,0.748647716,
 0.470626863,-0.434344292\C,0,-0.41083332,-0.36329194,0.135410287\C,0,-
 0.808196461,-1.369269407,-0.927871285\O,0,-0.477149582,-2.645093185,-0
 .599058176\C,0,-0.789651396,-3.652317948,-1.571819105\O,0,1.992824601,
 -0.220936412,-0.299402901\C,0,-0.123381138,-1.002589618,1.495686929\O,
 0,-1.358390678,-1.040312723,-1.974241138\C,0,-2.212019643,-4.142738168
 ,-1.377573787\H,0,-0.436251878,2.785172529,-1.270881957\H,0,2.23005597
 3,3.496330769,2.854779116\H,0,-0.31497368,5.026037483,-0.248566152\H,0
 ,2.121148912,1.245917939,1.851240736\H,0,1.016667364,5.391381287,1.811
 477648\H,0,0.617160047,0.618840166,-1.513991432\H,0,-1.299781369,0.270
 174675,0.264742852\H,0,-0.090172687,-4.479320244,-1.411682383\H,0,-0.6
 26473056,-3.286196496,-2.591910134\H,0,2.693919834,0.421427474,-0.5095
 43726\H,0,0.033955593,-0.240605483,2.264650981\H,0,-0.969639089,-1.620
 231578,1.817491169\H,0,0.761079044,-1.647803806,1.470472612\H,0,-2.356
 928016,-4.506170245,-0.35489086\H,0,-2.441949526,-4.952346523,-2.07592
 4327\H,0,-2.931671883,-3.332675394,-1.532373275\\Version=EM64L-G09RevC
 .01\State=1-A\HF=-692.4415565\RMSD=2.669e-09\Dipole=0.2168105,0.193563
 9,0.5061832\Quadrupole=-3.7035295,8.0784571,-4.3749276,3.3408029,-0.98
 2239,2.9993361\PG=C01 [X(C12H16O3)]\\@


 OLD HORSE! OLD HORSE! WHAT BROUGHT YOU HERE?
 FROM SACARAP' TO PORTLAND PIER
 I'VE CARTED STONE THIS MANY A YEAR;
 TILL, KILLED BY BLOWS AND SORE ABUSE,
 THEY SALTED ME DOWN FOR SAILORS' USE.
 THE SAILORS THEY DO ME DESPISE;
 THEY TURN ME OVER AND DAMN MY EYES;
 CUT OFF MY MEAT, AND SCRAPE MY BONES,
 AND PITCH ME OVER TO DAVY JONES.

    SAILORS' COMPLAINT ABOUT THE BEEF
    SERVED ON SHIPBOARD, CIRCA 1835.
 Job cpu time:  0 days  0 hours 43 minutes 10.2 seconds.
 File lengths (MBytes):  RWF=    125 Int=      0 D2E=      0 Chk=      9 Scr=      1
 Normal termination of Gaussian 09 at Tue May 17 17:52:33 2022.
