 Entering Gaussian System, Link 0=g09
 Input=/home/eluciano.iquir/wb9/73a_007.gjc
 Output=/home/eluciano.iquir/wb9/73a_007.log
 Initial command:
 /share/apps/Gaussian09/EM64T.SSE4.2-enabled/g09/l1.exe /tmp/Gau-28573.inp -scrdir=/tmp/
 Entering Link 1 = /share/apps/Gaussian09/EM64T.SSE4.2-enabled/g09/l1.exe PID=     28574.
  
 Copyright (c) 1988,1990,1992,1993,1995,1998,2003,2009,2011,
            Gaussian, Inc.  All Rights Reserved.
  
 This is part of the Gaussian(R) 09 program.  It is based on
 the Gaussian(R) 03 system (copyright 2003, Gaussian, Inc.),
 the Gaussian(R) 98 system (copyright 1998, Gaussian, Inc.),
 the Gaussian(R) 94 system (copyright 1995, Gaussian, Inc.),
 the Gaussian 92(TM) system (copyright 1992, Gaussian, Inc.),
 the Gaussian 90(TM) system (copyright 1990, Gaussian, Inc.),
 the Gaussian 88(TM) system (copyright 1988, Gaussian, Inc.),
 the Gaussian 86(TM) system (copyright 1986, Carnegie Mellon
 University), and the Gaussian 82(TM) system (copyright 1983,
 Carnegie Mellon University). Gaussian is a federally registered
 trademark of Gaussian, Inc.
  
 This software contains proprietary and confidential information,
 including trade secrets, belonging to Gaussian, Inc.
  
 This software is provided under written license and may be
 used, copied, transmitted, or stored only in accord with that
 written license.
  
 The following legend is applicable only to US Government
 contracts under FAR:
  
                    RESTRICTED RIGHTS LEGEND
  
 Use, reproduction and disclosure by the US Government is
 subject to restrictions as set forth in subparagraphs (a)
 and (c) of the Commercial Computer Software - Restricted
 Rights clause in FAR 52.227-19.
  
 Gaussian, Inc.
 340 Quinnipiac St., Bldg. 40, Wallingford CT 06492
  
  
 ---------------------------------------------------------------
 Warning -- This program may not be used in any manner that
 competes with the business of Gaussian, Inc. or will provide
 assistance to any competitor of Gaussian, Inc.  The licensee
 of this program is prohibited from giving any competitor of
 Gaussian, Inc. access to this program.  By using this program,
 the user acknowledges that Gaussian, Inc. is engaged in the
 business of creating and licensing software in the field of
 computational chemistry and represents and warrants to the
 licensee that it is not a competitor of Gaussian, Inc. and that
 it will not use this program in any manner prohibited above.
 ---------------------------------------------------------------
  

 Cite this work as:
 Gaussian 09, Revision C.01,
 M. J. Frisch, G. W. Trucks, H. B. Schlegel, G. E. Scuseria, 
 M. A. Robb, J. R. Cheeseman, G. Scalmani, V. Barone, B. Mennucci, 
 G. A. Petersson, H. Nakatsuji, M. Caricato, X. Li, H. P. Hratchian, 
 A. F. Izmaylov, J. Bloino, G. Zheng, J. L. Sonnenberg, M. Hada, 
 M. Ehara, K. Toyota, R. Fukuda, J. Hasegawa, M. Ishida, T. Nakajima, 
 Y. Honda, O. Kitao, H. Nakai, T. Vreven, J. A. Montgomery, Jr., 
 J. E. Peralta, F. Ogliaro, M. Bearpark, J. J. Heyd, E. Brothers, 
 K. N. Kudin, V. N. Staroverov, T. Keith, R. Kobayashi, J. Normand, 
 K. Raghavachari, A. Rendell, J. C. Burant, S. S. Iyengar, J. Tomasi, 
 M. Cossi, N. Rega, J. M. Millam, M. Klene, J. E. Knox, J. B. Cross, 
 V. Bakken, C. Adamo, J. Jaramillo, R. Gomperts, R. E. Stratmann, 
 O. Yazyev, A. J. Austin, R. Cammi, C. Pomelli, J. W. Ochterski, 
 R. L. Martin, K. Morokuma, V. G. Zakrzewski, G. A. Voth, 
 P. Salvador, J. J. Dannenberg, S. Dapprich, A. D. Daniels, 
 O. Farkas, J. B. Foresman, J. V. Ortiz, J. Cioslowski, 
 and D. J. Fox, Gaussian, Inc., Wallingford CT, 2010.
 
 ******************************************
 Gaussian 09:  EM64L-G09RevC.01 23-Sep-2011
                17-May-2022 
 ******************************************
 %nprocshared=4
 Will use up to    4 processors via shared memory.
 ----------------------------------------------------------------
 # wb97xd/6-31+g** scrf=(pcm,solvent=chloroform,smd,dovacuum) nmr
 ----------------------------------------------------------------
 1/38=1/1;
 2/12=2,17=6,18=5,40=1/2;
 3/5=1,6=6,7=111,11=2,16=1,25=1,30=1,70=32101,72=7,74=-58/1,2,8,3;
 4//1;
 5/5=2,38=5,53=7/2;
 8/6=1,10=90,11=11/1;
 10/13=100,45=16/2;
 6/7=2,8=2,9=2,10=2,28=1/1;
 99/9=1/99;
 -------
 comment
 -------
 Charge =  0 Multiplicity = 1
 Symbolic Z-Matrix:
 6                     1.1631    0.54195  -1.5074 
 6                    -0.36535   2.74364  -2.27781 
 6                     1.01235   0.85064  -2.86031 
 6                     0.549     1.33083  -0.52314 
 6                    -0.21613   2.43696  -0.92467 
 6                     0.2484    1.95051  -3.24476 
 6                     0.71407   0.98458   0.94471 
 6                    -0.59405   0.57518   1.63809 
 6                    -1.23618  -0.61344   0.958 
 8                    -0.3406   -1.61945   0.75425 
 6                    -0.89191  -2.77588   0.11284 
 8                     1.27314   2.12051   1.61752 
 6                    -0.38908   0.25121   3.11835 
 8                    -2.42668  -0.6719    0.6759 
 6                     0.23054  -3.77066  -0.10859 
 1                     1.76005  -0.32417  -1.22844 
 1                    -0.96331   3.60073  -2.57721 
 1                     1.4893    0.23118  -3.61561 
 1                    -0.7011    3.06813  -0.18196 
 1                     0.12928   2.18882  -4.29854 
 1                     1.45799   0.18475   1.04587 
 1                    -1.30836   1.40725   1.58242 
 1                    -1.33001  -2.49366  -0.85116 
 1                    -1.66115  -3.2203    0.75401 
 1                     1.84695   2.58026   0.97914 
 1                    -0.05011   1.13184   3.67314 
 1                    -1.32429  -0.09227   3.57438 
 1                     0.35294  -0.54345   3.25371 
 1                     1.01794  -3.33063  -0.72959 
 1                    -0.14072  -4.67574  -0.59726 
 1                     0.69399  -4.04741   0.84414 
 
                          Input orientation:                          
 ---------------------------------------------------------------------
 Center     Atomic      Atomic             Coordinates (Angstroms)
 Number     Number       Type             X           Y           Z
 ---------------------------------------------------------------------
      1          6           0        1.163101    0.541946   -1.507401
      2          6           0       -0.365351    2.743643   -2.277813
      3          6           0        1.012345    0.850638   -2.860306
      4          6           0        0.548998    1.330829   -0.523137
      5          6           0       -0.216126    2.436958   -0.924675
      6          6           0        0.248405    1.950511   -3.244763
      7          6           0        0.714074    0.984578    0.944706
      8          6           0       -0.594052    0.575180    1.638086
      9          6           0       -1.236183   -0.613437    0.958001
     10          8           0       -0.340604   -1.619455    0.754247
     11          6           0       -0.891905   -2.775882    0.112844
     12          8           0        1.273136    2.120510    1.617519
     13          6           0       -0.389079    0.251209    3.118353
     14          8           0       -2.426683   -0.671902    0.675899
     15          6           0        0.230539   -3.770664   -0.108593
     16          1           0        1.760046   -0.324173   -1.228444
     17          1           0       -0.963307    3.600730   -2.577214
     18          1           0        1.489297    0.231181   -3.615609
     19          1           0       -0.701102    3.068131   -0.181955
     20          1           0        0.129282    2.188822   -4.298537
     21          1           0        1.457993    0.184754    1.045870
     22          1           0       -1.308364    1.407247    1.582419
     23          1           0       -1.330014   -2.493656   -0.851160
     24          1           0       -1.661153   -3.220299    0.754006
     25          1           0        1.846951    2.580262    0.979136
     26          1           0       -0.050107    1.131837    3.673140
     27          1           0       -1.324289   -0.092271    3.574385
     28          1           0        0.352936   -0.543447    3.253712
     29          1           0        1.017944   -3.330630   -0.729593
     30          1           0       -0.140718   -4.675741   -0.597265
     31          1           0        0.693993   -4.047412    0.844141
 ---------------------------------------------------------------------
                    Distance matrix (angstroms):
                    1          2          3          4          5
     1  C    0.000000
     2  C    2.788758   0.000000
     3  C    1.395840   2.412636   0.000000
     4  C    1.402938   2.431248   2.430562   0.000000
     5  C    2.415142   1.395460   2.787870   1.403627   0.000000
     6  C    2.416434   1.393107   1.393245   2.807421   2.415622
     7  C    2.531872   3.826761   3.819034   1.517136   2.543475
     8  C    3.603163   4.482054   4.784550   2.558995   3.190108
     9  C    3.629006   4.743293   4.666783   3.026684   3.726915
    10  O    3.470999   5.313250   4.582229   3.335757   4.391897
    11  C    4.225664   6.038018   5.061367   4.398381   5.357875
    12  O    3.502727   4.271597   4.661706   2.393821   2.963239
    13  C    4.887882   5.944022   6.169900   3.912290   4.599291
    14  O    4.373417   4.963814   5.162343   3.781970   4.136836
    15  C    4.628708   6.891792   5.435032   5.128206   6.276948
    16  H    1.088266   3.876853   2.145276   2.168669   3.409014
    17  H    3.875858   1.087102   3.397992   3.414491   2.154885
    18  H    2.155811   3.397335   1.087057   3.414201   3.874926
    19  H    3.407883   2.147240   3.876433   2.167342   1.088674
    20  H    3.401679   2.153094   2.153844   3.894349   3.400562
    21  H    2.594945   4.573769   3.987507   2.145120   3.429015
    22  H    4.050169   4.192448   5.043145   2.808736   2.922124
    23  H    3.982606   5.513186   4.550562   4.273753   5.055403
    24  H    5.219661   6.814663   6.064929   5.218106   6.075412
    25  H    3.287134   3.940646   4.292957   2.345760   2.810928
    26  H    5.353303   6.173422   6.625239   4.243497   4.782343
    27  H    5.693320   6.573446   6.910440   4.724839   5.278879
    28  H    4.950014   6.474462   6.305514   4.220893   5.163870
    29  H    3.952581   6.419290   4.692863   4.689534   5.901361
    30  H    5.454590   7.610648   6.082086   6.046494   7.120630
    31  H    5.178033   7.548989   6.149404   5.551211   6.782631
                    6          7          8          9         10
     6  C    0.000000
     7  C    4.324526   0.000000
     8  C    5.142323   1.536091   0.000000
     9  C    5.142087   2.521375   1.512501   0.000000
    10  O    5.392927   2.815955   2.379460   1.362223   0.000000
    11  C    5.908691   4.172795   3.693873   2.347123   1.432709
    12  O    4.971997   1.433726   2.423811   3.769100   4.163740
    13  C    6.616891   2.545489   1.529104   2.476351   3.015083
    14  O    5.422613   3.560974   2.416517   1.224863   2.292536
    15  C    6.524394   4.894443   4.755755   3.641014   2.387132
    16  H    3.394818   2.743987   3.816753   3.720431   3.165682
    17  H    2.153391   4.696997   5.201832   5.507396   6.223883
    18  H    2.152542   4.686689   5.662154   5.390690   5.086161
    19  H    3.395796   2.759217   3.088497   3.890983   4.793734
    20  H    1.086932   5.411449   6.194396   6.111329   6.344634
    21  H    4.794844   1.096981   2.171184   2.811302   2.564208
    22  H    5.101015   2.162309   1.098033   2.116192   3.283801
    23  H    5.288795   4.416054   4.019420   2.610956   2.078579
    24  H    6.809834   4.833121   4.040540   2.649140   2.075224
    25  H    4.559963   1.957244   3.226928   4.439130   4.740632
    26  H    6.972569   2.837254   2.178804   3.438712   4.021683
    27  H    7.290206   3.497104   2.174394   2.669239   3.354565
    28  H    6.961388   2.792273   2.181366   2.792935   2.808223
    29  H    5.899891   4.638602   4.843531   3.913081   2.641128
    30  H    7.146179   5.928537   5.724900   4.485667   3.347749
    31  H    7.272741   5.033034   4.863925   3.940905   2.640729
                   11         12         13         14         15
    11  C    0.000000
    12  O    5.561125   0.000000
    13  C    4.295253   2.917147   0.000000
    14  O    2.664453   4.729997   3.312030   0.000000
    15  C    1.516082   6.226749   5.193512   4.156752   0.000000
    16  H    3.852632   3.783261   4.883077   4.612606   3.933415
    17  H    6.921178   4.978806   6.632383   5.565932   7.864910
    18  H    5.349198   5.567936   6.991061   5.879413   5.467942
    19  H    5.854554   2.834379   4.350223   4.207302   6.902351
    20  H    6.719478   6.026008   7.683312   6.281855   7.285695
    21  H    3.893318   2.026846   2.776919   3.995178   4.299391
    22  H    4.453275   2.678454   2.130868   2.528888   5.660257
    23  H    1.095853   5.844766   4.916978   2.617896   2.148832
    24  H    1.095599   6.154669   4.388585   2.662042   2.150692
    25  H    6.077835   0.973739   3.873056   5.378891   6.643057
    26  H    5.353000   2.637048   1.094622   4.229071   6.197967
    27  H    4.401248   3.933490   1.095701   3.154752   5.432531
    28  H    4.049500   3.258921   1.095621   3.793139   4.662082
    29  H    2.159854   5.940454   5.442056   4.572713   1.095116
    30  H    2.162868   7.286514   6.175947   4.783023   1.093524
    31  H    2.160244   6.243139   4.982291   4.600108   1.095026
                   16         17         18         19         20
    16  H    0.000000
    17  H    4.963940   0.000000
    18  H    2.465822   4.295043   0.000000
    19  H    4.319735   2.467727   4.963477   0.000000
    20  H    4.289522   2.479957   2.479594   4.290567   0.000000
    21  H    2.350052   5.536996   4.661815   3.805667   5.860413
    22  H    4.507095   4.715186   6.019097   2.498063   6.104369
    23  H    3.794399   6.344705   4.797440   5.637094   5.994960
    24  H    4.901250   7.623022   6.397780   6.429780   7.615276
    25  H    3.649206   4.646131   5.172792   2.842309   5.563941
    26  H    5.424218   6.782057   7.503786   4.362887   8.043446
    27  H    5.712623   7.184061   7.727671   4.948393   8.324611
    28  H    4.702952   7.273678   7.005636   5.094928   8.034411
    29  H    3.136614   7.441963   4.608444   6.648245   6.632603
    30  H    4.790348   8.549668   5.987089   7.775221   7.803495
    31  H    4.392560   8.540866   6.231231   7.323258   8.102879
                   21         22         23         24         25
    21  H    0.000000
    22  H    3.071661   0.000000
    23  H    4.306458   4.597806   0.000000
    24  H    4.626948   4.714331   1.792825   0.000000
    25  H    2.427797   3.419931   6.260010   6.782624   0.000000
    26  H    3.173938   2.455642   5.937310   5.482509   3.599225
    27  H    3.769778   2.493338   5.035090   4.225231   4.892291
    28  H    2.574101   3.059141   4.846195   4.179788   4.142865
    29  H    3.962807   5.762342   2.495638   3.064441   6.208515
    30  H    5.374028   6.566366   2.498076   2.501192   7.686706
    31  H    4.305302   5.857285   3.063463   2.497789   6.728566
                   26         27         28         29         30
    26  H    0.000000
    27  H    1.769671   0.000000
    28  H    1.773398   1.766203   0.000000
    29  H    6.359120   5.873436   4.906867   0.000000
    30  H    7.209198   6.309651   5.670059   1.780262   0.000000
    31  H    5.948238   5.212565   4.266160   1.759364   1.780222
                   31
    31  H    0.000000
 Stoichiometry    C12H16O3
 Framework group  C1[X(C12H16O3)]
 Deg. of freedom    87
 Full point group                 C1      NOp   1
 Largest Abelian subgroup         C1      NOp   1
 Largest concise Abelian subgroup C1      NOp   1
                         Standard orientation:                         
 ---------------------------------------------------------------------
 Center     Atomic      Atomic             Coordinates (Angstroms)
 Number     Number       Type             X           Y           Z
 ---------------------------------------------------------------------
      1          6           0       -1.402665   -1.005341   -0.957436
      2          6           0       -3.264751   -0.273378    0.985253
      3          6           0       -2.402764   -1.900343   -0.573842
      4          6           0       -1.321248    0.266951   -0.371879
      5          6           0       -2.265775    0.623042    0.603435
      6          6           0       -3.332663   -1.534352    0.396967
      7          6           0       -0.227594    1.231169   -0.791292
      8          6           0        0.769332    1.566037    0.328341
      9          6           0        1.439565    0.321888    0.867358
     10          8           0        1.925492   -0.461205   -0.135782
     11          6           0        2.574175   -1.656855    0.313983
     12          8           0       -0.843470    2.439530   -1.256190
     13          6           0        1.844461    2.552780   -0.128381
     14          8           0        1.567666    0.083984    2.062047
     15          6           0        2.993961   -2.451738   -0.906855
     16          1           0       -0.683308   -1.312503   -1.714072
     17          1           0       -3.988724    0.012028    1.744329
     18          1           0       -2.455359   -2.885222   -1.030942
     19          1           0       -2.228058    1.605024    1.071946
     20          1           0       -4.109613   -2.232709    0.697080
     21          1           0        0.305567    0.818595   -1.656676
     22          1           0        0.231235    2.033776    1.163415
     23          1           0        1.881159   -2.250907    0.920387
     24          1           0        3.456512   -1.395140    0.908392
     25          1           0       -1.695742    2.192990   -1.657460
     26          1           0        1.405925    3.517943   -0.401043
     27          1           0        2.573949    2.729991    0.669745
     28          1           0        2.393895    2.170708   -0.995865
     29          1           0        2.123060   -2.700292   -1.522510
     30          1           0        3.496942   -3.378008   -0.615603
     31          1           0        3.670851   -1.863911   -1.535634
 ---------------------------------------------------------------------
 Rotational constants (GHZ):      0.7396017      0.4610618      0.3564095
 Standard basis: 6-31+G(d,p) (6D, 7F)
 There are   365 symmetry adapted basis functions of A   symmetry.
 Integral buffers will be    131072 words long.
 Raffenetti 2 integral format.
 Two-electron integral symmetry is turned on.
   365 basis functions,   592 primitive gaussians,   365 cartesian basis functions
    56 alpha electrons       56 beta electrons
       nuclear repulsion energy      1018.8874275370 Hartrees.
 NAtoms=   31 NActive=   31 NUniq=   31 SFac= 1.00D+00 NAtFMM=   60 NAOKFM=F Big=F
 Nuclear repulsion after empirical dispersion term =     1018.8661250142 Hartrees.
 ------------------------------------------------------------------------------
 Polarizable Continuum Model (PCM)
 =================================
 Model                : C-PCM.
 Atomic radii         : SMD-Coulomb.
 Polarization charges : Total charges.
 Charge compensation  : None.
 Solution method      : Matrix inversion.
 Cavity type          : VdW (van der Waals Surface) (Alpha=1.000).
 Cavity algorithm     : GePol (No added spheres)
                        Default sphere list used, NSphG=   31.
                        Lebedev-Laikov grids with approx.  5.0 points / Ang**2.
                        Smoothing algorithm: Karplus/York (Gamma=1.0000).
                        Polarization charges: spherical gaussians, with
                                              point-specific exponents (IZeta= 3).
                        Self-potential: point-specific (ISelfS= 7).
                        Self-field    : sphere-specific E.n sum rule (ISelfD= 2).
 Solvent              : Chloroform, Eps=   4.711300 Eps(inf)=   2.090627
 ------------------------------------------------------------------------------
 ------------------------------------------------------------------------------
 Atomic radii for non-electrostatic terms: SMD-CDS.
 ------------------------------------------------------------------------------
 Nuclear repulsion after PCM non-electrostatic terms =     1018.8595853916 Hartrees.
 One-electron integrals computed using PRISM.
 NBasis=   365 RedAO= T  NBF=   365
 NBsUse=   365 1.00D-06 NBFU=   365
 Harris functional with IExCor= 4639 diagonalized for initial guess.
 ExpMin= 4.38D-02 ExpMax= 5.48D+03 ExpMxC= 8.25D+02 IAcc=2 IRadAn=         4 AccDes= 0.00D+00
 HarFok:  IExCor= 4639 AccDes= 0.00D+00 IRadAn=         4 IDoV= 1
 ScaDFX=  1.000000  1.000000  1.000000  1.000000
 FoFCou: FMM=F IPFlag=           0 FMFlag=      100000 FMFlg1=           0
         NFxFlg=           0 DoJE=T BraDBF=F KetDBF=T FulRan=T
         Omega=  0.000000  0.000000  1.000000  0.000000  0.000000 ICntrl=     500 IOpCl=  0
         NMat0=    1 NMatS0=    1 NMatT0=    0 NMatD0=    1 NMtDS0=    0 NMtDT0=    0
         I1Cent=           4 NGrid=           0.
 Petite list used in FoFCou.
 Initial guess orbital symmetries:
       Occupied  (A) (A) (A) (A) (A) (A) (A) (A) (A) (A) (A) (A)
                 (A) (A) (A) (A) (A) (A) (A) (A) (A) (A) (A) (A)
                 (A) (A) (A) (A) (A) (A) (A) (A) (A) (A) (A) (A)
                 (A) (A) (A) (A) (A) (A) (A) (A) (A) (A) (A) (A)
                 (A) (A) (A) (A) (A) (A) (A) (A)
       Virtual   (A) (A) (A) (A) (A) (A) (A) (A) (A) (A) (A) (A)
                 (A) (A) (A) (A) (A) (A) (A) (A) (A) (A) (A) (A)
                 (A) (A) (A) (A) (A) (A) (A) (A) (A) (A) (A) (A)
                 (A) (A) (A) (A) (A) (A) (A) (A) (A) (A) (A) (A)
                 (A) (A) (A) (A) (A) (A) (A) (A) (A) (A) (A) (A)
                 (A) (A) (A) (A) (A) (A) (A) (A) (A) (A) (A) (A)
                 (A) (A) (A) (A) (A) (A) (A) (A) (A) (A) (A) (A)
                 (A) (A) (A) (A) (A) (A) (A) (A) (A) (A) (A) (A)
                 (A) (A) (A) (A) (A) (A) (A) (A) (A) (A) (A) (A)
                 (A) (A) (A) (A) (A) (A) (A) (A) (A) (A) (A) (A)
                 (A) (A) (A) (A) (A) (A) (A) (A) (A) (A) (A) (A)
                 (A) (A) (A) (A) (A) (A) (A) (A) (A) (A) (A) (A)
                 (A) (A) (A) (A) (A) (A) (A) (A) (A) (A) (A) (A)
                 (A) (A) (A) (A) (A) (A) (A) (A) (A) (A) (A) (A)
                 (A) (A) (A) (A) (A) (A) (A) (A) (A) (A) (A) (A)
                 (A) (A) (A) (A) (A) (A) (A) (A) (A) (A) (A) (A)
                 (A) (A) (A) (A) (A) (A) (A) (A) (A) (A) (A) (A)
                 (A) (A) (A) (A) (A) (A) (A) (A) (A) (A) (A) (A)
                 (A) (A) (A) (A) (A) (A) (A) (A) (A) (A) (A) (A)
                 (A) (A) (A) (A) (A) (A) (A) (A) (A) (A) (A) (A)
                 (A) (A) (A) (A) (A) (A) (A) (A) (A) (A) (A) (A)
                 (A) (A) (A) (A) (A) (A) (A) (A) (A) (A) (A) (A)
                 (A) (A) (A) (A) (A) (A) (A) (A) (A) (A) (A) (A)
                 (A) (A) (A) (A) (A) (A) (A) (A) (A) (A) (A) (A)
                 (A) (A) (A) (A) (A) (A) (A) (A) (A) (A) (A) (A)
                 (A) (A) (A) (A) (A) (A) (A) (A) (A)
 The electronic state of the initial guess is 1-A.
 Requested convergence on RMS density matrix=1.00D-08 within 128 cycles.
 Requested convergence on MAX density matrix=1.00D-06.
 Requested convergence on             energy=1.00D-06.
 No special actions if energy rises.
 FoFJK:  IHMeth= 1 ICntrl=     0 DoSepK=T KAlg= 1 I1Cent= 0 FoldK=F
 FoFJK:  IHMeth= 1 ICntrl=     0 DoSepK=T KAlg= 1 I1Cent= 0 FoldK=F
 FoFJK:  IHMeth= 1 ICntrl=     0 DoSepK=T KAlg= 1 I1Cent= 0 FoldK=F
 FoFJK:  IHMeth= 1 ICntrl=     0 DoSepK=T KAlg= 1 I1Cent= 0 FoldK=F
 FoFJK:  IHMeth= 1 ICntrl=     0 DoSepK=T KAlg= 1 I1Cent= 0 FoldK=F
 FoFJK:  IHMeth= 1 ICntrl=     0 DoSepK=T KAlg= 1 I1Cent= 0 FoldK=F
 FoFJK:  IHMeth= 1 ICntrl=     0 DoSepK=T KAlg= 1 I1Cent= 0 FoldK=F
 FoFJK:  IHMeth= 1 ICntrl=     0 DoSepK=T KAlg= 1 I1Cent= 0 FoldK=F
 FoFJK:  IHMeth= 1 ICntrl=     0 DoSepK=T KAlg= 1 I1Cent= 0 FoldK=F
 FoFJK:  IHMeth= 1 ICntrl=     0 DoSepK=T KAlg= 1 I1Cent= 0 FoldK=F
 FoFJK:  IHMeth= 1 ICntrl=     0 DoSepK=T KAlg= 1 I1Cent= 0 FoldK=F
 FoFJK:  IHMeth= 1 ICntrl=     0 DoSepK=T KAlg= 1 I1Cent= 0 FoldK=F
 FoFJK:  IHMeth= 1 ICntrl=     0 DoSepK=T KAlg= 1 I1Cent= 0 FoldK=F
 FoFJK:  IHMeth= 1 ICntrl=     0 DoSepK=T KAlg= 1 I1Cent= 0 FoldK=F
 FoFJK:  IHMeth= 1 ICntrl=     0 DoSepK=T KAlg= 1 I1Cent= 0 FoldK=F
 FoFJK:  IHMeth= 1 ICntrl=     0 DoSepK=T KAlg= 1 I1Cent= 0 FoldK=F
 Error on total polarization charges =  0.03884
 SCF Done:  E(RwB97XD) =  -692.445889438     A.U. after   16 cycles
             Convg  =    0.4019D-08             -V/T =  2.0095
 SMD-CDS (non-electrostatic) energy       (kcal/mol) =      -4.10
 (included in total energy above)
 Range of M.O.s used for correlation:     1   365
 NBasis=   365 NAE=    56 NBE=    56 NFC=     0 NFV=     0
 NROrb=    365 NOA=    56 NOB=    56 NVA=   309 NVB=   309

 **** Warning!!: The largest alpha MO coefficient is  0.13354722D+03

 NEqPCM:  Using equilibrium solvation (IEInf=0, Eps=   4.7113, EpsInf=   2.0906)
          Differentiating once with respect to magnetic field using GIAOs.
          Electric field/nuclear overlap derivatives assumed to be zero.
 FoFCou: FMM=F IPFlag=           0 FMFlag=    10101102 FMFlg1=           0
         NFxFlg=    40000000 DoJE=F BraDBF=F KetDBF=T FulRan=T
         Omega=  0.000000  0.000000  1.000000  0.000000  0.000000 ICntrl=    6100 IOpCl=  0
         NMat0=    1 NMatS0=    1 NMatT0=    0 NMatD0=    1 NMtDS0=    0 NMtDT0=    0
         I1Cent=           7 NGrid=        2324.
 Symmetry not used in FoFCou.
 FoFJK:  IHMeth= 1 ICntrl=  6127 DoSepK=T KAlg= 1 I1Cent= 0 FoldK=F
 FoFJK:  IHMeth= 1 ICntrl=     0 DoSepK=T KAlg= 1 I1Cent= 0 FoldK=F
          There are     3 degrees of freedom in the 1st order CPHF.  IDoFFX=0.
      3 vectors produced by pass  0 Test12= 5.77D-13 3.33D-08 XBig12= 1.63D+02 3.06D+00.
 AX will form     3 AO Fock derivatives at one time.
 FoFJK:  IHMeth= 1 ICntrl=     0 DoSepK=T KAlg= 1 I1Cent= 0 FoldK=F
      3 vectors produced by pass  1 Test12= 5.77D-13 3.33D-08 XBig12= 1.21D+00 2.30D-01.
 FoFJK:  IHMeth= 1 ICntrl=     0 DoSepK=T KAlg= 1 I1Cent= 0 FoldK=F
      3 vectors produced by pass  2 Test12= 5.77D-13 3.33D-08 XBig12= 1.96D-02 4.69D-02.
 FoFJK:  IHMeth= 1 ICntrl=     0 DoSepK=T KAlg= 1 I1Cent= 0 FoldK=F
      3 vectors produced by pass  3 Test12= 5.77D-13 3.33D-08 XBig12= 3.36D-04 4.11D-03.
 FoFJK:  IHMeth= 1 ICntrl=     0 DoSepK=T KAlg= 1 I1Cent= 0 FoldK=F
      3 vectors produced by pass  4 Test12= 5.77D-13 3.33D-08 XBig12= 5.83D-06 5.86D-04.
 FoFJK:  IHMeth= 1 ICntrl=     0 DoSepK=T KAlg= 1 I1Cent= 0 FoldK=F
      3 vectors produced by pass  5 Test12= 5.77D-13 3.33D-08 XBig12= 9.19D-08 8.59D-05.
 FoFJK:  IHMeth= 1 ICntrl=     0 DoSepK=T KAlg= 1 I1Cent= 0 FoldK=F
      3 vectors produced by pass  6 Test12= 5.77D-13 3.33D-08 XBig12= 1.96D-09 1.08D-05.
 FoFJK:  IHMeth= 1 ICntrl=     0 DoSepK=T KAlg= 1 I1Cent= 0 FoldK=F
      3 vectors produced by pass  7 Test12= 5.77D-13 3.33D-08 XBig12= 2.42D-11 1.06D-06.
 FoFJK:  IHMeth= 1 ICntrl=     0 DoSepK=T KAlg= 1 I1Cent= 0 FoldK=F
      3 vectors produced by pass  8 Test12= 5.77D-13 3.33D-08 XBig12= 2.62D-13 9.59D-08.
 FoFJK:  IHMeth= 1 ICntrl=     0 DoSepK=T KAlg= 1 I1Cent= 0 FoldK=F
 Inverted reduced A of dimension    27 with in-core refinement.
 Calculating GIAO nuclear magnetic shielding tensors.
 SCF GIAO Magnetic shielding tensor (ppm):
      1  C    Isotropic =    69.8519   Anisotropy =   161.5834
   XX=    63.8585   YX=   -12.4106   ZX=    90.7163
   XY=    -6.9365   YY=    68.8541   ZY=   -48.6113
   XZ=    86.4828   YZ=   -53.2827   ZZ=    76.8431
   Eigenvalues:   -27.3553    59.3368   177.5742
      2  C    Isotropic =    69.2842   Anisotropy =   178.2632
   XX=    66.0657   YX=   -14.9394   ZX=    95.9305
   XY=   -11.6442   YY=    65.2982   ZY=   -52.4371
   XZ=    99.5278   YZ=   -53.6029   ZZ=    76.4886
   Eigenvalues:   -34.6932    54.4194   188.1263
      3  C    Isotropic =    70.2178   Anisotropy =   174.1024
   XX=   103.6232   YX=   -31.0727   ZX=    55.1396
   XY=   -32.9175   YY=     0.3467   ZY=   -66.7738
   XZ=    52.2688   YZ=   -67.8352   ZZ=   106.6837
   Eigenvalues:   -32.5116    56.8790   186.2861
      4  C    Isotropic =    52.5938   Anisotropy =   186.4565
   XX=    50.5093   YX=   -61.2317   ZX=    73.2105
   XY=   -59.3387   YY=    19.6739   ZY=   -40.0781
   XZ=    78.4926   YZ=   -37.5509   ZZ=    87.5982
   Eigenvalues:   -31.0602    11.9435   176.8981
      5  C    Isotropic =    72.6849   Anisotropy =   180.0949
   XX=   101.7068   YX=   -34.4525   ZX=    58.7042
   XY=   -31.5409   YY=     6.9011   ZY=   -65.9815
   XZ=    57.4829   YZ=   -71.2308   ZZ=   109.4468
   Eigenvalues:   -27.5918    52.8983   192.7482
      6  C    Isotropic =    70.9122   Anisotropy =   178.1181
   XX=    61.2567   YX=   -68.2362   ZX=    73.7148
   XY=   -70.2479   YY=    34.7985   ZY=   -19.9799
   XZ=    75.8748   YZ=   -16.9261   ZZ=   116.6815
   Eigenvalues:   -32.0497    55.1288   189.6576
      7  C    Isotropic =   119.7164   Anisotropy =    27.6187
   XX=   115.5807   YX=    -9.7327   ZX=     1.5874
   XY=   -10.9642   YY=   133.2752   ZY=    -2.6554
   XZ=     0.8847   YZ=     0.3871   ZZ=   110.2934
   Eigenvalues:   109.7958   111.2246   138.1289
      8  C    Isotropic =   145.7218   Anisotropy =    26.8298
   XX=   147.9851   YX=   -11.1539   ZX=     4.3027
   XY=   -15.3378   YY=   148.4000   ZY=     0.5562
   XZ=    12.3361   YZ=    -3.5595   ZZ=   140.7803
   Eigenvalues:   131.7456   141.8115   163.6083
      9  C    Isotropic =    19.6533   Anisotropy =   104.7796
   XX=    52.9419   YX=    61.9565   ZX=    11.0421
   XY=    61.7363   YY=   -15.2706   ZY=   -19.2856
   XZ=    32.2935   YZ=   -47.9133   ZZ=    21.2887
   Eigenvalues:   -69.3939    38.8475    89.5064
     10  O    Isotropic =   134.7864   Anisotropy =   154.6693
   XX=   194.2876   YX=    48.3316   ZX=   -34.0373
   XY=    43.3670   YY=   128.0184   ZY=    70.9562
   XZ=   -95.6594   YZ=   186.4729   ZZ=    82.0532
   Eigenvalues:   -51.2475   217.7075   237.8992
     11  C    Isotropic =   136.6890   Anisotropy =    59.0788
   XX=   128.9126   YX=   -24.4978   ZX=    10.0745
   XY=   -24.0011   YY=   157.8603   ZY=   -17.2846
   XZ=     6.8639   YZ=    -8.3314   ZZ=   123.2943
   Eigenvalues:   114.8915   119.1007   176.0749
     12  O    Isotropic =   271.8865   Anisotropy =    49.9207
   XX=   300.1937   YX=     6.2808   ZX=    19.7973
   XY=    14.5419   YY=   279.3777   ZY=   -20.6441
   XZ=    11.6758   YZ=   -27.6931   ZZ=   236.0882
   Eigenvalues:   220.9107   289.5819   305.1669
     13  C    Isotropic =   179.5839   Anisotropy =    28.3464
   XX=   184.1346   YX=    15.0982   ZX=    -6.8822
   XY=    12.7934   YY=   180.7516   ZY=    -1.4703
   XZ=    -8.0641   YZ=    -2.6022   ZZ=   173.8655
   Eigenvalues:   166.3899   173.8803   198.4815
     14  O    Isotropic =   -54.8610   Anisotropy =   529.7431
   XX=   178.7213   YX=   203.7073   ZX=    17.7979
   XY=   206.6291   YY=   -54.7607   ZY=    -6.9859
   XZ=    32.1637   YZ=   -29.4080   ZZ=  -288.5435
   Eigenvalues:  -295.4005  -167.4835   298.3011
     15  C    Isotropic =   182.3980   Anisotropy =    22.7527
   XX=   174.2772   YX=    -9.4189   ZX=    -2.1797
   XY=    -9.5253   YY=   184.8047   ZY=     4.4996
   XZ=    -4.7473   YZ=    10.5317   ZZ=   188.1121
   Eigenvalues:   168.6628   180.9647   197.5665
     16  H    Isotropic =    23.7153   Anisotropy =     7.0333
   XX=    24.2033   YX=     3.0146   ZX=     0.8093
   XY=     2.8462   YY=    25.8545   ZY=     1.7876
   XZ=     0.0796   YZ=     1.4261   ZZ=    21.0880
   Eigenvalues:    20.5129    22.2288    28.4041
     17  H    Isotropic =    23.7011   Anisotropy =     5.0353
   XX=    24.0468   YX=     2.1357   ZX=    -1.6630
   XY=     2.3019   YY=    25.4025   ZY=     0.7010
   XZ=    -1.5044   YZ=     1.0213   ZZ=    21.6539
   Eigenvalues:    20.1994    23.8458    27.0580
     18  H    Isotropic =    23.9115   Anisotropy =     5.1819
   XX=    25.2938   YX=     1.9382   ZX=    -2.4288
   XY=     1.8979   YY=    23.5971   ZY=     0.6318
   XZ=    -2.4788   YZ=     0.3196   ZZ=    22.8437
   Eigenvalues:    20.5872    23.7813    27.3661
     19  H    Isotropic =    23.3374   Anisotropy =     9.4201
   XX=    26.6855   YX=     1.0411   ZX=    -4.6716
   XY=     2.0628   YY=    21.0636   ZY=    -0.4574
   XZ=    -4.0052   YZ=    -0.3275   ZZ=    22.2632
   Eigenvalues:    19.4414    20.9533    29.6175
     20  H    Isotropic =    23.7491   Anisotropy =     4.3250
   XX=    23.5869   YX=     0.3595   ZX=    -2.2208
   XY=     0.4146   YY=    24.5503   ZY=     2.2194
   XZ=    -2.2549   YZ=     2.2572   ZZ=    23.1101
   Eigenvalues:    20.1930    24.4219    26.6324
     21  H    Isotropic =    26.6551   Anisotropy =     6.6607
   XX=    25.2172   YX=    -2.4078   ZX=    -0.8549
   XY=    -2.9191   YY=    29.0987   ZY=     2.1078
   XZ=    -0.9526   YZ=     1.1689   ZZ=    25.6494
   Eigenvalues:    23.8594    25.0104    31.0956
     22  H    Isotropic =    28.4132   Anisotropy =     5.4425
   XX=    29.5347   YX=     1.2355   ZX=    -3.2329
   XY=    -0.4843   YY=    26.0636   ZY=     1.9041
   XZ=    -1.4153   YZ=     1.2039   ZZ=    29.6414
   Eigenvalues:    25.1066    28.0915    32.0416
     23  H    Isotropic =    27.9784   Anisotropy =     5.6192
   XX=    26.1681   YX=    -1.0989   ZX=    -2.1823
   XY=    -0.9873   YY=    30.5998   ZY=    -2.5728
   XZ=    -1.4701   YZ=    -1.9474   ZZ=    27.1674
   Eigenvalues:    24.0055    28.2052    31.7245
     24  H    Isotropic =    27.7322   Anisotropy =     7.7734
   XX=    29.7164   YX=    -2.4877   ZX=     3.6191
   XY=    -3.5511   YY=    26.3294   ZY=     0.8096
   XZ=     3.9378   YZ=     1.9194   ZZ=    27.1507
   Eigenvalues:    22.2714    28.0107    32.9144
     25  H    Isotropic =    30.0442   Anisotropy =    13.9602
   XX=    35.8668   YX=    -0.4766   ZX=     8.4477
   XY=     1.0795   YY=    28.0850   ZY=    -1.5519
   XZ=     4.9762   YZ=    -2.8961   ZZ=    26.1809
   Eigenvalues:    22.0058    28.7758    39.3510
     26  H    Isotropic =    29.7671   Anisotropy =     9.0704
   XX=    28.3599   YX=     0.6943   ZX=     0.2422
   XY=    -0.3050   YY=    35.4445   ZY=    -2.0494
   XZ=     0.8202   YZ=    -1.8491   ZZ=    25.4968
   Eigenvalues:    25.0347    28.4525    35.8140
     27  H    Isotropic =    30.3782   Anisotropy =     9.7918
   XX=    32.1048   YX=     3.9992   ZX=     3.9319
   XY=     3.6086   YY=    29.3703   ZY=     1.7223
   XZ=     3.2510   YZ=     1.6689   ZZ=    29.6595
   Eigenvalues:    26.3792    27.8494    36.9061
     28  H    Isotropic =    30.3209   Anisotropy =     7.8817
   XX=    31.0976   YX=     0.3794   ZX=    -5.2814
   XY=     0.5984   YY=    29.1461   ZY=     0.0198
   XZ=    -4.0259   YZ=     1.7093   ZZ=    30.7191
   Eigenvalues:    25.9597    29.4277    35.5754
     29  H    Isotropic =    30.3050   Anisotropy =     7.4902
   XX=    31.7107   YX=     0.8446   ZX=     2.1065
   XY=     0.5828   YY=    29.0880   ZY=     3.7715
   XZ=     4.0108   YZ=     2.9169   ZZ=    30.1164
   Eigenvalues:    25.7850    29.8316    35.2985
     30  H    Isotropic =    30.4638   Anisotropy =    11.2408
   XX=    29.2662   YX=    -5.0483   ZX=     0.0359
   XY=    -5.2010   YY=    34.9265   ZY=    -0.2914
   XZ=     0.3631   YZ=    -0.1140   ZZ=    27.1987
   Eigenvalues:    26.2372    27.1966    37.9577
     31  H    Isotropic =    30.2850   Anisotropy =     8.3044
   XX=    31.2724   YX=     1.0677   ZX=    -4.7537
   XY=     0.9899   YY=    28.8970   ZY=    -0.3209
   XZ=    -4.3842   YZ=    -1.4372   ZZ=    30.6857
   Eigenvalues:    26.3990    28.6348    35.8213
 End of Minotr Frequency-dependent properties file   721 does not exist.
 End of Minotr Frequency-dependent properties file   722 does not exist.

 **********************************************************************

            Population analysis using the SCF density.

 **********************************************************************

 Orbital symmetries:
       Occupied  (A) (A) (A) (A) (A) (A) (A) (A) (A) (A) (A) (A)
                 (A) (A) (A) (A) (A) (A) (A) (A) (A) (A) (A) (A)
                 (A) (A) (A) (A) (A) (A) (A) (A) (A) (A) (A) (A)
                 (A) (A) (A) (A) (A) (A) (A) (A) (A) (A) (A) (A)
                 (A) (A) (A) (A) (A) (A) (A) (A)
       Virtual   (A) (A) (A) (A) (A) (A) (A) (A) (A) (A) (A) (A)
                 (A) (A) (A) (A) (A) (A) (A) (A) (A) (A) (A) (A)
                 (A) (A) (A) (A) (A) (A) (A) (A) (A) (A) (A) (A)
                 (A) (A) (A) (A) (A) (A) (A) (A) (A) (A) (A) (A)
                 (A) (A) (A) (A) (A) (A) (A) (A) (A) (A) (A) (A)
                 (A) (A) (A) (A) (A) (A) (A) (A) (A) (A) (A) (A)
                 (A) (A) (A) (A) (A) (A) (A) (A) (A) (A) (A) (A)
                 (A) (A) (A) (A) (A) (A) (A) (A) (A) (A) (A) (A)
                 (A) (A) (A) (A) (A) (A) (A) (A) (A) (A) (A) (A)
                 (A) (A) (A) (A) (A) (A) (A) (A) (A) (A) (A) (A)
                 (A) (A) (A) (A) (A) (A) (A) (A) (A) (A) (A) (A)
                 (A) (A) (A) (A) (A) (A) (A) (A) (A) (A) (A) (A)
                 (A) (A) (A) (A) (A) (A) (A) (A) (A) (A) (A) (A)
                 (A) (A) (A) (A) (A) (A) (A) (A) (A) (A) (A) (A)
                 (A) (A) (A) (A) (A) (A) (A) (A) (A) (A) (A) (A)
                 (A) (A) (A) (A) (A) (A) (A) (A) (A) (A) (A) (A)
                 (A) (A) (A) (A) (A) (A) (A) (A) (A) (A) (A) (A)
                 (A) (A) (A) (A) (A) (A) (A) (A) (A) (A) (A) (A)
                 (A) (A) (A) (A) (A) (A) (A) (A) (A) (A) (A) (A)
                 (A) (A) (A) (A) (A) (A) (A) (A) (A) (A) (A) (A)
                 (A) (A) (A) (A) (A) (A) (A) (A) (A) (A) (A) (A)
                 (A) (A) (A) (A) (A) (A) (A) (A) (A) (A) (A) (A)
                 (A) (A) (A) (A) (A) (A) (A) (A) (A) (A) (A) (A)
                 (A) (A) (A) (A) (A) (A) (A) (A) (A) (A) (A) (A)
                 (A) (A) (A) (A) (A) (A) (A) (A) (A) (A) (A) (A)
                 (A) (A) (A) (A) (A) (A) (A) (A) (A)
 The electronic state is 1-A.
 Alpha  occ. eigenvalues --  -19.32944 -19.28156 -19.27601 -10.44052 -10.35951
 Alpha  occ. eigenvalues --  -10.35077 -10.31873 -10.31636 -10.30936 -10.30926
 Alpha  occ. eigenvalues --  -10.30822 -10.30790 -10.30714 -10.29079 -10.28876
 Alpha  occ. eigenvalues --   -1.21166  -1.12920  -1.12487  -0.96395  -0.91635
 Alpha  occ. eigenvalues --   -0.86726  -0.85561  -0.84931  -0.77784  -0.75215
 Alpha  occ. eigenvalues --   -0.71228  -0.69999  -0.68533  -0.65818  -0.62180
 Alpha  occ. eigenvalues --   -0.59823  -0.58696  -0.57455  -0.56331  -0.54945
 Alpha  occ. eigenvalues --   -0.53625  -0.52920  -0.52253  -0.50658  -0.49744
 Alpha  occ. eigenvalues --   -0.49120  -0.47820  -0.47560  -0.46010  -0.45540
 Alpha  occ. eigenvalues --   -0.45043  -0.43962  -0.43450  -0.43018  -0.42366
 Alpha  occ. eigenvalues --   -0.40047  -0.38972  -0.37268  -0.35965  -0.33480
 Alpha  occ. eigenvalues --   -0.32708
 Alpha virt. eigenvalues --    0.04536   0.05210   0.06667   0.07023   0.07891
 Alpha virt. eigenvalues --    0.08200   0.08443   0.09501   0.09580   0.10035
 Alpha virt. eigenvalues --    0.10723   0.11383   0.11651   0.12013   0.12826
 Alpha virt. eigenvalues --    0.13468   0.13781   0.14407   0.14671   0.15028
 Alpha virt. eigenvalues --    0.15720   0.16818   0.17024   0.17388   0.18271
 Alpha virt. eigenvalues --    0.18629   0.18747   0.18956   0.19444   0.20587
 Alpha virt. eigenvalues --    0.20743   0.20940   0.22007   0.22414   0.22605
 Alpha virt. eigenvalues --    0.23040   0.23552   0.24259   0.24773   0.25241
 Alpha virt. eigenvalues --    0.25359   0.25834   0.26410   0.26843   0.27007
 Alpha virt. eigenvalues --    0.27710   0.28049   0.28165   0.28476   0.29269
 Alpha virt. eigenvalues --    0.29384   0.30048   0.30626   0.31149   0.31279
 Alpha virt. eigenvalues --    0.31473   0.31969   0.32522   0.32892   0.32997
 Alpha virt. eigenvalues --    0.34149   0.34202   0.34903   0.35461   0.35807
 Alpha virt. eigenvalues --    0.36313   0.37319   0.38013   0.38385   0.38625
 Alpha virt. eigenvalues --    0.39187   0.39892   0.40990   0.41580   0.42693
 Alpha virt. eigenvalues --    0.43106   0.43440   0.43677   0.44630   0.44795
 Alpha virt. eigenvalues --    0.45317   0.45732   0.45893   0.46756   0.47814
 Alpha virt. eigenvalues --    0.48296   0.50058   0.50365   0.52585   0.53077
 Alpha virt. eigenvalues --    0.54302   0.58504   0.59949   0.66574   0.69939
 Alpha virt. eigenvalues --    0.73271   0.73648   0.74730   0.75474   0.76310
 Alpha virt. eigenvalues --    0.77126   0.78020   0.79157   0.80835   0.81330
 Alpha virt. eigenvalues --    0.81947   0.82454   0.83447   0.83714   0.84431
 Alpha virt. eigenvalues --    0.85249   0.86505   0.88517   0.89488   0.89931
 Alpha virt. eigenvalues --    0.90629   0.93309   0.93893   0.95355   0.96471
 Alpha virt. eigenvalues --    0.97121   0.98333   0.99653   1.02121   1.03207
 Alpha virt. eigenvalues --    1.03762   1.04000   1.06019   1.06719   1.07740
 Alpha virt. eigenvalues --    1.08018   1.08492   1.09703   1.10504   1.10965
 Alpha virt. eigenvalues --    1.13455   1.15004   1.17217   1.19414   1.20431
 Alpha virt. eigenvalues --    1.21039   1.21735   1.22411   1.22769   1.23602
 Alpha virt. eigenvalues --    1.24926   1.25676   1.27556   1.28701   1.29965
 Alpha virt. eigenvalues --    1.32355   1.34638   1.34929   1.36833   1.37820
 Alpha virt. eigenvalues --    1.38444   1.41015   1.41884   1.44746   1.45401
 Alpha virt. eigenvalues --    1.46027   1.46487   1.48748   1.49438   1.50457
 Alpha virt. eigenvalues --    1.50886   1.52734   1.54416   1.54735   1.55662
 Alpha virt. eigenvalues --    1.57993   1.59214   1.60814   1.63536   1.65254
 Alpha virt. eigenvalues --    1.69091   1.70003   1.70872   1.76281   1.77446
 Alpha virt. eigenvalues --    1.78739   1.80524   1.84109   1.87744   1.88040
 Alpha virt. eigenvalues --    1.88879   1.90705   1.91442   1.93892   1.95816
 Alpha virt. eigenvalues --    1.97299   1.98831   1.99061   2.01623   2.01764
 Alpha virt. eigenvalues --    2.03213   2.03997   2.04288   2.05077   2.05943
 Alpha virt. eigenvalues --    2.07323   2.08852   2.10317   2.10693   2.11393
 Alpha virt. eigenvalues --    2.11883   2.13499   2.14044   2.16575   2.17401
 Alpha virt. eigenvalues --    2.18145   2.19482   2.20823   2.21046   2.21647
 Alpha virt. eigenvalues --    2.22968   2.24368   2.26303   2.28334   2.31681
 Alpha virt. eigenvalues --    2.34385   2.35351   2.37215   2.39230   2.39864
 Alpha virt. eigenvalues --    2.42105   2.43447   2.43790   2.48022   2.48100
 Alpha virt. eigenvalues --    2.49059   2.49823   2.51334   2.52257   2.55061
 Alpha virt. eigenvalues --    2.56020   2.57229   2.58035   2.60017   2.61487
 Alpha virt. eigenvalues --    2.62604   2.64019   2.64333   2.65140   2.68642
 Alpha virt. eigenvalues --    2.69195   2.70912   2.72621   2.73337   2.75414
 Alpha virt. eigenvalues --    2.76451   2.78376   2.79781   2.82953   2.83435
 Alpha virt. eigenvalues --    2.84397   2.84921   2.85567   2.87942   2.90341
 Alpha virt. eigenvalues --    2.90880   2.92120   2.95751   2.96732   2.98130
 Alpha virt. eigenvalues --    2.99500   3.00920   3.02541   3.05390   3.09210
 Alpha virt. eigenvalues --    3.12622   3.15006   3.16372   3.20990   3.26865
 Alpha virt. eigenvalues --    3.28495   3.30274   3.36532   3.37210   3.38516
 Alpha virt. eigenvalues --    3.39214   3.44724   3.44983   3.48104   3.50164
 Alpha virt. eigenvalues --    3.54591   3.58292   3.59128   3.60605   3.62114
 Alpha virt. eigenvalues --    3.63997   3.64489   3.69781   3.99720   4.41416
 Alpha virt. eigenvalues --    4.42861   4.43761   4.50202   4.54422   4.56698
 Alpha virt. eigenvalues --    4.58666   4.60015   4.63924   4.65587   4.75766
 Alpha virt. eigenvalues --    4.78427   4.82526   4.92605   4.97907
          Condensed to atoms (all electrons):
              1          2          3          4          5          6
     1  C   20.101666  -0.965736  -0.025293  -5.931811  -9.457166   0.651059
     2  C   -0.965736   7.267321   0.207410   0.400042  -0.220284   0.492837
     3  C   -0.025293   0.207410   6.627685  -0.021176  -0.538123   0.457694
     4  C   -5.931811   0.400042  -0.021176  20.665311  -2.155632  -1.491447
     5  C   -9.457166  -0.220284  -0.538123  -2.155632  17.964333   0.163136
     6  C    0.651059   0.492837   0.457694  -1.491447   0.163136   5.731305
     7  C    2.196423  -1.599051  -0.888240  -7.255252  -0.017503  -0.084229
     8  C   -2.118980   0.150508  -0.081201   0.886907   1.692891  -0.087786
     9  C    0.582175   0.188289   0.092097   1.171176  -0.762510   0.021942
    10  O    0.143959   0.005209   0.014158   0.052221  -0.069335   0.004973
    11  C    0.117702   0.017728   0.026741   0.074913  -0.094783   0.004059
    12  O   -0.089476   0.091558   0.016039   0.523974  -0.093635   0.002563
    13  C    0.133633  -0.101143  -0.033877  -0.789937  -0.226132  -0.008679
    14  O   -0.003813   0.001752   0.007341   0.018652  -0.015542  -0.000063
    15  C    0.027281   0.004837   0.013289   0.001914  -0.022479   0.000200
    16  H    0.153214   0.016850   0.073077   0.127335  -0.020638  -0.018590
    17  H    0.011432   0.272976  -0.004851   0.054968   0.007097  -0.006595
    18  H    0.021033  -0.002969   0.274438   0.012889  -0.000466   0.025820
    19  H    0.044224  -0.041792  -0.002434   0.095820   0.193610  -0.017286
    20  H   -0.000810   0.016620   0.025793   0.001216  -0.000586   0.282389
    21  H    0.376977  -0.001600   0.074192  -0.018262  -0.203702   0.007406
    22  H    0.076817  -0.016235   0.004983   0.126967  -0.144383  -0.002552
    23  H    0.020502  -0.000134   0.004174  -0.017516  -0.008578   0.000252
    24  H   -0.003226   0.000064  -0.000085   0.002203   0.001601   0.000025
    25  H   -0.028210   0.006788   0.002450   0.081058  -0.053136  -0.006390
    26  H   -0.006531   0.001791  -0.000144  -0.010334   0.016808   0.000084
    27  H    0.001053  -0.000512  -0.000130  -0.010933  -0.005422  -0.000013
    28  H    0.021417  -0.000665   0.000714  -0.004922  -0.017642   0.000024
    29  H   -0.003426   0.000033   0.001016   0.000491   0.000431   0.000077
    30  H    0.000948  -0.000013  -0.000422  -0.000495  -0.000056  -0.000008
    31  H    0.002573  -0.000004   0.000538  -0.002707  -0.000292   0.000033
              7          8          9         10         11         12
     1  C    2.196423  -2.118980   0.582175   0.143959   0.117702  -0.089476
     2  C   -1.599051   0.150508   0.188289   0.005209   0.017728   0.091558
     3  C   -0.888240  -0.081201   0.092097   0.014158   0.026741   0.016039
     4  C   -7.255252   0.886907   1.171176   0.052221   0.074913   0.523974
     5  C   -0.017503   1.692891  -0.762510  -0.069335  -0.094783  -0.093635
     6  C   -0.084229  -0.087786   0.021942   0.004973   0.004059   0.002563
     7  C   15.581668  -1.082449  -1.906647  -0.162353  -0.210680  -0.305989
     8  C   -1.082449   8.951020  -0.791596  -0.524862  -0.111184  -0.136069
     9  C   -1.906647  -0.791596   6.603216   0.475627  -0.052071   0.109589
    10  O   -0.162353  -0.524862   0.475627   8.527050   0.053893  -0.001101
    11  C   -0.210680  -0.111184  -0.052071   0.053893   5.359793   0.002156
    12  O   -0.305989  -0.136069   0.109589  -0.001101   0.002156   8.301012
    13  C    1.398995  -0.734730  -0.457877  -0.050368  -0.038870  -0.062734
    14  O   -0.028677  -0.096631   0.678798  -0.162814  -0.055989  -0.000938
    15  C   -0.038913  -0.049588   0.035669  -0.007540   0.146236   0.000719
    16  H   -0.026763   0.011544  -0.005824   0.000863   0.004441  -0.000027
    17  H   -0.008331  -0.001160   0.001720   0.000003   0.000048   0.000089
    18  H   -0.003564  -0.000698   0.000082  -0.000031   0.000354   0.000018
    19  H    0.038673  -0.014376   0.007301  -0.000133  -0.000076   0.001194
    20  H    0.002676  -0.000140  -0.000286   0.000000  -0.000070  -0.000007
    21  H    0.036602  -0.026822   0.047212   0.021636   0.014403  -0.043498
    22  H   -0.058851   0.291499   0.017374   0.015855   0.005273   0.003984
    23  H    0.005304  -0.012126  -0.022624  -0.040243   0.414997  -0.000016
    24  H   -0.002445  -0.012343  -0.000618  -0.042807   0.403143   0.000013
    25  H    0.005914   0.012836  -0.002166   0.000227   0.000132   0.235127
    26  H   -0.001031  -0.067969  -0.016857  -0.000630  -0.000755   0.006375
    27  H    0.062562  -0.135888  -0.002082  -0.002863  -0.004368  -0.000605
    28  H   -0.002387  -0.094363   0.013468   0.010260   0.005325  -0.001424
    29  H    0.000752  -0.004604   0.001558  -0.002181  -0.062570   0.000005
    30  H    0.000209  -0.000362   0.001734   0.007085  -0.058447   0.000000
    31  H    0.000791  -0.003920  -0.002442  -0.003620  -0.056742   0.000000
             13         14         15         16         17         18
     1  C    0.133633  -0.003813   0.027281   0.153214   0.011432   0.021033
     2  C   -0.101143   0.001752   0.004837   0.016850   0.272976  -0.002969
     3  C   -0.033877   0.007341   0.013289   0.073077  -0.004851   0.274438
     4  C   -0.789937   0.018652   0.001914   0.127335   0.054968   0.012889
     5  C   -0.226132  -0.015542  -0.022479  -0.020638   0.007097  -0.000466
     6  C   -0.008679  -0.000063   0.000200  -0.018590  -0.006595   0.025820
     7  C    1.398995  -0.028677  -0.038913  -0.026763  -0.008331  -0.003564
     8  C   -0.734730  -0.096631  -0.049588   0.011544  -0.001160  -0.000698
     9  C   -0.457877   0.678798   0.035669  -0.005824   0.001720   0.000082
    10  O   -0.050368  -0.162814  -0.007540   0.000863   0.000003  -0.000031
    11  C   -0.038870  -0.055989   0.146236   0.004441   0.000048   0.000354
    12  O   -0.062734  -0.000938   0.000719  -0.000027   0.000089   0.000018
    13  C    6.365710  -0.050300  -0.010091  -0.000366  -0.000016   0.000033
    14  O   -0.050300   8.157598   0.013428  -0.000133  -0.000020  -0.000006
    15  C   -0.010091   0.013428   5.296012  -0.002284   0.000002  -0.000124
    16  H   -0.000366  -0.000133  -0.002284   0.514763   0.000011  -0.004037
    17  H   -0.000016  -0.000020   0.000002   0.000011   0.494138  -0.000122
    18  H    0.000033  -0.000006  -0.000124  -0.004037  -0.000122   0.496563
    19  H    0.013848  -0.000407   0.000006  -0.000111  -0.003924   0.000011
    20  H   -0.000016   0.000004   0.000005  -0.000124  -0.003825  -0.003871
    21  H   -0.060726  -0.000281   0.001116   0.003176   0.000002  -0.000002
    22  H   -0.025438  -0.006856   0.000716   0.000000   0.000004   0.000000
    23  H    0.001053   0.003646  -0.018622  -0.000042   0.000000  -0.000002
    24  H   -0.001146   0.000765  -0.014237   0.000000   0.000000   0.000000
    25  H   -0.005717  -0.000015  -0.000049   0.000107  -0.000002   0.000000
    26  H    0.444693   0.000117   0.000069   0.000000   0.000000   0.000000
    27  H    0.456981   0.001147  -0.000253   0.000000   0.000000   0.000000
    28  H    0.419948   0.000049   0.001204   0.000000   0.000000   0.000000
    29  H    0.000696  -0.000181   0.429841   0.000242   0.000000  -0.000002
    30  H    0.000019   0.000112   0.416959   0.000000   0.000000   0.000000
    31  H   -0.000355  -0.000075   0.428939  -0.000006   0.000000   0.000000
             19         20         21         22         23         24
     1  C    0.044224  -0.000810   0.376977   0.076817   0.020502  -0.003226
     2  C   -0.041792   0.016620  -0.001600  -0.016235  -0.000134   0.000064
     3  C   -0.002434   0.025793   0.074192   0.004983   0.004174  -0.000085
     4  C    0.095820   0.001216  -0.018262   0.126967  -0.017516   0.002203
     5  C    0.193610  -0.000586  -0.203702  -0.144383  -0.008578   0.001601
     6  C   -0.017286   0.282389   0.007406  -0.002552   0.000252   0.000025
     7  C    0.038673   0.002676   0.036602  -0.058851   0.005304  -0.002445
     8  C   -0.014376  -0.000140  -0.026822   0.291499  -0.012126  -0.012343
     9  C    0.007301  -0.000286   0.047212   0.017374  -0.022624  -0.000618
    10  O   -0.000133   0.000000   0.021636   0.015855  -0.040243  -0.042807
    11  C   -0.000076  -0.000070   0.014403   0.005273   0.414997   0.403143
    12  O    0.001194  -0.000007  -0.043498   0.003984  -0.000016   0.000013
    13  C    0.013848  -0.000016  -0.060726  -0.025438   0.001053  -0.001146
    14  O   -0.000407   0.000004  -0.000281  -0.006856   0.003646   0.000765
    15  C    0.000006   0.000005   0.001116   0.000716  -0.018622  -0.014237
    16  H   -0.000111  -0.000124   0.003176   0.000000  -0.000042   0.000000
    17  H   -0.003924  -0.003825   0.000002   0.000004   0.000000   0.000000
    18  H    0.000011  -0.003871  -0.000002   0.000000  -0.000002   0.000000
    19  H    0.503384  -0.000119  -0.000087  -0.000157   0.000000   0.000000
    20  H   -0.000119   0.497287   0.000000   0.000000   0.000000   0.000000
    21  H   -0.000087   0.000000   0.616028   0.004712   0.000008  -0.000009
    22  H   -0.000157   0.000000   0.004712   0.510885   0.000006   0.000000
    23  H    0.000000   0.000000   0.000008   0.000006   0.531195  -0.033094
    24  H    0.000000   0.000000  -0.000009   0.000000  -0.033094   0.527922
    25  H   -0.000301   0.000000  -0.002903  -0.000073   0.000000   0.000000
    26  H    0.000000   0.000000   0.000065  -0.003912   0.000000  -0.000001
    27  H    0.000003   0.000000  -0.000045  -0.003096   0.000000   0.000000
    28  H   -0.000001   0.000000   0.003439   0.004127  -0.000003   0.000017
    29  H    0.000000   0.000000  -0.000019   0.000000  -0.005151   0.003976
    30  H    0.000000   0.000000   0.000000   0.000000  -0.001616  -0.001673
    31  H    0.000000   0.000000   0.000004   0.000000   0.004040  -0.005025
             25         26         27         28         29         30
     1  C   -0.028210  -0.006531   0.001053   0.021417  -0.003426   0.000948
     2  C    0.006788   0.001791  -0.000512  -0.000665   0.000033  -0.000013
     3  C    0.002450  -0.000144  -0.000130   0.000714   0.001016  -0.000422
     4  C    0.081058  -0.010334  -0.010933  -0.004922   0.000491  -0.000495
     5  C   -0.053136   0.016808  -0.005422  -0.017642   0.000431  -0.000056
     6  C   -0.006390   0.000084  -0.000013   0.000024   0.000077  -0.000008
     7  C    0.005914  -0.001031   0.062562  -0.002387   0.000752   0.000209
     8  C    0.012836  -0.067969  -0.135888  -0.094363  -0.004604  -0.000362
     9  C   -0.002166  -0.016857  -0.002082   0.013468   0.001558   0.001734
    10  O    0.000227  -0.000630  -0.002863   0.010260  -0.002181   0.007085
    11  C    0.000132  -0.000755  -0.004368   0.005325  -0.062570  -0.058447
    12  O    0.235127   0.006375  -0.000605  -0.001424   0.000005   0.000000
    13  C   -0.005717   0.444693   0.456981   0.419948   0.000696   0.000019
    14  O   -0.000015   0.000117   0.001147   0.000049  -0.000181   0.000112
    15  C   -0.000049   0.000069  -0.000253   0.001204   0.429841   0.416959
    16  H    0.000107   0.000000   0.000000   0.000000   0.000242   0.000000
    17  H   -0.000002   0.000000   0.000000   0.000000   0.000000   0.000000
    18  H    0.000000   0.000000   0.000000   0.000000  -0.000002   0.000000
    19  H   -0.000301   0.000000   0.000003  -0.000001   0.000000   0.000000
    20  H    0.000000   0.000000   0.000000   0.000000   0.000000   0.000000
    21  H   -0.002903   0.000065  -0.000045   0.003439  -0.000019   0.000000
    22  H   -0.000073  -0.003912  -0.003096   0.004127   0.000000   0.000000
    23  H    0.000000   0.000000   0.000000  -0.000003  -0.005151  -0.001616
    24  H    0.000000  -0.000001   0.000000   0.000017   0.003976  -0.001673
    25  H    0.356371  -0.000045   0.000000  -0.000034   0.000000   0.000000
    26  H   -0.000045   0.495544  -0.022746  -0.023699   0.000000   0.000000
    27  H    0.000000  -0.022746   0.512667  -0.025590   0.000000   0.000000
    28  H   -0.000034  -0.023699  -0.025590   0.512110   0.000000   0.000000
    29  H    0.000000   0.000000   0.000000   0.000000   0.515825  -0.022674
    30  H    0.000000   0.000000   0.000000   0.000000  -0.022674   0.500072
    31  H    0.000000   0.000000   0.000000  -0.000005  -0.028715  -0.022491
             31
     1  C    0.002573
     2  C   -0.000004
     3  C    0.000538
     4  C   -0.002707
     5  C   -0.000292
     6  C    0.000033
     7  C    0.000791
     8  C   -0.003920
     9  C   -0.002442
    10  O   -0.003620
    11  C   -0.056742
    12  O    0.000000
    13  C   -0.000355
    14  O   -0.000075
    15  C    0.428939
    16  H   -0.000006
    17  H    0.000000
    18  H    0.000000
    19  H    0.000000
    20  H    0.000000
    21  H    0.000004
    22  H    0.000000
    23  H    0.004040
    24  H   -0.005025
    25  H    0.000000
    26  H    0.000000
    27  H    0.000000
    28  H   -0.000005
    29  H   -0.028715
    30  H   -0.022491
    31  H    0.513850
 Mulliken atomic charges:
              1
     1  C   -0.049609
     2  C   -0.192476
     3  C   -0.327852
     4  C   -0.587633
     5  C    0.088119
     6  C   -0.122240
     7  C    0.352786
     8  C    0.192643
     9  C   -0.025427
    10  O   -0.262137
    11  C    0.095269
    12  O   -0.558893
    13  C   -0.577090
    14  O   -0.460666
    15  C   -0.654262
    16  H    0.173324
    17  H    0.186356
    18  H    0.184653
    19  H    0.183131
    20  H    0.183866
    21  H    0.150978
    22  H    0.198354
    23  H    0.174592
    24  H    0.176980
    25  H    0.398032
    26  H    0.189108
    27  H    0.180133
    28  H    0.178632
    29  H    0.174579
    30  H    0.181119
    31  H    0.175632
 Sum of Mulliken atomic charges =   0.00000
 Mulliken charges with hydrogens summed into heavy atoms:
              1
     1  C    0.123714
     2  C   -0.006120
     3  C   -0.143199
     4  C   -0.587633
     5  C    0.271250
     6  C    0.061626
     7  C    0.503765
     8  C    0.390997
     9  C   -0.025427
    10  O   -0.262137
    11  C    0.446841
    12  O   -0.160861
    13  C   -0.029217
    14  O   -0.460666
    15  C   -0.122932
 Sum of Mulliken charges with hydrogens summed into heavy atoms =   0.00000
 Electronic spatial extent (au):  <R**2>=           3425.5042
 Charge=              0.0000 electrons
 Dipole moment (field-independent basis, Debye):
    X=             -0.5844    Y=             -2.2969    Z=             -2.4274  Tot=              3.3926
 Quadrupole moment (field-independent basis, Debye-Ang):
   XX=            -79.1189   YY=            -85.7170   ZZ=            -96.7306
   XY=             -1.6384   XZ=             -5.4615   YZ=              4.1115
 Traceless Quadrupole moment (field-independent basis, Debye-Ang):
   XX=              8.0700   YY=              1.4718   ZZ=             -9.5418
   XY=             -1.6384   XZ=             -5.4615   YZ=              4.1115
 Octapole moment (field-independent basis, Debye-Ang**2):
  XXX=             14.8822  YYY=            -28.9383  ZZZ=            -24.7462  XYY=             10.4893
  XXY=            -13.4451  XXZ=              8.8173  XZZ=            -14.3475  YZZ=              2.1539
  YYZ=              6.9445  XYZ=              0.5794
 Hexadecapole moment (field-independent basis, Debye-Ang**3):
 XXXX=          -2430.8710 YYYY=          -1475.2583 ZZZZ=           -612.0459 XXXY=            -25.3949
 XXXZ=            -60.7734 YYYX=             -1.7984 YYYZ=             33.1458 ZZZX=            -23.5623
 ZZZY=             -6.5012 XXYY=           -579.5874 XXZZ=           -516.9256 YYZZ=           -340.6336
 XXYZ=            -20.8842 YYXZ=             17.2063 ZZXY=            -20.6404
 N-N= 1.018859585392D+03 E-N=-3.649446524500D+03  KE= 6.859113641620D+02
 1\1\GINC-COMPUTE-5-22\SP\RwB97XD\6-31+G(d,p)\C12H16O3\ELUCIANO.IQUIR\1
 7-May-2022\0\\# wb97xd/6-31+g** scrf=(pcm,solvent=chloroform,smd,dovac
 uum) nmr\\comment\\0,1\C,0,1.163101408,0.541946197,-1.507400661\C,0,-0
 .365351228,2.743643425,-2.277813123\C,0,1.012345204,0.850637987,-2.860
 305696\C,0,0.548998067,1.330828922,-0.523136868\C,0,-0.216126146,2.436
 958224,-0.924674527\C,0,0.248404881,1.95051095,-3.244762939\C,0,0.7140
 73847,0.984577622,0.944705995\C,0,-0.594051819,0.575180123,1.638086351
 \C,0,-1.236183481,-0.613436785,0.958001476\O,0,-0.340603923,-1.6194546
 3,0.75424674\C,0,-0.891905371,-2.775882275,0.112844283\O,0,1.273135612
 ,2.120510496,1.617518632\C,0,-0.389079361,0.251208926,3.118352555\O,0,
 -2.42668331,-0.671901586,0.675899015\C,0,0.230538567,-3.770664043,-0.1
 08593482\H,0,1.760045638,-0.324173114,-1.228443921\H,0,-0.963306987,3.
 600730379,-2.577213973\H,0,1.489297211,0.231181042,-3.615608885\H,0,-0
 .701101862,3.068130642,-0.181955258\H,0,0.129282075,2.188821689,-4.298
 53654\H,0,1.457992921,0.184754383,1.045869792\H,0,-1.308364014,1.40724
 6929,1.582419058\H,0,-1.330013568,-2.49365574,-0.851159927\H,0,-1.6611
 53057,-3.220299202,0.754005556\H,0,1.846950639,2.580262299,0.979136139
 \H,0,-0.050106634,1.131837321,3.67314009\H,0,-1.324289434,-0.092271058
 ,3.574384704\H,0,0.352935528,-0.543446537,3.253711812\H,0,1.017944179,
 -3.330629876,-0.72959329\H,0,-0.140718263,-4.675740827,-0.59726451\H,0
 ,0.693992677,-4.047411881,0.844141404\\Version=EM64L-G09RevC.01\State=
 1-A\HF=-692.4458894\RMSD=4.019e-09\Dipole=0.9991438,-0.5084609,-0.7243
 601\Quadrupole=-8.0693241,6.6251209,1.4442032,-2.6209073,-1.6786268,-2
 .4173187\PG=C01 [X(C12H16O3)]\\@


 FROM WHENCE IT HAPPENS, THAT THEY WHICH TRUST TO BOOKS, DO AS THEY THAT CAST UP MANY LITTLE SUMMS INTO GREATER,
 WITHOUT CONSIDERING WETHER THOSE LITTLE SUMMES WERE RIGHTLY CAST UP OR NOT...
 AND AT LAST FINDING THE ERROUR VISIBLE, AND NOT MISTRUSTING THEIR FIRST GROUNDS,
 KNOW NOT WHICH WAY TO CLEERE THEMSELVES...
 BUT SPEND TIME IN FLUTTERING OVER THEIR BOOKES....
 AS BIRDS THAT ENTERING BY THE CHIMNEY, AND FINDING THEMSELVES INCLOSED IN A CHAMBER,
 FLUTTER AT THE FALSE LIGHT OF A GLASSE WINDOW,
 FOR WANT OF WIT TO CONSIDER WHICH WAY THEY CAME IN....
           LEVIATHAN
 Job cpu time:  0 days  0 hours 46 minutes 17.5 seconds.
 File lengths (MBytes):  RWF=    125 Int=      0 D2E=      0 Chk=      9 Scr=      1
 Normal termination of Gaussian 09 at Tue May 17 16:00:16 2022.
