 Entering Gaussian System, Link 0=g09
 Input=/home/eluciano.iquir/wb9/73a_022.gjc
 Output=/home/eluciano.iquir/wb9/73a_022.log
 Initial command:
 /share/apps/Gaussian09/EM64T.SSE4.2-enabled/g09/l1.exe /tmp/Gau-53377.inp -scrdir=/tmp/
 Entering Link 1 = /share/apps/Gaussian09/EM64T.SSE4.2-enabled/g09/l1.exe PID=     53378.
  
 Copyright (c) 1988,1990,1992,1993,1995,1998,2003,2009,2011,
            Gaussian, Inc.  All Rights Reserved.
  
 This is part of the Gaussian(R) 09 program.  It is based on
 the Gaussian(R) 03 system (copyright 2003, Gaussian, Inc.),
 the Gaussian(R) 98 system (copyright 1998, Gaussian, Inc.),
 the Gaussian(R) 94 system (copyright 1995, Gaussian, Inc.),
 the Gaussian 92(TM) system (copyright 1992, Gaussian, Inc.),
 the Gaussian 90(TM) system (copyright 1990, Gaussian, Inc.),
 the Gaussian 88(TM) system (copyright 1988, Gaussian, Inc.),
 the Gaussian 86(TM) system (copyright 1986, Carnegie Mellon
 University), and the Gaussian 82(TM) system (copyright 1983,
 Carnegie Mellon University). Gaussian is a federally registered
 trademark of Gaussian, Inc.
  
 This software contains proprietary and confidential information,
 including trade secrets, belonging to Gaussian, Inc.
  
 This software is provided under written license and may be
 used, copied, transmitted, or stored only in accord with that
 written license.
  
 The following legend is applicable only to US Government
 contracts under FAR:
  
                    RESTRICTED RIGHTS LEGEND
  
 Use, reproduction and disclosure by the US Government is
 subject to restrictions as set forth in subparagraphs (a)
 and (c) of the Commercial Computer Software - Restricted
 Rights clause in FAR 52.227-19.
  
 Gaussian, Inc.
 340 Quinnipiac St., Bldg. 40, Wallingford CT 06492
  
  
 ---------------------------------------------------------------
 Warning -- This program may not be used in any manner that
 competes with the business of Gaussian, Inc. or will provide
 assistance to any competitor of Gaussian, Inc.  The licensee
 of this program is prohibited from giving any competitor of
 Gaussian, Inc. access to this program.  By using this program,
 the user acknowledges that Gaussian, Inc. is engaged in the
 business of creating and licensing software in the field of
 computational chemistry and represents and warrants to the
 licensee that it is not a competitor of Gaussian, Inc. and that
 it will not use this program in any manner prohibited above.
 ---------------------------------------------------------------
  

 Cite this work as:
 Gaussian 09, Revision C.01,
 M. J. Frisch, G. W. Trucks, H. B. Schlegel, G. E. Scuseria, 
 M. A. Robb, J. R. Cheeseman, G. Scalmani, V. Barone, B. Mennucci, 
 G. A. Petersson, H. Nakatsuji, M. Caricato, X. Li, H. P. Hratchian, 
 A. F. Izmaylov, J. Bloino, G. Zheng, J. L. Sonnenberg, M. Hada, 
 M. Ehara, K. Toyota, R. Fukuda, J. Hasegawa, M. Ishida, T. Nakajima, 
 Y. Honda, O. Kitao, H. Nakai, T. Vreven, J. A. Montgomery, Jr., 
 J. E. Peralta, F. Ogliaro, M. Bearpark, J. J. Heyd, E. Brothers, 
 K. N. Kudin, V. N. Staroverov, T. Keith, R. Kobayashi, J. Normand, 
 K. Raghavachari, A. Rendell, J. C. Burant, S. S. Iyengar, J. Tomasi, 
 M. Cossi, N. Rega, J. M. Millam, M. Klene, J. E. Knox, J. B. Cross, 
 V. Bakken, C. Adamo, J. Jaramillo, R. Gomperts, R. E. Stratmann, 
 O. Yazyev, A. J. Austin, R. Cammi, C. Pomelli, J. W. Ochterski, 
 R. L. Martin, K. Morokuma, V. G. Zakrzewski, G. A. Voth, 
 P. Salvador, J. J. Dannenberg, S. Dapprich, A. D. Daniels, 
 O. Farkas, J. B. Foresman, J. V. Ortiz, J. Cioslowski, 
 and D. J. Fox, Gaussian, Inc., Wallingford CT, 2010.
 
 ******************************************
 Gaussian 09:  EM64L-G09RevC.01 23-Sep-2011
                17-May-2022 
 ******************************************
 %nprocshared=4
 Will use up to    4 processors via shared memory.
 ----------------------------------------------------------------
 # wb97xd/6-31+g** scrf=(pcm,solvent=chloroform,smd,dovacuum) nmr
 ----------------------------------------------------------------
 1/38=1/1;
 2/12=2,17=6,18=5,40=1/2;
 3/5=1,6=6,7=111,11=2,16=1,25=1,30=1,70=32101,72=7,74=-58/1,2,8,3;
 4//1;
 5/5=2,38=5,53=7/2;
 8/6=1,10=90,11=11/1;
 10/13=100,45=16/2;
 6/7=2,8=2,9=2,10=2,28=1/1;
 99/9=1/99;
 -------
 comment
 -------
 Charge =  0 Multiplicity = 1
 Symbolic Z-Matrix:
 6                     1.86635   0.84185   1.96576 
 6                     2.9437   -0.54859  -0.1968 
 6                     3.09956   0.19916   2.09039 
 6                     1.15471   0.7979    0.7569 
 6                     1.71116   0.09403  -0.32333 
 6                     3.63745  -0.49554   1.0096 
 6                    -0.18428   1.4993    0.63682 
 6                    -1.43699   0.63566   0.85782 
 6                    -1.44216  -0.6151   -0.00007 
 8                    -1.75603  -0.31194  -1.29093 
 6                    -1.7873   -1.43853  -2.17395 
 8                    -0.27315   2.1853   -0.61637 
 6                    -1.6175    0.254     2.32983 
 8                    -1.22603  -1.74866   0.41011 
 6                    -2.09684  -0.93549  -3.57024 
 1                     1.46403   1.37495   2.82475 
 1                     3.35946  -1.0955   -1.03914 
 1                     3.63916   0.23689   3.03329 
 1                     1.18377   0.0373   -1.27402 
 1                     4.59506  -0.99985   1.10879 
 1                    -0.20228   2.30749   1.37985 
 1                    -2.32592   1.21393   0.56968 
 1                    -2.56583  -2.13838  -1.85066 
 1                    -0.81341  -1.94092  -2.17036 
 1                     0.61689   2.52093  -0.82339 
 1                    -1.66729   1.14715   2.96125 
 1                    -2.54797  -0.30758   2.47066 
 1                    -0.79987  -0.37732   2.6931 
 1                    -3.05854  -0.41211  -3.58717 
 1                    -2.13214  -1.76295  -4.28431 
 1                    -1.33776  -0.2174   -3.89788 
 
                          Input orientation:                          
 ---------------------------------------------------------------------
 Center     Atomic      Atomic             Coordinates (Angstroms)
 Number     Number       Type             X           Y           Z
 ---------------------------------------------------------------------
      1          6           0        1.866346    0.841850    1.965760
      2          6           0        2.943699   -0.548587   -0.196803
      3          6           0        3.099560    0.199164    2.090390
      4          6           0        1.154715    0.797904    0.756900
      5          6           0        1.711158    0.094035   -0.323328
      6          6           0        3.637452   -0.495541    1.009602
      7          6           0       -0.184285    1.499295    0.636819
      8          6           0       -1.436995    0.635658    0.857818
      9          6           0       -1.442157   -0.615095   -0.000067
     10          8           0       -1.756026   -0.311944   -1.290930
     11          6           0       -1.787298   -1.438532   -2.173946
     12          8           0       -0.273147    2.185296   -0.616371
     13          6           0       -1.617503    0.254002    2.329832
     14          8           0       -1.226034   -1.748657    0.410113
     15          6           0       -2.096837   -0.935491   -3.570236
     16          1           0        1.464026    1.374953    2.824752
     17          1           0        3.359455   -1.095504   -1.039136
     18          1           0        3.639157    0.236886    3.033293
     19          1           0        1.183771    0.037298   -1.274017
     20          1           0        4.595061   -0.999845    1.108794
     21          1           0       -0.202282    2.307488    1.379846
     22          1           0       -2.325924    1.213926    0.569684
     23          1           0       -2.565835   -2.138378   -1.850661
     24          1           0       -0.813407   -1.940917   -2.170364
     25          1           0        0.616894    2.520928   -0.823391
     26          1           0       -1.667289    1.147154    2.961246
     27          1           0       -2.547967   -0.307575    2.470661
     28          1           0       -0.799866   -0.377316    2.693099
     29          1           0       -3.058537   -0.412111   -3.587170
     30          1           0       -2.132142   -1.762946   -4.284310
     31          1           0       -1.337764   -0.217399   -3.897878
 ---------------------------------------------------------------------
                    Distance matrix (angstroms):
                    1          2          3          4          5
     1  C    0.000000
     2  C    2.787595   0.000000
     3  C    1.396208   2.411364   0.000000
     4  C    1.403457   2.433733   2.432922   0.000000
     5  C    2.413138   1.395754   2.786530   1.404263   0.000000
     6  C    2.416541   1.392666   1.392855   2.810843   2.415555
     7  C    2.530495   3.830539   3.819274   1.516341   2.547419
     8  C    3.490288   4.658877   4.721238   2.598743   3.405778
     9  C    4.115016   4.390770   5.065592   3.051772   3.248193
    10  O    5.005882   4.831204   5.938963   3.727974   3.622491
    11  C    5.973811   5.204174   6.689394   4.716667   4.244142
    12  O    3.612434   4.242435   4.758827   2.418578   2.897709
    13  C    3.551804   5.275661   4.723454   3.233440   4.259675
    14  O    4.323607   4.381232   5.032704   3.503313   3.544087
    15  C    7.036549   6.077562   7.767412   5.683429   5.109126
    16  H    1.088084   3.875466   2.144001   2.169025   3.407672
    17  H    3.874547   1.086966   3.396711   3.416375   2.155056
    18  H    2.156031   3.396197   1.087039   3.416016   3.873564
    19  H    3.407252   2.144993   3.875007   2.168868   1.088653
    20  H    3.401782   2.152955   2.153527   3.897655   3.400653
    21  H    2.602040   4.532128   3.981466   2.123287   3.385474
    22  H    4.434252   5.609179   5.725222   3.510409   4.283650
    23  H    6.564377   5.968052   7.286473   5.409586   5.060542
    24  H    5.659716   4.466472   6.168086   4.465817   3.731756
    25  H    3.487091   3.902379   4.477091   2.399038   2.708743
    26  H    3.683854   5.840379   4.937604   3.597891   4.828187
    27  H    4.589364   6.109980   5.682953   4.227164   5.109580
    28  H    3.020607   4.732351   3.987619   2.991721   3.953004
    29  H    7.527412   6.894930   8.398245   6.171432   5.801624
    30  H    7.863603   6.629219   8.476874   6.540274   5.823119
    31  H    6.765396   5.669089   7.464766   5.376825   4.708537
                    6          7          8          9         10
     6  C    0.000000
     7  C    4.327125   0.000000
     8  C    5.201216   1.537528   0.000000
     9  C    5.180362   2.541360   1.516699   0.000000
    10  O    5.866495   3.076878   2.369989   1.362623   0.000000
    11  C    6.360198   4.370455   3.690064   2.350089   1.431746
    12  O    5.012331   1.431426   2.434986   3.096548   2.981639
    13  C    5.469860   2.543848   1.531362   2.492891   3.667343
    14  O    5.057982   3.418455   2.435139   1.224712   2.288795
    15  C    7.351907   5.223539   4.744636   3.643812   2.387509
    16  H    3.393714   2.742159   3.582081   4.515063   5.491192
    17  H    2.152804   4.701053   5.440706   4.936186   5.181266
    18  H    2.152157   4.685667   5.537060   5.978871   6.936002
    19  H    3.394021   2.767726   3.430913   2.990662   2.960518
    20  H    1.086820   5.413928   6.254883   6.150253   6.824089
    21  H    4.768397   1.097993   2.142906   3.461639   4.050752
    22  H    6.219136   2.161611   1.098914   2.109735   2.472842
    23  H    7.025723   5.009192   4.037996   2.647214   2.074837
    24  H    5.657865   4.484544   4.024610   2.619794   2.077375
    25  H    4.645720   1.953928   3.255637   3.840859   3.724850
    26  H    5.886224   2.779616   2.176941   3.453344   4.496425
    27  H    6.358414   3.494961   2.173755   2.724313   3.844054
    28  H    4.747412   2.851122   2.190960   2.778888   4.097683
    29  H    8.122410   5.454987   4.846147   3.939695   2.641834
    30  H    7.932215   6.217224   5.716469   4.488695   3.347715
    31  H    6.993818   4.984078   4.832618   3.919437   2.641980
                   11         12         13         14         15
    11  C    0.000000
    12  O    4.225023   0.000000
    13  C    4.814304   3.770584   0.000000
    14  O    2.662434   4.175842   2.801645   0.000000
    15  C    1.516077   4.668027   6.037836   4.154843   0.000000
    16  H    6.593465   3.939004   3.316217   4.777431   7.675531
    17  H    5.281527   4.913062   6.159644   4.853210   6.016910
    18  H    7.705114   5.694074   5.303548   5.873120   8.825118
    19  H    3.437324   2.677500   4.569663   3.439926   4.120842
    20  H    7.190503   6.068013   6.454380   5.910502   8.165719
    21  H    5.401331   2.001208   2.668732   4.294271   6.213660
    22  H    3.853980   2.562066   2.126367   3.164193   4.670269
    23  H    1.095636   5.047182   4.909108   2.656699   2.150310
    24  H    1.095840   4.442118   5.071095   2.620322   2.148887
    25  H    4.825087   0.973489   4.480435   4.811162   5.182309
    26  H    5.750684   3.977526   1.094935   3.884418   6.868929
    27  H    4.840460   4.573727   1.095886   2.840788   6.090175
    28  H    5.078319   4.218650   1.095014   2.697076   6.420519
    29  H    2.160276   4.830173   6.126272   4.595944   1.095025
    30  H    2.162822   5.700724   6.933961   4.781093   1.093540
    31  H    2.159905   4.204122   6.251788   4.573404   1.095079
                   16         17         18         19         20
    16  H    0.000000
    17  H    4.962402   0.000000
    18  H    2.463714   4.293970   0.000000
    19  H    4.320621   2.464145   4.962023   0.000000
    20  H    4.288072   2.479814   2.479305   4.288397   0.000000
    21  H    2.394568   5.487968   4.666684   3.757378   5.833218
    22  H    4.413047   6.343919   6.527341   4.135414   7.286389
    23  H    7.102307   6.070850   8.246018   4.373286   7.831543
    24  H    6.413492   4.405358   7.186530   2.950507   6.394531
    25  H    3.916610   4.543871   5.406010   2.587051   5.652875
    26  H    3.142556   6.804464   5.384436   5.224727   6.874461
    27  H    4.364902   6.916440   6.236466   5.297869   7.304572
    28  H    2.865831   5.634298   4.494207   4.454742   5.657102
    29  H    8.047355   6.939029   9.439854   4.852816   8.998615
    30  H    8.562570   6.413601   9.531765   4.826803   8.655816
    31  H    7.455157   5.568423   8.545014   3.647966   7.802397
                   21         22         23         24         25
    21  H    0.000000
    22  H    2.522319   0.000000
    23  H    5.982331   4.141687   0.000000
    24  H    5.570136   4.443940   1.792262   0.000000
    25  H    2.360267   3.508432   5.735345   4.875260   0.000000
    26  H    2.448152   2.481497   5.895469   6.049688   4.629064
    27  H    3.678406   2.444991   4.693184   5.216859   5.372854
    28  H    3.047936   3.061012   5.183217   5.108650   4.772078
    29  H    6.342370   4.523290   2.497642   3.063527   5.454355
    30  H    7.237089   5.697419   2.500337   2.497900   6.155220
    31  H    5.959760   4.794191   3.064215   2.495950   4.557586
                   26         27         28         29         30
    26  H    0.000000
    27  H    1.769888   0.000000
    28  H    1.774355   1.763576   0.000000
    29  H    6.873764   6.080208   6.674173   0.000000
    30  H    7.821947   6.922474   7.237346   1.780160   0.000000
    31  H    7.001298   6.483133   6.614823   1.759407   1.780191
                   31
    31  H    0.000000
 Stoichiometry    C12H16O3
 Framework group  C1[X(C12H16O3)]
 Deg. of freedom    87
 Full point group                 C1      NOp   1
 Largest Abelian subgroup         C1      NOp   1
 Largest concise Abelian subgroup C1      NOp   1
                         Standard orientation:                         
 ---------------------------------------------------------------------
 Center     Atomic      Atomic             Coordinates (Angstroms)
 Number     Number       Type             X           Y           Z
 ---------------------------------------------------------------------
      1          6           0       -2.689783    0.578791    0.132577
      2          6           0       -2.051081   -2.115611   -0.188269
      3          6           0       -3.627802   -0.304176   -0.405833
      4          6           0       -1.418651    0.125808    0.518220
      5          6           0       -1.112497   -1.234422    0.350892
      6          6           0       -3.308203   -1.650368   -0.566045
      7          6           0       -0.409590    1.096695    1.099997
      8          6           0        0.619056    1.689466    0.123010
      9          6           0        1.344469    0.624801   -0.677391
     10          8           0        2.282538    0.001695    0.089751
     11          6           0        3.020644   -1.020068   -0.589290
     12          8           0        0.257761    0.505264    2.219743
     13          6           0       -0.014847    2.709078   -0.827582
     14          8           0        1.142283    0.375441   -1.859279
     15          6           0        3.979579   -1.648218    0.402860
     16          1           0       -2.960413    1.626719    0.244534
     17          1           0       -1.798239   -3.164718   -0.318421
     18          1           0       -4.607570    0.059659   -0.704719
     19          1           0       -0.134524   -1.618044    0.636492
     20          1           0       -4.037024   -2.336194   -0.989887
     21          1           0       -0.969923    1.932079    1.540166
     22          1           0        1.388415    2.226283    0.695310
     23          1           0        3.582581   -0.578364   -1.419675
     24          1           0        2.333523   -1.783174   -0.971914
     25          1           0       -0.393739   -0.052810    2.679940
     26          1           0       -0.501050    3.514762   -0.267795
     27          1           0        0.748080    3.161817   -1.470961
     28          1           0       -0.760961    2.249223   -1.484015
     29          1           0        4.660846   -0.894291    0.810964
     30          1           0        4.569247   -2.438061   -0.070711
     31          1           0        3.432347   -2.074742    1.250099
 ---------------------------------------------------------------------
 Rotational constants (GHZ):      0.8772644      0.4113937      0.3607031
 Standard basis: 6-31+G(d,p) (6D, 7F)
 There are   365 symmetry adapted basis functions of A   symmetry.
 Integral buffers will be    131072 words long.
 Raffenetti 2 integral format.
 Two-electron integral symmetry is turned on.
   365 basis functions,   592 primitive gaussians,   365 cartesian basis functions
    56 alpha electrons       56 beta electrons
       nuclear repulsion energy      1023.0188155579 Hartrees.
 NAtoms=   31 NActive=   31 NUniq=   31 SFac= 1.00D+00 NAtFMM=   60 NAOKFM=F Big=F
 Nuclear repulsion after empirical dispersion term =     1022.9971120975 Hartrees.
 ------------------------------------------------------------------------------
 Polarizable Continuum Model (PCM)
 =================================
 Model                : C-PCM.
 Atomic radii         : SMD-Coulomb.
 Polarization charges : Total charges.
 Charge compensation  : None.
 Solution method      : Matrix inversion.
 Cavity type          : VdW (van der Waals Surface) (Alpha=1.000).
 Cavity algorithm     : GePol (No added spheres)
                        Default sphere list used, NSphG=   31.
                        Lebedev-Laikov grids with approx.  5.0 points / Ang**2.
                        Smoothing algorithm: Karplus/York (Gamma=1.0000).
                        Polarization charges: spherical gaussians, with
                                              point-specific exponents (IZeta= 3).
                        Self-potential: point-specific (ISelfS= 7).
                        Self-field    : sphere-specific E.n sum rule (ISelfD= 2).
 Solvent              : Chloroform, Eps=   4.711300 Eps(inf)=   2.090627
 ------------------------------------------------------------------------------
 ------------------------------------------------------------------------------
 Atomic radii for non-electrostatic terms: SMD-CDS.
 ------------------------------------------------------------------------------
 Nuclear repulsion after PCM non-electrostatic terms =     1022.9904516568 Hartrees.
 One-electron integrals computed using PRISM.
 NBasis=   365 RedAO= T  NBF=   365
 NBsUse=   365 1.00D-06 NBFU=   365
 Harris functional with IExCor= 4639 diagonalized for initial guess.
 ExpMin= 4.38D-02 ExpMax= 5.48D+03 ExpMxC= 8.25D+02 IAcc=2 IRadAn=         4 AccDes= 0.00D+00
 HarFok:  IExCor= 4639 AccDes= 0.00D+00 IRadAn=         4 IDoV= 1
 ScaDFX=  1.000000  1.000000  1.000000  1.000000
 FoFCou: FMM=F IPFlag=           0 FMFlag=      100000 FMFlg1=           0
         NFxFlg=           0 DoJE=T BraDBF=F KetDBF=T FulRan=T
         Omega=  0.000000  0.000000  1.000000  0.000000  0.000000 ICntrl=     500 IOpCl=  0
         NMat0=    1 NMatS0=    1 NMatT0=    0 NMatD0=    1 NMtDS0=    0 NMtDT0=    0
         I1Cent=           4 NGrid=           0.
 Petite list used in FoFCou.
 Initial guess orbital symmetries:
       Occupied  (A) (A) (A) (A) (A) (A) (A) (A) (A) (A) (A) (A)
                 (A) (A) (A) (A) (A) (A) (A) (A) (A) (A) (A) (A)
                 (A) (A) (A) (A) (A) (A) (A) (A) (A) (A) (A) (A)
                 (A) (A) (A) (A) (A) (A) (A) (A) (A) (A) (A) (A)
                 (A) (A) (A) (A) (A) (A) (A) (A)
       Virtual   (A) (A) (A) (A) (A) (A) (A) (A) (A) (A) (A) (A)
                 (A) (A) (A) (A) (A) (A) (A) (A) (A) (A) (A) (A)
                 (A) (A) (A) (A) (A) (A) (A) (A) (A) (A) (A) (A)
                 (A) (A) (A) (A) (A) (A) (A) (A) (A) (A) (A) (A)
                 (A) (A) (A) (A) (A) (A) (A) (A) (A) (A) (A) (A)
                 (A) (A) (A) (A) (A) (A) (A) (A) (A) (A) (A) (A)
                 (A) (A) (A) (A) (A) (A) (A) (A) (A) (A) (A) (A)
                 (A) (A) (A) (A) (A) (A) (A) (A) (A) (A) (A) (A)
                 (A) (A) (A) (A) (A) (A) (A) (A) (A) (A) (A) (A)
                 (A) (A) (A) (A) (A) (A) (A) (A) (A) (A) (A) (A)
                 (A) (A) (A) (A) (A) (A) (A) (A) (A) (A) (A) (A)
                 (A) (A) (A) (A) (A) (A) (A) (A) (A) (A) (A) (A)
                 (A) (A) (A) (A) (A) (A) (A) (A) (A) (A) (A) (A)
                 (A) (A) (A) (A) (A) (A) (A) (A) (A) (A) (A) (A)
                 (A) (A) (A) (A) (A) (A) (A) (A) (A) (A) (A) (A)
                 (A) (A) (A) (A) (A) (A) (A) (A) (A) (A) (A) (A)
                 (A) (A) (A) (A) (A) (A) (A) (A) (A) (A) (A) (A)
                 (A) (A) (A) (A) (A) (A) (A) (A) (A) (A) (A) (A)
                 (A) (A) (A) (A) (A) (A) (A) (A) (A) (A) (A) (A)
                 (A) (A) (A) (A) (A) (A) (A) (A) (A) (A) (A) (A)
                 (A) (A) (A) (A) (A) (A) (A) (A) (A) (A) (A) (A)
                 (A) (A) (A) (A) (A) (A) (A) (A) (A) (A) (A) (A)
                 (A) (A) (A) (A) (A) (A) (A) (A) (A) (A) (A) (A)
                 (A) (A) (A) (A) (A) (A) (A) (A) (A) (A) (A) (A)
                 (A) (A) (A) (A) (A) (A) (A) (A) (A) (A) (A) (A)
                 (A) (A) (A) (A) (A) (A) (A) (A) (A)
 The electronic state of the initial guess is 1-A.
 Requested convergence on RMS density matrix=1.00D-08 within 128 cycles.
 Requested convergence on MAX density matrix=1.00D-06.
 Requested convergence on             energy=1.00D-06.
 No special actions if energy rises.
 FoFJK:  IHMeth= 1 ICntrl=     0 DoSepK=T KAlg= 1 I1Cent= 0 FoldK=F
 FoFJK:  IHMeth= 1 ICntrl=     0 DoSepK=T KAlg= 1 I1Cent= 0 FoldK=F
 FoFJK:  IHMeth= 1 ICntrl=     0 DoSepK=T KAlg= 1 I1Cent= 0 FoldK=F
 FoFJK:  IHMeth= 1 ICntrl=     0 DoSepK=T KAlg= 1 I1Cent= 0 FoldK=F
 FoFJK:  IHMeth= 1 ICntrl=     0 DoSepK=T KAlg= 1 I1Cent= 0 FoldK=F
 FoFJK:  IHMeth= 1 ICntrl=     0 DoSepK=T KAlg= 1 I1Cent= 0 FoldK=F
 FoFJK:  IHMeth= 1 ICntrl=     0 DoSepK=T KAlg= 1 I1Cent= 0 FoldK=F
 FoFJK:  IHMeth= 1 ICntrl=     0 DoSepK=T KAlg= 1 I1Cent= 0 FoldK=F
 FoFJK:  IHMeth= 1 ICntrl=     0 DoSepK=T KAlg= 1 I1Cent= 0 FoldK=F
 FoFJK:  IHMeth= 1 ICntrl=     0 DoSepK=T KAlg= 1 I1Cent= 0 FoldK=F
 FoFJK:  IHMeth= 1 ICntrl=     0 DoSepK=T KAlg= 1 I1Cent= 0 FoldK=F
 FoFJK:  IHMeth= 1 ICntrl=     0 DoSepK=T KAlg= 1 I1Cent= 0 FoldK=F
 FoFJK:  IHMeth= 1 ICntrl=     0 DoSepK=T KAlg= 1 I1Cent= 0 FoldK=F
 FoFJK:  IHMeth= 1 ICntrl=     0 DoSepK=T KAlg= 1 I1Cent= 0 FoldK=F
 FoFJK:  IHMeth= 1 ICntrl=     0 DoSepK=T KAlg= 1 I1Cent= 0 FoldK=F
 FoFJK:  IHMeth= 1 ICntrl=     0 DoSepK=T KAlg= 1 I1Cent= 0 FoldK=F
 Error on total polarization charges =  0.03988
 SCF Done:  E(RwB97XD) =  -692.443410311     A.U. after   16 cycles
             Convg  =    0.3345D-08             -V/T =  2.0095
 SMD-CDS (non-electrostatic) energy       (kcal/mol) =      -4.18
 (included in total energy above)
 Range of M.O.s used for correlation:     1   365
 NBasis=   365 NAE=    56 NBE=    56 NFC=     0 NFV=     0
 NROrb=    365 NOA=    56 NOB=    56 NVA=   309 NVB=   309

 **** Warning!!: The largest alpha MO coefficient is  0.11611522D+03

 NEqPCM:  Using equilibrium solvation (IEInf=0, Eps=   4.7113, EpsInf=   2.0906)
          Differentiating once with respect to magnetic field using GIAOs.
          Electric field/nuclear overlap derivatives assumed to be zero.
 FoFCou: FMM=F IPFlag=           0 FMFlag=    10101102 FMFlg1=           0
         NFxFlg=    40000000 DoJE=F BraDBF=F KetDBF=T FulRan=T
         Omega=  0.000000  0.000000  1.000000  0.000000  0.000000 ICntrl=    6100 IOpCl=  0
         NMat0=    1 NMatS0=    1 NMatT0=    0 NMatD0=    1 NMtDS0=    0 NMtDT0=    0
         I1Cent=           7 NGrid=        2275.
 Symmetry not used in FoFCou.
 FoFJK:  IHMeth= 1 ICntrl=  6127 DoSepK=T KAlg= 1 I1Cent= 0 FoldK=F
 FoFJK:  IHMeth= 1 ICntrl=     0 DoSepK=T KAlg= 1 I1Cent= 0 FoldK=F
          There are     3 degrees of freedom in the 1st order CPHF.  IDoFFX=0.
      3 vectors produced by pass  0 Test12= 5.77D-13 3.33D-08 XBig12= 1.56D+02 1.82D+00.
 AX will form     3 AO Fock derivatives at one time.
 FoFJK:  IHMeth= 1 ICntrl=     0 DoSepK=T KAlg= 1 I1Cent= 0 FoldK=F
      3 vectors produced by pass  1 Test12= 5.77D-13 3.33D-08 XBig12= 1.13D+00 3.01D-01.
 FoFJK:  IHMeth= 1 ICntrl=     0 DoSepK=T KAlg= 1 I1Cent= 0 FoldK=F
      3 vectors produced by pass  2 Test12= 5.77D-13 3.33D-08 XBig12= 2.34D-02 5.73D-02.
 FoFJK:  IHMeth= 1 ICntrl=     0 DoSepK=T KAlg= 1 I1Cent= 0 FoldK=F
      3 vectors produced by pass  3 Test12= 5.77D-13 3.33D-08 XBig12= 4.41D-04 3.60D-03.
 FoFJK:  IHMeth= 1 ICntrl=     0 DoSepK=T KAlg= 1 I1Cent= 0 FoldK=F
      3 vectors produced by pass  4 Test12= 5.77D-13 3.33D-08 XBig12= 6.40D-06 5.18D-04.
 FoFJK:  IHMeth= 1 ICntrl=     0 DoSepK=T KAlg= 1 I1Cent= 0 FoldK=F
      3 vectors produced by pass  5 Test12= 5.77D-13 3.33D-08 XBig12= 9.35D-08 6.76D-05.
 FoFJK:  IHMeth= 1 ICntrl=     0 DoSepK=T KAlg= 1 I1Cent= 0 FoldK=F
      3 vectors produced by pass  6 Test12= 5.77D-13 3.33D-08 XBig12= 1.09D-09 5.91D-06.
 FoFJK:  IHMeth= 1 ICntrl=     0 DoSepK=T KAlg= 1 I1Cent= 0 FoldK=F
      3 vectors produced by pass  7 Test12= 5.77D-13 3.33D-08 XBig12= 1.15D-11 5.86D-07.
 FoFJK:  IHMeth= 1 ICntrl=     0 DoSepK=T KAlg= 1 I1Cent= 0 FoldK=F
      3 vectors produced by pass  8 Test12= 5.77D-13 3.33D-08 XBig12= 1.16D-13 5.10D-08.
 FoFJK:  IHMeth= 1 ICntrl=     0 DoSepK=T KAlg= 1 I1Cent= 0 FoldK=F
 Inverted reduced A of dimension    27 with in-core refinement.
 Calculating GIAO nuclear magnetic shielding tensors.
 SCF GIAO Magnetic shielding tensor (ppm):
      1  C    Isotropic =    69.2163   Anisotropy =   163.3356
   XX=    63.9383   YX=    29.3988   ZX=   -38.5279
   XY=    28.9897   YY=   -19.2546   ZY=   -30.6450
   XZ=   -23.6122   YZ=   -24.7292   ZZ=   162.9652
   Eigenvalues:   -30.0987    59.6409   178.1067
      2  C    Isotropic =    69.2272   Anisotropy =   177.1639
   XX=    65.5340   YX=    32.1618   ZX=   -40.0059
   XY=    29.8121   YY=   -22.9646   ZY=   -33.5773
   XZ=   -36.4461   YZ=   -37.9732   ZZ=   165.1121
   Eigenvalues:   -35.5700    55.9151   187.3364
      3  C    Isotropic =    70.9012   Anisotropy =   174.9323
   XX=     1.1221   YX=    34.0239   ZX=   -63.6480
   XY=    35.2903   YY=    51.9223   ZY=   -15.4411
   XZ=   -65.8696   YZ=   -13.1264   ZZ=   159.6590
   Eigenvalues:   -31.5916    56.7724   187.5227
      4  C    Isotropic =    54.7230   Anisotropy =   181.1020
   XX=     9.9712   YX=    -7.2807   ZX=   -58.3986
   XY=   -15.2053   YY=     9.0438   ZY=   -41.2635
   XZ=   -57.4592   YZ=   -48.1119   ZZ=   145.1540
   Eigenvalues:   -31.7220    20.4333   175.4577
      5  C    Isotropic =    72.7590   Anisotropy =   179.8276
   XX=     3.5190   YX=    34.6228   ZX=   -67.1506
   XY=    35.4324   YY=    46.4433   ZY=   -16.5249
   XZ=   -55.8076   YZ=    -9.9744   ZZ=   168.3148
   Eigenvalues:   -28.5557    54.1886   192.6441
      6  C    Isotropic =    70.5551   Anisotropy =   176.1053
   XX=    34.2434   YX=   -25.2573   ZX=   -64.1672
   XY=   -25.9565   YY=    26.2197   ZY=   -44.3252
   XZ=   -69.6438   YZ=   -47.3165   ZZ=   151.2021
   Eigenvalues:   -30.4311    54.1378   187.9586
      7  C    Isotropic =   118.6651   Anisotropy =    37.7413
   XX=   120.3997   YX=    -8.3410   ZX=    10.8798
   XY=   -11.9561   YY=   112.7118   ZY=   -16.8549
   XZ=    12.4958   YZ=   -13.2045   ZZ=   122.8839
   Eigenvalues:   101.7475   110.4219   143.8260
      8  C    Isotropic =   151.3308   Anisotropy =    18.7608
   XX=   153.6788   YX=    -8.7284   ZX=    -3.4375
   XY=    -6.6215   YY=   155.3334   ZY=     0.5240
   XZ=   -10.7633   YZ=     1.0123   ZZ=   144.9801
   Eigenvalues:   140.2273   149.9271   163.8380
      9  C    Isotropic =    19.8107   Anisotropy =    98.2328
   XX=     1.7324   YX=    75.9613   ZX=   -13.0601
   XY=    67.7631   YY=    15.5866   ZY=    -5.9945
   XZ=   -35.4765   YZ=    13.9063   ZZ=    42.1131
   Eigenvalues:   -67.4610    41.5939    85.2992
     10  O    Isotropic =   121.2266   Anisotropy =   173.4486
   XX=   199.4458   YX=     5.2308   ZX=     8.1421
   XY=    15.3068   YY=   146.9510   ZY=   -73.3135
   XZ=   101.7069   YZ=  -176.8419   ZZ=    17.2830
   Eigenvalues:   -68.9927   195.8134   236.8590
     11  C    Isotropic =   136.5145   Anisotropy =    57.4915
   XX=   133.8485   YX=   -25.4060   ZX=   -15.8470
   XY=   -22.4413   YY=   145.6378   ZY=    20.8201
   XZ=    -9.5281   YZ=    14.2825   ZZ=   130.0572
   Eigenvalues:   114.9787   119.7227   174.8422
     12  O    Isotropic =   274.5277   Anisotropy =    83.6655
   XX=   266.2280   YX=    51.5402   ZX=    -2.4195
   XY=    50.5894   YY=   264.5651   ZY=   -30.6968
   XZ=    14.7599   YZ=   -39.9539   ZZ=   292.7901
   Eigenvalues:   204.0823   289.1961   330.3047
     13  C    Isotropic =   181.0475   Anisotropy =    20.8764
   XX=   174.2238   YX=    -9.4015   ZX=     0.8647
   XY=    -8.1355   YY=   186.9394   ZY=    -6.8134
   XZ=    -2.6191   YZ=    -8.8846   ZZ=   181.9794
   Eigenvalues:   168.1675   180.0099   194.9651
     14  O    Isotropic =   -53.9476   Anisotropy =   578.1710
   XX=    30.5523   YX=   253.9855   ZX=  -119.4909
   XY=   238.9536   YY=    68.2165   ZY=   -54.0194
   XZ=  -159.0992   YZ=   -77.8918   ZZ=  -260.6116
   Eigenvalues:  -320.5660  -172.7765   331.4997
     15  C    Isotropic =   182.1489   Anisotropy =    23.1541
   XX=   183.1885   YX=   -13.0555   ZX=     5.5666
   XY=   -11.0307   YY=   179.3217   ZY=     0.2998
   XZ=    10.0373   YZ=    -4.8126   ZZ=   183.9364
   Eigenvalues:   168.2318   180.6300   197.5849
     16  H    Isotropic =    23.8631   Anisotropy =     8.0323
   XX=    28.7948   YX=     0.8235   ZX=     1.8188
   XY=     1.0723   YY=    22.2338   ZY=     0.6818
   XZ=     1.1449   YZ=     0.8928   ZZ=    20.5607
   Eigenvalues:    20.1138    22.2575    29.2180
     17  H    Isotropic =    23.7345   Anisotropy =     5.6183
   XX=    26.0767   YX=     1.3406   ZX=     2.1786
   XY=     1.2214   YY=    24.1292   ZY=     0.7869
   XZ=     2.0648   YZ=     0.6851   ZZ=    20.9976
   Eigenvalues:    20.2099    23.5136    27.4800
     18  H    Isotropic =    23.7950   Anisotropy =     4.6447
   XX=    24.4992   YX=     0.8252   ZX=     1.3669
   XY=     0.7532   YY=    25.8745   ZY=     1.4453
   XZ=     1.3889   YZ=     1.5692   ZZ=    21.0114
   Eigenvalues:    20.2754    24.2182    26.8915
     19  H    Isotropic =    23.6061   Anisotropy =     8.7008
   XX=    23.1506   YX=     3.3623   ZX=     0.3018
   XY=     2.4633   YY=    27.7535   ZY=     1.4381
   XZ=     0.9162   YZ=     1.3419   ZZ=    19.9142
   Eigenvalues:    19.6704    21.7413    29.4066
     20  H    Isotropic =    23.8228   Anisotropy =     4.0051
   XX=    25.2233   YX=    -1.1070   ZX=     1.3499
   XY=    -1.1310   YY=    25.4166   ZY=     0.4882
   XZ=     1.0607   YZ=     0.3615   ZZ=    20.8285
   Eigenvalues:    20.4208    24.5547    26.4928
     21  H    Isotropic =    26.5901   Anisotropy =     6.1392
   XX=    26.5481   YX=    -4.5529   ZX=    -0.1496
   XY=    -3.7947   YY=    26.4687   ZY=     0.8855
   XZ=     1.0191   YZ=     0.1270   ZZ=    26.7536
   Eigenvalues:    22.2363    26.8511    30.6830
     22  H    Isotropic =    28.2935   Anisotropy =     5.4647
   XX=    29.4509   YX=     0.9994   ZX=     3.5942
   XY=     1.5653   YY=    29.5381   ZY=     1.2556
   XZ=     2.7044   YZ=    -0.7266   ZZ=    25.8914
   Eigenvalues:    24.0208    28.9230    31.9366
     23  H    Isotropic =    27.5228   Anisotropy =     7.3282
   XX=    28.8354   YX=    -2.5046   ZX=    -3.4078
   XY=    -2.5396   YY=    24.7963   ZY=    -0.8255
   XZ=    -3.4570   YZ=    -2.0055   ZZ=    28.9366
   Eigenvalues:    22.2830    27.8770    32.4082
     24  H    Isotropic =    27.4015   Anisotropy =     5.6138
   XX=    27.7371   YX=    -1.6366   ZX=     1.8404
   XY=    -0.4151   YY=    29.6912   ZY=     3.2544
   XZ=     1.5710   YZ=     2.7958   ZZ=    24.7763
   Eigenvalues:    22.5753    28.4852    31.1441
     25  H    Isotropic =    29.9285   Anisotropy =    14.7033
   XX=    29.0938   YX=     4.4891   ZX=    -3.8232
   XY=     5.9238   YY=    28.3294   ZY=    -7.3187
   XZ=    -1.3402   YZ=    -5.6052   ZZ=    32.3621
   Eigenvalues:    22.1893    27.8654    39.7307
     26  H    Isotropic =    30.7289   Anisotropy =    10.2030
   XX=    28.7452   YX=    -3.7726   ZX=    -1.1567
   XY=    -3.8483   YY=    35.5791   ZY=     1.8381
   XZ=    -1.2360   YZ=     0.4966   ZZ=    27.8622
   Eigenvalues:    26.6558    27.9999    37.5309
     27  H    Isotropic =    30.5733   Anisotropy =    10.8893
   XX=    29.6837   YX=     2.6269   ZX=    -2.4492
   XY=     1.9549   YY=    31.7400   ZY=    -4.5736
   XZ=    -4.0595   YZ=    -5.2559   ZZ=    30.2961
   Eigenvalues:    25.6854    28.2016    37.8328
     28  H    Isotropic =    30.5596   Anisotropy =     5.9340
   XX=    31.5053   YX=     2.0968   ZX=     3.9880
   XY=     0.9152   YY=    29.2430   ZY=    -0.4250
   XZ=     2.5681   YZ=    -2.3247   ZZ=    30.9304
   Eigenvalues:    26.4487    30.7144    34.5156
     29  H    Isotropic =    30.1972   Anisotropy =     8.6647
   XX=    33.0275   YX=     2.3099   ZX=     3.6415
   XY=     2.1684   YY=    29.4738   ZY=     1.0458
   XZ=     3.3948   YZ=     2.0132   ZZ=    28.0903
   Eigenvalues:    26.2176    28.4003    35.9737
     30  H    Isotropic =    30.3347   Anisotropy =    11.0336
   XX=    31.3458   YX=    -5.5854   ZX=    -1.1935
   XY=    -5.4178   YY=    32.1446   ZY=     1.9669
   XZ=    -1.0467   YZ=     1.6530   ZZ=    27.5136
   Eigenvalues:    26.0680    27.2456    37.6904
     31  H    Isotropic =    30.1099   Anisotropy =     7.1983
   XX=    29.3250   YX=    -0.1203   ZX=    -0.9018
   XY=    -0.1600   YY=    29.0776   ZY=    -3.9242
   XZ=    -1.9279   YZ=    -3.9666   ZZ=    31.9271
   Eigenvalues:    26.0349    29.3860    34.9087
 End of Minotr Frequency-dependent properties file   721 does not exist.
 End of Minotr Frequency-dependent properties file   722 does not exist.

 **********************************************************************

            Population analysis using the SCF density.

 **********************************************************************

 Orbital symmetries:
       Occupied  (A) (A) (A) (A) (A) (A) (A) (A) (A) (A) (A) (A)
                 (A) (A) (A) (A) (A) (A) (A) (A) (A) (A) (A) (A)
                 (A) (A) (A) (A) (A) (A) (A) (A) (A) (A) (A) (A)
                 (A) (A) (A) (A) (A) (A) (A) (A) (A) (A) (A) (A)
                 (A) (A) (A) (A) (A) (A) (A) (A)
       Virtual   (A) (A) (A) (A) (A) (A) (A) (A) (A) (A) (A) (A)
                 (A) (A) (A) (A) (A) (A) (A) (A) (A) (A) (A) (A)
                 (A) (A) (A) (A) (A) (A) (A) (A) (A) (A) (A) (A)
                 (A) (A) (A) (A) (A) (A) (A) (A) (A) (A) (A) (A)
                 (A) (A) (A) (A) (A) (A) (A) (A) (A) (A) (A) (A)
                 (A) (A) (A) (A) (A) (A) (A) (A) (A) (A) (A) (A)
                 (A) (A) (A) (A) (A) (A) (A) (A) (A) (A) (A) (A)
                 (A) (A) (A) (A) (A) (A) (A) (A) (A) (A) (A) (A)
                 (A) (A) (A) (A) (A) (A) (A) (A) (A) (A) (A) (A)
                 (A) (A) (A) (A) (A) (A) (A) (A) (A) (A) (A) (A)
                 (A) (A) (A) (A) (A) (A) (A) (A) (A) (A) (A) (A)
                 (A) (A) (A) (A) (A) (A) (A) (A) (A) (A) (A) (A)
                 (A) (A) (A) (A) (A) (A) (A) (A) (A) (A) (A) (A)
                 (A) (A) (A) (A) (A) (A) (A) (A) (A) (A) (A) (A)
                 (A) (A) (A) (A) (A) (A) (A) (A) (A) (A) (A) (A)
                 (A) (A) (A) (A) (A) (A) (A) (A) (A) (A) (A) (A)
                 (A) (A) (A) (A) (A) (A) (A) (A) (A) (A) (A) (A)
                 (A) (A) (A) (A) (A) (A) (A) (A) (A) (A) (A) (A)
                 (A) (A) (A) (A) (A) (A) (A) (A) (A) (A) (A) (A)
                 (A) (A) (A) (A) (A) (A) (A) (A) (A) (A) (A) (A)
                 (A) (A) (A) (A) (A) (A) (A) (A) (A) (A) (A) (A)
                 (A) (A) (A) (A) (A) (A) (A) (A) (A) (A) (A) (A)
                 (A) (A) (A) (A) (A) (A) (A) (A) (A) (A) (A) (A)
                 (A) (A) (A) (A) (A) (A) (A) (A) (A) (A) (A) (A)
                 (A) (A) (A) (A) (A) (A) (A) (A) (A) (A) (A) (A)
                 (A) (A) (A) (A) (A) (A) (A) (A) (A)
 The electronic state is 1-A.
 Alpha  occ. eigenvalues --  -19.32336 -19.27930 -19.27337 -10.43611 -10.36280
 Alpha  occ. eigenvalues --  -10.34768 -10.31980 -10.31777 -10.30938 -10.30897
 Alpha  occ. eigenvalues --  -10.30791 -10.30777 -10.30657 -10.28816 -10.28639
 Alpha  occ. eigenvalues --   -1.20699  -1.12830  -1.12126  -0.96372  -0.91283
 Alpha  occ. eigenvalues --   -0.86789  -0.85290  -0.84901  -0.77549  -0.75824
 Alpha  occ. eigenvalues --   -0.70633  -0.70172  -0.68044  -0.64850  -0.62260
 Alpha  occ. eigenvalues --   -0.59444  -0.58352  -0.58331  -0.56276  -0.55180
 Alpha  occ. eigenvalues --   -0.54613  -0.53115  -0.50920  -0.50353  -0.49637
 Alpha  occ. eigenvalues --   -0.48954  -0.47717  -0.46574  -0.45513  -0.44841
 Alpha  occ. eigenvalues --   -0.44626  -0.44106  -0.43511  -0.42889  -0.42397
 Alpha  occ. eigenvalues --   -0.40300  -0.38653  -0.37128  -0.35846  -0.33423
 Alpha  occ. eigenvalues --   -0.32600
 Alpha virt. eigenvalues --    0.04686   0.04982   0.06709   0.07198   0.07933
 Alpha virt. eigenvalues --    0.08155   0.08478   0.09547   0.09808   0.10218
 Alpha virt. eigenvalues --    0.10732   0.11188   0.11748   0.12036   0.12771
 Alpha virt. eigenvalues --    0.13399   0.13891   0.14411   0.14824   0.15275
 Alpha virt. eigenvalues --    0.15662   0.16510   0.17085   0.17282   0.18327
 Alpha virt. eigenvalues --    0.18699   0.18802   0.19357   0.19926   0.20463
 Alpha virt. eigenvalues --    0.20755   0.21129   0.22089   0.22364   0.22720
 Alpha virt. eigenvalues --    0.23252   0.23792   0.24147   0.24511   0.24668
 Alpha virt. eigenvalues --    0.25443   0.25676   0.26337   0.26446   0.27224
 Alpha virt. eigenvalues --    0.27520   0.27980   0.28152   0.28395   0.29200
 Alpha virt. eigenvalues --    0.29508   0.29814   0.30233   0.30997   0.31565
 Alpha virt. eigenvalues --    0.31914   0.32211   0.32574   0.32821   0.33720
 Alpha virt. eigenvalues --    0.34031   0.34707   0.35428   0.35702   0.35927
 Alpha virt. eigenvalues --    0.36485   0.36819   0.37466   0.37988   0.39185
 Alpha virt. eigenvalues --    0.39985   0.40356   0.40772   0.41052   0.41490
 Alpha virt. eigenvalues --    0.42513   0.43698   0.44259   0.44659   0.45151
 Alpha virt. eigenvalues --    0.45439   0.46073   0.46985   0.47794   0.48060
 Alpha virt. eigenvalues --    0.49107   0.50691   0.51438   0.52976   0.53552
 Alpha virt. eigenvalues --    0.55460   0.55868   0.60409   0.66327   0.70505
 Alpha virt. eigenvalues --    0.72960   0.74213   0.75609   0.76347   0.76658
 Alpha virt. eigenvalues --    0.77275   0.78399   0.79281   0.79939   0.81287
 Alpha virt. eigenvalues --    0.82092   0.82526   0.83488   0.83708   0.84712
 Alpha virt. eigenvalues --    0.85377   0.85722   0.87442   0.88945   0.89573
 Alpha virt. eigenvalues --    0.89719   0.92876   0.93439   0.96024   0.96919
 Alpha virt. eigenvalues --    0.97841   0.98990   0.99954   1.01842   1.02230
 Alpha virt. eigenvalues --    1.03243   1.04348   1.04837   1.06377   1.07113
 Alpha virt. eigenvalues --    1.08247   1.09420   1.10757   1.11683   1.11906
 Alpha virt. eigenvalues --    1.13446   1.14771   1.17197   1.18357   1.20464
 Alpha virt. eigenvalues --    1.20870   1.21918   1.22348   1.22771   1.24640
 Alpha virt. eigenvalues --    1.25520   1.26975   1.28872   1.29141   1.31474
 Alpha virt. eigenvalues --    1.32144   1.33159   1.34341   1.34609   1.37718
 Alpha virt. eigenvalues --    1.39036   1.41074   1.42688   1.43998   1.45388
 Alpha virt. eigenvalues --    1.47334   1.48694   1.49873   1.50191   1.51059
 Alpha virt. eigenvalues --    1.51480   1.52065   1.53130   1.54759   1.55781
 Alpha virt. eigenvalues --    1.55957   1.57252   1.61360   1.62704   1.65217
 Alpha virt. eigenvalues --    1.70471   1.71934   1.75550   1.77211   1.79831
 Alpha virt. eigenvalues --    1.81590   1.83150   1.84901   1.87659   1.88928
 Alpha virt. eigenvalues --    1.90536   1.92224   1.92802   1.93767   1.95160
 Alpha virt. eigenvalues --    1.97258   1.97953   1.99364   2.01185   2.02011
 Alpha virt. eigenvalues --    2.02647   2.04521   2.05042   2.05732   2.06395
 Alpha virt. eigenvalues --    2.07809   2.08480   2.09705   2.10309   2.11356
 Alpha virt. eigenvalues --    2.11662   2.14017   2.14854   2.17146   2.18290
 Alpha virt. eigenvalues --    2.19260   2.20221   2.20875   2.21066   2.22081
 Alpha virt. eigenvalues --    2.23852   2.24099   2.26404   2.27754   2.31690
 Alpha virt. eigenvalues --    2.32935   2.34224   2.37561   2.38602   2.38962
 Alpha virt. eigenvalues --    2.40531   2.42567   2.45512   2.47971   2.49151
 Alpha virt. eigenvalues --    2.49756   2.51073   2.51684   2.54185   2.55266
 Alpha virt. eigenvalues --    2.55899   2.56696   2.58818   2.59949   2.61789
 Alpha virt. eigenvalues --    2.63546   2.64478   2.65385   2.67048   2.68996
 Alpha virt. eigenvalues --    2.69337   2.69702   2.72968   2.73581   2.74515
 Alpha virt. eigenvalues --    2.76878   2.79478   2.80041   2.80724   2.83889
 Alpha virt. eigenvalues --    2.84437   2.84691   2.85757   2.87025   2.88706
 Alpha virt. eigenvalues --    2.90547   2.91933   2.93416   2.96140   2.97627
 Alpha virt. eigenvalues --    2.99723   3.00773   3.04071   3.05682   3.12466
 Alpha virt. eigenvalues --    3.13787   3.16588   3.17049   3.18624   3.27328
 Alpha virt. eigenvalues --    3.28547   3.32020   3.36870   3.37151   3.38937
 Alpha virt. eigenvalues --    3.39296   3.44555   3.45421   3.49817   3.50804
 Alpha virt. eigenvalues --    3.53870   3.58660   3.59520   3.60028   3.62808
 Alpha virt. eigenvalues --    3.64289   3.64664   3.67806   3.99551   4.40024
 Alpha virt. eigenvalues --    4.41973   4.44853   4.50319   4.54268   4.56672
 Alpha virt. eigenvalues --    4.57247   4.62233   4.66121   4.70155   4.72603
 Alpha virt. eigenvalues --    4.78042   4.86648   4.95258   4.97769
          Condensed to atoms (all electrons):
              1          2          3          4          5          6
     1  C   16.633006  -0.639488  -0.141717  -4.196642  -8.637702   0.408977
     2  C   -0.639488   8.451190   0.020762  -1.298882  -0.317662   0.902385
     3  C   -0.141717   0.020762   6.103319  -0.550291   0.033332   0.515043
     4  C   -4.196642  -1.298882  -0.550291  15.575951  -0.379580  -1.066896
     5  C   -8.637702  -0.317662   0.033332  -0.379580  17.658257  -0.471858
     6  C    0.408977   0.902385   0.515043  -1.066896  -0.471858   5.671274
     7  C    2.843062  -1.499903  -0.137928  -2.128855  -2.896318  -0.131705
     8  C   -1.184830   0.783602   0.057813   0.214905   1.944843   0.069687
     9  C    0.488898  -0.617271  -0.031853   0.127514  -1.223983  -0.067885
    10  O   -0.091541   0.035523   0.004309  -0.122954   0.149929  -0.002095
    11  C   -0.041238   0.005748   0.004134  -0.063690   0.099645  -0.002218
    12  O   -0.126761   0.162508  -0.001077  -0.128615   0.265131   0.015899
    13  C    0.269653   0.021205  -0.012096  -0.094866  -0.265406   0.005672
    14  O   -0.002986   0.016828  -0.005689   0.045023  -0.012454   0.008623
    15  C   -0.006282  -0.004038   0.000079  -0.019823   0.030874   0.000175
    16  H    0.171201   0.006581   0.059997   0.097714   0.017249  -0.007325
    17  H    0.012870   0.246888  -0.013336   0.044011   0.026099   0.011736
    18  H    0.019851  -0.004289   0.269132   0.018130   0.003771   0.025657
    19  H    0.062794  -0.074802  -0.003646   0.154734   0.172417  -0.014521
    20  H   -0.014936   0.027809   0.041804   0.009556  -0.002667   0.263395
    21  H    0.188871   0.022417   0.042309  -0.162844  -0.015317   0.007923
    22  H   -0.026572   0.004192  -0.002372   0.039841   0.015664  -0.000384
    23  H    0.000138  -0.000864   0.000056   0.001936  -0.002506  -0.000158
    24  H    0.000022   0.001984  -0.000183  -0.001018  -0.001075   0.001008
    25  H    0.041698   0.002357  -0.002057  -0.017841  -0.061166   0.000133
    26  H    0.045026   0.000237   0.006695  -0.039396  -0.012183   0.000727
    27  H    0.008076  -0.001382  -0.000463  -0.023347  -0.002940   0.000387
    28  H   -0.006195   0.004767  -0.005300   0.038779  -0.005239  -0.002908
    29  H   -0.000052   0.000237  -0.000006  -0.001274   0.000502   0.000024
    30  H    0.000039  -0.000403  -0.000001   0.000364   0.000008  -0.000024
    31  H    0.000077  -0.002306   0.000035   0.004548  -0.002611  -0.000260
              7          8          9         10         11         12
     1  C    2.843062  -1.184830   0.488898  -0.091541  -0.041238  -0.126761
     2  C   -1.499903   0.783602  -0.617271   0.035523   0.005748   0.162508
     3  C   -0.137928   0.057813  -0.031853   0.004309   0.004134  -0.001077
     4  C   -2.128855   0.214905   0.127514  -0.122954  -0.063690  -0.128615
     5  C   -2.896318   1.944843  -1.223983   0.149929   0.099645   0.265131
     6  C   -0.131705   0.069687  -0.067885  -0.002095  -0.002218   0.015899
     7  C   11.097525  -3.467719   2.158618  -0.029172   0.033914  -0.078947
     8  C   -3.467719  10.572931  -3.036393  -0.298663  -0.028112   0.179127
     9  C    2.158618  -3.036393   7.841166   0.382596  -0.209855  -0.236853
    10  O   -0.029172  -0.298663   0.382596   8.412720   0.017392  -0.001159
    11  C    0.033914  -0.028112  -0.209855   0.017392   5.400163  -0.001710
    12  O   -0.078947   0.179127  -0.236853  -0.001159  -0.001710   8.281922
    13  C    0.035838  -0.140731   0.060990   0.032921  -0.015887   0.010045
    14  O   -0.048733  -0.082592   0.609981  -0.167675  -0.066329   0.002454
    15  C   -0.008665  -0.038679   0.038352  -0.030964   0.103921   0.004427
    16  H   -0.039850   0.009929  -0.004394   0.000007  -0.000060   0.000368
    17  H   -0.002498  -0.000029   0.002120  -0.000067  -0.000871   0.000121
    18  H   -0.005738   0.000386  -0.000377   0.000001  -0.000003   0.000026
    19  H    0.012595   0.003020   0.007714  -0.000428  -0.005078   0.004157
    20  H    0.001398  -0.000027   0.000082   0.000001   0.000049  -0.000004
    21  H    0.145205   0.133856  -0.068507   0.000082  -0.001008  -0.051831
    22  H    0.021100   0.284720  -0.013912   0.002093   0.002089  -0.005378
    23  H   -0.000053  -0.009151   0.016217  -0.043773   0.391206  -0.000104
    24  H    0.002558  -0.012445  -0.034137  -0.033966   0.406401   0.000108
    25  H    0.049974   0.019456  -0.008067  -0.000636   0.000983   0.227837
    26  H   -0.019045  -0.014771  -0.020240   0.000007  -0.000409   0.000364
    27  H    0.030329  -0.127164   0.074967  -0.000658   0.001263  -0.000252
    28  H    0.011099  -0.084806  -0.011259  -0.000053   0.000151  -0.000924
    29  H    0.000757  -0.004230  -0.003353  -0.002978  -0.057562  -0.000041
    30  H    0.000152  -0.000008   0.001827   0.007446  -0.064186  -0.000005
    31  H    0.000823  -0.004803   0.006118  -0.002447  -0.066323  -0.000051
             13         14         15         16         17         18
     1  C    0.269653  -0.002986  -0.006282   0.171201   0.012870   0.019851
     2  C    0.021205   0.016828  -0.004038   0.006581   0.246888  -0.004289
     3  C   -0.012096  -0.005689   0.000079   0.059997  -0.013336   0.269132
     4  C   -0.094866   0.045023  -0.019823   0.097714   0.044011   0.018130
     5  C   -0.265406  -0.012454   0.030874   0.017249   0.026099   0.003771
     6  C    0.005672   0.008623   0.000175  -0.007325   0.011736   0.025657
     7  C    0.035838  -0.048733  -0.008665  -0.039850  -0.002498  -0.005738
     8  C   -0.140731  -0.082592  -0.038679   0.009929  -0.000029   0.000386
     9  C    0.060990   0.609981   0.038352  -0.004394   0.002120  -0.000377
    10  O    0.032921  -0.167675  -0.030964   0.000007  -0.000067   0.000001
    11  C   -0.015887  -0.066329   0.103921  -0.000060  -0.000871  -0.000003
    12  O    0.010045   0.002454   0.004427   0.000368   0.000121   0.000026
    13  C    5.451382   0.004860   0.001087   0.005408   0.000138   0.000318
    14  O    0.004860   8.116397   0.007227  -0.000026  -0.000096  -0.000005
    15  C    0.001087   0.007227   5.319547   0.000001  -0.000228   0.000000
    16  H    0.005408  -0.000026   0.000001   0.507175   0.000011  -0.003998
    17  H    0.000138  -0.000096  -0.000228   0.000011   0.496676  -0.000121
    18  H    0.000318  -0.000005   0.000000  -0.003998  -0.000121   0.495309
    19  H    0.001071  -0.000813  -0.003296  -0.000117  -0.004072   0.000011
    20  H   -0.000058   0.000002   0.000004  -0.000120  -0.003889  -0.003884
    21  H   -0.005552   0.000132   0.000165   0.002032   0.000002   0.000001
    22  H   -0.024539   0.005895  -0.001718  -0.000014   0.000000   0.000000
    23  H    0.001391   0.000955  -0.025794   0.000000   0.000000   0.000000
    24  H    0.001764   0.004142  -0.006116   0.000000  -0.000006   0.000000
    25  H   -0.000637   0.000049  -0.000327   0.000044  -0.000001   0.000000
    26  H    0.406988   0.001874  -0.000064  -0.000151   0.000000   0.000000
    27  H    0.405896  -0.003371   0.000150   0.000017   0.000000   0.000000
    28  H    0.419853  -0.000300  -0.000108  -0.000344   0.000000  -0.000009
    29  H    0.000256  -0.000039   0.431421   0.000000   0.000000   0.000000
    30  H    0.000048   0.000130   0.420935   0.000000   0.000000   0.000000
    31  H    0.000026  -0.000199   0.429978   0.000000   0.000000   0.000000
             19         20         21         22         23         24
     1  C    0.062794  -0.014936   0.188871  -0.026572   0.000138   0.000022
     2  C   -0.074802   0.027809   0.022417   0.004192  -0.000864   0.001984
     3  C   -0.003646   0.041804   0.042309  -0.002372   0.000056  -0.000183
     4  C    0.154734   0.009556  -0.162844   0.039841   0.001936  -0.001018
     5  C    0.172417  -0.002667  -0.015317   0.015664  -0.002506  -0.001075
     6  C   -0.014521   0.263395   0.007923  -0.000384  -0.000158   0.001008
     7  C    0.012595   0.001398   0.145205   0.021100  -0.000053   0.002558
     8  C    0.003020  -0.000027   0.133856   0.284720  -0.009151  -0.012445
     9  C    0.007714   0.000082  -0.068507  -0.013912   0.016217  -0.034137
    10  O   -0.000428   0.000001   0.000082   0.002093  -0.043773  -0.033966
    11  C   -0.005078   0.000049  -0.001008   0.002089   0.391206   0.406401
    12  O    0.004157  -0.000004  -0.051831  -0.005378  -0.000104   0.000108
    13  C    0.001071  -0.000058  -0.005552  -0.024539   0.001391   0.001764
    14  O   -0.000813   0.000002   0.000132   0.005895   0.000955   0.004142
    15  C   -0.003296   0.000004   0.000165  -0.001718  -0.025794  -0.006116
    16  H   -0.000117  -0.000120   0.002032  -0.000014   0.000000   0.000000
    17  H   -0.004072  -0.003889   0.000002   0.000000   0.000000  -0.000006
    18  H    0.000011  -0.003884   0.000001   0.000000   0.000000   0.000000
    19  H    0.506960  -0.000124  -0.000055  -0.000021   0.000007   0.000211
    20  H   -0.000124   0.497708   0.000000   0.000000   0.000000   0.000000
    21  H   -0.000055   0.000000   0.618934  -0.006043   0.000000  -0.000001
    22  H   -0.000021   0.000000  -0.006043   0.510466   0.000030  -0.000015
    23  H    0.000007   0.000000   0.000000   0.000030   0.533069  -0.034386
    24  H    0.000211   0.000000  -0.000001  -0.000015  -0.034386   0.535044
    25  H   -0.000814   0.000000  -0.003632   0.000142   0.000000   0.000001
    26  H    0.000000   0.000000   0.003579  -0.003022   0.000000   0.000000
    27  H    0.000000   0.000000   0.000187  -0.003658  -0.000005   0.000001
    28  H   -0.000002   0.000000  -0.000734   0.004074   0.000000  -0.000001
    29  H    0.000002   0.000000   0.000000  -0.000006  -0.005111   0.004007
    30  H    0.000000   0.000000   0.000000   0.000000  -0.001658  -0.001655
    31  H    0.000051   0.000000   0.000000   0.000004   0.004026  -0.005260
             25         26         27         28         29         30
     1  C    0.041698   0.045026   0.008076  -0.006195  -0.000052   0.000039
     2  C    0.002357   0.000237  -0.001382   0.004767   0.000237  -0.000403
     3  C   -0.002057   0.006695  -0.000463  -0.005300  -0.000006  -0.000001
     4  C   -0.017841  -0.039396  -0.023347   0.038779  -0.001274   0.000364
     5  C   -0.061166  -0.012183  -0.002940  -0.005239   0.000502   0.000008
     6  C    0.000133   0.000727   0.000387  -0.002908   0.000024  -0.000024
     7  C    0.049974  -0.019045   0.030329   0.011099   0.000757   0.000152
     8  C    0.019456  -0.014771  -0.127164  -0.084806  -0.004230  -0.000008
     9  C   -0.008067  -0.020240   0.074967  -0.011259  -0.003353   0.001827
    10  O   -0.000636   0.000007  -0.000658  -0.000053  -0.002978   0.007446
    11  C    0.000983  -0.000409   0.001263   0.000151  -0.057562  -0.064186
    12  O    0.227837   0.000364  -0.000252  -0.000924  -0.000041  -0.000005
    13  C   -0.000637   0.406988   0.405896   0.419853   0.000256   0.000048
    14  O    0.000049   0.001874  -0.003371  -0.000300  -0.000039   0.000130
    15  C   -0.000327  -0.000064   0.000150  -0.000108   0.431421   0.420935
    16  H    0.000044  -0.000151   0.000017  -0.000344   0.000000   0.000000
    17  H   -0.000001   0.000000   0.000000   0.000000   0.000000   0.000000
    18  H    0.000000   0.000000   0.000000  -0.000009   0.000000   0.000000
    19  H   -0.000814   0.000000   0.000000  -0.000002   0.000002   0.000000
    20  H    0.000000   0.000000   0.000000   0.000000   0.000000   0.000000
    21  H   -0.003632   0.003579   0.000187  -0.000734   0.000000   0.000000
    22  H    0.000142  -0.003022  -0.003658   0.004074  -0.000006   0.000000
    23  H    0.000000   0.000000  -0.000005   0.000000  -0.005111  -0.001658
    24  H    0.000001   0.000000   0.000001  -0.000001   0.004007  -0.001655
    25  H    0.367726  -0.000008   0.000002   0.000004   0.000000   0.000000
    26  H   -0.000008   0.524831  -0.023723  -0.026859   0.000000   0.000000
    27  H    0.000002  -0.023723   0.512872  -0.023631   0.000000   0.000000
    28  H    0.000004  -0.026859  -0.023631   0.503107   0.000000   0.000000
    29  H    0.000000   0.000000   0.000000   0.000000   0.513211  -0.022872
    30  H    0.000000   0.000000   0.000000   0.000000  -0.022872   0.503657
    31  H    0.000000   0.000000   0.000000   0.000000  -0.028379  -0.022821
             31
     1  C    0.000077
     2  C   -0.002306
     3  C    0.000035
     4  C    0.004548
     5  C   -0.002611
     6  C   -0.000260
     7  C    0.000823
     8  C   -0.004803
     9  C    0.006118
    10  O   -0.002447
    11  C   -0.066323
    12  O   -0.000051
    13  C    0.000026
    14  O   -0.000199
    15  C    0.429978
    16  H    0.000000
    17  H    0.000000
    18  H    0.000000
    19  H    0.000051
    20  H    0.000000
    21  H    0.000000
    22  H    0.000004
    23  H    0.004026
    24  H   -0.005260
    25  H    0.000000
    26  H    0.000000
    27  H    0.000000
    28  H    0.000000
    29  H   -0.028379
    30  H   -0.022821
    31  H    0.514421
 Mulliken atomic charges:
              1
     1  C   -0.077317
     2  C   -0.255930
     3  C   -0.250805
     4  C   -0.076193
     5  C   -0.107055
     6  C   -0.140489
     7  C    0.050182
     8  C    0.260881
     9  C   -0.228819
    10  O   -0.215799
    11  C    0.157481
    12  O   -0.520781
    13  C   -0.577037
    14  O   -0.433266
    15  C   -0.642240
    16  H    0.178665
    17  H    0.184543
    18  H    0.185832
    19  H    0.182048
    20  H    0.183900
    21  H    0.149829
    22  H    0.197345
    23  H    0.174533
    24  H    0.173014
    25  H    0.384781
    26  H    0.169544
    27  H    0.176448
    28  H    0.186837
    29  H    0.175487
    30  H    0.179027
    31  H    0.175354
 Sum of Mulliken atomic charges =   0.00000
 Mulliken charges with hydrogens summed into heavy atoms:
              1
     1  C    0.101348
     2  C   -0.071387
     3  C   -0.064973
     4  C   -0.076193
     5  C    0.074993
     6  C    0.043411
     7  C    0.200011
     8  C    0.458226
     9  C   -0.228819
    10  O   -0.215799
    11  C    0.505028
    12  O   -0.135999
    13  C   -0.044208
    14  O   -0.433266
    15  C   -0.112372
 Sum of Mulliken charges with hydrogens summed into heavy atoms =   0.00000
 Electronic spatial extent (au):  <R**2>=           3441.1374
 Charge=              0.0000 electrons
 Dipole moment (field-independent basis, Debye):
    X=             -1.1151    Y=             -0.4530    Z=              1.4084  Tot=              1.8526
 Quadrupole moment (field-independent basis, Debye-Ang):
   XX=            -77.5038   YY=            -77.7729   ZZ=            -99.8447
   XY=             -4.0059   XZ=             -1.5143   YZ=              0.7531
 Traceless Quadrupole moment (field-independent basis, Debye-Ang):
   XX=              7.5366   YY=              7.2676   ZZ=            -14.8042
   XY=             -4.0059   XZ=             -1.5143   YZ=              0.7531
 Octapole moment (field-independent basis, Debye-Ang**2):
  XXX=             20.6766  YYY=              0.7366  ZZZ=             22.5784  XYY=              5.8910
  XXY=            -10.0483  XXZ=            -20.9867  XZZ=             -4.7631  YZZ=             -5.8135
  YYZ=             -3.0499  XYZ=             -5.8925
 Hexadecapole moment (field-independent basis, Debye-Ang**3):
 XXXX=          -2616.3711 YYYY=          -1094.5506 ZZZZ=           -616.0227 XXXY=            -44.9045
 XXXZ=             37.8330 YYYX=              8.1775 YYYZ=             22.5394 ZZZX=            -21.9621
 ZZZY=            -16.3042 XXYY=           -613.2495 XXZZ=           -598.4309 YYZZ=           -298.3424
 XXYZ=             33.4617 YYXZ=              4.0263 ZZXY=            -10.1329
 N-N= 1.022990451657D+03 E-N=-3.658084409797D+03  KE= 6.858987833874D+02
 1\1\GINC-COMPUTE-8-12\SP\RwB97XD\6-31+G(d,p)\C12H16O3\ELUCIANO.IQUIR\1
 7-May-2022\0\\# wb97xd/6-31+g** scrf=(pcm,solvent=chloroform,smd,dovac
 uum) nmr\\comment\\0,1\C,0,1.866345651,0.841849517,1.965760343\C,0,2.9
 43699206,-0.548586973,-0.196803207\C,0,3.099560233,0.199163529,2.09039
 0462\C,0,1.154714884,0.797904497,0.756900198\C,0,1.711158176,0.0940348
 85,-0.323327958\C,0,3.637451634,-0.495540679,1.009601765\C,0,-0.184284
 886,1.499295292,0.636819011\C,0,-1.436994545,0.635657583,0.857818206\C
 ,0,-1.442156675,-0.615095294,-0.000067238\O,0,-1.756026264,-0.31194414
 4,-1.290930058\C,0,-1.787297514,-1.438532054,-2.173945996\O,0,-0.27314
 7379,2.185296322,-0.616371151\C,0,-1.617502567,0.254002186,2.329832204
 \O,0,-1.226034315,-1.748657049,0.410113247\C,0,-2.096837482,-0.9354913
 04,-3.570236057\H,0,1.464025883,1.374953428,2.824751613\H,0,3.35945502
 4,-1.095503604,-1.039135799\H,0,3.639157324,0.236885759,3.033293458\H,
 0,1.183771144,0.03729794,-1.274016508\H,0,4.595061361,-0.999845055,1.1
 08793787\H,0,-0.202282271,2.307488313,1.379845703\H,0,-2.325924111,1.2
 13925886,0.5696842\H,0,-2.565834931,-2.138377532,-1.850661227\H,0,-0.8
 13406979,-1.9409167,-2.170364365\H,0,0.616894142,2.520928254,-0.823391
 363\H,0,-1.667289255,1.147153732,2.961246018\H,0,-2.547967257,-0.30757
 5218,2.47066055\H,0,-0.799865599,-0.377315886,2.693098971\H,0,-3.05853
 7052,-0.412110617,-3.587170369\H,0,-2.132141887,-1.762945929,-4.284310
 359\H,0,-1.337763693,-0.217399085,-3.897878082\\Version=EM64L-G09RevC.
 01\State=1-A\HF=-692.4434103\RMSD=3.345e-09\Dipole=0.5006121,0.521029,
 -0.0958685\Quadrupole=2.6742675,-7.1396099,4.4653424,-0.0795996,1.1423
 048,7.8087269\PG=C01 [X(C12H16O3)]\\@


 THERE'S NOTHING WRONG WITH FOLLOWING A TRAIN OF THOUGHT...
 AS LONG AS IT ULTIMATELY PULLS INTO THE STATION.
 Job cpu time:  0 days  2 hours  1 minutes  3.3 seconds.
 File lengths (MBytes):  RWF=    124 Int=      0 D2E=      0 Chk=      9 Scr=      1
 Normal termination of Gaussian 09 at Tue May 17 16:16:59 2022.
