 Entering Gaussian System, Link 0=g09
 Input=/home/eluciano.iquir/wb9/73b_014.gjc
 Output=/home/eluciano.iquir/wb9/73b_014.log
 Initial command:
 /share/apps/Gaussian09/EM64T.SSE4.2-enabled/g09/l1.exe /tmp/Gau-9691.inp -scrdir=/tmp/
 Entering Link 1 = /share/apps/Gaussian09/EM64T.SSE4.2-enabled/g09/l1.exe PID=      9692.
  
 Copyright (c) 1988,1990,1992,1993,1995,1998,2003,2009,2011,
            Gaussian, Inc.  All Rights Reserved.
  
 This is part of the Gaussian(R) 09 program.  It is based on
 the Gaussian(R) 03 system (copyright 2003, Gaussian, Inc.),
 the Gaussian(R) 98 system (copyright 1998, Gaussian, Inc.),
 the Gaussian(R) 94 system (copyright 1995, Gaussian, Inc.),
 the Gaussian 92(TM) system (copyright 1992, Gaussian, Inc.),
 the Gaussian 90(TM) system (copyright 1990, Gaussian, Inc.),
 the Gaussian 88(TM) system (copyright 1988, Gaussian, Inc.),
 the Gaussian 86(TM) system (copyright 1986, Carnegie Mellon
 University), and the Gaussian 82(TM) system (copyright 1983,
 Carnegie Mellon University). Gaussian is a federally registered
 trademark of Gaussian, Inc.
  
 This software contains proprietary and confidential information,
 including trade secrets, belonging to Gaussian, Inc.
  
 This software is provided under written license and may be
 used, copied, transmitted, or stored only in accord with that
 written license.
  
 The following legend is applicable only to US Government
 contracts under FAR:
  
                    RESTRICTED RIGHTS LEGEND
  
 Use, reproduction and disclosure by the US Government is
 subject to restrictions as set forth in subparagraphs (a)
 and (c) of the Commercial Computer Software - Restricted
 Rights clause in FAR 52.227-19.
  
 Gaussian, Inc.
 340 Quinnipiac St., Bldg. 40, Wallingford CT 06492
  
  
 ---------------------------------------------------------------
 Warning -- This program may not be used in any manner that
 competes with the business of Gaussian, Inc. or will provide
 assistance to any competitor of Gaussian, Inc.  The licensee
 of this program is prohibited from giving any competitor of
 Gaussian, Inc. access to this program.  By using this program,
 the user acknowledges that Gaussian, Inc. is engaged in the
 business of creating and licensing software in the field of
 computational chemistry and represents and warrants to the
 licensee that it is not a competitor of Gaussian, Inc. and that
 it will not use this program in any manner prohibited above.
 ---------------------------------------------------------------
  

 Cite this work as:
 Gaussian 09, Revision C.01,
 M. J. Frisch, G. W. Trucks, H. B. Schlegel, G. E. Scuseria, 
 M. A. Robb, J. R. Cheeseman, G. Scalmani, V. Barone, B. Mennucci, 
 G. A. Petersson, H. Nakatsuji, M. Caricato, X. Li, H. P. Hratchian, 
 A. F. Izmaylov, J. Bloino, G. Zheng, J. L. Sonnenberg, M. Hada, 
 M. Ehara, K. Toyota, R. Fukuda, J. Hasegawa, M. Ishida, T. Nakajima, 
 Y. Honda, O. Kitao, H. Nakai, T. Vreven, J. A. Montgomery, Jr., 
 J. E. Peralta, F. Ogliaro, M. Bearpark, J. J. Heyd, E. Brothers, 
 K. N. Kudin, V. N. Staroverov, T. Keith, R. Kobayashi, J. Normand, 
 K. Raghavachari, A. Rendell, J. C. Burant, S. S. Iyengar, J. Tomasi, 
 M. Cossi, N. Rega, J. M. Millam, M. Klene, J. E. Knox, J. B. Cross, 
 V. Bakken, C. Adamo, J. Jaramillo, R. Gomperts, R. E. Stratmann, 
 O. Yazyev, A. J. Austin, R. Cammi, C. Pomelli, J. W. Ochterski, 
 R. L. Martin, K. Morokuma, V. G. Zakrzewski, G. A. Voth, 
 P. Salvador, J. J. Dannenberg, S. Dapprich, A. D. Daniels, 
 O. Farkas, J. B. Foresman, J. V. Ortiz, J. Cioslowski, 
 and D. J. Fox, Gaussian, Inc., Wallingford CT, 2010.
 
 ******************************************
 Gaussian 09:  EM64L-G09RevC.01 23-Sep-2011
                17-May-2022 
 ******************************************
 %nprocshared=4
 Will use up to    4 processors via shared memory.
 ----------------------------------------------------------------
 # wb97xd/6-31+g** scrf=(pcm,solvent=chloroform,smd,dovacuum) nmr
 ----------------------------------------------------------------
 1/38=1/1;
 2/12=2,17=6,18=5,40=1/2;
 3/5=1,6=6,7=111,11=2,16=1,25=1,30=1,70=32101,72=7,74=-58/1,2,8,3;
 4//1;
 5/5=2,38=5,53=7/2;
 8/6=1,10=90,11=11/1;
 10/13=100,45=16/2;
 6/7=2,8=2,9=2,10=2,28=1/1;
 99/9=1/99;
 -------
 comment
 -------
 Charge =  0 Multiplicity = 1
 Symbolic Z-Matrix:
 6                    -2.15218  -0.82899  -1.10457 
 6                    -0.19122  -1.78346  -2.83572 
 6                    -2.32025  -0.70963  -2.48557 
 6                    -0.99948  -1.42773  -0.56782 
 6                    -0.02198  -1.90374  -1.45445 
 6                    -1.33893  -1.18609  -3.35072 
 6                    -0.83593  -1.51287   0.94069 
 6                    -0.46919  -0.16374   1.58696 
 6                     0.87245   0.30733   1.07455 
 8                     0.8304    1.62961   0.75846 
 6                     2.06285   2.15153   0.24789 
 8                     0.06545  -2.55505   1.31939 
 6                    -0.40338  -0.24971   3.10972 
 8                     1.86144  -0.41224   0.98836 
 6                     1.8534    3.61476  -0.08922 
 1                    -2.93352  -0.45296  -0.44717 
 1                     0.57461  -2.16044  -3.50878 
 1                    -3.21868  -0.24717  -2.88597 
 1                     0.88333  -2.37699  -1.08064 
 1                    -1.46961  -1.09627  -4.42578 
 1                    -1.80694  -1.82965   1.34329 
 1                    -1.22841   0.57948   1.31082 
 1                     2.35236   1.6017   -0.65474 
 1                     2.84678   2.05473   1.00725 
 1                     0.97408  -2.20872   1.21134 
 1                    -0.17612   0.73121   3.54181 
 1                    -1.35979  -0.58716   3.52191 
 1                     0.37771  -0.9405    3.44553 
 1                     1.05685   3.72885  -0.83194 
 1                     2.77107   4.05948  -0.48412 
 1                     1.54282   4.17444   0.79925 
 
                          Input orientation:                          
 ---------------------------------------------------------------------
 Center     Atomic      Atomic             Coordinates (Angstroms)
 Number     Number       Type             X           Y           Z
 ---------------------------------------------------------------------
      1          6           0       -2.152184   -0.828986   -1.104567
      2          6           0       -0.191216   -1.783463   -2.835721
      3          6           0       -2.320250   -0.709633   -2.485565
      4          6           0       -0.999482   -1.427729   -0.567823
      5          6           0       -0.021978   -1.903740   -1.454454
      6          6           0       -1.338928   -1.186091   -3.350723
      7          6           0       -0.835930   -1.512875    0.940686
      8          6           0       -0.469186   -0.163738    1.586961
      9          6           0        0.872446    0.307329    1.074552
     10          8           0        0.830398    1.629610    0.758457
     11          6           0        2.062848    2.151535    0.247890
     12          8           0        0.065449   -2.555051    1.319388
     13          6           0       -0.403379   -0.249709    3.109719
     14          8           0        1.861441   -0.412243    0.988359
     15          6           0        1.853401    3.614756   -0.089224
     16          1           0       -2.933517   -0.452962   -0.447172
     17          1           0        0.574611   -2.160444   -3.508785
     18          1           0       -3.218679   -0.247169   -2.885970
     19          1           0        0.883331   -2.376994   -1.080636
     20          1           0       -1.469612   -1.096272   -4.425781
     21          1           0       -1.806940   -1.829649    1.343288
     22          1           0       -1.228410    0.579480    1.310823
     23          1           0        2.352359    1.601697   -0.654738
     24          1           0        2.846784    2.054734    1.007253
     25          1           0        0.974080   -2.208719    1.211345
     26          1           0       -0.176119    0.731212    3.541812
     27          1           0       -1.359792   -0.587161    3.521911
     28          1           0        0.377710   -0.940502    3.445530
     29          1           0        1.056852    3.728855   -0.831938
     30          1           0        2.771075    4.059480   -0.484123
     31          1           0        1.542817    4.174443    0.799248
 ---------------------------------------------------------------------
                    Distance matrix (angstroms):
                    1          2          3          4          5
     1  C    0.000000
     2  C    2.784478   0.000000
     3  C    1.396297   2.410085   0.000000
     4  C    1.405458   2.433763   2.436766   0.000000
     5  C    2.411492   1.396785   2.787676   1.402931   0.000000
     6  C    2.415393   1.392596   1.392302   2.813920   2.417688
     7  C    2.526518   3.840590   3.819372   1.519737   2.559686
     8  C    3.243356   4.718145   4.506651   2.553817   3.532394
     9  C    3.897199   4.559937   4.888962   3.035117   3.476304
    10  O    4.290845   5.060719   5.091397   3.801947   4.255359
    11  C    5.336585   5.483947   5.905049   4.780626   4.867209
    12  O    3.711167   4.233930   4.855389   2.442642   2.850623
    13  C    4.599358   6.143751   5.932380   3.907350   4.869595
    14  O    4.545679   4.551619   5.444550   3.411421   3.426246
    15  C    6.068153   6.392533   6.470097   5.813317   5.986209
    16  H    1.088138   3.872418   2.144067   2.169152   3.405354
    17  H    3.871492   1.087023   3.395887   3.415244   2.154551
    18  H    2.156228   3.395329   1.086909   3.419410   3.874579
    19  H    3.407529   2.141788   3.875158   2.170038   1.087793
    20  H    3.401148   2.152863   2.153488   3.900606   3.402416
    21  H    2.666930   4.480716   4.022193   2.113261   3.319479
    22  H    2.944698   4.883964   4.155297   2.758733   3.907508
    23  H    5.138237   4.762958   5.525165   4.518829   4.308724
    24  H    6.145349   6.223315   6.822004   5.422377   5.473510
    25  H    4.128031   4.232907   5.173685   2.769535   2.862102
    26  H    5.284685   6.855417   6.557637   4.714663   5.650611
    27  H    4.700071   6.573903   6.085002   4.190740   5.318584
    28  H    5.207321   6.363048   6.519983   4.270954   5.009733
    29  H    5.580874   5.996538   5.817170   5.557753   5.768667
    30  H    6.965668   6.960257   7.257534   6.658346   6.656026
    31  H    6.504756   7.191420   7.040418   6.302103   6.668738
                    6          7          8          9         10
     6  C    0.000000
     7  C    4.333127   0.000000
     8  C    5.116872   1.540241   0.000000
     9  C    5.167547   2.499922   1.511437   0.000000
    10  O    5.433186   3.561611   2.364622   1.360188   0.000000
    11  C    5.971754   4.723429   3.683041   2.345532   1.432486
    12  O    5.065201   1.428997   2.464916   2.984026   4.290825
    13  C    6.594647   2.547036   1.526602   2.465750   3.253072
    14  O    5.446910   2.913670   2.419071   1.226102   2.298928
    15  C    6.623932   5.880971   4.741416   3.640841   2.388703
    16  H    3.392758   2.729365   3.208469   4.168818   4.467405
    17  H    2.153132   4.712405   5.571622   5.213980   5.713080
    18  H    2.151984   4.682179   5.251074   5.721058   5.761873
    19  H    3.392636   2.790754   3.720736   3.442462   4.408848
    20  H    1.086690   5.419786   6.166322   6.140765   6.292599
    21  H    4.760981   1.097859   2.150400   3.437732   4.389084
    22  H    4.985927   2.160784   1.097745   2.131545   2.376252
    23  H    5.354035   4.734039   4.012866   2.618392   2.077080
    24  H    6.856755   5.127831   4.031543   2.637416   2.075678
    25  H    5.216151   1.957956   2.531018   2.521813   3.867625
    26  H    7.248118   3.498161   2.169854   2.714136   3.093099
    27  H    6.898714   2.791791   2.171750   3.431117   4.165056
    28  H    7.014002   2.841615   2.185149   2.724589   3.745767
    29  H    6.020028   5.848123   4.830335   3.921166   2.643381
    30  H    7.254346   6.789087   5.711764   4.484740   3.348805
    31  H    7.366278   6.166363   4.846490   3.934433   2.642987
                   11         12         13         14         15
    11  C    0.000000
    12  O    5.223951   0.000000
    13  C    4.476417   2.956297   0.000000
    14  O    2.676157   2.815456   3.107410   0.000000
    15  C    1.516091   6.576282   5.500943   4.168690   0.000000
    16  H    5.677163   4.066118   4.369712   5.005400   6.291983
    17  H    5.909367   4.870956   6.957870   4.993639   6.832397
    18  H    6.593132   5.813507   6.623761   6.391032   6.961484
    19  H    4.864547   2.541801   4.872375   3.016237   6.150204
    20  H    6.698486   6.123023   7.657498   6.393490   7.214009
    21  H    5.659062   2.008139   2.754356   3.948675   6.715038
    22  H    3.799152   3.391081   2.145753   3.261085   4.546492
    23  H    1.095845   5.138646   5.019256   2.645132   2.149692
    24  H    1.095700   5.392900   4.504928   2.656546   2.150056
    25  H    4.596246   0.978380   3.055967   2.016050   6.031381
    26  H    4.228499   3.974550   1.095699   3.461107   5.061442
    27  H    5.471210   3.279484   1.094762   4.101930   6.404765
    28  H    4.756604   2.687891   1.095474   2.918597   5.951683
    29  H    2.160091   6.715546   5.787737   4.594512   1.095050
    30  H    2.162795   7.370556   6.446857   4.794992   1.093549
    31  H    2.160228   6.909360   5.357152   4.601628   1.095031
                   16         17         18         19         20
    16  H    0.000000
    17  H    4.959428   0.000000
    18  H    2.464022   4.293899   0.000000
    19  H    4.321054   2.457256   4.962043   0.000000
    20  H    4.287913   2.480361   2.480167   4.285625   0.000000
    21  H    2.523923   5.415147   4.731160   3.662315   5.825271
    22  H    2.657795   5.829810   4.717796   4.349628   5.981216
    23  H    5.674962   5.045758   6.279583   4.262560   6.008931
    24  H    6.466512   6.582180   7.566095   5.277750   7.620890
    25  H    4.593765   4.737249   6.181820   2.299941   6.243905
    26  H    4.991744   7.657426   7.178494   5.670132   8.276192
    27  H    4.271796   7.459746   6.680718   5.423887   7.964739
    28  H    5.133717   7.063252   7.314549   4.775494   8.086680
    29  H    5.792986   6.487057   6.189344   6.113375   6.525379
    30  H    7.273642   7.256755   7.758431   6.734063   7.752540
    31  H    6.557745   7.721876   7.470163   6.847643   8.009750
                   21         22         23         24         25
    21  H    0.000000
    22  H    2.477833   0.000000
    23  H    5.750305   4.210732   0.000000
    24  H    6.071120   4.344621   1.792181   0.000000
    25  H    2.809835   3.554562   4.461075   4.661084   0.000000
    26  H    3.748479   2.471366   4.976140   4.160966   3.923930
    27  H    2.547571   2.503442   6.001297   5.567621   3.662666
    28  H    3.159541   3.073587   5.212889   4.583990   2.637350
    29  H    6.620414   4.442117   2.496906   3.064174   6.279860
    30  H    7.679811   5.597152   2.499026   2.499788   6.737516
    31  H    6.896809   4.567841   3.064059   2.497351   6.421686
                   26         27         28         29         30
    26  H    0.000000
    27  H    1.771888   0.000000
    28  H    1.763696   1.774711   0.000000
    29  H    5.443874   6.589701   6.368741   0.000000
    30  H    5.997621   7.396191   6.794865   1.780126   0.000000
    31  H    4.725700   6.205716   5.875623   1.759398   1.780133
                   31
    31  H    0.000000
 Stoichiometry    C12H16O3
 Framework group  C1[X(C12H16O3)]
 Deg. of freedom    87
 Full point group                 C1      NOp   1
 Largest Abelian subgroup         C1      NOp   1
 Largest concise Abelian subgroup C1      NOp   1
                         Standard orientation:                         
 ---------------------------------------------------------------------
 Center     Atomic      Atomic             Coordinates (Angstroms)
 Number     Number       Type             X           Y           Z
 ---------------------------------------------------------------------
      1          6           0       -2.099828   -0.078158   -1.302181
      2          6           0       -2.729344   -1.215306    1.160322
      3          6           0       -2.943752   -1.188825   -1.240060
      4          6           0       -1.557027    0.480975   -0.132545
      5          6           0       -1.885228   -0.104096    1.099604
      6          6           0       -3.257352   -1.757702   -0.008582
      7          6           0       -0.617598    1.670713   -0.240233
      8          6           0        0.787537    1.289039   -0.742490
      9          6           0        1.452250    0.354286    0.241804
     10          8           0        2.053011   -0.679914   -0.405983
     11          6           0        2.694437   -1.623262    0.460436
     12          8           0       -0.570550    2.422161    0.974322
     13          6           0        1.685221    2.508794   -0.934521
     14          8           0        1.462244    0.534332    1.454574
     15          6           0        3.283828   -2.727078   -0.395565
     16          1           0       -1.871125    0.352419   -2.274983
     17          1           0       -2.975974   -1.654520    2.123590
     18          1           0       -3.358598   -1.608179   -2.152977
     19          1           0       -1.489517    0.299855    2.028867
     20          1           0       -3.916141   -2.620480    0.041476
     21          1           0       -1.064723    2.357284   -0.970981
     22          1           0        0.690996    0.770449   -1.705189
     23          1           0        1.960579   -2.046189    1.155750
     24          1           0        3.491783   -1.124457    1.022568
     25          1           0        0.040322    1.957889    1.581377
     26          1           0        2.664020    2.209437   -1.325538
     27          1           0        1.238604    3.212506   -1.644329
     28          1           0        1.861055    3.037904    0.008447
     29          1           0        2.500708   -3.221021   -0.980268
     30          1           0        3.787031   -3.474731    0.223831
     31          1           0        4.004473   -2.317078   -1.110872
 ---------------------------------------------------------------------
 Rotational constants (GHZ):      0.7316431      0.4486397      0.3459257
 Standard basis: 6-31+G(d,p) (6D, 7F)
 There are   365 symmetry adapted basis functions of A   symmetry.
 Integral buffers will be    131072 words long.
 Raffenetti 2 integral format.
 Two-electron integral symmetry is turned on.
   365 basis functions,   592 primitive gaussians,   365 cartesian basis functions
    56 alpha electrons       56 beta electrons
       nuclear repulsion energy      1017.5796030151 Hartrees.
 NAtoms=   31 NActive=   31 NUniq=   31 SFac= 1.00D+00 NAtFMM=   60 NAOKFM=F Big=F
 Nuclear repulsion after empirical dispersion term =     1017.5587640872 Hartrees.
 ------------------------------------------------------------------------------
 Polarizable Continuum Model (PCM)
 =================================
 Model                : C-PCM.
 Atomic radii         : SMD-Coulomb.
 Polarization charges : Total charges.
 Charge compensation  : None.
 Solution method      : Matrix inversion.
 Cavity type          : VdW (van der Waals Surface) (Alpha=1.000).
 Cavity algorithm     : GePol (No added spheres)
                        Default sphere list used, NSphG=   31.
                        Lebedev-Laikov grids with approx.  5.0 points / Ang**2.
                        Smoothing algorithm: Karplus/York (Gamma=1.0000).
                        Polarization charges: spherical gaussians, with
                                              point-specific exponents (IZeta= 3).
                        Self-potential: point-specific (ISelfS= 7).
                        Self-field    : sphere-specific E.n sum rule (ISelfD= 2).
 Solvent              : Chloroform, Eps=   4.711300 Eps(inf)=   2.090627
 ------------------------------------------------------------------------------
 ------------------------------------------------------------------------------
 Atomic radii for non-electrostatic terms: SMD-CDS.
 ------------------------------------------------------------------------------
 Nuclear repulsion after PCM non-electrostatic terms =     1017.5519839422 Hartrees.
 One-electron integrals computed using PRISM.
 NBasis=   365 RedAO= T  NBF=   365
 NBsUse=   365 1.00D-06 NBFU=   365
 Harris functional with IExCor= 4639 diagonalized for initial guess.
 ExpMin= 4.38D-02 ExpMax= 5.48D+03 ExpMxC= 8.25D+02 IAcc=2 IRadAn=         4 AccDes= 0.00D+00
 HarFok:  IExCor= 4639 AccDes= 0.00D+00 IRadAn=         4 IDoV= 1
 ScaDFX=  1.000000  1.000000  1.000000  1.000000
 FoFCou: FMM=F IPFlag=           0 FMFlag=      100000 FMFlg1=           0
         NFxFlg=           0 DoJE=T BraDBF=F KetDBF=T FulRan=T
         Omega=  0.000000  0.000000  1.000000  0.000000  0.000000 ICntrl=     500 IOpCl=  0
         NMat0=    1 NMatS0=    1 NMatT0=    0 NMatD0=    1 NMtDS0=    0 NMtDT0=    0
         I1Cent=           4 NGrid=           0.
 Petite list used in FoFCou.
 Initial guess orbital symmetries:
       Occupied  (A) (A) (A) (A) (A) (A) (A) (A) (A) (A) (A) (A)
                 (A) (A) (A) (A) (A) (A) (A) (A) (A) (A) (A) (A)
                 (A) (A) (A) (A) (A) (A) (A) (A) (A) (A) (A) (A)
                 (A) (A) (A) (A) (A) (A) (A) (A) (A) (A) (A) (A)
                 (A) (A) (A) (A) (A) (A) (A) (A)
       Virtual   (A) (A) (A) (A) (A) (A) (A) (A) (A) (A) (A) (A)
                 (A) (A) (A) (A) (A) (A) (A) (A) (A) (A) (A) (A)
                 (A) (A) (A) (A) (A) (A) (A) (A) (A) (A) (A) (A)
                 (A) (A) (A) (A) (A) (A) (A) (A) (A) (A) (A) (A)
                 (A) (A) (A) (A) (A) (A) (A) (A) (A) (A) (A) (A)
                 (A) (A) (A) (A) (A) (A) (A) (A) (A) (A) (A) (A)
                 (A) (A) (A) (A) (A) (A) (A) (A) (A) (A) (A) (A)
                 (A) (A) (A) (A) (A) (A) (A) (A) (A) (A) (A) (A)
                 (A) (A) (A) (A) (A) (A) (A) (A) (A) (A) (A) (A)
                 (A) (A) (A) (A) (A) (A) (A) (A) (A) (A) (A) (A)
                 (A) (A) (A) (A) (A) (A) (A) (A) (A) (A) (A) (A)
                 (A) (A) (A) (A) (A) (A) (A) (A) (A) (A) (A) (A)
                 (A) (A) (A) (A) (A) (A) (A) (A) (A) (A) (A) (A)
                 (A) (A) (A) (A) (A) (A) (A) (A) (A) (A) (A) (A)
                 (A) (A) (A) (A) (A) (A) (A) (A) (A) (A) (A) (A)
                 (A) (A) (A) (A) (A) (A) (A) (A) (A) (A) (A) (A)
                 (A) (A) (A) (A) (A) (A) (A) (A) (A) (A) (A) (A)
                 (A) (A) (A) (A) (A) (A) (A) (A) (A) (A) (A) (A)
                 (A) (A) (A) (A) (A) (A) (A) (A) (A) (A) (A) (A)
                 (A) (A) (A) (A) (A) (A) (A) (A) (A) (A) (A) (A)
                 (A) (A) (A) (A) (A) (A) (A) (A) (A) (A) (A) (A)
                 (A) (A) (A) (A) (A) (A) (A) (A) (A) (A) (A) (A)
                 (A) (A) (A) (A) (A) (A) (A) (A) (A) (A) (A) (A)
                 (A) (A) (A) (A) (A) (A) (A) (A) (A) (A) (A) (A)
                 (A) (A) (A) (A) (A) (A) (A) (A) (A) (A) (A) (A)
                 (A) (A) (A) (A) (A) (A) (A) (A) (A)
 The electronic state of the initial guess is 1-A.
 Requested convergence on RMS density matrix=1.00D-08 within 128 cycles.
 Requested convergence on MAX density matrix=1.00D-06.
 Requested convergence on             energy=1.00D-06.
 No special actions if energy rises.
 FoFJK:  IHMeth= 1 ICntrl=     0 DoSepK=T KAlg= 1 I1Cent= 0 FoldK=F
 FoFJK:  IHMeth= 1 ICntrl=     0 DoSepK=T KAlg= 1 I1Cent= 0 FoldK=F
 FoFJK:  IHMeth= 1 ICntrl=     0 DoSepK=T KAlg= 1 I1Cent= 0 FoldK=F
 FoFJK:  IHMeth= 1 ICntrl=     0 DoSepK=T KAlg= 1 I1Cent= 0 FoldK=F
 FoFJK:  IHMeth= 1 ICntrl=     0 DoSepK=T KAlg= 1 I1Cent= 0 FoldK=F
 FoFJK:  IHMeth= 1 ICntrl=     0 DoSepK=T KAlg= 1 I1Cent= 0 FoldK=F
 FoFJK:  IHMeth= 1 ICntrl=     0 DoSepK=T KAlg= 1 I1Cent= 0 FoldK=F
 FoFJK:  IHMeth= 1 ICntrl=     0 DoSepK=T KAlg= 1 I1Cent= 0 FoldK=F
 FoFJK:  IHMeth= 1 ICntrl=     0 DoSepK=T KAlg= 1 I1Cent= 0 FoldK=F
 FoFJK:  IHMeth= 1 ICntrl=     0 DoSepK=T KAlg= 1 I1Cent= 0 FoldK=F
 FoFJK:  IHMeth= 1 ICntrl=     0 DoSepK=T KAlg= 1 I1Cent= 0 FoldK=F
 FoFJK:  IHMeth= 1 ICntrl=     0 DoSepK=T KAlg= 1 I1Cent= 0 FoldK=F
 FoFJK:  IHMeth= 1 ICntrl=     0 DoSepK=T KAlg= 1 I1Cent= 0 FoldK=F
 FoFJK:  IHMeth= 1 ICntrl=     0 DoSepK=T KAlg= 1 I1Cent= 0 FoldK=F
 FoFJK:  IHMeth= 1 ICntrl=     0 DoSepK=T KAlg= 1 I1Cent= 0 FoldK=F
 Error on total polarization charges =  0.04039
 SCF Done:  E(RwB97XD) =  -692.448819735     A.U. after   15 cycles
             Convg  =    0.8020D-08             -V/T =  2.0095
 SMD-CDS (non-electrostatic) energy       (kcal/mol) =      -4.25
 (included in total energy above)
 Range of M.O.s used for correlation:     1   365
 NBasis=   365 NAE=    56 NBE=    56 NFC=     0 NFV=     0
 NROrb=    365 NOA=    56 NOB=    56 NVA=   309 NVB=   309

 **** Warning!!: The largest alpha MO coefficient is  0.11497619D+03

 NEqPCM:  Using equilibrium solvation (IEInf=0, Eps=   4.7113, EpsInf=   2.0906)
          Differentiating once with respect to magnetic field using GIAOs.
          Electric field/nuclear overlap derivatives assumed to be zero.
 FoFCou: FMM=F IPFlag=           0 FMFlag=    10101102 FMFlg1=           0
         NFxFlg=    40000000 DoJE=F BraDBF=F KetDBF=T FulRan=T
         Omega=  0.000000  0.000000  1.000000  0.000000  0.000000 ICntrl=    6100 IOpCl=  0
         NMat0=    1 NMatS0=    1 NMatT0=    0 NMatD0=    1 NMtDS0=    0 NMtDT0=    0
         I1Cent=           7 NGrid=        2262.
 Symmetry not used in FoFCou.
 FoFJK:  IHMeth= 1 ICntrl=  6127 DoSepK=T KAlg= 1 I1Cent= 0 FoldK=F
 FoFJK:  IHMeth= 1 ICntrl=     0 DoSepK=T KAlg= 1 I1Cent= 0 FoldK=F
          There are     3 degrees of freedom in the 1st order CPHF.  IDoFFX=0.
      3 vectors produced by pass  0 Test12= 5.77D-13 3.33D-08 XBig12= 1.52D+02 3.02D+00.
 AX will form     3 AO Fock derivatives at one time.
 FoFJK:  IHMeth= 1 ICntrl=     0 DoSepK=T KAlg= 1 I1Cent= 0 FoldK=F
      3 vectors produced by pass  1 Test12= 5.77D-13 3.33D-08 XBig12= 1.06D+00 2.76D-01.
 FoFJK:  IHMeth= 1 ICntrl=     0 DoSepK=T KAlg= 1 I1Cent= 0 FoldK=F
      3 vectors produced by pass  2 Test12= 5.77D-13 3.33D-08 XBig12= 1.96D-02 5.03D-02.
 FoFJK:  IHMeth= 1 ICntrl=     0 DoSepK=T KAlg= 1 I1Cent= 0 FoldK=F
      3 vectors produced by pass  3 Test12= 5.77D-13 3.33D-08 XBig12= 2.54D-04 5.30D-03.
 FoFJK:  IHMeth= 1 ICntrl=     0 DoSepK=T KAlg= 1 I1Cent= 0 FoldK=F
      3 vectors produced by pass  4 Test12= 5.77D-13 3.33D-08 XBig12= 3.97D-06 6.17D-04.
 FoFJK:  IHMeth= 1 ICntrl=     0 DoSepK=T KAlg= 1 I1Cent= 0 FoldK=F
      3 vectors produced by pass  5 Test12= 5.77D-13 3.33D-08 XBig12= 7.28D-08 8.25D-05.
 FoFJK:  IHMeth= 1 ICntrl=     0 DoSepK=T KAlg= 1 I1Cent= 0 FoldK=F
      3 vectors produced by pass  6 Test12= 5.77D-13 3.33D-08 XBig12= 1.09D-09 8.22D-06.
 FoFJK:  IHMeth= 1 ICntrl=     0 DoSepK=T KAlg= 1 I1Cent= 0 FoldK=F
      3 vectors produced by pass  7 Test12= 5.77D-13 3.33D-08 XBig12= 1.24D-11 1.21D-06.
 FoFJK:  IHMeth= 1 ICntrl=     0 DoSepK=T KAlg= 1 I1Cent= 0 FoldK=F
      3 vectors produced by pass  8 Test12= 5.77D-13 3.33D-08 XBig12= 1.45D-13 1.17D-07.
 FoFJK:  IHMeth= 1 ICntrl=     0 DoSepK=T KAlg= 1 I1Cent= 0 FoldK=F
 Inverted reduced A of dimension    27 with in-core refinement.
 Calculating GIAO nuclear magnetic shielding tensors.
 SCF GIAO Magnetic shielding tensor (ppm):
      1  C    Isotropic =    72.1324   Anisotropy =   168.7801
   XX=   128.5119   YX=   -73.0494   ZX=     3.9065
   XY=   -64.2263   YY=    96.9064   ZY=    33.9673
   XZ=    11.5384   YZ=    39.2295   ZZ=    -9.0211
   Eigenvalues:   -26.5989    58.3435   184.6525
      2  C    Isotropic =    70.0975   Anisotropy =   175.8099
   XX=   134.6303   YX=   -70.8554   ZX=     8.2229
   XY=   -70.2582   YY=    89.2323   ZY=    39.3604
   XZ=    10.5556   YZ=    39.0579   ZZ=   -13.5701
   Eigenvalues:   -33.9611    56.9496   187.3041
      3  C    Isotropic =    70.8268   Anisotropy =   174.2294
   XX=   126.0483   YX=   -75.2869   ZX=   -35.1672
   XY=   -74.7252   YY=    91.9334   ZY=   -22.7004
   XZ=   -37.2219   YZ=   -23.3220   ZZ=    -5.5012
   Eigenvalues:   -32.0523    57.5530   186.9797
      4  C    Isotropic =    51.4393   Anisotropy =   182.2182
   XX=    93.8897   YX=   -96.8926   ZX=   -18.4448
   XY=   -99.8685   YY=    43.3334   ZY=    17.7338
   XZ=   -10.1224   YZ=    12.7343   ZZ=    17.0948
   Eigenvalues:   -33.1885    14.5883   172.9181
      5  C    Isotropic =    73.0259   Anisotropy =   180.7575
   XX=   127.8327   YX=   -83.7304   ZX=   -30.5776
   XY=   -72.4243   YY=    99.1325   ZY=   -20.4808
   XZ=   -30.6205   YZ=   -17.5360   ZZ=    -7.8875
   Eigenvalues:   -27.4604    53.0071   193.5309
      6  C    Isotropic =    72.9717   Anisotropy =   175.3354
   XX=   111.0618   YX=  -101.8024   ZX=    -5.1209
   XY=  -107.1859   YY=    49.1158   ZY=    10.3140
   XZ=    -5.8962   YZ=     8.8408   ZZ=    58.7375
   Eigenvalues:   -29.1185    58.1717   189.8620
      7  C    Isotropic =   120.2012   Anisotropy =    37.2588
   XX=   109.7187   YX=     9.3499   ZX=     5.8047
   XY=     4.7637   YY=   116.5749   ZY=    20.6437
   XZ=    -3.6189   YZ=    12.9432   ZZ=   134.3101
   Eigenvalues:   102.1851   113.3781   145.0404
      8  C    Isotropic =   147.9182   Anisotropy =    15.2475
   XX=   156.4900   YX=     3.7080   ZX=     0.4311
   XY=    -9.7685   YY=   144.7663   ZY=     3.8376
   XZ=     6.4516   YZ=    -6.4415   ZZ=   142.4983
   Eigenvalues:   141.5642   144.1072   158.0832
      9  C    Isotropic =    16.1327   Anisotropy =   109.0442
   XX=    43.1789   YX=    70.9593   ZX=    -4.7197
   XY=    70.3939   YY=   -21.7133   ZY=     3.3571
   XZ=     8.9650   YZ=   -26.5565   ZZ=    26.9324
   Eigenvalues:   -68.2874    27.8567    88.8288
     10  O    Isotropic =   123.5737   Anisotropy =   172.7004
   XX=   188.1699   YX=     6.5088   ZX=   -30.7265
   XY=   -10.8484   YY=   202.7103   ZY=    18.4304
   XZ=   -99.3525   YZ=   134.5914   ZZ=   -20.1592
   Eigenvalues:   -59.2695   191.2833   238.7072
     11  C    Isotropic =   137.2157   Anisotropy =    59.0627
   XX=   129.2308   YX=   -20.3639   ZX=    16.9465
   XY=   -20.6604   YY=   144.7126   ZY=   -25.8987
   XZ=    12.6951   YZ=   -17.3891   ZZ=   137.7039
   Eigenvalues:   115.0454   120.0109   176.5909
     12  O    Isotropic =   307.5354   Anisotropy =    29.1863
   XX=   315.1569   YX=    -8.3924   ZX=     3.6695
   XY=   -16.7749   YY=   308.0960   ZY=    -6.0449
   XZ=     6.5288   YZ=    -6.8112   ZZ=   299.3535
   Eigenvalues:   295.7099   299.9035   326.9930
     13  C    Isotropic =   179.3492   Anisotropy =    29.6938
   XX=   179.4411   YX=    11.7970   ZX=    -3.9276
   XY=    11.8128   YY=   188.0052   ZY=    -9.3915
   XZ=    -1.4274   YZ=    -8.8125   ZZ=   170.6014
   Eigenvalues:   166.1058   172.7968   199.1451
     14  O    Isotropic =   -32.8737   Anisotropy =   527.9491
   XX=   177.9922   YX=   223.7133   ZX=   -52.8926
   XY=   216.9555   YY=   -56.7064   ZY=   -97.8971
   XZ=     3.3042   YZ=   -85.1890   ZZ=  -219.9068
   Eigenvalues:  -276.9665  -140.7469   319.0924
     15  C    Isotropic =   182.9741   Anisotropy =    23.4031
   XX=   176.2085   YX=   -11.5351   ZX=    -0.2247
   XY=   -12.3975   YY=   188.5402   ZY=     3.0142
   XZ=    -3.8988   YZ=     9.1536   ZZ=   184.1737
   Eigenvalues:   168.7711   181.5751   198.5762
     16  H    Isotropic =    23.8515   Anisotropy =     8.4366
   XX=    24.4946   YX=     3.7425   ZX=     3.2377
   XY=     3.7769   YY=    23.6303   ZY=     1.5927
   XZ=     2.4607   YZ=     1.3958   ZZ=    23.4296
   Eigenvalues:    19.9994    22.0793    29.4759
     17  H    Isotropic =    23.7902   Anisotropy =     5.1529
   XX=    23.4084   YX=     3.2218   ZX=     0.4549
   XY=     3.2926   YY=    24.0303   ZY=     0.6229
   XZ=     0.5559   YZ=     0.8315   ZZ=    23.9321
   Eigenvalues:    20.4433    23.7019    27.2255
     18  H    Isotropic =    23.8009   Anisotropy =     4.7648
   XX=    23.1067   YX=     2.9732   ZX=    -0.1823
   XY=     3.0801   YY=    23.9859   ZY=    -1.1737
   XZ=    -0.1518   YZ=    -1.1435   ZZ=    24.3100
   Eigenvalues:    20.3820    24.0431    26.9774
     19  H    Isotropic =    23.7481   Anisotropy =     9.4807
   XX=    23.8692   YX=     3.7184   ZX=    -3.4196
   XY=     4.2168   YY=    24.3291   ZY=    -2.3826
   XZ=    -2.4142   YZ=    -2.3882   ZZ=    23.0458
   Eigenvalues:    19.9540    21.2216    30.0685
     20  H    Isotropic =    23.8752   Anisotropy =     4.0856
   XX=    22.5526   YX=     2.1666   ZX=     0.4246
   XY=     2.0104   YY=    22.5193   ZY=    -0.2015
   XZ=     0.4274   YZ=    -0.1772   ZZ=    26.5537
   Eigenvalues:    20.4166    24.6101    26.5989
     21  H    Isotropic =    26.7843   Anisotropy =     6.5483
   XX=    25.4588   YX=    -1.2577   ZX=     3.6295
   XY=     1.2345   YY=    26.4484   ZY=    -0.9284
   XZ=     3.8803   YZ=    -1.1209   ZZ=    28.4457
   Eigenvalues:    22.8208    26.3823    31.1499
     22  H    Isotropic =    28.6123   Anisotropy =     4.6654
   XX=    28.2425   YX=     2.1435   ZX=     0.2484
   XY=    -0.4909   YY=    28.0126   ZY=     2.7483
   XZ=    -0.2344   YZ=     2.7337   ZZ=    29.5817
   Eigenvalues:    25.7692    28.3451    31.7225
     23  H    Isotropic =    28.0316   Anisotropy =     5.0812
   XX=    27.1730   YX=    -2.0774   ZX=    -1.7448
   XY=    -2.2561   YY=    29.1025   ZY=    -3.5765
   XZ=    -3.3402   YZ=    -2.1903   ZZ=    27.8193
   Eigenvalues:    22.8982    29.7776    31.4191
     24  H    Isotropic =    27.7318   Anisotropy =     6.8757
   XX=    29.2704   YX=    -1.4173   ZX=     4.1654
   XY=    -2.7913   YY=    27.1209   ZY=     0.8167
   XZ=     3.7269   YZ=     2.1967   ZZ=    26.8042
   Eigenvalues:    22.5569    28.3230    32.3156
     25  H    Isotropic =    26.8167   Anisotropy =    18.3673
   XX=    26.2434   YX=    -6.5534   ZX=     7.7566
   XY=    -6.6472   YY=    23.1032   ZY=    -3.0581
   XZ=     7.1222   YZ=    -2.8043   ZZ=    31.1035
   Eigenvalues:    17.3334    24.0551    39.0616
     26  H    Isotropic =    30.3414   Anisotropy =     9.4378
   XX=    34.7381   YX=     0.6433   ZX=    -4.4446
   XY=     0.8069   YY=    28.8455   ZY=    -1.0080
   XZ=    -3.5741   YZ=    -0.5443   ZZ=    27.4405
   Eigenvalues:    25.6129    28.7779    36.6332
     27  H    Isotropic =    30.2074   Anisotropy =    10.4419
   XX=    27.3755   YX=     0.7094   ZX=     0.4330
   XY=    -0.7376   YY=    32.4637   ZY=    -5.5368
   XZ=     0.7487   YZ=    -5.3934   ZZ=    30.7830
   Eigenvalues:    25.9567    27.4968    37.1687
     28  H    Isotropic =    29.8801   Anisotropy =     6.9198
   XX=    28.3412   YX=     4.0911   ZX=     0.6219
   XY=     2.4805   YY=    30.5054   ZY=     3.2668
   XZ=     0.0149   YZ=     2.1287   ZZ=    30.7937
   Eigenvalues:    25.5707    29.5763    34.4933
     29  H    Isotropic =    30.7109   Anisotropy =     7.5740
   XX=    31.0729   YX=     1.3300   ZX=     1.6611
   XY=     1.2420   YY=    31.6920   ZY=     4.0446
   XZ=     2.7577   YZ=     3.6607   ZZ=    29.3679
   Eigenvalues:    26.2614    30.1111    35.7602
     30  H    Isotropic =    30.6193   Anisotropy =    11.0796
   XX=    29.7396   YX=    -4.8895   ZX=     1.9371
   XY=    -5.1437   YY=    33.4730   ZY=    -2.8073
   XZ=     1.6058   YZ=    -2.3541   ZZ=    28.6453
   Eigenvalues:    26.2534    27.5988    38.0057
     31  H    Isotropic =    30.5267   Anisotropy =     8.8731
   XX=    32.2987   YX=     0.0013   ZX=    -4.8634
   XY=    -0.4750   YY=    28.6265   ZY=     0.2384
   XZ=    -4.9301   YZ=    -0.8536   ZZ=    30.6548
   Eigenvalues:    26.4426    28.6953    36.4420
 End of Minotr Frequency-dependent properties file   721 does not exist.
 End of Minotr Frequency-dependent properties file   722 does not exist.

 **********************************************************************

            Population analysis using the SCF density.

 **********************************************************************

 Orbital symmetries:
       Occupied  (A) (A) (A) (A) (A) (A) (A) (A) (A) (A) (A) (A)
                 (A) (A) (A) (A) (A) (A) (A) (A) (A) (A) (A) (A)
                 (A) (A) (A) (A) (A) (A) (A) (A) (A) (A) (A) (A)
                 (A) (A) (A) (A) (A) (A) (A) (A) (A) (A) (A) (A)
                 (A) (A) (A) (A) (A) (A) (A) (A)
       Virtual   (A) (A) (A) (A) (A) (A) (A) (A) (A) (A) (A) (A)
                 (A) (A) (A) (A) (A) (A) (A) (A) (A) (A) (A) (A)
                 (A) (A) (A) (A) (A) (A) (A) (A) (A) (A) (A) (A)
                 (A) (A) (A) (A) (A) (A) (A) (A) (A) (A) (A) (A)
                 (A) (A) (A) (A) (A) (A) (A) (A) (A) (A) (A) (A)
                 (A) (A) (A) (A) (A) (A) (A) (A) (A) (A) (A) (A)
                 (A) (A) (A) (A) (A) (A) (A) (A) (A) (A) (A) (A)
                 (A) (A) (A) (A) (A) (A) (A) (A) (A) (A) (A) (A)
                 (A) (A) (A) (A) (A) (A) (A) (A) (A) (A) (A) (A)
                 (A) (A) (A) (A) (A) (A) (A) (A) (A) (A) (A) (A)
                 (A) (A) (A) (A) (A) (A) (A) (A) (A) (A) (A) (A)
                 (A) (A) (A) (A) (A) (A) (A) (A) (A) (A) (A) (A)
                 (A) (A) (A) (A) (A) (A) (A) (A) (A) (A) (A) (A)
                 (A) (A) (A) (A) (A) (A) (A) (A) (A) (A) (A) (A)
                 (A) (A) (A) (A) (A) (A) (A) (A) (A) (A) (A) (A)
                 (A) (A) (A) (A) (A) (A) (A) (A) (A) (A) (A) (A)
                 (A) (A) (A) (A) (A) (A) (A) (A) (A) (A) (A) (A)
                 (A) (A) (A) (A) (A) (A) (A) (A) (A) (A) (A) (A)
                 (A) (A) (A) (A) (A) (A) (A) (A) (A) (A) (A) (A)
                 (A) (A) (A) (A) (A) (A) (A) (A) (A) (A) (A) (A)
                 (A) (A) (A) (A) (A) (A) (A) (A) (A) (A) (A) (A)
                 (A) (A) (A) (A) (A) (A) (A) (A) (A) (A) (A) (A)
                 (A) (A) (A) (A) (A) (A) (A) (A) (A) (A) (A) (A)
                 (A) (A) (A) (A) (A) (A) (A) (A) (A) (A) (A) (A)
                 (A) (A) (A) (A) (A) (A) (A) (A) (A) (A) (A) (A)
                 (A) (A) (A) (A) (A) (A) (A) (A) (A)
 The electronic state is 1-A.
 Alpha  occ. eigenvalues --  -19.33559 -19.28720 -19.27489 -10.44748 -10.36006
 Alpha  occ. eigenvalues --  -10.35260 -10.32153 -10.31408 -10.30644 -10.30567
 Alpha  occ. eigenvalues --  -10.30514 -10.30446 -10.30334 -10.29355 -10.28963
 Alpha  occ. eigenvalues --   -1.21876  -1.13926  -1.12030  -0.96081  -0.91594
 Alpha  occ. eigenvalues --   -0.87074  -0.85503  -0.84568  -0.77813  -0.76163
 Alpha  occ. eigenvalues --   -0.70726  -0.69903  -0.67952  -0.66400  -0.61445
 Alpha  occ. eigenvalues --   -0.60759  -0.59141  -0.57547  -0.56577  -0.54919
 Alpha  occ. eigenvalues --   -0.54552  -0.52744  -0.51733  -0.50786  -0.50209
 Alpha  occ. eigenvalues --   -0.48799  -0.47776  -0.46880  -0.46524  -0.45840
 Alpha  occ. eigenvalues --   -0.44913  -0.44055  -0.43684  -0.42686  -0.42077
 Alpha  occ. eigenvalues --   -0.41465  -0.39497  -0.37037  -0.36336  -0.33133
 Alpha  occ. eigenvalues --   -0.32313
 Alpha virt. eigenvalues --    0.05068   0.05626   0.06213   0.06645   0.07719
 Alpha virt. eigenvalues --    0.08351   0.08678   0.09617   0.09972   0.10342
 Alpha virt. eigenvalues --    0.10513   0.10758   0.11154   0.11944   0.12838
 Alpha virt. eigenvalues --    0.13392   0.13668   0.13997   0.14885   0.15166
 Alpha virt. eigenvalues --    0.15494   0.16073   0.16780   0.17248   0.18192
 Alpha virt. eigenvalues --    0.18805   0.19146   0.19347   0.19868   0.20342
 Alpha virt. eigenvalues --    0.21030   0.21186   0.21731   0.22288   0.22580
 Alpha virt. eigenvalues --    0.23467   0.23776   0.24113   0.24457   0.24813
 Alpha virt. eigenvalues --    0.25605   0.26145   0.26261   0.26610   0.26998
 Alpha virt. eigenvalues --    0.27435   0.27624   0.28335   0.28547   0.28829
 Alpha virt. eigenvalues --    0.29379   0.30044   0.30400   0.30727   0.31144
 Alpha virt. eigenvalues --    0.31379   0.31763   0.32344   0.32841   0.33123
 Alpha virt. eigenvalues --    0.33683   0.34301   0.34596   0.35142   0.35427
 Alpha virt. eigenvalues --    0.36289   0.37087   0.37586   0.38216   0.38275
 Alpha virt. eigenvalues --    0.39018   0.39688   0.40169   0.41614   0.41755
 Alpha virt. eigenvalues --    0.42937   0.43130   0.43747   0.44106   0.44811
 Alpha virt. eigenvalues --    0.45317   0.45760   0.46561   0.47891   0.48459
 Alpha virt. eigenvalues --    0.49448   0.50244   0.51838   0.52539   0.53491
 Alpha virt. eigenvalues --    0.54927   0.58684   0.61558   0.66043   0.70495
 Alpha virt. eigenvalues --    0.72817   0.74048   0.74523   0.75388   0.76156
 Alpha virt. eigenvalues --    0.77582   0.78514   0.78948   0.80714   0.81040
 Alpha virt. eigenvalues --    0.81213   0.82366   0.82916   0.83400   0.83675
 Alpha virt. eigenvalues --    0.84381   0.85743   0.87278   0.87544   0.89891
 Alpha virt. eigenvalues --    0.90735   0.92359   0.94107   0.94542   0.95647
 Alpha virt. eigenvalues --    0.97912   0.99243   0.99839   1.01276   1.02531
 Alpha virt. eigenvalues --    1.03120   1.03933   1.04984   1.06571   1.07140
 Alpha virt. eigenvalues --    1.08512   1.09065   1.09833   1.10496   1.11127
 Alpha virt. eigenvalues --    1.12948   1.14735   1.17149   1.18332   1.19274
 Alpha virt. eigenvalues --    1.20370   1.21536   1.22330   1.22912   1.24506
 Alpha virt. eigenvalues --    1.25968   1.27072   1.27320   1.29335   1.29661
 Alpha virt. eigenvalues --    1.32091   1.32705   1.34581   1.35270   1.37919
 Alpha virt. eigenvalues --    1.38687   1.40123   1.42846   1.43413   1.45317
 Alpha virt. eigenvalues --    1.45780   1.46803   1.48778   1.49945   1.50575
 Alpha virt. eigenvalues --    1.51324   1.51853   1.52154   1.55334   1.56380
 Alpha virt. eigenvalues --    1.57843   1.59625   1.60920   1.61704   1.63949
 Alpha virt. eigenvalues --    1.68168   1.70323   1.71790   1.74090   1.76609
 Alpha virt. eigenvalues --    1.79955   1.82387   1.83165   1.87031   1.87506
 Alpha virt. eigenvalues --    1.89408   1.90802   1.92369   1.94847   1.95321
 Alpha virt. eigenvalues --    1.96920   1.97212   1.98718   2.00924   2.01166
 Alpha virt. eigenvalues --    2.02208   2.02852   2.04879   2.05411   2.05970
 Alpha virt. eigenvalues --    2.07404   2.08394   2.10305   2.10811   2.11377
 Alpha virt. eigenvalues --    2.12365   2.12998   2.13696   2.16628   2.17926
 Alpha virt. eigenvalues --    2.18039   2.19796   2.20212   2.20721   2.21881
 Alpha virt. eigenvalues --    2.22308   2.22673   2.26728   2.28515   2.29241
 Alpha virt. eigenvalues --    2.30703   2.36373   2.36937   2.39048   2.39280
 Alpha virt. eigenvalues --    2.40410   2.43051   2.44212   2.48191   2.48341
 Alpha virt. eigenvalues --    2.48962   2.49455   2.50882   2.52646   2.53900
 Alpha virt. eigenvalues --    2.56260   2.56657   2.59435   2.59800   2.61042
 Alpha virt. eigenvalues --    2.62852   2.64101   2.66810   2.68261   2.69150
 Alpha virt. eigenvalues --    2.69629   2.71325   2.72963   2.73420   2.73552
 Alpha virt. eigenvalues --    2.77008   2.77544   2.79347   2.83442   2.83737
 Alpha virt. eigenvalues --    2.84069   2.84847   2.86262   2.87245   2.89285
 Alpha virt. eigenvalues --    2.91347   2.91719   2.92761   2.96944   2.99021
 Alpha virt. eigenvalues --    2.99748   3.01221   3.04319   3.04796   3.11265
 Alpha virt. eigenvalues --    3.13775   3.15197   3.15807   3.19720   3.26722
 Alpha virt. eigenvalues --    3.28107   3.29912   3.36050   3.37511   3.38180
 Alpha virt. eigenvalues --    3.38830   3.44079   3.45396   3.49021   3.50865
 Alpha virt. eigenvalues --    3.54216   3.56927   3.58622   3.59058   3.62695
 Alpha virt. eigenvalues --    3.63834   3.64731   3.72976   3.99399   4.41340
 Alpha virt. eigenvalues --    4.41712   4.43317   4.51303   4.55501   4.56613
 Alpha virt. eigenvalues --    4.58863   4.61830   4.62646   4.66783   4.75592
 Alpha virt. eigenvalues --    4.77371   4.81337   4.95273   4.97988
          Condensed to atoms (all electrons):
              1          2          3          4          5          6
     1  C   19.581304  -0.773602  -1.103682  -7.493811  -8.108193   1.004041
     2  C   -0.773602   8.337337   0.134561  -0.358084  -1.778462   0.600865
     3  C   -1.103682   0.134561   6.371014   0.626512   0.020393   0.240876
     4  C   -7.493811  -0.358084   0.626512  17.890622   0.232793  -1.190267
     5  C   -8.108193  -1.778462   0.020393   0.232793  17.016008  -0.475672
     6  C    1.004041   0.600865   0.240876  -1.190267  -0.475672   5.581158
     7  C    3.996854  -0.489241  -0.464011  -4.764914  -1.693213   0.151820
     8  C   -0.804467   0.059856   0.053269   1.069782   0.457401  -0.031959
     9  C   -0.212135   0.000380   0.043860   0.185303   0.107333   0.013776
    10  O   -0.065588   0.010961   0.000917   0.025966   0.027990  -0.004204
    11  C   -0.042403  -0.009429   0.011808  -0.024905   0.057101  -0.008368
    12  O   -0.095102   0.139140  -0.007353   0.015641  -0.130043   0.001178
    13  C    0.028928   0.085119  -0.050234  -0.375664  -0.018548  -0.001356
    14  O    0.030585  -0.019376   0.003130   0.096898  -0.087333  -0.003934
    15  C   -0.030977  -0.012204   0.000866  -0.007611   0.041098  -0.002609
    16  H    0.132638   0.002036   0.034626   0.089537   0.038918  -0.011905
    17  H    0.002732   0.271141  -0.005669   0.021796   0.019052   0.019067
    18  H    0.012526   0.000385   0.274282   0.029880  -0.000031   0.012404
    19  H    0.009566   0.035177   0.007385   0.151939   0.126550  -0.017608
    20  H    0.000056   0.020004   0.018874   0.000355   0.003030   0.283001
    21  H    0.058337   0.026988   0.030043   0.069394  -0.074627  -0.002265
    22  H   -0.024260  -0.003968  -0.001499   0.013028  -0.004927  -0.001675
    23  H   -0.002765  -0.002799  -0.000186  -0.007500   0.011659  -0.000149
    24  H    0.000386   0.000241   0.000008   0.000172  -0.001245   0.000004
    25  H   -0.032231   0.028363   0.003948  -0.068162   0.046212  -0.001777
    26  H   -0.003514  -0.000243  -0.000087  -0.003238   0.000639   0.000016
    27  H    0.011350   0.000521   0.001518  -0.003241  -0.003271   0.000007
    28  H   -0.000765  -0.000089  -0.000004  -0.003982  -0.002043  -0.000088
    29  H    0.001332  -0.000282  -0.000314  -0.001821  -0.000013   0.000248
    30  H    0.000004  -0.000005  -0.000012  -0.000086   0.000041   0.000001
    31  H   -0.000400   0.000000   0.000006   0.000162   0.000311  -0.000005
              7          8          9         10         11         12
     1  C    3.996854  -0.804467  -0.212135  -0.065588  -0.042403  -0.095102
     2  C   -0.489241   0.059856   0.000380   0.010961  -0.009429   0.139140
     3  C   -0.464011   0.053269   0.043860   0.000917   0.011808  -0.007353
     4  C   -4.764914   1.069782   0.185303   0.025966  -0.024905   0.015641
     5  C   -1.693213   0.457401   0.107333   0.027990   0.057101  -0.130043
     6  C    0.151820  -0.031959   0.013776  -0.004204  -0.008368   0.001178
     7  C    9.982469  -1.649087  -0.016756   0.009608  -0.006404   0.273349
     8  C   -1.649087   8.717747  -0.978915  -0.326159   0.002271   0.039368
     9  C   -0.016756  -0.978915   6.252259   0.393807  -0.145595  -0.048558
    10  O    0.009608  -0.326159   0.393807   8.399900   0.023831  -0.000900
    11  C   -0.006404   0.002271  -0.145595   0.023831   5.320508   0.002313
    12  O    0.273349   0.039368  -0.048558  -0.000900   0.002313   8.163971
    13  C    0.524747  -0.765257  -0.170581  -0.000051  -0.000759  -0.053427
    14  O    0.018147  -0.034215   0.557225  -0.156192  -0.045194  -0.025617
    15  C    0.014992  -0.056859   0.028798  -0.016210   0.125897   0.000780
    16  H    0.009376   0.008382   0.000427  -0.000259   0.000129   0.000557
    17  H   -0.002203  -0.000138   0.000792  -0.000021  -0.000091   0.000088
    18  H   -0.003811   0.000373   0.000393  -0.000013  -0.000017   0.000022
    19  H   -0.009408   0.008347  -0.001357  -0.000431  -0.005467   0.011870
    20  H    0.001599  -0.000411  -0.000194   0.000007   0.000065  -0.000006
    21  H    0.249907  -0.043625   0.017888  -0.000319   0.000527  -0.055257
    22  H   -0.008385   0.382376  -0.033900  -0.005044  -0.001315   0.008535
    23  H    0.002931  -0.016237  -0.025725  -0.037921   0.408041   0.000024
    24  H    0.000471  -0.005393   0.008929  -0.043682   0.394004   0.000013
    25  H    0.022481  -0.074136   0.053842   0.000684   0.004535   0.254439
    26  H    0.032661  -0.167453   0.036116   0.003592   0.001933  -0.000271
    27  H   -0.004712  -0.091062   0.003230   0.000134   0.000825  -0.001551
    28  H   -0.008037  -0.040431  -0.023173   0.000173  -0.001079   0.004737
    29  H    0.001148  -0.004911   0.005176  -0.003297  -0.059815   0.000000
    30  H    0.000144  -0.000285   0.002834   0.006658  -0.056327   0.000000
    31  H   -0.000368  -0.003567  -0.002610  -0.002093  -0.062009   0.000000
             13         14         15         16         17         18
     1  C    0.028928   0.030585  -0.030977   0.132638   0.002732   0.012526
     2  C    0.085119  -0.019376  -0.012204   0.002036   0.271141   0.000385
     3  C   -0.050234   0.003130   0.000866   0.034626  -0.005669   0.274282
     4  C   -0.375664   0.096898  -0.007611   0.089537   0.021796   0.029880
     5  C   -0.018548  -0.087333   0.041098   0.038918   0.019052  -0.000031
     6  C   -0.001356  -0.003934  -0.002609  -0.011905   0.019067   0.012404
     7  C    0.524747   0.018147   0.014992   0.009376  -0.002203  -0.003811
     8  C   -0.765257  -0.034215  -0.056859   0.008382  -0.000138   0.000373
     9  C   -0.170581   0.557225   0.028798   0.000427   0.000792   0.000393
    10  O   -0.000051  -0.156192  -0.016210  -0.000259  -0.000021  -0.000013
    11  C   -0.000759  -0.045194   0.125897   0.000129  -0.000091  -0.000017
    12  O   -0.053427  -0.025617   0.000780   0.000557   0.000088   0.000022
    13  C    6.176183  -0.076791  -0.009387   0.012301   0.000071   0.000108
    14  O   -0.076791   8.149372   0.007072  -0.000031  -0.000032   0.000001
    15  C   -0.009387   0.007072   5.322496   0.000066  -0.000060   0.000011
    16  H    0.012301  -0.000031   0.000066   0.512947   0.000012  -0.003886
    17  H    0.000071  -0.000032  -0.000060   0.000012   0.498364  -0.000123
    18  H    0.000108   0.000001   0.000011  -0.003886  -0.000123   0.497728
    19  H    0.001567   0.000657  -0.000506  -0.000110  -0.004200   0.000012
    20  H   -0.000030   0.000000   0.000017  -0.000124  -0.003836  -0.003846
    21  H   -0.011120   0.000600  -0.000111   0.001216   0.000002  -0.000001
    22  H   -0.032712   0.009038  -0.000058  -0.000168   0.000000   0.000001
    23  H    0.001166   0.004418  -0.004870   0.000000  -0.000001   0.000000
    24  H   -0.001895   0.001918  -0.023163   0.000000   0.000000   0.000000
    25  H   -0.006294   0.030065   0.000182  -0.000009  -0.000002   0.000000
    26  H    0.460417  -0.001427  -0.000070   0.000003   0.000000   0.000000
    27  H    0.445107   0.000084  -0.000117   0.000002   0.000000   0.000000
    28  H    0.427007   0.004861   0.000241   0.000000   0.000000   0.000000
    29  H    0.000209  -0.000136   0.425528   0.000000   0.000000   0.000000
    30  H    0.000022   0.000101   0.414005   0.000000   0.000000   0.000000
    31  H   -0.000009  -0.000070   0.434325   0.000000   0.000000   0.000000
             19         20         21         22         23         24
     1  C    0.009566   0.000056   0.058337  -0.024260  -0.002765   0.000386
     2  C    0.035177   0.020004   0.026988  -0.003968  -0.002799   0.000241
     3  C    0.007385   0.018874   0.030043  -0.001499  -0.000186   0.000008
     4  C    0.151939   0.000355   0.069394   0.013028  -0.007500   0.000172
     5  C    0.126550   0.003030  -0.074627  -0.004927   0.011659  -0.001245
     6  C   -0.017608   0.283001  -0.002265  -0.001675  -0.000149   0.000004
     7  C   -0.009408   0.001599   0.249907  -0.008385   0.002931   0.000471
     8  C    0.008347  -0.000411  -0.043625   0.382376  -0.016237  -0.005393
     9  C   -0.001357  -0.000194   0.017888  -0.033900  -0.025725   0.008929
    10  O   -0.000431   0.000007  -0.000319  -0.005044  -0.037921  -0.043682
    11  C   -0.005467   0.000065   0.000527  -0.001315   0.408041   0.394004
    12  O    0.011870  -0.000006  -0.055257   0.008535   0.000024   0.000013
    13  C    0.001567  -0.000030  -0.011120  -0.032712   0.001166  -0.001895
    14  O    0.000657   0.000000   0.000600   0.009038   0.004418   0.001918
    15  C   -0.000506   0.000017  -0.000111  -0.000058  -0.004870  -0.023163
    16  H   -0.000110  -0.000124   0.001216  -0.000168   0.000000   0.000000
    17  H   -0.004200  -0.003836   0.000002   0.000000  -0.000001   0.000000
    18  H    0.000012  -0.003846  -0.000001   0.000001   0.000000   0.000000
    19  H    0.521889  -0.000127   0.000059   0.000003  -0.000018   0.000001
    20  H   -0.000127   0.500236   0.000000   0.000000   0.000000   0.000000
    21  H    0.000059   0.000000   0.560085  -0.002311   0.000000   0.000000
    22  H    0.000003   0.000000  -0.002311   0.510068   0.000001  -0.000007
    23  H   -0.000018   0.000000   0.000000   0.000001   0.525971  -0.033754
    24  H    0.000001   0.000000   0.000000  -0.000007  -0.033754   0.527359
    25  H   -0.000906   0.000000   0.005992  -0.000039  -0.000006  -0.000001
    26  H    0.000000   0.000000   0.000030  -0.003823   0.000000   0.000000
    27  H    0.000000   0.000000   0.004025  -0.003375   0.000000   0.000000
    28  H    0.000000   0.000000  -0.000051   0.003820   0.000001  -0.000005
    29  H    0.000000   0.000000   0.000000  -0.000004  -0.005184   0.003955
    30  H    0.000000   0.000000   0.000000   0.000000  -0.001719  -0.001708
    31  H    0.000000   0.000000   0.000000   0.000001   0.003940  -0.005134
             25         26         27         28         29         30
     1  C   -0.032231  -0.003514   0.011350  -0.000765   0.001332   0.000004
     2  C    0.028363  -0.000243   0.000521  -0.000089  -0.000282  -0.000005
     3  C    0.003948  -0.000087   0.001518  -0.000004  -0.000314  -0.000012
     4  C   -0.068162  -0.003238  -0.003241  -0.003982  -0.001821  -0.000086
     5  C    0.046212   0.000639  -0.003271  -0.002043  -0.000013   0.000041
     6  C   -0.001777   0.000016   0.000007  -0.000088   0.000248   0.000001
     7  C    0.022481   0.032661  -0.004712  -0.008037   0.001148   0.000144
     8  C   -0.074136  -0.167453  -0.091062  -0.040431  -0.004911  -0.000285
     9  C    0.053842   0.036116   0.003230  -0.023173   0.005176   0.002834
    10  O    0.000684   0.003592   0.000134   0.000173  -0.003297   0.006658
    11  C    0.004535   0.001933   0.000825  -0.001079  -0.059815  -0.056327
    12  O    0.254439  -0.000271  -0.001551   0.004737   0.000000   0.000000
    13  C   -0.006294   0.460417   0.445107   0.427007   0.000209   0.000022
    14  O    0.030065  -0.001427   0.000084   0.004861  -0.000136   0.000101
    15  C    0.000182  -0.000070  -0.000117   0.000241   0.425528   0.414005
    16  H   -0.000009   0.000003   0.000002   0.000000   0.000000   0.000000
    17  H   -0.000002   0.000000   0.000000   0.000000   0.000000   0.000000
    18  H    0.000000   0.000000   0.000000   0.000000   0.000000   0.000000
    19  H   -0.000906   0.000000   0.000000   0.000000   0.000000   0.000000
    20  H    0.000000   0.000000   0.000000   0.000000   0.000000   0.000000
    21  H    0.005992   0.000030   0.004025  -0.000051   0.000000   0.000000
    22  H   -0.000039  -0.003823  -0.003375   0.003820  -0.000004   0.000000
    23  H   -0.000006   0.000000   0.000000   0.000001  -0.005184  -0.001719
    24  H   -0.000001   0.000000   0.000000  -0.000005   0.003955  -0.001708
    25  H    0.343711   0.000011   0.000186  -0.000180   0.000000   0.000000
    26  H    0.000011   0.515229  -0.022707  -0.026552   0.000000   0.000000
    27  H    0.000186  -0.022707   0.505708  -0.022787   0.000000   0.000000
    28  H   -0.000180  -0.026552  -0.022787   0.498960   0.000000   0.000000
    29  H    0.000000   0.000000   0.000000   0.000000   0.511514  -0.022418
    30  H    0.000000   0.000000   0.000000   0.000000  -0.022418   0.498996
    31  H    0.000000  -0.000002   0.000000   0.000000  -0.028618  -0.022565
             31
     1  C   -0.000400
     2  C    0.000000
     3  C    0.000006
     4  C    0.000162
     5  C    0.000311
     6  C   -0.000005
     7  C   -0.000368
     8  C   -0.003567
     9  C   -0.002610
    10  O   -0.002093
    11  C   -0.062009
    12  O    0.000000
    13  C   -0.000009
    14  O   -0.000070
    15  C    0.434325
    16  H    0.000000
    17  H    0.000000
    18  H    0.000000
    19  H    0.000000
    20  H    0.000000
    21  H    0.000000
    22  H    0.000001
    23  H    0.003940
    24  H   -0.005134
    25  H    0.000000
    26  H   -0.000002
    27  H    0.000000
    28  H    0.000000
    29  H   -0.028618
    30  H   -0.022565
    31  H    0.512058
 Mulliken atomic charges:
              1
     1  C   -0.076746
     2  C   -0.305288
     3  C   -0.244846
     4  C   -0.216494
     5  C    0.171094
     6  C   -0.154618
     7  C   -0.172151
     8  C    0.295394
     9  C   -0.052871
    10  O   -0.241843
    11  C    0.115391
    12  O   -0.497938
    13  C   -0.588837
    14  O   -0.463822
    15  C   -0.651562
    16  H    0.173321
    17  H    0.183259
    18  H    0.183603
    19  H    0.165115
    20  H    0.181330
    21  H    0.164595
    22  H    0.200601
    23  H    0.180680
    24  H    0.178531
    25  H    0.389093
    26  H    0.178742
    27  H    0.180127
    28  H    0.189469
    29  H    0.177703
    30  H    0.182319
    31  H    0.176648
 Sum of Mulliken atomic charges =   0.00000
 Mulliken charges with hydrogens summed into heavy atoms:
              1
     1  C    0.096575
     2  C   -0.122029
     3  C   -0.061243
     4  C   -0.216494
     5  C    0.336209
     6  C    0.026713
     7  C   -0.007556
     8  C    0.495996
     9  C   -0.052871
    10  O   -0.241843
    11  C    0.474602
    12  O   -0.108845
    13  C   -0.040499
    14  O   -0.463822
    15  C   -0.114892
 Sum of Mulliken charges with hydrogens summed into heavy atoms =   0.00000
 Electronic spatial extent (au):  <R**2>=           3514.3948
 Charge=              0.0000 electrons
 Dipole moment (field-independent basis, Debye):
    X=              2.0623    Y=             -2.8982    Z=             -2.6711  Tot=              4.4484
 Quadrupole moment (field-independent basis, Debye-Ang):
   XX=            -85.0008   YY=            -89.7749   ZZ=            -86.7136
   XY=              3.0589   XZ=              1.2598   YZ=             -7.8141
 Traceless Quadrupole moment (field-independent basis, Debye-Ang):
   XX=              2.1623   YY=             -2.6118   ZZ=              0.4495
   XY=              3.0589   XZ=              1.2598   YZ=             -7.8141
 Octapole moment (field-independent basis, Debye-Ang**2):
  XXX=             52.9767  YYY=            -25.9423  ZZZ=             -0.7432  XYY=             19.7286
  XXY=            -34.2261  XXZ=             -2.1814  XZZ=             -9.7839  YZZ=             -0.0241
  YYZ=             -8.9947  XYZ=             -0.9182
 Hexadecapole moment (field-independent basis, Debye-Ang**3):
 XXXX=          -2627.1150 YYYY=          -1539.4728 ZZZZ=           -550.8085 XXXY=             18.7252
 XXXZ=             23.2117 YYYX=              6.1513 YYYZ=            -41.9940 ZZZX=             -0.7654
 ZZZY=              4.0089 XXYY=           -610.0570 XXZZ=           -521.6922 YYZZ=           -334.7011
 XXYZ=            -17.2646 YYXZ=             21.8488 ZZXY=             13.8513
 N-N= 1.017551983942D+03 E-N=-3.646867008237D+03  KE= 6.859252706863D+02
 1\1\GINC-COMPUTE-8-6\SP\RwB97XD\6-31+G(d,p)\C12H16O3\ELUCIANO.IQUIR\17
 -May-2022\0\\# wb97xd/6-31+g** scrf=(pcm,solvent=chloroform,smd,dovacu
 um) nmr\\comment\\0,1\C,0,-2.152184224,-0.828986224,-1.104567402\C,0,-
 0.191215644,-1.783463246,-2.83572145\C,0,-2.320249825,-0.709632625,-2.
 48556523\C,0,-0.999481528,-1.427729428,-0.567822908\C,0,-0.021977767,-
 1.903739951,-1.454454016\C,0,-1.338927845,-1.186091493,-3.350723039\C,
 0,-0.835930337,-1.512874608,0.94068644\C,0,-0.469186286,-0.163737909,1
 .586960585\C,0,0.872445579,0.307329438,1.074552058\O,0,0.830398493,1.6
 29610114,0.758456635\C,0,2.062847664,2.151534925,0.247889866\O,0,0.065
 449462,-2.555051442,1.319387906\C,0,-0.403378597,-0.249708706,3.109718
 804\O,0,1.861441068,-0.412243371,0.988358546\C,0,1.853400813,3.6147564
 18,-0.089223727\H,0,-2.933517399,-0.452962389,-0.447171765\H,0,0.57461
 0663,-2.160444365,-3.508784546\H,0,-3.218679017,-0.247169047,-2.885970
 27\H,0,0.883331057,-2.37699421,-1.080636123\H,0,-1.469611787,-1.096271
 892,-4.425780761\H,0,-1.806940042,-1.829649224,1.343287594\H,0,-1.2284
 09608,0.579479865,1.310823321\H,0,2.352359006,1.6016967,-0.654738217\H
 ,0,2.846784138,2.054734068,1.007252698\H,0,0.974079731,-2.208719055,1.
 211344879\H,0,-0.176118568,0.731212145,3.541811528\H,0,-1.359792358,-0
 .587161151,3.521911133\H,0,0.377709918,-0.940501933,3.445530179\H,0,1.
 056851572,3.72885475,-0.831938037\H,0,2.771074548,4.059480436,-0.48412
 2698\H,0,1.54281712,4.174443407,0.799248018\\Version=EM64L-G09RevC.01\
 State=1-A\HF=-692.4488197\RMSD=8.020e-09\Dipole=-0.2530116,1.7207831,-
 0.1944187\Quadrupole=2.7901656,-5.847404,3.0572384,1.7975281,-2.243552
 2,3.0178425\PG=C01 [X(C12H16O3)]\\@


 THIS CURIOUS WORLD WHICH WE INHABIT IS MORE WONDERFUL THAN IT IS CONVENIENT;
 MORE BEAUTIFUL THAN IT IS USEFUL;
 IT IS MORE TO BE ADMIRED THAN IT IS TO BE USED.

                                                                 -- THOREAU
 Job cpu time:  0 days  1 hours 40 minutes 54.3 seconds.
 File lengths (MBytes):  RWF=    123 Int=      0 D2E=      0 Chk=      9 Scr=      1
 Normal termination of Gaussian 09 at Tue May 17 19:11:40 2022.
