 Entering Gaussian System, Link 0=g09
 Input=/home/eluciano.iquir/wb9/73b_029.gjc
 Output=/home/eluciano.iquir/wb9/73b_029.log
 Initial command:
 /share/apps/Gaussian09/EM64T.SSE4.2-enabled/g09/l1.exe /tmp/Gau-31296.inp -scrdir=/tmp/
 Entering Link 1 = /share/apps/Gaussian09/EM64T.SSE4.2-enabled/g09/l1.exe PID=     31297.
  
 Copyright (c) 1988,1990,1992,1993,1995,1998,2003,2009,2011,
            Gaussian, Inc.  All Rights Reserved.
  
 This is part of the Gaussian(R) 09 program.  It is based on
 the Gaussian(R) 03 system (copyright 2003, Gaussian, Inc.),
 the Gaussian(R) 98 system (copyright 1998, Gaussian, Inc.),
 the Gaussian(R) 94 system (copyright 1995, Gaussian, Inc.),
 the Gaussian 92(TM) system (copyright 1992, Gaussian, Inc.),
 the Gaussian 90(TM) system (copyright 1990, Gaussian, Inc.),
 the Gaussian 88(TM) system (copyright 1988, Gaussian, Inc.),
 the Gaussian 86(TM) system (copyright 1986, Carnegie Mellon
 University), and the Gaussian 82(TM) system (copyright 1983,
 Carnegie Mellon University). Gaussian is a federally registered
 trademark of Gaussian, Inc.
  
 This software contains proprietary and confidential information,
 including trade secrets, belonging to Gaussian, Inc.
  
 This software is provided under written license and may be
 used, copied, transmitted, or stored only in accord with that
 written license.
  
 The following legend is applicable only to US Government
 contracts under FAR:
  
                    RESTRICTED RIGHTS LEGEND
  
 Use, reproduction and disclosure by the US Government is
 subject to restrictions as set forth in subparagraphs (a)
 and (c) of the Commercial Computer Software - Restricted
 Rights clause in FAR 52.227-19.
  
 Gaussian, Inc.
 340 Quinnipiac St., Bldg. 40, Wallingford CT 06492
  
  
 ---------------------------------------------------------------
 Warning -- This program may not be used in any manner that
 competes with the business of Gaussian, Inc. or will provide
 assistance to any competitor of Gaussian, Inc.  The licensee
 of this program is prohibited from giving any competitor of
 Gaussian, Inc. access to this program.  By using this program,
 the user acknowledges that Gaussian, Inc. is engaged in the
 business of creating and licensing software in the field of
 computational chemistry and represents and warrants to the
 licensee that it is not a competitor of Gaussian, Inc. and that
 it will not use this program in any manner prohibited above.
 ---------------------------------------------------------------
  

 Cite this work as:
 Gaussian 09, Revision C.01,
 M. J. Frisch, G. W. Trucks, H. B. Schlegel, G. E. Scuseria, 
 M. A. Robb, J. R. Cheeseman, G. Scalmani, V. Barone, B. Mennucci, 
 G. A. Petersson, H. Nakatsuji, M. Caricato, X. Li, H. P. Hratchian, 
 A. F. Izmaylov, J. Bloino, G. Zheng, J. L. Sonnenberg, M. Hada, 
 M. Ehara, K. Toyota, R. Fukuda, J. Hasegawa, M. Ishida, T. Nakajima, 
 Y. Honda, O. Kitao, H. Nakai, T. Vreven, J. A. Montgomery, Jr., 
 J. E. Peralta, F. Ogliaro, M. Bearpark, J. J. Heyd, E. Brothers, 
 K. N. Kudin, V. N. Staroverov, T. Keith, R. Kobayashi, J. Normand, 
 K. Raghavachari, A. Rendell, J. C. Burant, S. S. Iyengar, J. Tomasi, 
 M. Cossi, N. Rega, J. M. Millam, M. Klene, J. E. Knox, J. B. Cross, 
 V. Bakken, C. Adamo, J. Jaramillo, R. Gomperts, R. E. Stratmann, 
 O. Yazyev, A. J. Austin, R. Cammi, C. Pomelli, J. W. Ochterski, 
 R. L. Martin, K. Morokuma, V. G. Zakrzewski, G. A. Voth, 
 P. Salvador, J. J. Dannenberg, S. Dapprich, A. D. Daniels, 
 O. Farkas, J. B. Foresman, J. V. Ortiz, J. Cioslowski, 
 and D. J. Fox, Gaussian, Inc., Wallingford CT, 2010.
 
 ******************************************
 Gaussian 09:  EM64L-G09RevC.01 23-Sep-2011
                17-May-2022 
 ******************************************
 %nprocshared=4
 Will use up to    4 processors via shared memory.
 ----------------------------------------------------------------
 # wb97xd/6-31+g** scrf=(pcm,solvent=chloroform,smd,dovacuum) nmr
 ----------------------------------------------------------------
 1/38=1/1;
 2/12=2,17=6,18=5,40=1/2;
 3/5=1,6=6,7=111,11=2,16=1,25=1,30=1,70=32101,72=7,74=-58/1,2,8,3;
 4//1;
 5/5=2,38=5,53=7/2;
 8/6=1,10=90,11=11/1;
 10/13=100,45=16/2;
 6/7=2,8=2,9=2,10=2,28=1/1;
 99/9=1/99;
 -------
 comment
 -------
 Charge =  0 Multiplicity = 1
 Symbolic Z-Matrix:
 6                     0.70149  -1.534    -1.07327 
 6                     0.15944  -3.82486   0.41797 
 6                     1.60051  -2.60278  -1.07879 
 6                    -0.48105  -1.59342  -0.31782 
 6                    -0.73921  -2.75635   0.42477 
 6                     1.32979  -3.74704  -0.33247 
 6                    -1.43616  -0.41456  -0.3079 
 6                    -1.13457   0.66182   0.75022 
 6                     0.15429   1.39407   0.43393 
 8                     0.04689   2.02494  -0.77251 
 6                     1.19521   2.78152  -1.18665 
 8                    -2.77728  -0.89038  -0.1264 
 6                    -1.13229   0.13744   2.18826 
 8                     1.13216   1.45544   1.16529 
 6                     1.12699   4.18754  -0.62134 
 1                     0.93429  -0.6538   -1.6682 
 1                    -0.05678  -4.7172    0.99927 
 1                     2.51319  -2.54179  -1.66572 
 1                    -1.65036  -2.8354    1.01496 
 1                     2.02951  -4.57832  -0.33641 
 1                    -1.42026   0.02694  -1.31267 
 1                    -1.93403   1.4155    0.71214 
 1                     1.17183   2.82299  -2.28053 
 1                     2.12708   2.27838  -0.90428 
 1                    -3.37608  -0.17336  -0.39396 
 1                    -1.02174   0.96692   2.89614 
 1                    -2.06846  -0.37793   2.42497 
 1                    -0.30063  -0.5506    2.37209 
 1                     0.19154   4.6749   -0.91517 
 1                     1.96655   4.79038  -0.9788 
 1                     1.14816   4.173     0.47289 
 
                          Input orientation:                          
 ---------------------------------------------------------------------
 Center     Atomic      Atomic             Coordinates (Angstroms)
 Number     Number       Type             X           Y           Z
 ---------------------------------------------------------------------
      1          6           0        0.701490   -1.533996   -1.073266
      2          6           0        0.159436   -3.824861    0.417972
      3          6           0        1.600510   -2.602778   -1.078792
      4          6           0       -0.481045   -1.593415   -0.317821
      5          6           0       -0.739207   -2.756352    0.424771
      6          6           0        1.329794   -3.747040   -0.332469
      7          6           0       -1.436164   -0.414563   -0.307897
      8          6           0       -1.134567    0.661815    0.750217
      9          6           0        0.154294    1.394075    0.433927
     10          8           0        0.046887    2.024942   -0.772510
     11          6           0        1.195208    2.781524   -1.186651
     12          8           0       -2.777279   -0.890376   -0.126396
     13          6           0       -1.132293    0.137442    2.188259
     14          8           0        1.132158    1.455435    1.165289
     15          6           0        1.126995    4.187540   -0.621345
     16          1           0        0.934287   -0.653802   -1.668196
     17          1           0       -0.056778   -4.717202    0.999267
     18          1           0        2.513186   -2.541785   -1.665725
     19          1           0       -1.650362   -2.835398    1.014957
     20          1           0        2.029509   -4.578324   -0.336406
     21          1           0       -1.420258    0.026935   -1.312674
     22          1           0       -1.934030    1.415499    0.712136
     23          1           0        1.171828    2.822989   -2.280530
     24          1           0        2.127083    2.278379   -0.904281
     25          1           0       -3.376080   -0.173355   -0.393961
     26          1           0       -1.021742    0.966923    2.896143
     27          1           0       -2.068464   -0.377930    2.424969
     28          1           0       -0.300635   -0.550597    2.372093
     29          1           0        0.191537    4.674898   -0.915171
     30          1           0        1.966545    4.790375   -0.978803
     31          1           0        1.148156    4.173001    0.472893
 ---------------------------------------------------------------------
                    Distance matrix (angstroms):
                    1          2          3          4          5
     1  C    0.000000
     2  C    2.786696   0.000000
     3  C    1.396626   2.410494   0.000000
     4  C    1.404498   2.435356   2.435316   0.000000
     5  C    2.411198   1.396180   2.785420   1.403749   0.000000
     6  C    2.416839   1.392463   1.392703   2.813797   2.415707
     7  C    2.531498   3.834443   3.821512   1.517248   2.550789
     8  C    3.393786   4.681356   4.635029   2.579508   3.456311
     9  C    3.338360   5.218963   4.511617   3.145453   4.245523
    10  O    3.631115   5.970771   4.891150   3.684829   4.991212
    11  C    4.345150   6.876915   5.400612   4.764954   6.083314
    12  O    3.662327   4.187103   4.796292   2.409065   2.817692
    13  C    4.098049   4.527949   5.064646   3.114551   3.411517
    14  O    3.759428   5.420904   4.660938   3.754668   4.667925
    15  C    5.755107   8.137255   6.822162   6.008108   7.265996
    16  H    1.087601   3.874029   2.142371   2.170149   3.406142
    17  H    3.873392   1.086704   3.396428   3.416543   2.154226
    18  H    2.156129   3.395322   1.086824   3.417846   3.872243
    19  H    3.403752   2.147277   3.873766   2.164744   1.088471
    20  H    3.402137   2.152664   2.153593   3.900373   3.400700
    21  H    2.644926   4.508537   4.011874   2.120705   3.351005
    22  H    4.339717   5.650709   5.643310   3.496504   4.349083
    23  H    4.545549   7.245740   5.573767   5.107723   6.488431
    24  H    4.073705   6.547483   4.912579   4.705004   5.943948
    25  H    4.351939   5.147096   5.580102   3.225460   3.780911
    26  H    4.998033   5.522473   5.951394   4.144545   4.477754
    27  H    4.609423   4.568688   5.539645   3.394143   3.380031
    28  H    3.720461   3.840711   4.442343   2.890616   2.974855
    29  H    6.231806   8.603731   7.414616   6.332530   7.608232
    30  H    6.450346   8.912851   7.402884   6.868797   8.139054
    31  H    5.929581   8.058932   6.965884   6.044095   7.181949
                    6          7          8          9         10
     6  C    0.000000
     7  C    4.330881   0.000000
     8  C    5.165587   1.539206   0.000000
     9  C    5.329186   2.520125   1.515720   0.000000
    10  O    5.929188   2.892489   2.360646   1.365657   0.000000
    11  C    6.585582   4.232174   3.697631   2.373771   1.436165
    12  O    5.007099   1.434548   2.424098   3.758563   4.110043
    13  C    5.244535   2.574459   1.530665   2.512392   3.703954
    14  O    5.417388   3.501920   2.437245   1.222651   2.292862
    15  C    7.942427   5.277062   4.407559   3.140572   2.422047
    16  H    3.392449   2.743480   3.443795   3.036628   2.960642
    17  H    2.153442   4.703624   5.491583   6.140999   6.971832
    18  H    2.151889   4.686804   5.422724   5.046177   5.266447
    19  H    3.395287   2.766995   3.544944   4.634956   5.449641
    20  H    1.086577   5.417435   6.217008   6.307091   6.908263
    21  H    4.771423   1.097612   2.177203   2.720091   2.536991
    22  H    6.196415   2.153478   1.099378   2.106883   2.549437
    23  H    6.854573   4.601591   4.378990   3.231941   2.043647
    24  H    6.104779   4.506034   3.998626   2.542576   2.099716
    25  H    5.909336   1.956748   2.651610   3.950414   4.085647
    26  H    6.178601   3.513705   2.170442   2.761889   3.964894
    27  H    5.522910   2.805299   2.181290   3.470577   4.524641
    28  H    4.493351   2.913808   2.189947   2.783020   4.079547
    29  H    8.518463   5.377807   4.542786   3.547569   2.657732
    30  H    8.585492   6.254593   5.445312   4.100600   3.372724
    31  H    7.962956   5.322977   4.197161   2.951561   2.716244
                   11         12         13         14         15
    11  C    0.000000
    12  O    5.512498   0.000000
    13  C    4.878365   3.019937   0.000000
    14  O    2.700761   4.738668   2.812706   0.000000
    15  C    1.516939   6.424450   5.422319   3.264427   0.000000
    16  H    3.478711   4.026019   4.446241   3.537891   4.956978
    17  H    7.910537   4.828337   5.112534   6.288289   9.128095
    18  H    5.504925   5.752017   5.943144   5.089169   6.949538
    19  H    6.670394   2.521059   3.237717   5.116274   7.727409
    20  H    7.455625   6.062200   6.213644   6.282243   8.816808
    21  H    3.800566   2.022429   3.514494   3.833502   4.927176
    22  H    3.906859   2.594468   2.110724   3.099751   4.339615
    23  H    1.094914   5.833079   5.700106   3.707484   2.148698
    24  H    1.096028   5.890575   4.977042   2.439310   2.173735
    25  H    5.500577   0.971737   3.434972   5.040678   6.272702
    26  H    4.987670   3.958183   1.096066   2.806027   5.230886
    27  H    5.803233   2.697125   1.094558   3.897693   6.350945
    28  H    5.099533   3.534355   1.094919   2.744711   5.783488
    29  H    2.160074   6.356753   5.654406   3.946900   1.094958
    30  H    2.161862   7.449926   6.425175   4.051562   1.093633
    31  H    2.166220   6.434747   4.942537   2.804431   1.094539
                   16         17         18         19         20
    16  H    0.000000
    17  H    4.960724   0.000000
    18  H    2.461180   4.294104   0.000000
    19  H    4.317299   2.465957   4.960583   0.000000
    20  H    4.286613   2.481108   2.479622   4.290154   0.000000
    21  H    2.476627   5.450779   4.711152   3.696453   5.836301
    22  H    4.263242   6.420011   6.410308   4.271100   7.261887
    23  H    3.538284   8.313904   5.563993   7.130380   7.700303
    24  H    3.256381   7.571717   4.895187   6.641030   6.880871
    25  H    4.520372   5.797016   6.473816   3.471256   6.973338
    26  H    5.223599   6.069479   6.754065   4.288551   7.106988
    27  H    5.083957   4.990871   6.512109   2.863930   6.485514
    28  H    4.226064   4.393713   5.309086   2.980587   5.384062
    29  H    5.432657   9.588444   7.617998   7.970102   9.451731
    30  H    5.583896   9.919709   7.384528   8.672342   9.390909
    31  H    5.284698   8.986916   7.178116   7.565923   8.832749
                   21         22         23         24         25
    21  H    0.000000
    22  H    2.508372   0.000000
    23  H    3.933646   4.536897   0.000000
    24  H    4.221305   4.455335   1.761582   0.000000
    25  H    2.170113   2.414004   5.763739   6.046175   0.000000
    26  H    4.330882   2.409020   5.920699   5.106686   4.203324
    27  H    3.814979   2.483598   6.548824   5.978504   3.114174
    28  H    3.894177   3.047782   5.932632   4.963018   4.153520
    29  H    4.935529   4.217801   2.500949   3.080545   6.041946
    30  H    5.854252   5.428034   2.489313   2.518224   7.316031
    31  H    5.193733   4.142575   3.066664   2.538602   6.333322
                   26         27         28         29         30
    26  H    0.000000
    27  H    1.768124   0.000000
    28  H    1.759969   1.777029   0.000000
    29  H    5.454103   6.464921   6.193071   0.000000
    30  H    6.209981   7.387716   6.700343   1.779898   0.000000
    31  H    4.567224   5.904932   5.293235   1.758903   1.777170
                   31
    31  H    0.000000
 Stoichiometry    C12H16O3
 Framework group  C1[X(C12H16O3)]
 Deg. of freedom    87
 Full point group                 C1      NOp   1
 Largest Abelian subgroup         C1      NOp   1
 Largest concise Abelian subgroup C1      NOp   1
                         Standard orientation:                         
 ---------------------------------------------------------------------
 Center     Atomic      Atomic             Coordinates (Angstroms)
 Number     Number       Type             X           Y           Z
 ---------------------------------------------------------------------
      1          6           0       -1.241248   -1.282492   -0.600125
      2          6           0       -3.638763   -0.375885    0.493337
      3          6           0       -2.215199   -2.196445   -0.191870
      4          6           0       -1.450344    0.099625   -0.463569
      5          6           0       -2.665103    0.538280    0.086388
      6          6           0       -3.412795   -1.742972    0.355624
      7          6           0       -0.372675    1.077118   -0.893893
      8          6           0        0.679656    1.404177    0.180718
      9          6           0        1.548438    0.198883    0.480537
     10          8           0        2.219093   -0.182983   -0.646148
     11          6           0        3.102627   -1.305399   -0.497430
     12          8           0       -0.985607    2.295457   -1.338745
     13          6           0        0.094170    1.995268    1.465534
     14          8           0        1.672766   -0.330068    1.575813
     15          6           0        4.468403   -0.837922   -0.031354
     16          1           0       -0.316684   -1.662476   -1.028692
     17          1           0       -4.573164   -0.018057    0.917340
     18          1           0       -2.038602   -3.263280   -0.300795
     19          1           0       -2.859644    1.603289    0.198988
     20          1           0       -4.170291   -2.454084    0.673695
     21          1           0        0.112804    0.656725   -1.784023
     22          1           0        1.352087    2.176271   -0.219707
     23          1           0        3.190541   -1.774410   -1.482892
     24          1           0        2.681341   -2.057364    0.179583
     25          1           0       -0.319632    2.782217   -1.852374
     26          1           0        0.897962    2.306654    2.142527
     27          1           0       -0.520773    2.875671    1.253892
     28          1           0       -0.516363    1.267593    2.010130
     29          1           0        4.874156   -0.089663   -0.720126
     30          1           0        5.166213   -1.677874    0.028425
     31          1           0        4.407023   -0.363879    0.953294
 ---------------------------------------------------------------------
 Rotational constants (GHZ):      0.9481214      0.3856939      0.3280031
 Standard basis: 6-31+G(d,p) (6D, 7F)
 There are   365 symmetry adapted basis functions of A   symmetry.
 Integral buffers will be    131072 words long.
 Raffenetti 2 integral format.
 Two-electron integral symmetry is turned on.
   365 basis functions,   592 primitive gaussians,   365 cartesian basis functions
    56 alpha electrons       56 beta electrons
       nuclear repulsion energy      1015.5697680477 Hartrees.
 NAtoms=   31 NActive=   31 NUniq=   31 SFac= 1.00D+00 NAtFMM=   60 NAOKFM=F Big=F
 Nuclear repulsion after empirical dispersion term =     1015.5480142400 Hartrees.
 ------------------------------------------------------------------------------
 Polarizable Continuum Model (PCM)
 =================================
 Model                : C-PCM.
 Atomic radii         : SMD-Coulomb.
 Polarization charges : Total charges.
 Charge compensation  : None.
 Solution method      : Matrix inversion.
 Cavity type          : VdW (van der Waals Surface) (Alpha=1.000).
 Cavity algorithm     : GePol (No added spheres)
                        Default sphere list used, NSphG=   31.
                        Lebedev-Laikov grids with approx.  5.0 points / Ang**2.
                        Smoothing algorithm: Karplus/York (Gamma=1.0000).
                        Polarization charges: spherical gaussians, with
                                              point-specific exponents (IZeta= 3).
                        Self-potential: point-specific (ISelfS= 7).
                        Self-field    : sphere-specific E.n sum rule (ISelfD= 2).
 Solvent              : Chloroform, Eps=   4.711300 Eps(inf)=   2.090627
 ------------------------------------------------------------------------------
 ------------------------------------------------------------------------------
 Atomic radii for non-electrostatic terms: SMD-CDS.
 ------------------------------------------------------------------------------
 Nuclear repulsion after PCM non-electrostatic terms =     1015.5413244151 Hartrees.
 One-electron integrals computed using PRISM.
 NBasis=   365 RedAO= T  NBF=   365
 NBsUse=   365 1.00D-06 NBFU=   365
 Harris functional with IExCor= 4639 diagonalized for initial guess.
 ExpMin= 4.38D-02 ExpMax= 5.48D+03 ExpMxC= 8.25D+02 IAcc=2 IRadAn=         4 AccDes= 0.00D+00
 HarFok:  IExCor= 4639 AccDes= 0.00D+00 IRadAn=         4 IDoV= 1
 ScaDFX=  1.000000  1.000000  1.000000  1.000000
 FoFCou: FMM=F IPFlag=           0 FMFlag=      100000 FMFlg1=           0
         NFxFlg=           0 DoJE=T BraDBF=F KetDBF=T FulRan=T
         Omega=  0.000000  0.000000  1.000000  0.000000  0.000000 ICntrl=     500 IOpCl=  0
         NMat0=    1 NMatS0=    1 NMatT0=    0 NMatD0=    1 NMtDS0=    0 NMtDT0=    0
         I1Cent=           4 NGrid=           0.
 Petite list used in FoFCou.
 Initial guess orbital symmetries:
       Occupied  (A) (A) (A) (A) (A) (A) (A) (A) (A) (A) (A) (A)
                 (A) (A) (A) (A) (A) (A) (A) (A) (A) (A) (A) (A)
                 (A) (A) (A) (A) (A) (A) (A) (A) (A) (A) (A) (A)
                 (A) (A) (A) (A) (A) (A) (A) (A) (A) (A) (A) (A)
                 (A) (A) (A) (A) (A) (A) (A) (A)
       Virtual   (A) (A) (A) (A) (A) (A) (A) (A) (A) (A) (A) (A)
                 (A) (A) (A) (A) (A) (A) (A) (A) (A) (A) (A) (A)
                 (A) (A) (A) (A) (A) (A) (A) (A) (A) (A) (A) (A)
                 (A) (A) (A) (A) (A) (A) (A) (A) (A) (A) (A) (A)
                 (A) (A) (A) (A) (A) (A) (A) (A) (A) (A) (A) (A)
                 (A) (A) (A) (A) (A) (A) (A) (A) (A) (A) (A) (A)
                 (A) (A) (A) (A) (A) (A) (A) (A) (A) (A) (A) (A)
                 (A) (A) (A) (A) (A) (A) (A) (A) (A) (A) (A) (A)
                 (A) (A) (A) (A) (A) (A) (A) (A) (A) (A) (A) (A)
                 (A) (A) (A) (A) (A) (A) (A) (A) (A) (A) (A) (A)
                 (A) (A) (A) (A) (A) (A) (A) (A) (A) (A) (A) (A)
                 (A) (A) (A) (A) (A) (A) (A) (A) (A) (A) (A) (A)
                 (A) (A) (A) (A) (A) (A) (A) (A) (A) (A) (A) (A)
                 (A) (A) (A) (A) (A) (A) (A) (A) (A) (A) (A) (A)
                 (A) (A) (A) (A) (A) (A) (A) (A) (A) (A) (A) (A)
                 (A) (A) (A) (A) (A) (A) (A) (A) (A) (A) (A) (A)
                 (A) (A) (A) (A) (A) (A) (A) (A) (A) (A) (A) (A)
                 (A) (A) (A) (A) (A) (A) (A) (A) (A) (A) (A) (A)
                 (A) (A) (A) (A) (A) (A) (A) (A) (A) (A) (A) (A)
                 (A) (A) (A) (A) (A) (A) (A) (A) (A) (A) (A) (A)
                 (A) (A) (A) (A) (A) (A) (A) (A) (A) (A) (A) (A)
                 (A) (A) (A) (A) (A) (A) (A) (A) (A) (A) (A) (A)
                 (A) (A) (A) (A) (A) (A) (A) (A) (A) (A) (A) (A)
                 (A) (A) (A) (A) (A) (A) (A) (A) (A) (A) (A) (A)
                 (A) (A) (A) (A) (A) (A) (A) (A) (A) (A) (A) (A)
                 (A) (A) (A) (A) (A) (A) (A) (A) (A)
 The electronic state of the initial guess is 1-A.
 Requested convergence on RMS density matrix=1.00D-08 within 128 cycles.
 Requested convergence on MAX density matrix=1.00D-06.
 Requested convergence on             energy=1.00D-06.
 No special actions if energy rises.
 FoFJK:  IHMeth= 1 ICntrl=     0 DoSepK=T KAlg= 1 I1Cent= 0 FoldK=F
 FoFJK:  IHMeth= 1 ICntrl=     0 DoSepK=T KAlg= 1 I1Cent= 0 FoldK=F
 FoFJK:  IHMeth= 1 ICntrl=     0 DoSepK=T KAlg= 1 I1Cent= 0 FoldK=F
 FoFJK:  IHMeth= 1 ICntrl=     0 DoSepK=T KAlg= 1 I1Cent= 0 FoldK=F
 FoFJK:  IHMeth= 1 ICntrl=     0 DoSepK=T KAlg= 1 I1Cent= 0 FoldK=F
 FoFJK:  IHMeth= 1 ICntrl=     0 DoSepK=T KAlg= 1 I1Cent= 0 FoldK=F
 FoFJK:  IHMeth= 1 ICntrl=     0 DoSepK=T KAlg= 1 I1Cent= 0 FoldK=F
 FoFJK:  IHMeth= 1 ICntrl=     0 DoSepK=T KAlg= 1 I1Cent= 0 FoldK=F
 FoFJK:  IHMeth= 1 ICntrl=     0 DoSepK=T KAlg= 1 I1Cent= 0 FoldK=F
 FoFJK:  IHMeth= 1 ICntrl=     0 DoSepK=T KAlg= 1 I1Cent= 0 FoldK=F
 FoFJK:  IHMeth= 1 ICntrl=     0 DoSepK=T KAlg= 1 I1Cent= 0 FoldK=F
 FoFJK:  IHMeth= 1 ICntrl=     0 DoSepK=T KAlg= 1 I1Cent= 0 FoldK=F
 FoFJK:  IHMeth= 1 ICntrl=     0 DoSepK=T KAlg= 1 I1Cent= 0 FoldK=F
 FoFJK:  IHMeth= 1 ICntrl=     0 DoSepK=T KAlg= 1 I1Cent= 0 FoldK=F
 FoFJK:  IHMeth= 1 ICntrl=     0 DoSepK=T KAlg= 1 I1Cent= 0 FoldK=F
 FoFJK:  IHMeth= 1 ICntrl=     0 DoSepK=T KAlg= 1 I1Cent= 0 FoldK=F
 Error on total polarization charges =  0.03902
 SCF Done:  E(RwB97XD) =  -692.444508495     A.U. after   16 cycles
             Convg  =    0.3595D-08             -V/T =  2.0096
 SMD-CDS (non-electrostatic) energy       (kcal/mol) =      -4.20
 (included in total energy above)
 Range of M.O.s used for correlation:     1   365
 NBasis=   365 NAE=    56 NBE=    56 NFC=     0 NFV=     0
 NROrb=    365 NOA=    56 NOB=    56 NVA=   309 NVB=   309

 **** Warning!!: The largest alpha MO coefficient is  0.12170741D+03

 NEqPCM:  Using equilibrium solvation (IEInf=0, Eps=   4.7113, EpsInf=   2.0906)
          Differentiating once with respect to magnetic field using GIAOs.
          Electric field/nuclear overlap derivatives assumed to be zero.
 FoFCou: FMM=F IPFlag=           0 FMFlag=    10101102 FMFlg1=           0
         NFxFlg=    40000000 DoJE=F BraDBF=F KetDBF=T FulRan=T
         Omega=  0.000000  0.000000  1.000000  0.000000  0.000000 ICntrl=    6100 IOpCl=  0
         NMat0=    1 NMatS0=    1 NMatT0=    0 NMatD0=    1 NMtDS0=    0 NMtDT0=    0
         I1Cent=           7 NGrid=        2281.
 Symmetry not used in FoFCou.
 FoFJK:  IHMeth= 1 ICntrl=  6127 DoSepK=T KAlg= 1 I1Cent= 0 FoldK=F
 FoFJK:  IHMeth= 1 ICntrl=     0 DoSepK=T KAlg= 1 I1Cent= 0 FoldK=F
          There are     3 degrees of freedom in the 1st order CPHF.  IDoFFX=0.
      3 vectors produced by pass  0 Test12= 5.77D-13 3.33D-08 XBig12= 1.16D+02 1.79D+00.
 AX will form     3 AO Fock derivatives at one time.
 FoFJK:  IHMeth= 1 ICntrl=     0 DoSepK=T KAlg= 1 I1Cent= 0 FoldK=F
      3 vectors produced by pass  1 Test12= 5.77D-13 3.33D-08 XBig12= 9.39D-01 3.11D-01.
 FoFJK:  IHMeth= 1 ICntrl=     0 DoSepK=T KAlg= 1 I1Cent= 0 FoldK=F
      3 vectors produced by pass  2 Test12= 5.77D-13 3.33D-08 XBig12= 1.99D-02 5.95D-02.
 FoFJK:  IHMeth= 1 ICntrl=     0 DoSepK=T KAlg= 1 I1Cent= 0 FoldK=F
      3 vectors produced by pass  3 Test12= 5.77D-13 3.33D-08 XBig12= 3.36D-04 4.57D-03.
 FoFJK:  IHMeth= 1 ICntrl=     0 DoSepK=T KAlg= 1 I1Cent= 0 FoldK=F
      3 vectors produced by pass  4 Test12= 5.77D-13 3.33D-08 XBig12= 4.65D-06 3.64D-04.
 FoFJK:  IHMeth= 1 ICntrl=     0 DoSepK=T KAlg= 1 I1Cent= 0 FoldK=F
      3 vectors produced by pass  5 Test12= 5.77D-13 3.33D-08 XBig12= 9.86D-08 8.35D-05.
 FoFJK:  IHMeth= 1 ICntrl=     0 DoSepK=T KAlg= 1 I1Cent= 0 FoldK=F
      3 vectors produced by pass  6 Test12= 5.77D-13 3.33D-08 XBig12= 1.83D-09 9.30D-06.
 FoFJK:  IHMeth= 1 ICntrl=     0 DoSepK=T KAlg= 1 I1Cent= 0 FoldK=F
      3 vectors produced by pass  7 Test12= 5.77D-13 3.33D-08 XBig12= 2.08D-11 8.15D-07.
 FoFJK:  IHMeth= 1 ICntrl=     0 DoSepK=T KAlg= 1 I1Cent= 0 FoldK=F
      1 vectors produced by pass  8 Test12= 5.77D-13 3.33D-08 XBig12= 2.28D-13 9.36D-08.
 FoFJK:  IHMeth= 1 ICntrl=     0 DoSepK=T KAlg= 1 I1Cent= 0 FoldK=F
 Inverted reduced A of dimension    25 with in-core refinement.
 Calculating GIAO nuclear magnetic shielding tensors.
 SCF GIAO Magnetic shielding tensor (ppm):
      1  C    Isotropic =    72.5216   Anisotropy =   165.4610
   XX=    17.0192   YX=    18.9967   ZX=    74.1215
   XY=    27.1890   YY=    49.8238   ZY=   -15.5336
   XZ=    69.8257   YZ=   -25.7077   ZZ=   150.7220
   Eigenvalues:   -25.8572    60.5931   182.8290
      2  C    Isotropic =    70.6866   Anisotropy =   175.6280
   XX=    13.7052   YX=    22.7397   ZX=    78.1216
   XY=    24.8601   YY=    47.3219   ZY=   -14.1580
   XZ=    81.4137   YZ=   -17.7328   ZZ=   151.0326
   Eigenvalues:   -32.8668    57.1547   187.7719
      3  C    Isotropic =    70.6176   Anisotropy =   173.9129
   XX=    77.2796   YX=    13.2240   ZX=    50.0630
   XY=    12.9282   YY=   -29.7578   ZY=   -12.1522
   XZ=    48.2045   YZ=   -10.4692   ZZ=   164.3309
   Eigenvalues:   -32.9827    58.2759   186.5595
      4  C    Isotropic =    57.3708   Anisotropy =   176.8128
   XX=    27.5153   YX=   -34.9767   ZX=    65.7234
   XY=   -32.0417   YY=     3.1216   ZY=     4.7082
   XZ=    73.5848   YZ=     2.1638   ZZ=   141.4755
   Eigenvalues:   -33.4949    30.3612   175.2460
      5  C    Isotropic =    71.4494   Anisotropy =   183.5903
   XX=    69.2578   YX=    14.7612   ZX=    55.6337
   XY=    16.4440   YY=   -26.5927   ZY=    -9.6845
   XZ=    48.9776   YZ=   -16.6338   ZZ=   171.6831
   Eigenvalues:   -31.5718    52.0770   193.8429
      6  C    Isotropic =    71.7914   Anisotropy =   176.0120
   XX=    37.8770   YX=   -39.1887   ZX=    66.7050
   XY=   -40.9058   YY=    18.8657   ZY=    13.7110
   XZ=    69.0553   YZ=    17.3046   ZZ=   158.6316
   Eigenvalues:   -30.1403    56.3819   189.1328
      7  C    Isotropic =   122.4341   Anisotropy =    37.4895
   XX=   116.8889   YX=   -11.4170   ZX=     9.5075
   XY=   -11.7565   YY=   140.3932   ZY=    -9.4280
   XZ=     6.6526   YZ=    -3.7307   ZZ=   110.0202
   Eigenvalues:   104.6430   115.2322   147.4271
      8  C    Isotropic =   146.6447   Anisotropy =    29.3292
   XX=   150.4948   YX=   -12.5466   ZX=     2.4568
   XY=   -11.3411   YY=   153.9599   ZY=     4.5796
   XZ=    18.5759   YZ=    -5.8608   ZZ=   135.4794
   Eigenvalues:   128.9043   144.8324   166.1975
      9  C    Isotropic =    21.5734   Anisotropy =    94.4012
   XX=    22.5161   YX=    63.7278   ZX=    31.0898
   XY=    51.5711   YY=    27.0193   ZY=   -18.0310
   XZ=    56.9578   YZ=   -39.5557   ZZ=    15.1849
   Eigenvalues:   -66.0697    46.2824    84.5076
     10  O    Isotropic =   130.6613   Anisotropy =   165.1934
   XX=   191.4327   YX=    75.7842   ZX=   -15.5098
   XY=    95.6616   YY=    89.4903   ZY=    41.3802
   XZ=  -112.4690   YZ=   159.6196   ZZ=   111.0608
   Eigenvalues:   -48.2305   199.4241   240.7902
     11  C    Isotropic =   137.5042   Anisotropy =    65.6228
   XX=   151.4439   YX=   -29.4934   ZX=    11.9832
   XY=   -24.5619   YY=   156.4300   ZY=     3.8798
   XZ=     8.8696   YZ=     5.4123   ZZ=   104.6387
   Eigenvalues:   100.0845   131.1754   181.2527
     12  O    Isotropic =   288.1670   Anisotropy =    90.4346
   XX=   295.5747   YX=    44.2693   ZX=   -13.9344
   XY=    20.8361   YY=   303.1339   ZY=   -47.1042
   XZ=     6.3031   YZ=   -39.4814   ZZ=   265.7925
   Eigenvalues:   233.2813   282.7631   348.4568
     13  C    Isotropic =   186.5887   Anisotropy =    10.4705
   XX=   186.6434   YX=    -1.9567   ZX=    -4.3424
   XY=    -2.4642   YY=   184.7207   ZY=     4.7944
   XZ=    -2.7390   YZ=     3.4018   ZZ=   188.4020
   Eigenvalues:   182.0671   184.1300   193.5690
     14  O    Isotropic =   -49.6120   Anisotropy =   580.1214
   XX=   104.9880   YX=   241.7985   ZX=    97.2786
   XY=   230.3313   YY=    40.0317   ZY=    53.7511
   XZ=   116.9542   YZ=    92.7174   ZZ=  -293.8558
   Eigenvalues:  -321.5964  -164.3752   337.1356
     15  C    Isotropic =   181.4562   Anisotropy =    26.6634
   XX=   196.7116   YX=    -2.0275   ZX=     7.8343
   XY=     3.2177   YY=   183.0616   ZY=     2.1439
   XZ=    10.5565   YZ=     1.8584   ZZ=   164.5955
   Eigenvalues:   161.9983   183.1386   199.2318
     16  H    Isotropic =    24.1421   Anisotropy =     8.3076
   XX=    24.6598   YX=     3.2405   ZX=     0.0005
   XY=     2.9312   YY=    27.7066   ZY=     1.0727
   XZ=    -0.5136   YZ=     0.9649   ZZ=    20.0599
   Eigenvalues:    19.8107    22.9351    29.6805
     17  H    Isotropic =    23.7263   Anisotropy =     5.0059
   XX=    24.4147   YX=     1.3678   ZX=    -1.4473
   XY=     1.4009   YY=    26.1439   ZY=    -0.4106
   XZ=    -1.2288   YZ=    -0.3181   ZZ=    20.6204
   Eigenvalues:    20.1951    23.9203    27.0636
     18  H    Isotropic =    23.9101   Anisotropy =     5.3701
   XX=    26.0163   YX=     1.3166   ZX=    -2.2190
   XY=     1.5131   YY=    24.3725   ZY=     0.0127
   XZ=    -2.2607   YZ=    -0.1075   ZZ=    21.3415
   Eigenvalues:    20.3787    23.8614    27.4902
     19  H    Isotropic =    23.4564   Anisotropy =     9.9057
   XX=    28.8646   YX=     1.1716   ZX=    -3.1755
   XY=     1.8662   YY=    21.3160   ZY=    -0.6325
   XZ=    -2.5641   YZ=    -1.0939   ZZ=    20.1886
   Eigenvalues:    19.2411    21.0679    30.0602
     20  H    Isotropic =    23.8446   Anisotropy =     4.0615
   XX=    24.9367   YX=    -0.7356   ZX=    -1.7672
   XY=    -0.7327   YY=    25.5506   ZY=     0.6487
   XZ=    -1.6626   YZ=     0.9308   ZZ=    21.0463
   Eigenvalues:    20.3525    24.6289    26.5522
     21  H    Isotropic =    26.0176   Anisotropy =     6.5748
   XX=    24.7669   YX=    -3.5275   ZX=    -0.7879
   XY=    -2.8721   YY=    27.6611   ZY=     1.6825
   XZ=    -2.9458   YZ=     0.1135   ZZ=    25.6247
   Eigenvalues:    22.2994    25.3525    30.4008
     22  H    Isotropic =    28.7035   Anisotropy =     5.7674
   XX=    30.3603   YX=     1.8907   ZX=    -3.0904
   XY=     1.5862   YY=    28.9317   ZY=    -1.4907
   XZ=    -2.1857   YZ=     0.9078   ZZ=    26.8186
   Eigenvalues:    25.3135    28.2487    32.5484
     23  H    Isotropic =    27.6391   Anisotropy =     7.3624
   XX=    27.3559   YX=    -1.6938   ZX=     0.5023
   XY=    -2.1106   YY=    27.9654   ZY=     5.5974
   XZ=     1.0468   YZ=     3.6390   ZZ=    27.5960
   Eigenvalues:    22.4332    27.9367    32.5474
     24  H    Isotropic =    26.8285   Anisotropy =     5.7044
   XX=    27.6182   YX=    -0.7062   ZX=    -0.3702
   XY=    -0.1517   YY=    30.3667   ZY=    -2.1531
   XZ=    -0.5130   YZ=    -0.5362   ZZ=    22.5007
   Eigenvalues:    22.2296    27.6246    30.6314
     25  H    Isotropic =    29.7590   Anisotropy =    18.8645
   XX=    29.7658   YX=     2.8669   ZX=    -5.7876
   XY=     5.0042   YY=    31.3864   ZY=    -9.0971
   XZ=    -5.6845   YZ=    -8.5379   ZZ=    28.1247
   Eigenvalues:    20.2810    26.6606    42.3353
     26  H    Isotropic =    30.7254   Anisotropy =    10.8721
   XX=    30.9068   YX=     2.2378   ZX=     3.6021
   XY=     1.3082   YY=    28.8691   ZY=     4.3473
   XZ=     4.4036   YZ=     4.3448   ZZ=    32.4003
   Eigenvalues:    25.7613    28.4415    37.9735
     27  H    Isotropic =    30.1971   Anisotropy =     8.8511
   XX=    28.9506   YX=    -3.9499   ZX=     0.5487
   XY=    -4.6417   YY=    33.1767   ZY=     1.4017
   XZ=     0.6373   YZ=     2.5189   ZZ=    28.4639
   Eigenvalues:    25.4434    29.0500    36.0978
     28  H    Isotropic =    30.9481   Anisotropy =     6.0571
   XX=    31.3822   YX=     3.8013   ZX=    -2.6688
   XY=     2.5730   YY=    28.8329   ZY=    -1.7423
   XZ=    -1.0083   YZ=     0.6431   ZZ=    32.6292
   Eigenvalues:    26.6150    31.2430    34.9862
     29  H    Isotropic =    30.4537   Anisotropy =     8.5799
   XX=    32.3689   YX=     3.1229   ZX=    -2.9597
   XY=     2.7063   YY=    29.9363   ZY=    -3.6208
   XZ=    -1.7199   YZ=    -2.3320   ZZ=    29.0558
   Eigenvalues:    26.4824    28.7050    36.1736
     30  H    Isotropic =    30.6104   Anisotropy =    11.5131
   XX=    34.5882   YX=    -5.6260   ZX=     0.7910
   XY=    -4.6137   YY=    30.8195   ZY=    -0.5848
   XZ=     1.2893   YZ=    -0.7123   ZZ=    26.4234
   Eigenvalues:    26.2930    27.2524    38.2857
     31  H    Isotropic =    30.2663   Anisotropy =     6.4586
   XX=    31.5151   YX=     0.0564   ZX=     1.6111
   XY=     0.6252   YY=    26.8095   ZY=     3.6710
   XZ=     1.2201   YZ=     2.6886   ZZ=    32.4743
   Eigenvalues:    25.3713    30.8556    34.5720
 End of Minotr Frequency-dependent properties file   721 does not exist.
 End of Minotr Frequency-dependent properties file   722 does not exist.

 **********************************************************************

            Population analysis using the SCF density.

 **********************************************************************

 Orbital symmetries:
       Occupied  (A) (A) (A) (A) (A) (A) (A) (A) (A) (A) (A) (A)
                 (A) (A) (A) (A) (A) (A) (A) (A) (A) (A) (A) (A)
                 (A) (A) (A) (A) (A) (A) (A) (A) (A) (A) (A) (A)
                 (A) (A) (A) (A) (A) (A) (A) (A) (A) (A) (A) (A)
                 (A) (A) (A) (A) (A) (A) (A) (A)
       Virtual   (A) (A) (A) (A) (A) (A) (A) (A) (A) (A) (A) (A)
                 (A) (A) (A) (A) (A) (A) (A) (A) (A) (A) (A) (A)
                 (A) (A) (A) (A) (A) (A) (A) (A) (A) (A) (A) (A)
                 (A) (A) (A) (A) (A) (A) (A) (A) (A) (A) (A) (A)
                 (A) (A) (A) (A) (A) (A) (A) (A) (A) (A) (A) (A)
                 (A) (A) (A) (A) (A) (A) (A) (A) (A) (A) (A) (A)
                 (A) (A) (A) (A) (A) (A) (A) (A) (A) (A) (A) (A)
                 (A) (A) (A) (A) (A) (A) (A) (A) (A) (A) (A) (A)
                 (A) (A) (A) (A) (A) (A) (A) (A) (A) (A) (A) (A)
                 (A) (A) (A) (A) (A) (A) (A) (A) (A) (A) (A) (A)
                 (A) (A) (A) (A) (A) (A) (A) (A) (A) (A) (A) (A)
                 (A) (A) (A) (A) (A) (A) (A) (A) (A) (A) (A) (A)
                 (A) (A) (A) (A) (A) (A) (A) (A) (A) (A) (A) (A)
                 (A) (A) (A) (A) (A) (A) (A) (A) (A) (A) (A) (A)
                 (A) (A) (A) (A) (A) (A) (A) (A) (A) (A) (A) (A)
                 (A) (A) (A) (A) (A) (A) (A) (A) (A) (A) (A) (A)
                 (A) (A) (A) (A) (A) (A) (A) (A) (A) (A) (A) (A)
                 (A) (A) (A) (A) (A) (A) (A) (A) (A) (A) (A) (A)
                 (A) (A) (A) (A) (A) (A) (A) (A) (A) (A) (A) (A)
                 (A) (A) (A) (A) (A) (A) (A) (A) (A) (A) (A) (A)
                 (A) (A) (A) (A) (A) (A) (A) (A) (A) (A) (A) (A)
                 (A) (A) (A) (A) (A) (A) (A) (A) (A) (A) (A) (A)
                 (A) (A) (A) (A) (A) (A) (A) (A) (A) (A) (A) (A)
                 (A) (A) (A) (A) (A) (A) (A) (A) (A) (A) (A) (A)
                 (A) (A) (A) (A) (A) (A) (A) (A) (A) (A) (A) (A)
                 (A) (A) (A) (A) (A) (A) (A) (A) (A)
 The electronic state is 1-A.
 Alpha  occ. eigenvalues --  -19.32787 -19.28346 -19.27736 -10.44134 -10.36328
 Alpha  occ. eigenvalues --  -10.35127 -10.31982 -10.31673 -10.30735 -10.30558
 Alpha  occ. eigenvalues --  -10.30503 -10.30441 -10.30370 -10.28733 -10.28434
 Alpha  occ. eigenvalues --   -1.20991  -1.13072  -1.12568  -0.96170  -0.91268
 Alpha  occ. eigenvalues --   -0.86643  -0.85184  -0.84583  -0.77986  -0.76119
 Alpha  occ. eigenvalues --   -0.71210  -0.69949  -0.67382  -0.64567  -0.61255
 Alpha  occ. eigenvalues --   -0.60308  -0.59160  -0.57659  -0.57543  -0.54704
 Alpha  occ. eigenvalues --   -0.53335  -0.52970  -0.52550  -0.50271  -0.50175
 Alpha  occ. eigenvalues --   -0.48756  -0.47427  -0.46552  -0.45974  -0.44948
 Alpha  occ. eigenvalues --   -0.44758  -0.44166  -0.43649  -0.42160  -0.42003
 Alpha  occ. eigenvalues --   -0.40599  -0.38809  -0.37618  -0.35889  -0.33102
 Alpha  occ. eigenvalues --   -0.32524
 Alpha virt. eigenvalues --    0.05063   0.05313   0.06407   0.06990   0.07755
 Alpha virt. eigenvalues --    0.08182   0.08483   0.09273   0.09781   0.10651
 Alpha virt. eigenvalues --    0.10748   0.11284   0.11530   0.11944   0.12917
 Alpha virt. eigenvalues --    0.13349   0.13863   0.14658   0.14742   0.15246
 Alpha virt. eigenvalues --    0.15570   0.16014   0.16793   0.17855   0.18144
 Alpha virt. eigenvalues --    0.18647   0.19287   0.19668   0.19745   0.20316
 Alpha virt. eigenvalues --    0.20773   0.21127   0.21714   0.22325   0.22749
 Alpha virt. eigenvalues --    0.22984   0.23684   0.24310   0.24704   0.25065
 Alpha virt. eigenvalues --    0.25183   0.26024   0.26391   0.27065   0.27259
 Alpha virt. eigenvalues --    0.27761   0.28164   0.28482   0.28729   0.29066
 Alpha virt. eigenvalues --    0.29560   0.30153   0.30821   0.31148   0.31415
 Alpha virt. eigenvalues --    0.31884   0.32126   0.32519   0.33304   0.33450
 Alpha virt. eigenvalues --    0.34053   0.34919   0.35020   0.35516   0.36028
 Alpha virt. eigenvalues --    0.36693   0.37274   0.37900   0.38560   0.38720
 Alpha virt. eigenvalues --    0.38885   0.39905   0.40454   0.40806   0.41442
 Alpha virt. eigenvalues --    0.41969   0.42790   0.43695   0.44132   0.44622
 Alpha virt. eigenvalues --    0.44911   0.46203   0.46771   0.47856   0.48212
 Alpha virt. eigenvalues --    0.49459   0.51092   0.51661   0.52984   0.53869
 Alpha virt. eigenvalues --    0.56235   0.56304   0.60818   0.66387   0.69946
 Alpha virt. eigenvalues --    0.73477   0.74491   0.75215   0.76492   0.77074
 Alpha virt. eigenvalues --    0.77761   0.78233   0.78654   0.79957   0.80751
 Alpha virt. eigenvalues --    0.81780   0.82234   0.83165   0.84054   0.84352
 Alpha virt. eigenvalues --    0.85053   0.86572   0.87899   0.89131   0.89863
 Alpha virt. eigenvalues --    0.90041   0.91028   0.93542   0.95283   0.96621
 Alpha virt. eigenvalues --    0.98195   0.99233   0.99540   1.01438   1.02340
 Alpha virt. eigenvalues --    1.03738   1.04857   1.05127   1.06549   1.07852
 Alpha virt. eigenvalues --    1.08129   1.09490   1.10769   1.11986   1.12609
 Alpha virt. eigenvalues --    1.13365   1.15615   1.16627   1.18047   1.19736
 Alpha virt. eigenvalues --    1.20338   1.20998   1.21851   1.23425   1.24669
 Alpha virt. eigenvalues --    1.25280   1.27719   1.27925   1.29778   1.31505
 Alpha virt. eigenvalues --    1.33256   1.34558   1.35591   1.37484   1.37784
 Alpha virt. eigenvalues --    1.39962   1.40984   1.42060   1.42385   1.45072
 Alpha virt. eigenvalues --    1.46086   1.46924   1.48039   1.49036   1.49649
 Alpha virt. eigenvalues --    1.50355   1.51956   1.52440   1.53869   1.56156
 Alpha virt. eigenvalues --    1.57487   1.59339   1.61182   1.62476   1.66711
 Alpha virt. eigenvalues --    1.67122   1.71619   1.72837   1.73811   1.77167
 Alpha virt. eigenvalues --    1.78852   1.82074   1.85426   1.86488   1.88194
 Alpha virt. eigenvalues --    1.89034   1.91849   1.92766   1.94367   1.95268
 Alpha virt. eigenvalues --    1.97715   1.98669   1.99438   2.00746   2.00864
 Alpha virt. eigenvalues --    2.01606   2.02862   2.05179   2.05533   2.06441
 Alpha virt. eigenvalues --    2.07399   2.08415   2.09778   2.10622   2.10824
 Alpha virt. eigenvalues --    2.11953   2.14194   2.15847   2.16740   2.18686
 Alpha virt. eigenvalues --    2.19712   2.20759   2.21216   2.22200   2.22872
 Alpha virt. eigenvalues --    2.24723   2.25627   2.27094   2.27834   2.30817
 Alpha virt. eigenvalues --    2.32581   2.36234   2.38186   2.39176   2.41074
 Alpha virt. eigenvalues --    2.41551   2.43796   2.45046   2.45702   2.48375
 Alpha virt. eigenvalues --    2.49471   2.50241   2.51528   2.52467   2.53350
 Alpha virt. eigenvalues --    2.55637   2.56493   2.57098   2.58353   2.62825
 Alpha virt. eigenvalues --    2.63677   2.64394   2.66289   2.68230   2.69085
 Alpha virt. eigenvalues --    2.70419   2.71917   2.73614   2.75434   2.75805
 Alpha virt. eigenvalues --    2.76587   2.78977   2.79653   2.80376   2.82994
 Alpha virt. eigenvalues --    2.83632   2.85832   2.86241   2.88112   2.89835
 Alpha virt. eigenvalues --    2.91169   2.92605   2.94142   2.95168   2.96458
 Alpha virt. eigenvalues --    2.98311   2.99794   3.03102   3.05599   3.10060
 Alpha virt. eigenvalues --    3.11365   3.17018   3.19754   3.20875   3.28322
 Alpha virt. eigenvalues --    3.30115   3.30419   3.36745   3.37465   3.39341
 Alpha virt. eigenvalues --    3.39808   3.43670   3.45353   3.51910   3.52292
 Alpha virt. eigenvalues --    3.53988   3.58170   3.58896   3.60895   3.63060
 Alpha virt. eigenvalues --    3.63679   3.64810   3.66206   3.99822   4.39610
 Alpha virt. eigenvalues --    4.40945   4.43929   4.50163   4.52937   4.55791
 Alpha virt. eigenvalues --    4.59438   4.62321   4.65398   4.70562   4.74628
 Alpha virt. eigenvalues --    4.79088   4.85139   4.93572   4.99272
          Condensed to atoms (all electrons):
              1          2          3          4          5          6
     1  C   16.546195   0.400170  -0.747826  -2.790101  -8.733775   0.125111
     2  C    0.400170   6.589818   0.058358   0.030129  -1.085767   0.259327
     3  C   -0.747826   0.058358   6.772494  -0.001887  -0.239971   0.247289
     4  C   -2.790101   0.030129  -0.001887  13.289567  -2.002970  -0.826798
     5  C   -8.733775  -1.085767  -0.239971  -2.002970  17.923768   0.598439
     6  C    0.125111   0.259327   0.247289  -0.826798   0.598439   5.472669
     7  C    1.345362  -0.460742  -0.167155  -2.164821  -0.906343   0.020735
     8  C   -0.230433   0.220278   0.176667   0.284251   0.038500  -0.066369
     9  C   -0.505067  -0.000229  -0.166634   0.420930   0.353137   0.021993
    10  O    0.162262   0.002225   0.034261  -0.172661  -0.091089  -0.000764
    11  C    0.031714   0.004759   0.007119  -0.003489  -0.014336  -0.003555
    12  O   -0.094680   0.098202  -0.021350   0.072657  -0.062834  -0.002034
    13  C    0.053859  -0.055307  -0.015218  -0.163351   0.021613   0.018470
    14  O    0.044102  -0.001660  -0.007159  -0.020966  -0.025222   0.004228
    15  C    0.011848  -0.000479  -0.009100  -0.003641   0.002931   0.001914
    16  H    0.131964  -0.002547   0.032388   0.105515   0.038771  -0.004310
    17  H    0.004414   0.269119  -0.004662   0.035003   0.016880   0.006827
    18  H    0.029056  -0.007048   0.257257   0.012434   0.004104   0.031083
    19  H    0.051668  -0.019879  -0.003801   0.081940   0.203672  -0.003827
    20  H   -0.010641   0.034573   0.044189   0.014697  -0.015925   0.258908
    21  H    0.218527   0.013876   0.047353  -0.024280  -0.184407  -0.004395
    22  H    0.011699  -0.002224  -0.000400   0.019275  -0.010085   0.000255
    23  H    0.000371   0.000086   0.000119   0.000061  -0.000520  -0.000081
    24  H   -0.000916  -0.000077  -0.000421   0.006357   0.001414   0.000567
    25  H    0.004943  -0.011601   0.002433  -0.001846   0.009361   0.000538
    26  H   -0.010003  -0.001084  -0.001467  -0.013205   0.010648   0.000264
    27  H   -0.012047   0.007403  -0.000015  -0.033569   0.061732   0.001689
    28  H    0.038411  -0.008422  -0.002173   0.012460  -0.045152  -0.000606
    29  H   -0.000591  -0.000002  -0.000040   0.001180   0.000156   0.000003
    30  H    0.000114   0.000002   0.000049  -0.000002  -0.000013   0.000001
    31  H    0.000276   0.000002   0.000066  -0.000281  -0.000144   0.000001
              7          8          9         10         11         12
     1  C    1.345362  -0.230433  -0.505067   0.162262   0.031714  -0.094680
     2  C   -0.460742   0.220278  -0.000229   0.002225   0.004759   0.098202
     3  C   -0.167155   0.176667  -0.166634   0.034261   0.007119  -0.021350
     4  C   -2.164821   0.284251   0.420930  -0.172661  -0.003489   0.072657
     5  C   -0.906343   0.038500   0.353137  -0.091089  -0.014336  -0.062834
     6  C    0.020735  -0.066369   0.021993  -0.000764  -0.003555  -0.002034
     7  C    8.887429  -0.975454  -0.193728   0.043784  -0.053285   0.007811
     8  C   -0.975454   7.850438  -1.226508  -0.298128   0.098169   0.077809
     9  C   -0.193728  -1.226508   6.745541   0.329895  -0.236847   0.025676
    10  O    0.043784  -0.298128   0.329895   8.443041   0.055440  -0.005559
    11  C   -0.053285   0.098169  -0.236847   0.055440   5.280649  -0.000331
    12  O    0.007811   0.077809   0.025676  -0.005559  -0.000331   8.344236
    13  C    0.148573   0.054227  -0.144241   0.030266  -0.002775  -0.040908
    14  O   -0.004115  -0.128557   0.651902  -0.162100   0.015957  -0.002047
    15  C    0.009815  -0.094665   0.066367  -0.040986   0.121854  -0.000069
    16  H    0.004334  -0.006083   0.014223   0.000782  -0.002149   0.000200
    17  H   -0.001035  -0.000357  -0.000557   0.000001  -0.000001   0.000066
    18  H   -0.000854  -0.001331   0.002418  -0.000046  -0.000340   0.000020
    19  H    0.017229  -0.012008  -0.005531  -0.000012  -0.000036  -0.000371
    20  H    0.000255   0.000425  -0.000238   0.000001   0.000006   0.000001
    21  H    0.177392   0.138293  -0.096925   0.018194   0.008284  -0.042576
    22  H   -0.004014   0.293041   0.041937  -0.003219  -0.006321  -0.019102
    23  H    0.002337  -0.012629   0.025135  -0.062915   0.396809  -0.000005
    24  H   -0.014842   0.014386  -0.004162  -0.036742   0.386494   0.000004
    25  H    0.085412  -0.070957   0.005838  -0.000518  -0.000415   0.229814
    26  H    0.032248  -0.110362   0.030558  -0.000721   0.000166   0.000040
    27  H   -0.069544  -0.022056  -0.002476  -0.000084  -0.000066   0.011303
    28  H    0.041684  -0.093831   0.017058   0.000049  -0.000008  -0.004449
    29  H   -0.002691   0.003657   0.009215  -0.004991  -0.050601   0.000003
    30  H   -0.000368   0.002614   0.004346   0.006717  -0.049515   0.000000
    31  H    0.001152  -0.009503   0.005651  -0.006117  -0.063813  -0.000001
             13         14         15         16         17         18
     1  C    0.053859   0.044102   0.011848   0.131964   0.004414   0.029056
     2  C   -0.055307  -0.001660  -0.000479  -0.002547   0.269119  -0.007048
     3  C   -0.015218  -0.007159  -0.009100   0.032388  -0.004662   0.257257
     4  C   -0.163351  -0.020966  -0.003641   0.105515   0.035003   0.012434
     5  C    0.021613  -0.025222   0.002931   0.038771   0.016880   0.004104
     6  C    0.018470   0.004228   0.001914  -0.004310   0.006827   0.031083
     7  C    0.148573  -0.004115   0.009815   0.004334  -0.001035  -0.000854
     8  C    0.054227  -0.128557  -0.094665  -0.006083  -0.000357  -0.001331
     9  C   -0.144241   0.651902   0.066367   0.014223  -0.000557   0.002418
    10  O    0.030266  -0.162100  -0.040986   0.000782   0.000001  -0.000046
    11  C   -0.002775   0.015957   0.121854  -0.002149  -0.000001  -0.000340
    12  O   -0.040908  -0.002047  -0.000069   0.000200   0.000066   0.000020
    13  C    5.457614  -0.005354  -0.004122   0.000580   0.000625   0.000073
    14  O   -0.005354   8.129024  -0.048634  -0.000710   0.000003  -0.000076
    15  C   -0.004122  -0.048634   5.354676   0.000993   0.000000   0.000020
    16  H    0.000580  -0.000710   0.000993   0.516971   0.000012  -0.004094
    17  H    0.000625   0.000003   0.000000   0.000012   0.497085  -0.000123
    18  H    0.000073  -0.000076   0.000020  -0.004094  -0.000123   0.497814
    19  H    0.010144   0.000005  -0.000004  -0.000116  -0.004007   0.000011
    20  H   -0.000047   0.000003  -0.000001  -0.000127  -0.003843  -0.003897
    21  H   -0.005109   0.000408  -0.002469   0.000476   0.000002  -0.000004
    22  H   -0.035593   0.002641   0.004530  -0.000017   0.000000   0.000000
    23  H   -0.000429  -0.000065  -0.017540  -0.000015   0.000000   0.000000
    24  H    0.000203   0.000284  -0.020434   0.000036   0.000000   0.000000
    25  H   -0.003592   0.000052   0.000107  -0.000001   0.000000   0.000000
    26  H    0.425915  -0.001721  -0.000141   0.000001   0.000000   0.000000
    27  H    0.417991   0.001363   0.000038   0.000000   0.000000   0.000000
    28  H    0.402813  -0.000610   0.000234  -0.000002  -0.000011  -0.000001
    29  H    0.000060  -0.000386   0.407867   0.000000   0.000000   0.000000
    30  H    0.000022  -0.000186   0.400533   0.000000   0.000000   0.000000
    31  H   -0.000463   0.001681   0.436317   0.000000   0.000000   0.000000
             19         20         21         22         23         24
     1  C    0.051668  -0.010641   0.218527   0.011699   0.000371  -0.000916
     2  C   -0.019879   0.034573   0.013876  -0.002224   0.000086  -0.000077
     3  C   -0.003801   0.044189   0.047353  -0.000400   0.000119  -0.000421
     4  C    0.081940   0.014697  -0.024280   0.019275   0.000061   0.006357
     5  C    0.203672  -0.015925  -0.184407  -0.010085  -0.000520   0.001414
     6  C   -0.003827   0.258908  -0.004395   0.000255  -0.000081   0.000567
     7  C    0.017229   0.000255   0.177392  -0.004014   0.002337  -0.014842
     8  C   -0.012008   0.000425   0.138293   0.293041  -0.012629   0.014386
     9  C   -0.005531  -0.000238  -0.096925   0.041937   0.025135  -0.004162
    10  O   -0.000012   0.000001   0.018194  -0.003219  -0.062915  -0.036742
    11  C   -0.000036   0.000006   0.008284  -0.006321   0.396809   0.386494
    12  O   -0.000371   0.000001  -0.042576  -0.019102  -0.000005   0.000004
    13  C    0.010144  -0.000047  -0.005109  -0.035593  -0.000429   0.000203
    14  O    0.000005   0.000003   0.000408   0.002641  -0.000065   0.000284
    15  C   -0.000004  -0.000001  -0.002469   0.004530  -0.017540  -0.020434
    16  H   -0.000116  -0.000127   0.000476  -0.000017  -0.000015   0.000036
    17  H   -0.004007  -0.003843   0.000002   0.000000   0.000000   0.000000
    18  H    0.000011  -0.003897  -0.000004   0.000000   0.000000   0.000000
    19  H    0.501870  -0.000118  -0.000026  -0.000019   0.000000   0.000000
    20  H   -0.000118   0.499853   0.000000   0.000000   0.000000   0.000000
    21  H   -0.000026   0.000000   0.583677  -0.004992   0.000010   0.000025
    22  H   -0.000019   0.000000  -0.004992   0.509756   0.000001  -0.000015
    23  H    0.000000   0.000000   0.000010   0.000001   0.532072  -0.031532
    24  H    0.000000   0.000000   0.000025  -0.000015  -0.031532   0.521601
    25  H    0.000059   0.000000  -0.008335   0.003826   0.000000   0.000000
    26  H    0.000022   0.000000  -0.000099  -0.003754   0.000000   0.000001
    27  H   -0.000478   0.000000   0.000031  -0.002306   0.000000   0.000000
    28  H   -0.000306   0.000000  -0.000101   0.003934   0.000000  -0.000002
    29  H    0.000000   0.000000   0.000002  -0.000020  -0.005238   0.003794
    30  H    0.000000   0.000000   0.000000  -0.000001  -0.001243  -0.001073
    31  H    0.000000   0.000000   0.000000   0.000001   0.003927  -0.004904
             25         26         27         28         29         30
     1  C    0.004943  -0.010003  -0.012047   0.038411  -0.000591   0.000114
     2  C   -0.011601  -0.001084   0.007403  -0.008422  -0.000002   0.000002
     3  C    0.002433  -0.001467  -0.000015  -0.002173  -0.000040   0.000049
     4  C   -0.001846  -0.013205  -0.033569   0.012460   0.001180  -0.000002
     5  C    0.009361   0.010648   0.061732  -0.045152   0.000156  -0.000013
     6  C    0.000538   0.000264   0.001689  -0.000606   0.000003   0.000001
     7  C    0.085412   0.032248  -0.069544   0.041684  -0.002691  -0.000368
     8  C   -0.070957  -0.110362  -0.022056  -0.093831   0.003657   0.002614
     9  C    0.005838   0.030558  -0.002476   0.017058   0.009215   0.004346
    10  O   -0.000518  -0.000721  -0.000084   0.000049  -0.004991   0.006717
    11  C   -0.000415   0.000166  -0.000066  -0.000008  -0.050601  -0.049515
    12  O    0.229814   0.000040   0.011303  -0.004449   0.000003   0.000000
    13  C   -0.003592   0.425915   0.417991   0.402813   0.000060   0.000022
    14  O    0.000052  -0.001721   0.001363  -0.000610  -0.000386  -0.000186
    15  C    0.000107  -0.000141   0.000038   0.000234   0.407867   0.400533
    16  H   -0.000001   0.000001   0.000000  -0.000002   0.000000   0.000000
    17  H    0.000000   0.000000   0.000000  -0.000011   0.000000   0.000000
    18  H    0.000000   0.000000   0.000000  -0.000001   0.000000   0.000000
    19  H    0.000059   0.000022  -0.000478  -0.000306   0.000000   0.000000
    20  H    0.000000   0.000000   0.000000   0.000000   0.000000   0.000000
    21  H   -0.008335  -0.000099   0.000031  -0.000101   0.000002   0.000000
    22  H    0.003826  -0.003754  -0.002306   0.003934  -0.000020  -0.000001
    23  H    0.000000   0.000000   0.000000   0.000000  -0.005238  -0.001243
    24  H    0.000000   0.000001   0.000000  -0.000002   0.003794  -0.001073
    25  H    0.356936  -0.000006  -0.000320   0.000055   0.000000   0.000000
    26  H   -0.000006   0.518697  -0.025079  -0.023770   0.000000   0.000000
    27  H   -0.000320  -0.025079   0.514178  -0.025019   0.000000   0.000000
    28  H    0.000055  -0.023770  -0.025019   0.502717   0.000000   0.000000
    29  H    0.000000   0.000000   0.000000   0.000000   0.517747  -0.022721
    30  H    0.000000   0.000000   0.000000   0.000000  -0.022721   0.504701
    31  H    0.000000  -0.000003   0.000000   0.000000  -0.029668  -0.022078
             31
     1  C    0.000276
     2  C    0.000002
     3  C    0.000066
     4  C   -0.000281
     5  C   -0.000144
     6  C    0.000001
     7  C    0.001152
     8  C   -0.009503
     9  C    0.005651
    10  O   -0.006117
    11  C   -0.063813
    12  O   -0.000001
    13  C   -0.000463
    14  O    0.001681
    15  C    0.436317
    16  H    0.000000
    17  H    0.000000
    18  H    0.000000
    19  H    0.000000
    20  H    0.000000
    21  H    0.000000
    22  H    0.000001
    23  H    0.003927
    24  H   -0.004904
    25  H    0.000000
    26  H   -0.000003
    27  H    0.000000
    28  H    0.000000
    29  H   -0.029668
    30  H   -0.022078
    31  H    0.507957
 Mulliken atomic charges:
              1
     1  C   -0.075984
     2  C   -0.331261
     3  C   -0.290760
     4  C   -0.162590
     5  C    0.133426
     6  C   -0.157574
     7  C    0.193438
     8  C    0.106476
     9  C   -0.188673
    10  O   -0.240266
    11  C    0.080463
    12  O   -0.571525
    13  C   -0.566536
    14  O   -0.442084
    15  C   -0.577759
    16  H    0.172925
    17  H    0.184558
    18  H    0.183525
    19  H    0.183918
    20  H    0.181927
    21  H    0.167169
    22  H    0.201186
    23  H    0.171285
    24  H    0.179953
    25  H    0.398219
    26  H    0.172856
    27  H    0.177333
    28  H    0.185048
    29  H    0.173266
    30  H    0.178100
    31  H    0.179943
 Sum of Mulliken atomic charges =   0.00000
 Mulliken charges with hydrogens summed into heavy atoms:
              1
     1  C    0.096941
     2  C   -0.146703
     3  C   -0.107235
     4  C   -0.162590
     5  C    0.317344
     6  C    0.024353
     7  C    0.360607
     8  C    0.307662
     9  C   -0.188673
    10  O   -0.240266
    11  C    0.431701
    12  O   -0.173307
    13  C   -0.031301
    14  O   -0.442084
    15  C   -0.046450
 Sum of Mulliken charges with hydrogens summed into heavy atoms =   0.00000
 Electronic spatial extent (au):  <R**2>=           3611.0274
 Charge=              0.0000 electrons
 Dipole moment (field-independent basis, Debye):
    X=              2.5171    Y=             -0.0057    Z=             -2.4583  Tot=              3.5184
 Quadrupole moment (field-independent basis, Debye-Ang):
   XX=            -81.7546   YY=            -79.5589   ZZ=            -95.6611
   XY=              2.7695   XZ=            -10.5958   YZ=              1.4969
 Traceless Quadrupole moment (field-independent basis, Debye-Ang):
   XX=              3.9036   YY=              6.0993   ZZ=            -10.0029
   XY=              2.7695   XZ=            -10.5958   YZ=              1.4969
 Octapole moment (field-independent basis, Debye-Ang**2):
  XXX=             29.9755  YYY=              0.8165  ZZZ=            -20.1374  XYY=             18.3069
  XXY=            -21.0090  XXZ=             12.2433  XZZ=             10.1642  YZZ=             14.7294
  YYZ=            -10.4244  XYZ=              1.5698
 Hexadecapole moment (field-independent basis, Debye-Ang**3):
 XXXX=          -2976.2235 YYYY=          -1025.8307 ZZZZ=           -502.8117 XXXY=            -48.1034
 XXXZ=           -109.2485 YYYX=             29.7182 YYYZ=            -37.6585 ZZZX=            -22.0530
 ZZZY=            -24.6471 XXYY=           -668.4399 XXZZ=           -660.4914 YYZZ=           -250.1028
 XXYZ=              7.8762 YYXZ=            -28.0398 ZZXY=             -0.4960
 N-N= 1.015541324415D+03 E-N=-3.643086713736D+03  KE= 6.858747136643D+02
 1\1\GINC-COMPUTE-9-6\SP\RwB97XD\6-31+G(d,p)\C12H16O3\ELUCIANO.IQUIR\17
 -May-2022\0\\# wb97xd/6-31+g** scrf=(pcm,solvent=chloroform,smd,dovacu
 um) nmr\\comment\\0,1\C,0,0.701489601,-1.533995656,-1.073265975\C,0,0.
 159436264,-3.82486078,0.417971631\C,0,1.600510199,-2.602777737,-1.0787
 923\C,0,-0.481045114,-1.593415154,-0.317821235\C,0,-0.739206864,-2.756
 351522,0.424771138\C,0,1.329793812,-3.747040345,-0.332469197\C,0,-1.43
 6163674,-0.414563012,-0.307896712\C,0,-1.134567105,0.661815077,0.75021
 7485\C,0,0.154293734,1.39407487,0.43392658\O,0,0.046887153,2.024942126
 ,-0.772509584\C,0,1.195207937,2.781524233,-1.186650957\O,0,-2.77727853
 2,-0.89037589,-0.126396211\C,0,-1.13229274,0.137441793,2.188259107\O,0
 ,1.132158357,1.455435233,1.165288732\C,0,1.126994746,4.187539877,-0.62
 1344834\H,0,0.934286584,-0.653802278,-1.668195547\H,0,-0.056777748,-4.
 71720194,0.999266573\H,0,2.513185769,-2.541785294,-1.665724657\H,0,-1.
 650361682,-2.835397687,1.014956534\H,0,2.029508638,-4.578324254,-0.336
 405644\H,0,-1.420257936,0.026935416,-1.312674249\H,0,-1.934030439,1.41
 5499196,0.712135875\H,0,1.171828242,2.822988531,-2.280529552\H,0,2.127
 083021,2.278379415,-0.904281405\H,0,-3.376079755,-0.173355477,-0.39396
 1052\H,0,-1.021741981,0.966923288,2.896143422\H,0,-2.068464246,-0.3779
 29889,2.424969381\H,0,-0.300634738,-0.550596801,2.372093415\H,0,0.1915
 37189,4.674897773,-0.915170621\H,0,1.966545412,4.790375451,-0.97880315
 4\H,0,1.148155898,4.173001436,0.472893013\\Version=EM64L-G09RevC.01\St
 ate=1-A\HF=-692.4445085\RMSD=3.595e-09\Dipole=-0.339757,0.9888582,-0.9
 071258\Quadrupole=0.0958083,3.4355768,-3.5313851,-5.4172162,-5.8415033
 ,-5.8371638\PG=C01 [X(C12H16O3)]\\@


 IT IS WELL TO REMEMBER THAT MAN IS A PART OF NATURE AND THAT HIS WORKS,
 WHATEVER THEY MAY BE, ARE NO MORE "UNNATURAL" THAN 
 THE FLIGHT OF AN EAGLE OR THE PASSAGE OF A TORNADO.

                                    -- CHARLES MCCARRY IN "THE GREAT SOUTHWEST"
 Job cpu time:  0 days  0 hours 25 minutes 54.6 seconds.
 File lengths (MBytes):  RWF=    124 Int=      0 D2E=      0 Chk=      9 Scr=      1
 Normal termination of Gaussian 09 at Tue May 17 15:58:18 2022.
