 Entering Gaussian System, Link 0=g09
 Input=/home/eluciano.iquir/wb9/73b_005.gjc
 Output=/home/eluciano.iquir/wb9/73b_005.log
 Initial command:
 /share/apps/Gaussian09/EM64T.SSE4.2-enabled/g09/l1.exe /tmp/Gau-21551.inp -scrdir=/tmp/
 Entering Link 1 = /share/apps/Gaussian09/EM64T.SSE4.2-enabled/g09/l1.exe PID=     21552.
  
 Copyright (c) 1988,1990,1992,1993,1995,1998,2003,2009,2011,
            Gaussian, Inc.  All Rights Reserved.
  
 This is part of the Gaussian(R) 09 program.  It is based on
 the Gaussian(R) 03 system (copyright 2003, Gaussian, Inc.),
 the Gaussian(R) 98 system (copyright 1998, Gaussian, Inc.),
 the Gaussian(R) 94 system (copyright 1995, Gaussian, Inc.),
 the Gaussian 92(TM) system (copyright 1992, Gaussian, Inc.),
 the Gaussian 90(TM) system (copyright 1990, Gaussian, Inc.),
 the Gaussian 88(TM) system (copyright 1988, Gaussian, Inc.),
 the Gaussian 86(TM) system (copyright 1986, Carnegie Mellon
 University), and the Gaussian 82(TM) system (copyright 1983,
 Carnegie Mellon University). Gaussian is a federally registered
 trademark of Gaussian, Inc.
  
 This software contains proprietary and confidential information,
 including trade secrets, belonging to Gaussian, Inc.
  
 This software is provided under written license and may be
 used, copied, transmitted, or stored only in accord with that
 written license.
  
 The following legend is applicable only to US Government
 contracts under FAR:
  
                    RESTRICTED RIGHTS LEGEND
  
 Use, reproduction and disclosure by the US Government is
 subject to restrictions as set forth in subparagraphs (a)
 and (c) of the Commercial Computer Software - Restricted
 Rights clause in FAR 52.227-19.
  
 Gaussian, Inc.
 340 Quinnipiac St., Bldg. 40, Wallingford CT 06492
  
  
 ---------------------------------------------------------------
 Warning -- This program may not be used in any manner that
 competes with the business of Gaussian, Inc. or will provide
 assistance to any competitor of Gaussian, Inc.  The licensee
 of this program is prohibited from giving any competitor of
 Gaussian, Inc. access to this program.  By using this program,
 the user acknowledges that Gaussian, Inc. is engaged in the
 business of creating and licensing software in the field of
 computational chemistry and represents and warrants to the
 licensee that it is not a competitor of Gaussian, Inc. and that
 it will not use this program in any manner prohibited above.
 ---------------------------------------------------------------
  

 Cite this work as:
 Gaussian 09, Revision C.01,
 M. J. Frisch, G. W. Trucks, H. B. Schlegel, G. E. Scuseria, 
 M. A. Robb, J. R. Cheeseman, G. Scalmani, V. Barone, B. Mennucci, 
 G. A. Petersson, H. Nakatsuji, M. Caricato, X. Li, H. P. Hratchian, 
 A. F. Izmaylov, J. Bloino, G. Zheng, J. L. Sonnenberg, M. Hada, 
 M. Ehara, K. Toyota, R. Fukuda, J. Hasegawa, M. Ishida, T. Nakajima, 
 Y. Honda, O. Kitao, H. Nakai, T. Vreven, J. A. Montgomery, Jr., 
 J. E. Peralta, F. Ogliaro, M. Bearpark, J. J. Heyd, E. Brothers, 
 K. N. Kudin, V. N. Staroverov, T. Keith, R. Kobayashi, J. Normand, 
 K. Raghavachari, A. Rendell, J. C. Burant, S. S. Iyengar, J. Tomasi, 
 M. Cossi, N. Rega, J. M. Millam, M. Klene, J. E. Knox, J. B. Cross, 
 V. Bakken, C. Adamo, J. Jaramillo, R. Gomperts, R. E. Stratmann, 
 O. Yazyev, A. J. Austin, R. Cammi, C. Pomelli, J. W. Ochterski, 
 R. L. Martin, K. Morokuma, V. G. Zakrzewski, G. A. Voth, 
 P. Salvador, J. J. Dannenberg, S. Dapprich, A. D. Daniels, 
 O. Farkas, J. B. Foresman, J. V. Ortiz, J. Cioslowski, 
 and D. J. Fox, Gaussian, Inc., Wallingford CT, 2010.
 
 ******************************************
 Gaussian 09:  EM64L-G09RevC.01 23-Sep-2011
                18-May-2022 
 ******************************************
 %nprocshared=4
 Will use up to    4 processors via shared memory.
 ----------------------------------------------------------------
 # wb97xd/6-31+g** scrf=(pcm,solvent=chloroform,smd,dovacuum) nmr
 ----------------------------------------------------------------
 1/38=1/1;
 2/12=2,17=6,18=5,40=1/2;
 3/5=1,6=6,7=111,11=2,16=1,25=1,30=1,70=32101,72=7,74=-58/1,2,8,3;
 4//1;
 5/5=2,38=5,53=7/2;
 8/6=1,10=90,11=11/1;
 10/13=100,45=16/2;
 6/7=2,8=2,9=2,10=2,28=1/1;
 99/9=1/99;
 -------
 comment
 -------
 Charge =  0 Multiplicity = 1
 Symbolic Z-Matrix:
 6                     1.27723  -0.75976  -1.20206 
 6                     0.63855  -3.14983   0.08108 
 6                     2.29188  -1.58462  -0.71328 
 6                    -0.07203  -1.11809  -1.05475 
 6                    -0.37699  -2.32545  -0.4066 
 6                     1.97231  -2.77905  -0.0722 
 6                    -1.16004  -0.19947  -1.5826 
 6                    -1.74895   0.7855   -0.55718 
 6                    -0.67631   1.77967  -0.15237 
 8                    -0.53612   1.87444   1.1961 
 6                     0.47587   2.77576   1.668 
 8                    -2.21969  -0.97803  -2.15457 
 6                    -2.46137   0.10803   0.61688 
 8                    -0.01833   2.4216   -0.96431 
 6                     1.82213   2.07712   1.70827 
 1                     1.55002   0.1712   -1.69772 
 1                     0.38754  -4.08074   0.58312 
 1                     3.33228  -1.29298  -0.83269 
 1                    -1.41362  -2.6297   -0.27207 
 1                     2.76268  -3.42044   0.30877 
 1                    -0.74327   0.36832  -2.42473 
 1                    -2.52372   1.37758  -1.0647 
 1                     0.18764   3.07667   2.68052 
 1                     0.51297   3.68671   1.05977 
 1                    -1.79614  -1.68694  -2.67058 
 1                    -1.76451  -0.4304    1.26701 
 1                    -2.96904   0.85474   1.23824 
 1                    -3.22196  -0.59722   0.26709 
 1                     2.58544   2.73113   2.13914 
 1                     2.14262   1.78361   0.70391 
 1                     1.76293   1.16066   2.30452 
 
                          Input orientation:                          
 ---------------------------------------------------------------------
 Center     Atomic      Atomic             Coordinates (Angstroms)
 Number     Number       Type             X           Y           Z
 ---------------------------------------------------------------------
      1          6           0        1.277226   -0.759765   -1.202059
      2          6           0        0.638546   -3.149835    0.081082
      3          6           0        2.291878   -1.584619   -0.713276
      4          6           0       -0.072027   -1.118095   -1.054746
      5          6           0       -0.376985   -2.325448   -0.406599
      6          6           0        1.972315   -2.779047   -0.072199
      7          6           0       -1.160042   -0.199475   -1.582601
      8          6           0       -1.748952    0.785503   -0.557180
      9          6           0       -0.676313    1.779668   -0.152367
     10          8           0       -0.536119    1.874435    1.196101
     11          6           0        0.475871    2.775763    1.668000
     12          8           0       -2.219693   -0.978029   -2.154566
     13          6           0       -2.461369    0.108026    0.616875
     14          8           0       -0.018331    2.421600   -0.964313
     15          6           0        1.822133    2.077125    1.708265
     16          1           0        1.550022    0.171203   -1.697719
     17          1           0        0.387536   -4.080735    0.583119
     18          1           0        3.332277   -1.292977   -0.832690
     19          1           0       -1.413624   -2.629704   -0.272070
     20          1           0        2.762679   -3.420444    0.308774
     21          1           0       -0.743268    0.368316   -2.424729
     22          1           0       -2.523721    1.377577   -1.064705
     23          1           0        0.187643    3.076673    2.680515
     24          1           0        0.512972    3.686712    1.059771
     25          1           0       -1.796138   -1.686944   -2.670583
     26          1           0       -1.764510   -0.430405    1.267011
     27          1           0       -2.969037    0.854739    1.238237
     28          1           0       -3.221961   -0.597217    0.267089
     29          1           0        2.585443    2.731127    2.139137
     30          1           0        2.142624    1.783606    0.703908
     31          1           0        1.762925    1.160664    2.304518
 ---------------------------------------------------------------------
                    Distance matrix (angstroms):
                    1          2          3          4          5
     1  C    0.000000
     2  C    2.786897   0.000000
     3  C    1.395999   2.411309   0.000000
     4  C    1.403776   2.433719   2.433577   0.000000
     5  C    2.412579   1.395976   2.786702   1.403851   0.000000
     6  C    2.416037   1.392809   1.392752   2.811316   2.415944
     7  C    2.529627   3.835021   3.819699   1.518641   2.552631
     8  C    3.458536   4.646979   4.687233   2.585214   3.403378
     9  C    3.371481   5.107186   4.521416   3.094588   4.123858
    10  O    3.997299   5.278863   4.858842   3.773185   4.498109
    11  C    4.623783   6.136569   5.289735   4.782852   5.572583
    12  O    3.630888   4.228994   4.774887   2.416959   2.875152
    13  C    4.247196   4.528819   5.218018   3.163328   3.363622
    14  O    3.443265   5.706595   4.631402   3.541257   4.793135
    15  C    4.100592   5.600867   4.415076   4.629417   5.356437
    16  H    1.089402   3.876108   2.145318   2.169504   3.407875
    17  H    3.873920   1.087025   3.396727   3.416290   2.155242
    18  H    2.154990   3.396923   1.087081   3.416018   3.873781
    19  H    3.406204   2.146312   3.875256   2.167354   1.088710
    20  H    3.401235   2.153372   2.153252   3.898148   3.401215
    21  H    2.617228   4.534962   3.994389   2.129985   3.385761
    22  H    4.362831   5.640055   5.664636   3.498468   4.330586
    23  H    5.565952   6.762379   6.137856   5.622783   6.247559
    24  H    5.046892   6.907385   5.839104   5.282005   6.252066
    25  H    3.530126   3.954668   4.533586   2.430448   2.747237
    26  H    3.931531   3.817906   4.659188   2.954313   2.883987
    27  H    5.156784   5.512738   6.118505   4.188378   4.420160
    28  H    4.735768   4.631843   5.686695   3.455523   3.396251
    29  H    5.006131   6.527764   5.181516   5.663881   6.389499
    30  H    3.293988   5.195094   3.657271   4.051841   4.946310
    31  H    4.027410   4.978785   4.113812   4.454711   4.907377
                    6          7          8          9         10
     6  C    0.000000
     7  C    4.329800   0.000000
     8  C    5.175814   1.538988   0.000000
     9  C    5.272906   2.489290   1.517496   0.000000
    10  O    5.436517   3.523005   2.393895   1.359044   0.000000
    11  C    6.010287   4.700496   3.723225   2.373494   1.434993
    12  O    5.015261   1.433929   2.425548   3.741085   4.711469
    13  C    5.335500   2.574044   1.531313   2.563698   2.676246
    14  O    5.639616   2.925033   2.416117   1.226488   2.287986
    15  C    5.174458   4.990598   4.421898   3.129323   2.421724
    16  H    3.394793   2.737718   3.544209   3.151481   3.953121
    17  H    2.152988   4.706328   5.435544   6.001420   6.057469
    18  H    2.153195   4.683913   5.496806   5.096349   5.395644
    19  H    3.395119   2.772690   3.443453   4.472194   4.817967
    20  H    1.086833   5.416612   6.228538   6.251438   6.301203
    21  H    4.776472   1.097846   2.161755   2.675822   3.927049
    22  H    6.202977   2.148239   1.099272   2.099274   3.051011
    23  H    6.712074   5.542883   4.413903   3.233244   2.042717
    24  H    6.724364   4.988342   4.018439   2.553526   2.098458
    25  H    4.705903   1.949587   3.252951   4.428636   5.405767
    26  H    4.612316   2.922156   2.192338   2.843102   2.612711
    27  H    6.272049   3.512970   2.171849   2.836523   2.638304
    28  H    5.644111   2.798404   2.181992   3.507969   3.766414
    29  H    5.968915   6.038909   5.462835   4.098209   3.371555
    30  H    4.631323   4.479769   4.210810   2.946120   2.725099
    31  H    4.605860   5.050090   4.545695   3.517006   2.650219
                   11         12         13         14         15
    11  C    0.000000
    12  O    5.997419   0.000000
    13  C    4.104761   2.986438   0.000000
    14  O    2.701618   4.221395   3.717689   0.000000
    15  C    1.517279   6.371168   4.839098   3.263226   0.000000
    16  H    4.389259   3.967391   4.631694   2.839349   3.912455
    17  H    6.942358   4.890741   5.065878   6.696241   6.422092
    18  H    5.564814   5.715848   6.134361   5.004197   4.482698
    19  H    6.045919   2.630887   3.063194   5.285992   6.045336
    20  H    6.743142   6.071035   6.311553   6.594259   5.750345
    21  H    4.902299   2.016299   3.502995   2.621894   5.155866
    22  H    4.291871   2.613257   2.107928   2.716070   5.202420
    23  H    1.094901   6.753806   4.482046   3.708951   2.148470
    24  H    1.095969   6.289613   4.674383   2.445344   2.173756
    25  H    6.625789   0.973772   3.804186   4.790834   6.814280
    26  H    3.931871   3.494892   1.094622   4.020184   4.398456
    27  H    3.967672   3.928317   1.096083   4.001618   4.966937
    28  H    5.197452   2.648391   1.094631   4.570870   5.888291
    29  H    2.162003   7.435258   5.887975   4.062862   1.093623
    30  H    2.166082   5.901467   4.900193   2.803520   1.094349
    31  H    2.161066   6.349700   4.669137   3.930405   1.094953
                   16         17         18         19         20
    16  H    0.000000
    17  H    4.963121   0.000000
    18  H    2.463439   4.295068   0.000000
    19  H    4.319809   2.465972   4.962329   0.000000
    20  H    4.289112   2.480434   2.480625   4.290006   0.000000
    21  H    2.413830   5.488162   4.680230   3.751192   5.841097
    22  H    4.295512   6.401868   6.440373   4.233071   7.270039
    23  H    5.428329   7.461067   6.428466   6.621522   7.380277
    24  H    4.586722   7.783069   6.027205   6.736667   7.492453
    25  H    3.949172   4.591868   5.462023   2.605375   5.715278
    26  H    4.487501   4.292309   5.579427   2.707177   5.509445
    27  H    5.432214   6.004554   6.971943   4.103862   7.210663
    28  H    5.217543   5.026255   6.682187   2.773405   6.617269
    29  H    4.727237   7.324852   5.057957   7.109498   6.420550
    30  H    2.952767   6.122534   3.638925   5.751238   5.255734
    31  H    4.128227   5.685699   4.280805   5.576393   5.095984
                   21         22         23         24         25
    21  H    0.000000
    22  H    2.457292   0.000000
    23  H    5.853658   4.925961   0.000000
    24  H    4.973091   4.366578   1.762044   0.000000
    25  H    2.322299   3.535465   7.433820   6.937125   0.000000
    26  H    3.912778   3.046654   4.255407   4.709620   4.133344
    27  H    4.313697   2.403167   4.120896   4.491805   4.807778
    28  H    3.784449   2.482142   5.563047   5.738477   3.442440
    29  H    6.123077   6.180635   2.482325   2.524541   7.864541
    30  H    4.485509   5.006757   3.066096   2.530655   6.240653
    31  H    5.410600   5.456560   2.508780   3.081022   6.747402
                   26         27         28         29         30
    26  H    0.000000
    27  H    1.761621   0.000000
    28  H    1.775340   1.765014   0.000000
    29  H    5.447750   5.931669   6.950423   0.000000
    30  H    4.525994   5.222775   5.885397   1.775885   0.000000
    31  H    4.006335   4.860248   5.664834   1.780517   1.759028
                   31
    31  H    0.000000
 Stoichiometry    C12H16O3
 Framework group  C1[X(C12H16O3)]
 Deg. of freedom    87
 Full point group                 C1      NOp   1
 Largest Abelian subgroup         C1      NOp   1
 Largest concise Abelian subgroup C1      NOp   1
                         Standard orientation:                         
 ---------------------------------------------------------------------
 Center     Atomic      Atomic             Coordinates (Angstroms)
 Number     Number       Type             X           Y           Z
 ---------------------------------------------------------------------
      1          6           0        1.185068    0.913187   -1.107581
      2          6           0        2.945152    0.899795    1.053142
      3          6           0        1.893077    2.069268   -0.774392
      4          6           0        1.346354   -0.266250   -0.363605
      5          6           0        2.237136   -0.256667    0.721389
      6          6           0        2.772690    2.062155    0.305417
      7          6           0        0.556343   -1.508686   -0.735767
      8          6           0       -0.762978   -1.707845    0.031182
      9          6           0       -1.729897   -0.602385   -0.350681
     10          8           0       -2.251784    0.030492    0.732879
     11          6           0       -3.159401    1.108731    0.462998
     12          8           0        1.377302   -2.673574   -0.576974
     13          6           0       -0.581924   -1.898993    1.539692
     14          8           0       -2.002453   -0.324097   -1.513669
     15          6           0       -2.390473    2.398175    0.243407
     16          1           0        0.500371    0.942199   -1.954425
     17          1           0        3.629718    0.893346    1.897506
     18          1           0        1.756235    2.975921   -1.358343
     19          1           0        2.381175   -1.153654    1.321353
     20          1           0        3.323061    2.962728    0.564775
     21          1           0        0.340783   -1.462089   -1.811234
     22          1           0       -1.223711   -2.639576   -0.326590
     23          1           0       -3.803898    1.210449    1.342251
     24          1           0       -3.810158    0.878024   -0.388140
     25          1           0        2.253390   -2.447062   -0.936687
     26          1           0       -0.226039   -0.987930    2.031124
     27          1           0       -1.536237   -2.165291    2.008489
     28          1           0        0.124735   -2.706428    1.756258
     29          1           0       -3.075580    3.240656    0.113531
     30          1           0       -1.752590    2.329097   -0.643123
     31          1           0       -1.732651    2.604135    1.094155
 ---------------------------------------------------------------------
 Rotational constants (GHZ):      0.7516435      0.5027074      0.3749366
 Standard basis: 6-31+G(d,p) (6D, 7F)
 There are   365 symmetry adapted basis functions of A   symmetry.
 Integral buffers will be    131072 words long.
 Raffenetti 2 integral format.
 Two-electron integral symmetry is turned on.
   365 basis functions,   592 primitive gaussians,   365 cartesian basis functions
    56 alpha electrons       56 beta electrons
       nuclear repulsion energy      1030.8675743748 Hartrees.
 NAtoms=   31 NActive=   31 NUniq=   31 SFac= 1.00D+00 NAtFMM=   60 NAOKFM=F Big=F
 Nuclear repulsion after empirical dispersion term =     1030.8448327062 Hartrees.
 ------------------------------------------------------------------------------
 Polarizable Continuum Model (PCM)
 =================================
 Model                : C-PCM.
 Atomic radii         : SMD-Coulomb.
 Polarization charges : Total charges.
 Charge compensation  : None.
 Solution method      : Matrix inversion.
 Cavity type          : VdW (van der Waals Surface) (Alpha=1.000).
 Cavity algorithm     : GePol (No added spheres)
                        Default sphere list used, NSphG=   31.
                        Lebedev-Laikov grids with approx.  5.0 points / Ang**2.
                        Smoothing algorithm: Karplus/York (Gamma=1.0000).
                        Polarization charges: spherical gaussians, with
                                              point-specific exponents (IZeta= 3).
                        Self-potential: point-specific (ISelfS= 7).
                        Self-field    : sphere-specific E.n sum rule (ISelfD= 2).
 Solvent              : Chloroform, Eps=   4.711300 Eps(inf)=   2.090627
 ------------------------------------------------------------------------------
 ------------------------------------------------------------------------------
 Atomic radii for non-electrostatic terms: SMD-CDS.
 ------------------------------------------------------------------------------
 Nuclear repulsion after PCM non-electrostatic terms =     1030.8384847865 Hartrees.
 One-electron integrals computed using PRISM.
 NBasis=   365 RedAO= T  NBF=   365
 NBsUse=   365 1.00D-06 NBFU=   365
 Harris functional with IExCor= 4639 diagonalized for initial guess.
 ExpMin= 4.38D-02 ExpMax= 5.48D+03 ExpMxC= 8.25D+02 IAcc=2 IRadAn=         4 AccDes= 0.00D+00
 HarFok:  IExCor= 4639 AccDes= 0.00D+00 IRadAn=         4 IDoV= 1
 ScaDFX=  1.000000  1.000000  1.000000  1.000000
 FoFCou: FMM=F IPFlag=           0 FMFlag=      100000 FMFlg1=           0
         NFxFlg=           0 DoJE=T BraDBF=F KetDBF=T FulRan=T
         Omega=  0.000000  0.000000  1.000000  0.000000  0.000000 ICntrl=     500 IOpCl=  0
         NMat0=    1 NMatS0=    1 NMatT0=    0 NMatD0=    1 NMtDS0=    0 NMtDT0=    0
         I1Cent=           4 NGrid=           0.
 Petite list used in FoFCou.
 Initial guess orbital symmetries:
       Occupied  (A) (A) (A) (A) (A) (A) (A) (A) (A) (A) (A) (A)
                 (A) (A) (A) (A) (A) (A) (A) (A) (A) (A) (A) (A)
                 (A) (A) (A) (A) (A) (A) (A) (A) (A) (A) (A) (A)
                 (A) (A) (A) (A) (A) (A) (A) (A) (A) (A) (A) (A)
                 (A) (A) (A) (A) (A) (A) (A) (A)
       Virtual   (A) (A) (A) (A) (A) (A) (A) (A) (A) (A) (A) (A)
                 (A) (A) (A) (A) (A) (A) (A) (A) (A) (A) (A) (A)
                 (A) (A) (A) (A) (A) (A) (A) (A) (A) (A) (A) (A)
                 (A) (A) (A) (A) (A) (A) (A) (A) (A) (A) (A) (A)
                 (A) (A) (A) (A) (A) (A) (A) (A) (A) (A) (A) (A)
                 (A) (A) (A) (A) (A) (A) (A) (A) (A) (A) (A) (A)
                 (A) (A) (A) (A) (A) (A) (A) (A) (A) (A) (A) (A)
                 (A) (A) (A) (A) (A) (A) (A) (A) (A) (A) (A) (A)
                 (A) (A) (A) (A) (A) (A) (A) (A) (A) (A) (A) (A)
                 (A) (A) (A) (A) (A) (A) (A) (A) (A) (A) (A) (A)
                 (A) (A) (A) (A) (A) (A) (A) (A) (A) (A) (A) (A)
                 (A) (A) (A) (A) (A) (A) (A) (A) (A) (A) (A) (A)
                 (A) (A) (A) (A) (A) (A) (A) (A) (A) (A) (A) (A)
                 (A) (A) (A) (A) (A) (A) (A) (A) (A) (A) (A) (A)
                 (A) (A) (A) (A) (A) (A) (A) (A) (A) (A) (A) (A)
                 (A) (A) (A) (A) (A) (A) (A) (A) (A) (A) (A) (A)
                 (A) (A) (A) (A) (A) (A) (A) (A) (A) (A) (A) (A)
                 (A) (A) (A) (A) (A) (A) (A) (A) (A) (A) (A) (A)
                 (A) (A) (A) (A) (A) (A) (A) (A) (A) (A) (A) (A)
                 (A) (A) (A) (A) (A) (A) (A) (A) (A) (A) (A) (A)
                 (A) (A) (A) (A) (A) (A) (A) (A) (A) (A) (A) (A)
                 (A) (A) (A) (A) (A) (A) (A) (A) (A) (A) (A) (A)
                 (A) (A) (A) (A) (A) (A) (A) (A) (A) (A) (A) (A)
                 (A) (A) (A) (A) (A) (A) (A) (A) (A) (A) (A) (A)
                 (A) (A) (A) (A) (A) (A) (A) (A) (A) (A) (A) (A)
                 (A) (A) (A) (A) (A) (A) (A) (A) (A)
 The electronic state of the initial guess is 1-A.
 Requested convergence on RMS density matrix=1.00D-08 within 128 cycles.
 Requested convergence on MAX density matrix=1.00D-06.
 Requested convergence on             energy=1.00D-06.
 No special actions if energy rises.
 FoFJK:  IHMeth= 1 ICntrl=     0 DoSepK=T KAlg= 1 I1Cent= 0 FoldK=F
 FoFJK:  IHMeth= 1 ICntrl=     0 DoSepK=T KAlg= 1 I1Cent= 0 FoldK=F
 FoFJK:  IHMeth= 1 ICntrl=     0 DoSepK=T KAlg= 1 I1Cent= 0 FoldK=F
 FoFJK:  IHMeth= 1 ICntrl=     0 DoSepK=T KAlg= 1 I1Cent= 0 FoldK=F
 FoFJK:  IHMeth= 1 ICntrl=     0 DoSepK=T KAlg= 1 I1Cent= 0 FoldK=F
 FoFJK:  IHMeth= 1 ICntrl=     0 DoSepK=T KAlg= 1 I1Cent= 0 FoldK=F
 FoFJK:  IHMeth= 1 ICntrl=     0 DoSepK=T KAlg= 1 I1Cent= 0 FoldK=F
 FoFJK:  IHMeth= 1 ICntrl=     0 DoSepK=T KAlg= 1 I1Cent= 0 FoldK=F
 FoFJK:  IHMeth= 1 ICntrl=     0 DoSepK=T KAlg= 1 I1Cent= 0 FoldK=F
 FoFJK:  IHMeth= 1 ICntrl=     0 DoSepK=T KAlg= 1 I1Cent= 0 FoldK=F
 FoFJK:  IHMeth= 1 ICntrl=     0 DoSepK=T KAlg= 1 I1Cent= 0 FoldK=F
 FoFJK:  IHMeth= 1 ICntrl=     0 DoSepK=T KAlg= 1 I1Cent= 0 FoldK=F
 FoFJK:  IHMeth= 1 ICntrl=     0 DoSepK=T KAlg= 1 I1Cent= 0 FoldK=F
 FoFJK:  IHMeth= 1 ICntrl=     0 DoSepK=T KAlg= 1 I1Cent= 0 FoldK=F
 FoFJK:  IHMeth= 1 ICntrl=     0 DoSepK=T KAlg= 1 I1Cent= 0 FoldK=F
 Error on total polarization charges =  0.03707
 SCF Done:  E(RwB97XD) =  -692.444334093     A.U. after   15 cycles
             Convg  =    0.9286D-08             -V/T =  2.0096
 SMD-CDS (non-electrostatic) energy       (kcal/mol) =      -3.98
 (included in total energy above)
 Range of M.O.s used for correlation:     1   365
 NBasis=   365 NAE=    56 NBE=    56 NFC=     0 NFV=     0
 NROrb=    365 NOA=    56 NOB=    56 NVA=   309 NVB=   309

 **** Warning!!: The largest alpha MO coefficient is  0.11434761D+03

 NEqPCM:  Using equilibrium solvation (IEInf=0, Eps=   4.7113, EpsInf=   2.0906)
          Differentiating once with respect to magnetic field using GIAOs.
          Electric field/nuclear overlap derivatives assumed to be zero.
 FoFCou: FMM=F IPFlag=           0 FMFlag=    10101102 FMFlg1=           0
         NFxFlg=    40000000 DoJE=F BraDBF=F KetDBF=T FulRan=T
         Omega=  0.000000  0.000000  1.000000  0.000000  0.000000 ICntrl=    6100 IOpCl=  0
         NMat0=    1 NMatS0=    1 NMatT0=    0 NMatD0=    1 NMtDS0=    0 NMtDT0=    0
         I1Cent=           7 NGrid=        2269.
 Symmetry not used in FoFCou.
 FoFJK:  IHMeth= 1 ICntrl=  6127 DoSepK=T KAlg= 1 I1Cent= 0 FoldK=F
 FoFJK:  IHMeth= 1 ICntrl=     0 DoSepK=T KAlg= 1 I1Cent= 0 FoldK=F
          There are     3 degrees of freedom in the 1st order CPHF.  IDoFFX=0.
      3 vectors produced by pass  0 Test12= 5.77D-13 3.33D-08 XBig12= 1.03D+02 2.01D+00.
 AX will form     3 AO Fock derivatives at one time.
 FoFJK:  IHMeth= 1 ICntrl=     0 DoSepK=T KAlg= 1 I1Cent= 0 FoldK=F
      3 vectors produced by pass  1 Test12= 5.77D-13 3.33D-08 XBig12= 7.45D-01 2.00D-01.
 FoFJK:  IHMeth= 1 ICntrl=     0 DoSepK=T KAlg= 1 I1Cent= 0 FoldK=F
      3 vectors produced by pass  2 Test12= 5.77D-13 3.33D-08 XBig12= 1.37D-02 3.86D-02.
 FoFJK:  IHMeth= 1 ICntrl=     0 DoSepK=T KAlg= 1 I1Cent= 0 FoldK=F
      3 vectors produced by pass  3 Test12= 5.77D-13 3.33D-08 XBig12= 2.70D-04 4.40D-03.
 FoFJK:  IHMeth= 1 ICntrl=     0 DoSepK=T KAlg= 1 I1Cent= 0 FoldK=F
      3 vectors produced by pass  4 Test12= 5.77D-13 3.33D-08 XBig12= 4.42D-06 4.11D-04.
 FoFJK:  IHMeth= 1 ICntrl=     0 DoSepK=T KAlg= 1 I1Cent= 0 FoldK=F
      3 vectors produced by pass  5 Test12= 5.77D-13 3.33D-08 XBig12= 7.40D-08 6.02D-05.
 FoFJK:  IHMeth= 1 ICntrl=     0 DoSepK=T KAlg= 1 I1Cent= 0 FoldK=F
      3 vectors produced by pass  6 Test12= 5.77D-13 3.33D-08 XBig12= 1.24D-09 1.16D-05.
 FoFJK:  IHMeth= 1 ICntrl=     0 DoSepK=T KAlg= 1 I1Cent= 0 FoldK=F
      3 vectors produced by pass  7 Test12= 5.77D-13 3.33D-08 XBig12= 1.85D-11 1.16D-06.
 FoFJK:  IHMeth= 1 ICntrl=     0 DoSepK=T KAlg= 1 I1Cent= 0 FoldK=F
      3 vectors produced by pass  8 Test12= 5.77D-13 3.33D-08 XBig12= 1.83D-13 9.28D-08.
 FoFJK:  IHMeth= 1 ICntrl=     0 DoSepK=T KAlg= 1 I1Cent= 0 FoldK=F
 Inverted reduced A of dimension    27 with in-core refinement.
 Calculating GIAO nuclear magnetic shielding tensors.
 SCF GIAO Magnetic shielding tensor (ppm):
      1  C    Isotropic =    69.7341   Anisotropy =   167.2465
   XX=    89.7438   YX=   -33.7258   ZX=   -96.2763
   XY=   -21.5359   YY=    70.3402   ZY=    24.6774
   XZ=   -94.9323   YZ=    32.5142   ZZ=    49.1183
   Eigenvalues:   -28.5642    56.5347   181.2317
      2  C    Isotropic =    70.3819   Anisotropy =   175.6880
   XX=    95.8375   YX=   -27.9558   ZX=  -100.3608
   XY=   -26.7932   YY=    67.0862   ZY=    20.8814
   XZ=  -104.2985   YZ=    24.0684   ZZ=    48.2219
   Eigenvalues:   -33.0365    56.6749   187.5072
      3  C    Isotropic =    70.0385   Anisotropy =   175.0020
   XX=   126.9593   YX=   -16.3820   ZX=   -66.7037
   XY=   -16.9169   YY=     3.0064   ZY=    62.8107
   XZ=   -63.6079   YZ=    60.3389   ZZ=    80.1498
   Eigenvalues:   -33.2749    56.6839   186.7065
      4  C    Isotropic =    54.8297   Anisotropy =   180.8312
   XX=    99.0570   YX=   -61.8630   ZX=   -65.9825
   XY=   -58.6233   YY=     1.9855   ZY=    15.5745
   XZ=   -78.4195   YZ=    18.6676   ZZ=    63.4466
   Eigenvalues:   -30.8794    19.9846   175.3838
      5  C    Isotropic =    71.3318   Anisotropy =   182.0963
   XX=   123.9543   YX=   -25.1090   ZX=   -72.0774
   XY=   -14.0068   YY=     9.9161   ZY=    61.6231
   XZ=   -68.7301   YZ=    67.8582   ZZ=    80.1250
   Eigenvalues:   -31.6365    52.9026   192.7293
      6  C    Isotropic =    71.4181   Anisotropy =   177.4036
   XX=   110.1996   YX=   -59.4637   ZX=   -70.1313
   XY=   -64.6367   YY=     4.8666   ZY=     6.1645
   XZ=   -72.5869   YZ=     2.5186   ZZ=    99.1880
   Eigenvalues:   -30.4090    54.9762   189.6871
      7  C    Isotropic =   121.7540   Anisotropy =    38.2484
   XX=   117.0870   YX=   -14.9171   ZX=     1.8472
   XY=   -16.4696   YY=   137.1347   ZY=    -3.7677
   XZ=     4.6644   YZ=    -9.5861   ZZ=   111.0401
   Eigenvalues:   108.3841   109.6249   147.2529
      8  C    Isotropic =   150.7779   Anisotropy =    28.8622
   XX=   159.4368   YX=   -11.5645   ZX=     5.4045
   XY=   -14.7584   YY=   150.6884   ZY=    -7.9320
   XZ=    -4.2168   YZ=    -8.7324   ZZ=   142.2084
   Eigenvalues:   134.8693   147.4450   170.0193
      9  C    Isotropic =    21.4916   Anisotropy =    98.3424
   XX=    34.5908   YX=    62.0214   ZX=    22.0095
   XY=    64.4102   YY=    10.6685   ZY=   -18.6557
   XZ=    40.1436   YZ=   -49.7757   ZZ=    19.2154
   Eigenvalues:   -66.5696    43.9911    87.0532
     10  O    Isotropic =   122.8769   Anisotropy =   184.1088
   XX=   147.7756   YX=    99.8058   ZX=   -33.4807
   XY=    92.6579   YY=   149.2660   ZY=    39.9436
   XZ=  -116.0541   YZ=   135.3300   ZZ=    71.5892
   Eigenvalues:   -53.4084   176.4231   245.6161
     11  C    Isotropic =   137.6244   Anisotropy =    65.9455
   XX=   150.3759   YX=   -22.0861   ZX=     1.0520
   XY=   -26.2151   YY=   161.2124   ZY=   -13.0886
   XZ=     0.7052   YZ=    -8.8409   ZZ=   101.2850
   Eigenvalues:    99.0770   132.2082   181.5881
     12  O    Isotropic =   280.0575   Anisotropy =    77.4593
   XX=   325.2216   YX=     4.9270   ZX=   -21.3376
   XY=     5.4016   YY=   291.0976   ZY=    10.4562
   XZ=   -31.4445   YZ=    25.1982   ZZ=   223.8532
   Eigenvalues:   212.9910   295.4844   331.6970
     13  C    Isotropic =   187.0042   Anisotropy =     9.4013
   XX=   185.5919   YX=    -2.0790   ZX=     3.6564
   XY=    -1.7298   YY=   183.7612   ZY=    -2.2443
   XZ=     1.8232   YZ=    -1.1882   ZZ=   191.6593
   Eigenvalues:   182.5636   185.1771   193.2717
     14  O    Isotropic =   -41.9774   Anisotropy =   565.7707
   XX=   113.2677   YX=   255.2171   ZX=    22.1910
   XY=   251.1263   YY=    46.1804   ZY=     7.2234
   XZ=    20.4520   YZ=   -32.6362   ZZ=  -285.3805
   Eigenvalues:  -290.3346  -170.8008   335.2030
     15  C    Isotropic =   181.4930   Anisotropy =    23.9734
   XX=   186.6556   YX=     5.8862   ZX=     1.4168
   XY=     0.8243   YY=   195.6951   ZY=    -4.4952
   XZ=    -0.4346   YZ=    -6.0334   ZZ=   162.1285
   Eigenvalues:   161.2829   185.7209   197.4753
     16  H    Isotropic =    23.9413   Anisotropy =     7.4211
   XX=    22.9323   YX=     2.8397   ZX=    -0.9998
   XY=     2.8583   YY=    26.6403   ZY=    -2.1441
   XZ=    -0.3733   YZ=    -2.0190   ZZ=    22.2511
   Eigenvalues:    21.0888    21.8464    28.8886
     17  H    Isotropic =    23.6858   Anisotropy =     4.8148
   XX=    22.8269   YX=     1.7477   ZX=     1.8003
   XY=     1.7839   YY=    26.1291   ZY=    -0.7171
   XZ=     1.6002   YZ=    -0.8164   ZZ=    22.1014
   Eigenvalues:    20.2158    23.9459    26.8957
     18  H    Isotropic =    23.9227   Anisotropy =     4.8713
   XX=    23.9681   YX=     2.2675   ZX=     1.9572
   XY=     2.5031   YY=    24.4308   ZY=     0.0396
   XZ=     2.0888   YZ=     0.0631   ZZ=    23.3693
   Eigenvalues:    20.8298    23.7682    27.1702
     19  H    Isotropic =    23.3349   Anisotropy =     9.2038
   XX=    25.4544   YX=     2.7619   ZX=     4.2872
   XY=     2.9208   YY=    22.6309   ZY=     1.8309
   XZ=     3.1538   YZ=     1.8101   ZZ=    21.9195
   Eigenvalues:    19.5677    20.9663    29.4708
     20  H    Isotropic =    23.7888   Anisotropy =     4.0267
   XX=    23.2405   YX=     0.7562   ZX=     2.5753
   XY=     0.6814   YY=    24.2254   ZY=    -1.5871
   XZ=     2.4321   YZ=    -1.8271   ZZ=    23.9004
   Eigenvalues:    20.3143    24.5788    26.4733
     21  H    Isotropic =    25.9258   Anisotropy =     6.1637
   XX=    23.4186   YX=    -2.7077   ZX=     1.2875
   XY=    -2.1568   YY=    25.7753   ZY=    -1.7330
   XZ=     2.2901   YZ=    -0.5613   ZZ=    28.5834
   Eigenvalues:    21.7608    25.9817    30.0349
     22  H    Isotropic =    28.3208   Anisotropy =     6.7556
   XX=    27.2684   YX=     3.5935   ZX=     2.0457
   XY=     2.4313   YY=    29.8514   ZY=     2.4006
   XZ=     1.6458   YZ=     0.4368   ZZ=    27.8425
   Eigenvalues:    25.0103    27.1275    32.8245
     23  H    Isotropic =    27.9848   Anisotropy =     9.0626
   XX=    30.7860   YX=    -1.5565   ZX=    -5.6470
   XY=    -1.7956   YY=    27.1413   ZY=    -0.3367
   XZ=    -4.1418   YZ=    -0.9028   ZZ=    26.0272
   Eigenvalues:    22.5213    27.4066    34.0266
     24  H    Isotropic =    27.0205   Anisotropy =     7.1435
   XX=    30.8052   YX=    -0.7240   ZX=     3.7454
   XY=    -1.3309   YY=    26.2241   ZY=    -0.3023
   XZ=     1.3417   YZ=     1.1424   ZZ=    24.0322
   Eigenvalues:    23.0159    26.2628    31.7829
     25  H    Isotropic =    29.8988   Anisotropy =    15.5030
   XX=    38.2059   YX=    -2.0431   ZX=    -6.5305
   XY=    -0.6549   YY=    27.5720   ZY=    -0.6049
   XZ=    -4.5006   YZ=     1.1413   ZZ=    23.9186
   Eigenvalues:    22.0311    27.4313    40.2342
     26  H    Isotropic =    30.6757   Anisotropy =     5.7695
   XX=    29.6665   YX=     3.8412   ZX=     0.3881
   XY=     1.1669   YY=    30.4449   ZY=     3.2660
   XZ=     0.4786   YZ=     1.6360   ZZ=    31.9157
   Eigenvalues:    27.1171    30.3879    34.5221
     27  H    Isotropic =    30.5485   Anisotropy =    10.4852
   XX=    32.7878   YX=     2.5870   ZX=    -3.9406
   XY=     1.3467   YY=    27.8699   ZY=    -3.3165
   XZ=    -4.5611   YZ=    -3.0283   ZZ=    30.9877
   Eigenvalues:    25.8098    28.2971    37.5386
     28  H    Isotropic =    30.1430   Anisotropy =     9.0368
   XX=    29.5535   YX=    -3.3092   ZX=     0.5272
   XY=    -4.2409   YY=    30.8010   ZY=    -3.6776
   XZ=     0.9631   YZ=    -4.2582   ZZ=    30.0746
   Eigenvalues:    25.2015    29.0600    36.1675
     29  H    Isotropic =    30.8547   Anisotropy =    11.7706
   XX=    30.2530   YX=    -4.1320   ZX=     0.7666
   XY=    -5.0618   YY=    36.0631   ZY=    -1.1841
   XZ=     0.1181   YZ=    -0.9492   ZZ=    26.2479
   Eigenvalues:    26.1320    27.7302    38.7017
     30  H    Isotropic =    30.5746   Anisotropy =     6.3426
   XX=    31.3581   YX=     0.2809   ZX=    -3.6440
   XY=    -0.2795   YY=    30.6093   ZY=    -1.4053
   XZ=    -4.6072   YZ=     0.0739   ZZ=    29.7565
   Eigenvalues:    26.2934    30.6274    34.8031
     31  H    Isotropic =    31.1670   Anisotropy =     6.4027
   XX=    31.9027   YX=     0.8517   ZX=     3.7465
   XY=     1.3114   YY=    30.8013   ZY=     2.9575
   XZ=     1.2470   YZ=     2.5470   ZZ=    30.7970
   Eigenvalues:    27.7215    30.3440    35.4355
 End of Minotr Frequency-dependent properties file   721 does not exist.
 End of Minotr Frequency-dependent properties file   722 does not exist.

 **********************************************************************

            Population analysis using the SCF density.

 **********************************************************************

 Orbital symmetries:
       Occupied  (A) (A) (A) (A) (A) (A) (A) (A) (A) (A) (A) (A)
                 (A) (A) (A) (A) (A) (A) (A) (A) (A) (A) (A) (A)
                 (A) (A) (A) (A) (A) (A) (A) (A) (A) (A) (A) (A)
                 (A) (A) (A) (A) (A) (A) (A) (A) (A) (A) (A) (A)
                 (A) (A) (A) (A) (A) (A) (A) (A)
       Virtual   (A) (A) (A) (A) (A) (A) (A) (A) (A) (A) (A) (A)
                 (A) (A) (A) (A) (A) (A) (A) (A) (A) (A) (A) (A)
                 (A) (A) (A) (A) (A) (A) (A) (A) (A) (A) (A) (A)
                 (A) (A) (A) (A) (A) (A) (A) (A) (A) (A) (A) (A)
                 (A) (A) (A) (A) (A) (A) (A) (A) (A) (A) (A) (A)
                 (A) (A) (A) (A) (A) (A) (A) (A) (A) (A) (A) (A)
                 (A) (A) (A) (A) (A) (A) (A) (A) (A) (A) (A) (A)
                 (A) (A) (A) (A) (A) (A) (A) (A) (A) (A) (A) (A)
                 (A) (A) (A) (A) (A) (A) (A) (A) (A) (A) (A) (A)
                 (A) (A) (A) (A) (A) (A) (A) (A) (A) (A) (A) (A)
                 (A) (A) (A) (A) (A) (A) (A) (A) (A) (A) (A) (A)
                 (A) (A) (A) (A) (A) (A) (A) (A) (A) (A) (A) (A)
                 (A) (A) (A) (A) (A) (A) (A) (A) (A) (A) (A) (A)
                 (A) (A) (A) (A) (A) (A) (A) (A) (A) (A) (A) (A)
                 (A) (A) (A) (A) (A) (A) (A) (A) (A) (A) (A) (A)
                 (A) (A) (A) (A) (A) (A) (A) (A) (A) (A) (A) (A)
                 (A) (A) (A) (A) (A) (A) (A) (A) (A) (A) (A) (A)
                 (A) (A) (A) (A) (A) (A) (A) (A) (A) (A) (A) (A)
                 (A) (A) (A) (A) (A) (A) (A) (A) (A) (A) (A) (A)
                 (A) (A) (A) (A) (A) (A) (A) (A) (A) (A) (A) (A)
                 (A) (A) (A) (A) (A) (A) (A) (A) (A) (A) (A) (A)
                 (A) (A) (A) (A) (A) (A) (A) (A) (A) (A) (A) (A)
                 (A) (A) (A) (A) (A) (A) (A) (A) (A) (A) (A) (A)
                 (A) (A) (A) (A) (A) (A) (A) (A) (A) (A) (A) (A)
                 (A) (A) (A) (A) (A) (A) (A) (A) (A) (A) (A) (A)
                 (A) (A) (A) (A) (A) (A) (A) (A) (A)
 The electronic state is 1-A.
 Alpha  occ. eigenvalues --  -19.32923 -19.28185 -19.27397 -10.44248 -10.36069
 Alpha  occ. eigenvalues --  -10.35079 -10.32142 -10.31602 -10.30786 -10.30763
 Alpha  occ. eigenvalues --  -10.30723 -10.30683 -10.30597 -10.28631 -10.28476
 Alpha  occ. eigenvalues --   -1.21069  -1.12964  -1.12361  -0.96281  -0.91299
 Alpha  occ. eigenvalues --   -0.86735  -0.84996  -0.84781  -0.77873  -0.75974
 Alpha  occ. eigenvalues --   -0.71611  -0.70080  -0.68027  -0.64326  -0.62529
 Alpha  occ. eigenvalues --   -0.59334  -0.58239  -0.57592  -0.56580  -0.55558
 Alpha  occ. eigenvalues --   -0.53256  -0.53064  -0.51670  -0.50867  -0.50376
 Alpha  occ. eigenvalues --   -0.48462  -0.47786  -0.46742  -0.46215  -0.45429
 Alpha  occ. eigenvalues --   -0.45055  -0.44419  -0.43220  -0.42208  -0.41730
 Alpha  occ. eigenvalues --   -0.40193  -0.38776  -0.37001  -0.36241  -0.33340
 Alpha  occ. eigenvalues --   -0.32528
 Alpha virt. eigenvalues --    0.04889   0.05107   0.06558   0.06688   0.07844
 Alpha virt. eigenvalues --    0.08135   0.08354   0.09494   0.09833   0.10259
 Alpha virt. eigenvalues --    0.10662   0.10853   0.12099   0.12517   0.12972
 Alpha virt. eigenvalues --    0.13266   0.13716   0.14062   0.14800   0.15734
 Alpha virt. eigenvalues --    0.16264   0.16400   0.17723   0.17932   0.18506
 Alpha virt. eigenvalues --    0.18933   0.19284   0.19493   0.19787   0.20749
 Alpha virt. eigenvalues --    0.20889   0.21463   0.21736   0.22150   0.22784
 Alpha virt. eigenvalues --    0.23242   0.23709   0.23902   0.24021   0.24712
 Alpha virt. eigenvalues --    0.24986   0.25715   0.26148   0.26610   0.26872
 Alpha virt. eigenvalues --    0.27402   0.27799   0.28214   0.28541   0.28890
 Alpha virt. eigenvalues --    0.29316   0.29665   0.30133   0.30779   0.31258
 Alpha virt. eigenvalues --    0.31918   0.32506   0.32999   0.33309   0.33366
 Alpha virt. eigenvalues --    0.33868   0.34667   0.34817   0.35572   0.36138
 Alpha virt. eigenvalues --    0.36528   0.37384   0.38035   0.38898   0.39067
 Alpha virt. eigenvalues --    0.39368   0.39786   0.40559   0.41435   0.42019
 Alpha virt. eigenvalues --    0.42589   0.43047   0.43573   0.44076   0.44807
 Alpha virt. eigenvalues --    0.45361   0.45832   0.46314   0.47094   0.47574
 Alpha virt. eigenvalues --    0.49227   0.49776   0.51191   0.51881   0.53364
 Alpha virt. eigenvalues --    0.55028   0.57577   0.60852   0.66165   0.70310
 Alpha virt. eigenvalues --    0.72557   0.74853   0.75906   0.76475   0.76572
 Alpha virt. eigenvalues --    0.78039   0.78219   0.79273   0.79529   0.81371
 Alpha virt. eigenvalues --    0.82283   0.83759   0.83826   0.84375   0.85012
 Alpha virt. eigenvalues --    0.85548   0.86510   0.87475   0.89298   0.90452
 Alpha virt. eigenvalues --    0.90741   0.91767   0.93319   0.94040   0.97151
 Alpha virt. eigenvalues --    0.98894   0.99233   1.00701   1.02162   1.02811
 Alpha virt. eigenvalues --    1.03821   1.05318   1.06032   1.07480   1.07796
 Alpha virt. eigenvalues --    1.09339   1.10338   1.11900   1.12390   1.13478
 Alpha virt. eigenvalues --    1.13898   1.16064   1.17093   1.17822   1.19010
 Alpha virt. eigenvalues --    1.20396   1.21056   1.22773   1.23799   1.24909
 Alpha virt. eigenvalues --    1.25788   1.26741   1.27996   1.30215   1.32848
 Alpha virt. eigenvalues --    1.33472   1.35186   1.35612   1.36628   1.39450
 Alpha virt. eigenvalues --    1.40507   1.41385   1.41745   1.42541   1.44679
 Alpha virt. eigenvalues --    1.45588   1.47360   1.48241   1.49728   1.50601
 Alpha virt. eigenvalues --    1.51400   1.51984   1.53519   1.55103   1.56097
 Alpha virt. eigenvalues --    1.57499   1.58320   1.60797   1.62696   1.67154
 Alpha virt. eigenvalues --    1.69331   1.71037   1.72967   1.75652   1.77124
 Alpha virt. eigenvalues --    1.80757   1.81741   1.84901   1.87161   1.88072
 Alpha virt. eigenvalues --    1.89710   1.90563   1.92147   1.94060   1.96558
 Alpha virt. eigenvalues --    1.97200   1.98701   1.99103   2.00607   2.01608
 Alpha virt. eigenvalues --    2.02451   2.03105   2.04660   2.05866   2.06173
 Alpha virt. eigenvalues --    2.06802   2.08551   2.09750   2.10369   2.11717
 Alpha virt. eigenvalues --    2.13567   2.15180   2.16927   2.17461   2.18020
 Alpha virt. eigenvalues --    2.20262   2.20768   2.21598   2.22100   2.25123
 Alpha virt. eigenvalues --    2.25837   2.26114   2.27899   2.29386   2.31589
 Alpha virt. eigenvalues --    2.32675   2.34291   2.36844   2.38688   2.38857
 Alpha virt. eigenvalues --    2.42770   2.43641   2.45776   2.47154   2.48194
 Alpha virt. eigenvalues --    2.48359   2.49523   2.50669   2.52049   2.55616
 Alpha virt. eigenvalues --    2.55988   2.56565   2.57023   2.59179   2.59870
 Alpha virt. eigenvalues --    2.63304   2.64769   2.66625   2.66789   2.67489
 Alpha virt. eigenvalues --    2.69291   2.69809   2.71646   2.73186   2.75946
 Alpha virt. eigenvalues --    2.77560   2.79432   2.80219   2.81954   2.83122
 Alpha virt. eigenvalues --    2.85184   2.85385   2.86947   2.87191   2.89640
 Alpha virt. eigenvalues --    2.91261   2.93278   2.93877   2.96669   2.97134
 Alpha virt. eigenvalues --    2.98290   2.99196   3.02460   3.06657   3.09596
 Alpha virt. eigenvalues --    3.13291   3.16083   3.16767   3.17861   3.26871
 Alpha virt. eigenvalues --    3.28610   3.31837   3.36886   3.37396   3.39182
 Alpha virt. eigenvalues --    3.39758   3.43547   3.45454   3.52156   3.53003
 Alpha virt. eigenvalues --    3.53848   3.57688   3.59666   3.61566   3.62868
 Alpha virt. eigenvalues --    3.65641   3.66248   3.67155   3.99588   4.41538
 Alpha virt. eigenvalues --    4.43841   4.44288   4.50157   4.53320   4.56885
 Alpha virt. eigenvalues --    4.58341   4.62106   4.65365   4.69337   4.71314
 Alpha virt. eigenvalues --    4.79087   4.82717   4.94777   4.99333
          Condensed to atoms (all electrons):
              1          2          3          4          5          6
     1  C   16.247377  -0.602488  -0.715369  -3.428782  -7.535744   0.059580
     2  C   -0.602488   7.311982   0.228687  -0.218376  -0.444689   0.561924
     3  C   -0.715369   0.228687   6.596094   0.029039  -0.263376   0.428810
     4  C   -3.428782  -0.218376   0.029039  14.357104  -1.617648  -0.826068
     5  C   -7.535744  -0.444689  -0.263376  -1.617648  15.934640   0.179116
     6  C    0.059580   0.561924   0.428810  -0.826068   0.179116   5.455773
     7  C    2.144850  -1.277180  -0.555736  -2.852103  -0.527472   0.067292
     8  C   -0.284417   0.442530   0.296543   0.479162  -0.091239  -0.059543
     9  C   -0.205732  -0.093937  -0.229042   0.093784   0.220213   0.021895
    10  O    0.073451   0.005378   0.008722  -0.004300  -0.071954   0.000043
    11  C    0.036165   0.001092  -0.024058  -0.011298   0.000318  -0.001848
    12  O   -0.156650   0.145554   0.002377  -0.152058   0.212192   0.012989
    13  C    0.016492  -0.061595   0.000390  -0.046211  -0.005006   0.005239
    14  O    0.017175   0.002034   0.014744  -0.012779  -0.025858   0.000807
    15  C    0.018739  -0.001648   0.019473  -0.026644  -0.014384  -0.000620
    16  H    0.113852   0.010470   0.070716   0.146588   0.008966  -0.011199
    17  H   -0.002848   0.278010   0.001261   0.040140   0.010849   0.004390
    18  H    0.026523  -0.003491   0.256081   0.013158   0.001010   0.033159
    19  H    0.053112  -0.041306  -0.002051   0.102830   0.230576  -0.004671
    20  H    0.003616   0.025016   0.029348   0.004698  -0.009641   0.271842
    21  H    0.118408   0.024355   0.060992  -0.006306  -0.069937  -0.001524
    22  H   -0.002139   0.000595  -0.002774   0.030591  -0.000957   0.000165
    23  H    0.000721   0.000083   0.000865  -0.001144  -0.001191  -0.000034
    24  H   -0.000480   0.000109  -0.000605   0.003651   0.000327  -0.000093
    25  H    0.025267  -0.014301  -0.001929  -0.009554  -0.035436   0.000841
    26  H    0.032534   0.007118  -0.005419   0.017201  -0.052672   0.001362
    27  H   -0.005661  -0.002147  -0.000779  -0.018814   0.008698   0.000344
    28  H   -0.012927   0.003266  -0.000008  -0.043350   0.058437   0.001070
    29  H   -0.000065  -0.000019  -0.000940   0.000521   0.000034   0.000216
    30  H   -0.012178   0.001669   0.011595   0.002827  -0.002183  -0.001756
    31  H    0.004838  -0.000320  -0.000851  -0.002165   0.001779  -0.001183
              7          8          9         10         11         12
     1  C    2.144850  -0.284417  -0.205732   0.073451   0.036165  -0.156650
     2  C   -1.277180   0.442530  -0.093937   0.005378   0.001092   0.145554
     3  C   -0.555736   0.296543  -0.229042   0.008722  -0.024058   0.002377
     4  C   -2.852103   0.479162   0.093784  -0.004300  -0.011298  -0.152058
     5  C   -0.527472  -0.091239   0.220213  -0.071954   0.000318   0.212192
     6  C    0.067292  -0.059543   0.021895   0.000043  -0.001848   0.012989
     7  C    9.981685  -1.768005   0.530235  -0.008986  -0.007802   0.008248
     8  C   -1.768005   8.502378  -1.615529  -0.225991   0.050394  -0.036549
     9  C    0.530235  -1.615529   6.788486   0.318438  -0.180326   0.056605
    10  O   -0.008986  -0.225991   0.318438   8.394323   0.042637  -0.003067
    11  C   -0.007802   0.050394  -0.180326   0.042637   5.127348  -0.000155
    12  O    0.008248  -0.036549   0.056605  -0.003067  -0.000155   8.318508
    13  C    0.080351   0.104410  -0.179798   0.001819  -0.016493  -0.040129
    14  O   -0.021452  -0.142264   0.627732  -0.163235  -0.005377  -0.001383
    15  C    0.005224  -0.010109  -0.034915  -0.041490   0.301627  -0.000391
    16  H   -0.036010   0.015335  -0.001458  -0.000453  -0.004363   0.000194
    17  H   -0.005886   0.000590  -0.000629  -0.000002  -0.000020   0.000161
    18  H   -0.000776  -0.000782   0.000814  -0.000034  -0.000173   0.000020
    19  H   -0.017347  -0.009598  -0.003273  -0.000052  -0.000036   0.003863
    20  H    0.001449   0.000229  -0.000178   0.000004   0.000088  -0.000004
    21  H    0.065423   0.242047  -0.157415   0.000608  -0.000530  -0.044979
    22  H    0.015174   0.264096   0.036198   0.003677   0.000966  -0.004870
    23  H   -0.000036  -0.001742   0.010546  -0.062401   0.419432   0.000000
    24  H   -0.003126   0.005647   0.004033  -0.037843   0.402557  -0.000001
    25  H    0.053452   0.004184  -0.005018   0.000048   0.000032   0.233227
    26  H    0.045797  -0.107781   0.017378  -0.000719  -0.002099  -0.004768
    27  H    0.033554  -0.099189   0.009400   0.000638  -0.002864   0.000102
    28  H   -0.031576  -0.045696   0.002722   0.000481   0.000362   0.009032
    29  H    0.000081   0.000986   0.007514   0.006914  -0.046079   0.000000
    30  H   -0.004222   0.001132   0.001647  -0.007161  -0.045552   0.000005
    31  H   -0.000441   0.003178   0.003229  -0.004235  -0.035790  -0.000001
             13         14         15         16         17         18
     1  C    0.016492   0.017175   0.018739   0.113852  -0.002848   0.026523
     2  C   -0.061595   0.002034  -0.001648   0.010470   0.278010  -0.003491
     3  C    0.000390   0.014744   0.019473   0.070716   0.001261   0.256081
     4  C   -0.046211  -0.012779  -0.026644   0.146588   0.040140   0.013158
     5  C   -0.005006  -0.025858  -0.014384   0.008966   0.010849   0.001010
     6  C    0.005239   0.000807  -0.000620  -0.011199   0.004390   0.033159
     7  C    0.080351  -0.021452   0.005224  -0.036010  -0.005886  -0.000776
     8  C    0.104410  -0.142264  -0.010109   0.015335   0.000590  -0.000782
     9  C   -0.179798   0.627732  -0.034915  -0.001458  -0.000629   0.000814
    10  O    0.001819  -0.163235  -0.041490  -0.000453  -0.000002  -0.000034
    11  C   -0.016493  -0.005377   0.301627  -0.004363  -0.000020  -0.000173
    12  O   -0.040129  -0.001383  -0.000391   0.000194   0.000161   0.000020
    13  C    5.474639   0.008996   0.006941   0.000113   0.000628  -0.000001
    14  O    0.008996   8.174908  -0.022206   0.000783   0.000002  -0.000017
    15  C    0.006941  -0.022206   5.169668   0.002015   0.000005   0.000891
    16  H    0.000113   0.000783   0.002015   0.510325   0.000011  -0.003952
    17  H    0.000628   0.000002   0.000005   0.000011   0.496184  -0.000123
    18  H   -0.000001  -0.000017   0.000891  -0.003952  -0.000123   0.499510
    19  H    0.006853   0.000017  -0.000007  -0.000114  -0.004001   0.000011
    20  H   -0.000058   0.000001  -0.000031  -0.000126  -0.003829  -0.003841
    21  H   -0.006712   0.016601   0.000096   0.001541   0.000002  -0.000001
    22  H   -0.035106  -0.008106  -0.000450  -0.000017   0.000000   0.000000
    23  H    0.003424   0.000052  -0.037823   0.000000   0.000000   0.000000
    24  H   -0.004325   0.001181  -0.037615  -0.000003   0.000000   0.000000
    25  H   -0.000449   0.000073  -0.000023   0.000034  -0.000001   0.000000
    26  H    0.408029  -0.000259   0.000379  -0.000005  -0.000017   0.000000
    27  H    0.439165  -0.000787  -0.000331   0.000000   0.000000   0.000000
    28  H    0.419571  -0.000247  -0.000243   0.000000   0.000000   0.000000
    29  H    0.000098  -0.000317   0.395286   0.000004   0.000000   0.000001
    30  H    0.000376   0.001298   0.414155   0.000283   0.000000  -0.000019
    31  H   -0.001860  -0.000580   0.397392  -0.000012   0.000000  -0.000009
             19         20         21         22         23         24
     1  C    0.053112   0.003616   0.118408  -0.002139   0.000721  -0.000480
     2  C   -0.041306   0.025016   0.024355   0.000595   0.000083   0.000109
     3  C   -0.002051   0.029348   0.060992  -0.002774   0.000865  -0.000605
     4  C    0.102830   0.004698  -0.006306   0.030591  -0.001144   0.003651
     5  C    0.230576  -0.009641  -0.069937  -0.000957  -0.001191   0.000327
     6  C   -0.004671   0.271842  -0.001524   0.000165  -0.000034  -0.000093
     7  C   -0.017347   0.001449   0.065423   0.015174  -0.000036  -0.003126
     8  C   -0.009598   0.000229   0.242047   0.264096  -0.001742   0.005647
     9  C   -0.003273  -0.000178  -0.157415   0.036198   0.010546   0.004033
    10  O   -0.000052   0.000004   0.000608   0.003677  -0.062401  -0.037843
    11  C   -0.000036   0.000088  -0.000530   0.000966   0.419432   0.402557
    12  O    0.003863  -0.000004  -0.044979  -0.004870   0.000000  -0.000001
    13  C    0.006853  -0.000058  -0.006712  -0.035106   0.003424  -0.004325
    14  O    0.000017   0.000001   0.016601  -0.008106   0.000052   0.001181
    15  C   -0.000007  -0.000031   0.000096  -0.000450  -0.037823  -0.037615
    16  H   -0.000114  -0.000126   0.001541  -0.000017   0.000000  -0.000003
    17  H   -0.004001  -0.003829   0.000002   0.000000   0.000000   0.000000
    18  H    0.000011  -0.003841  -0.000001   0.000000   0.000000   0.000000
    19  H    0.500623  -0.000121  -0.000039  -0.000018   0.000000   0.000000
    20  H   -0.000121   0.498590   0.000000   0.000000   0.000000   0.000000
    21  H   -0.000039   0.000000   0.603114  -0.006146   0.000000   0.000000
    22  H   -0.000018   0.000000  -0.006146   0.498682   0.000008   0.000005
    23  H    0.000000   0.000000   0.000000   0.000008   0.528258  -0.031375
    24  H    0.000000   0.000000   0.000000   0.000005  -0.031375   0.520427
    25  H   -0.000933   0.000000  -0.005030   0.000073   0.000000   0.000000
    26  H   -0.000572   0.000000  -0.000140   0.004011   0.000015  -0.000007
    27  H    0.000050   0.000000  -0.000101  -0.003651   0.000019  -0.000008
    28  H   -0.000367   0.000000   0.000031  -0.002207  -0.000001   0.000001
    29  H    0.000000   0.000000   0.000000   0.000000  -0.001295  -0.000923
    30  H    0.000000   0.000000   0.000011  -0.000001   0.003965  -0.005115
    31  H    0.000000   0.000000  -0.000001   0.000000  -0.004900   0.003745
             25         26         27         28         29         30
     1  C    0.025267   0.032534  -0.005661  -0.012927  -0.000065  -0.012178
     2  C   -0.014301   0.007118  -0.002147   0.003266  -0.000019   0.001669
     3  C   -0.001929  -0.005419  -0.000779  -0.000008  -0.000940   0.011595
     4  C   -0.009554   0.017201  -0.018814  -0.043350   0.000521   0.002827
     5  C   -0.035436  -0.052672   0.008698   0.058437   0.000034  -0.002183
     6  C    0.000841   0.001362   0.000344   0.001070   0.000216  -0.001756
     7  C    0.053452   0.045797   0.033554  -0.031576   0.000081  -0.004222
     8  C    0.004184  -0.107781  -0.099189  -0.045696   0.000986   0.001132
     9  C   -0.005018   0.017378   0.009400   0.002722   0.007514   0.001647
    10  O    0.000048  -0.000719   0.000638   0.000481   0.006914  -0.007161
    11  C    0.000032  -0.002099  -0.002864   0.000362  -0.046079  -0.045552
    12  O    0.233227  -0.004768   0.000102   0.009032   0.000000   0.000005
    13  C   -0.000449   0.408029   0.439165   0.419571   0.000098   0.000376
    14  O    0.000073  -0.000259  -0.000787  -0.000247  -0.000317   0.001298
    15  C   -0.000023   0.000379  -0.000331  -0.000243   0.395286   0.414155
    16  H    0.000034  -0.000005   0.000000   0.000000   0.000004   0.000283
    17  H   -0.000001  -0.000017   0.000000   0.000000   0.000000   0.000000
    18  H    0.000000   0.000000   0.000000   0.000000   0.000001  -0.000019
    19  H   -0.000933  -0.000572   0.000050  -0.000367   0.000000   0.000000
    20  H    0.000000   0.000000   0.000000   0.000000   0.000000   0.000000
    21  H   -0.005030  -0.000140  -0.000101   0.000031   0.000000   0.000011
    22  H    0.000073   0.004011  -0.003651  -0.002207   0.000000  -0.000001
    23  H    0.000000   0.000015   0.000019  -0.000001  -0.001295   0.003965
    24  H    0.000000  -0.000007  -0.000008   0.000001  -0.000923  -0.005115
    25  H    0.361182   0.000003   0.000002  -0.000155   0.000000   0.000000
    26  H    0.000003   0.508666  -0.024183  -0.025422   0.000000   0.000000
    27  H    0.000002  -0.024183   0.518233  -0.024736   0.000000   0.000000
    28  H   -0.000155  -0.025422  -0.024736   0.512599   0.000000   0.000000
    29  H    0.000000   0.000000   0.000000   0.000000   0.506454  -0.022664
    30  H    0.000000   0.000000   0.000000   0.000000  -0.022664   0.510642
    31  H    0.000000  -0.000004  -0.000001   0.000000  -0.023155  -0.029154
             31
     1  C    0.004838
     2  C   -0.000320
     3  C   -0.000851
     4  C   -0.002165
     5  C    0.001779
     6  C   -0.001183
     7  C   -0.000441
     8  C    0.003178
     9  C    0.003229
    10  O   -0.004235
    11  C   -0.035790
    12  O   -0.000001
    13  C   -0.001860
    14  O   -0.000580
    15  C    0.397392
    16  H   -0.000012
    17  H    0.000000
    18  H   -0.000009
    19  H    0.000000
    20  H    0.000000
    21  H   -0.000001
    22  H    0.000000
    23  H   -0.004900
    24  H    0.003745
    25  H    0.000000
    26  H   -0.000004
    27  H   -0.000001
    28  H    0.000000
    29  H   -0.023155
    30  H   -0.029154
    31  H    0.515390
 Mulliken atomic charges:
              1
     1  C   -0.027220
     2  C   -0.288375
     3  C   -0.252797
     4  C   -0.043695
     5  C   -0.097769
     6  C   -0.198317
     7  C    0.085342
     8  C    0.085592
     9  C   -0.043620
    10  O   -0.225257
    11  C    0.001844
    12  O   -0.558073
    13  C   -0.579791
    14  O   -0.461534
    15  C   -0.502961
    16  H    0.176481
    17  H    0.185119
    18  H    0.182043
    19  H    0.186569
    20  H    0.182946
    21  H    0.165630
    22  H    0.212201
    23  H    0.174554
    24  H    0.179835
    25  H    0.394412
    26  H    0.181572
    27  H    0.173048
    28  H    0.179362
    29  H    0.177349
    30  H    0.180400
    31  H    0.175109
 Sum of Mulliken atomic charges =   0.00000
 Mulliken charges with hydrogens summed into heavy atoms:
              1
     1  C    0.149261
     2  C   -0.103256
     3  C   -0.070755
     4  C   -0.043695
     5  C    0.088800
     6  C   -0.015371
     7  C    0.250972
     8  C    0.297793
     9  C   -0.043620
    10  O   -0.225257
    11  C    0.356233
    12  O   -0.163661
    13  C   -0.045808
    14  O   -0.461534
    15  C    0.029897
 Sum of Mulliken charges with hydrogens summed into heavy atoms =   0.00000
 Electronic spatial extent (au):  <R**2>=           3233.6821
 Charge=              0.0000 electrons
 Dipole moment (field-independent basis, Debye):
    X=              0.4845    Y=              2.1621    Z=              1.6646  Tot=              2.7713
 Quadrupole moment (field-independent basis, Debye-Ang):
   XX=            -80.5761   YY=            -87.6609   ZZ=            -92.2161
   XY=             -1.3408   XZ=             -3.5690   YZ=             -0.9656
 Traceless Quadrupole moment (field-independent basis, Debye-Ang):
   XX=              6.2416   YY=             -0.8432   ZZ=             -5.3984
   XY=             -1.3408   XZ=             -3.5690   YZ=             -0.9656
 Octapole moment (field-independent basis, Debye-Ang**2):
  XXX=            -29.2014  YYY=             28.2494  ZZZ=              4.0070  XYY=            -10.6609
  XXY=              9.6942  XXZ=             24.1603  XZZ=             12.1589  YZZ=             -2.3420
  YYZ=             -1.6987  XYZ=              4.3348
 Hexadecapole moment (field-independent basis, Debye-Ang**3):
 XXXX=          -2163.6604 YYYY=          -1501.8584 ZZZZ=           -561.7608 XXXY=            -83.5642
 XXXZ=              6.9646 YYYX=             36.4968 YYYZ=            -15.5486 ZZZX=            -12.9755
 ZZZY=              4.3146 XXYY=           -539.5764 XXZZ=           -473.0596 YYZZ=           -326.4774
 XXYZ=             37.2198 YYXZ=             -8.9943 ZZXY=            -17.3853
 N-N= 1.030838484787D+03 E-N=-3.673580659994D+03  KE= 6.858760422659D+02
 1\1\GINC-COMPUTE-8-12\SP\RwB97XD\6-31+G(d,p)\C12H16O3\ELUCIANO.IQUIR\1
 8-May-2022\0\\# wb97xd/6-31+g** scrf=(pcm,solvent=chloroform,smd,dovac
 uum) nmr\\comment\\0,1\C,0,1.277225786,-0.759764715,-1.202058871\C,0,0
 .638546281,-3.149834708,0.081081544\C,0,2.291878239,-1.584619235,-0.71
 3276138\C,0,-0.072027494,-1.118094726,-1.0547462\C,0,-0.376985173,-2.3
 25448078,-0.406598682\C,0,1.972314706,-2.779046906,-0.072198972\C,0,-1
 .160041914,-0.199474581,-1.582600939\C,0,-1.748952406,0.785502842,-0.5
 57180487\C,0,-0.676312602,1.779667807,-0.152367411\O,0,-0.536118605,1.
 874435038,1.196100656\C,0,0.475871331,2.775762973,1.668000425\O,0,-2.2
 19692966,-0.978029032,-2.154566402\C,0,-2.461368779,0.108026202,0.6168
 75229\O,0,-0.018331094,2.421600383,-0.964312622\C,0,1.8221327,2.077124
 714,1.708265317\H,0,1.550021574,0.171203203,-1.697718578\H,0,0.3875358
 62,-4.080735128,0.58311933\H,0,3.332276948,-1.292977225,-0.832690431\H
 ,0,-1.41362416,-2.629703796,-0.272070398\H,0,2.762678523,-3.420444272,
 0.308774337\H,0,-0.743268276,0.368316032,-2.424729083\H,0,-2.523720517
 ,1.377577441,-1.064704932\H,0,0.187643236,3.076673121,2.680515088\H,0,
 0.512972253,3.686712022,1.059771136\H,0,-1.796137993,-1.686943567,-2.6
 70583415\H,0,-1.764509789,-0.43040491,1.267010566\H,0,-2.969037121,0.8
 54739307,1.238237437\H,0,-3.221960594,-0.59721708,0.267089465\H,0,2.58
 5443165,2.731126812,2.139137094\H,0,2.142623648,1.783606039,0.70390828
 3\H,0,1.762925229,1.160664024,2.304517654\\Version=EM64L-G09RevC.01\St
 ate=1-A\HF=-692.4443341\RMSD=9.286e-09\Dipole=0.5655422,-0.4366496,0.8
 23581\Quadrupole=-0.5388256,1.8268845,-1.2880589,-0.6278971,0.1671588,
 4.9499888\PG=C01 [X(C12H16O3)]\\@


 BUT 'GLORY' DOESN'T MEAN 'A NICE KNOCK DOWN ARGUMENT', ALICE OBJECTED.
 WHEN I USE A WORD, HUMPTY DUMPTY SAID, IN A RATHER SCORNFUL TONE,
 IT MEANS JUST WHAT I CHOOSE IT TO MEAN....
 NEITHER MORE NOR LESS....
 THE QUESTION IS, SAID ALICE,
 WHETHER YOU CAN MAKE WORDS MEAN SO MANY DIFFERENT THINGS...
 THE QUESTION IS, SAID HUMPTY DUMPTY,
 WHICH IS TO BE MASTER....
 THAT IS ALL.....

 ALICE THROUGH THE LOOKING GLASS
 Job cpu time:  0 days  2 hours 21 minutes 14.9 seconds.
 File lengths (MBytes):  RWF=    123 Int=      0 D2E=      0 Chk=      9 Scr=      1
 Normal termination of Gaussian 09 at Wed May 18 00:39:53 2022.
