 Entering Gaussian System, Link 0=g09
 Input=/home/eluciano.iquir/wb9/73b_013.gjc
 Output=/home/eluciano.iquir/wb9/73b_013.log
 Initial command:
 /share/apps/Gaussian09/EM64T.SSE4.2-enabled/g09/l1.exe /tmp/Gau-8031.inp -scrdir=/tmp/
 Entering Link 1 = /share/apps/Gaussian09/EM64T.SSE4.2-enabled/g09/l1.exe PID=      8032.
  
 Copyright (c) 1988,1990,1992,1993,1995,1998,2003,2009,2011,
            Gaussian, Inc.  All Rights Reserved.
  
 This is part of the Gaussian(R) 09 program.  It is based on
 the Gaussian(R) 03 system (copyright 2003, Gaussian, Inc.),
 the Gaussian(R) 98 system (copyright 1998, Gaussian, Inc.),
 the Gaussian(R) 94 system (copyright 1995, Gaussian, Inc.),
 the Gaussian 92(TM) system (copyright 1992, Gaussian, Inc.),
 the Gaussian 90(TM) system (copyright 1990, Gaussian, Inc.),
 the Gaussian 88(TM) system (copyright 1988, Gaussian, Inc.),
 the Gaussian 86(TM) system (copyright 1986, Carnegie Mellon
 University), and the Gaussian 82(TM) system (copyright 1983,
 Carnegie Mellon University). Gaussian is a federally registered
 trademark of Gaussian, Inc.
  
 This software contains proprietary and confidential information,
 including trade secrets, belonging to Gaussian, Inc.
  
 This software is provided under written license and may be
 used, copied, transmitted, or stored only in accord with that
 written license.
  
 The following legend is applicable only to US Government
 contracts under FAR:
  
                    RESTRICTED RIGHTS LEGEND
  
 Use, reproduction and disclosure by the US Government is
 subject to restrictions as set forth in subparagraphs (a)
 and (c) of the Commercial Computer Software - Restricted
 Rights clause in FAR 52.227-19.
  
 Gaussian, Inc.
 340 Quinnipiac St., Bldg. 40, Wallingford CT 06492
  
  
 ---------------------------------------------------------------
 Warning -- This program may not be used in any manner that
 competes with the business of Gaussian, Inc. or will provide
 assistance to any competitor of Gaussian, Inc.  The licensee
 of this program is prohibited from giving any competitor of
 Gaussian, Inc. access to this program.  By using this program,
 the user acknowledges that Gaussian, Inc. is engaged in the
 business of creating and licensing software in the field of
 computational chemistry and represents and warrants to the
 licensee that it is not a competitor of Gaussian, Inc. and that
 it will not use this program in any manner prohibited above.
 ---------------------------------------------------------------
  

 Cite this work as:
 Gaussian 09, Revision C.01,
 M. J. Frisch, G. W. Trucks, H. B. Schlegel, G. E. Scuseria, 
 M. A. Robb, J. R. Cheeseman, G. Scalmani, V. Barone, B. Mennucci, 
 G. A. Petersson, H. Nakatsuji, M. Caricato, X. Li, H. P. Hratchian, 
 A. F. Izmaylov, J. Bloino, G. Zheng, J. L. Sonnenberg, M. Hada, 
 M. Ehara, K. Toyota, R. Fukuda, J. Hasegawa, M. Ishida, T. Nakajima, 
 Y. Honda, O. Kitao, H. Nakai, T. Vreven, J. A. Montgomery, Jr., 
 J. E. Peralta, F. Ogliaro, M. Bearpark, J. J. Heyd, E. Brothers, 
 K. N. Kudin, V. N. Staroverov, T. Keith, R. Kobayashi, J. Normand, 
 K. Raghavachari, A. Rendell, J. C. Burant, S. S. Iyengar, J. Tomasi, 
 M. Cossi, N. Rega, J. M. Millam, M. Klene, J. E. Knox, J. B. Cross, 
 V. Bakken, C. Adamo, J. Jaramillo, R. Gomperts, R. E. Stratmann, 
 O. Yazyev, A. J. Austin, R. Cammi, C. Pomelli, J. W. Ochterski, 
 R. L. Martin, K. Morokuma, V. G. Zakrzewski, G. A. Voth, 
 P. Salvador, J. J. Dannenberg, S. Dapprich, A. D. Daniels, 
 O. Farkas, J. B. Foresman, J. V. Ortiz, J. Cioslowski, 
 and D. J. Fox, Gaussian, Inc., Wallingford CT, 2010.
 
 ******************************************
 Gaussian 09:  EM64L-G09RevC.01 23-Sep-2011
                17-May-2022 
 ******************************************
 %nprocshared=4
 Will use up to    4 processors via shared memory.
 ----------------------------------------------------------------
 # wb97xd/6-31+g** scrf=(pcm,solvent=chloroform,smd,dovacuum) nmr
 ----------------------------------------------------------------
 1/38=1/1;
 2/12=2,17=6,18=5,40=1/2;
 3/5=1,6=6,7=111,11=2,16=1,25=1,30=1,70=32101,72=7,74=-58/1,2,8,3;
 4//1;
 5/5=2,38=5,53=7/2;
 8/6=1,10=90,11=11/1;
 10/13=100,45=16/2;
 6/7=2,8=2,9=2,10=2,28=1/1;
 99/9=1/99;
 -------
 comment
 -------
 Charge =  0 Multiplicity = 1
 Symbolic Z-Matrix:
 6                    -1.80277  -1.81889   0.56377 
 6                    -4.10587  -0.38588  -0.0884 
 6                    -3.05496  -2.28045   0.97368 
 6                    -1.688    -0.6329   -0.17652 
 6                    -2.85547   0.07777  -0.49909 
 6                    -4.20502  -1.56421   0.64808 
 6                    -0.32326  -0.13512  -0.61675 
 6                     0.08592   1.19822   0.02864 
 6                     1.47419   1.6008   -0.42385 
 8                     2.37988   0.60358  -0.21568 
 6                     3.7169    0.93306  -0.61058 
 8                    -0.34829   0.01658  -2.04083 
 6                     0.06574   1.17239   1.55709 
 8                     1.75228   2.71393  -0.85451 
 6                     4.59576  -0.27541  -0.35361 
 1                    -0.91748  -2.39266   0.83023 
 1                    -5.00272   0.17294  -0.34369 
 1                    -3.13358  -3.19982   1.54856 
 1                    -2.79451   0.99823  -1.07749 
 1                    -5.17923  -1.9246    0.96829 
 1                     0.42301  -0.91057  -0.40714 
 1                    -0.58728   1.99224  -0.32161 
 1                     4.0766    1.78397  -0.02142 
 1                     3.73749   1.1853   -1.67674 
 1                    -0.93623  -0.67336  -2.39667 
 1                     0.48141   2.09928   1.96815 
 1                    -0.95389   1.07007   1.94124 
 1                     0.66349   0.34261   1.95037 
 1                     4.56915  -0.55317   0.70529 
 1                     5.63152  -0.07272  -0.63991 
 1                     4.23524  -1.14121  -0.91889 
 
                          Input orientation:                          
 ---------------------------------------------------------------------
 Center     Atomic      Atomic             Coordinates (Angstroms)
 Number     Number       Type             X           Y           Z
 ---------------------------------------------------------------------
      1          6           0       -1.802771   -1.818893    0.563766
      2          6           0       -4.105872   -0.385880   -0.088398
      3          6           0       -3.054959   -2.280448    0.973685
      4          6           0       -1.688001   -0.632895   -0.176519
      5          6           0       -2.855470    0.077766   -0.499089
      6          6           0       -4.205020   -1.564210    0.648077
      7          6           0       -0.323263   -0.135119   -0.616750
      8          6           0        0.085920    1.198224    0.028640
      9          6           0        1.474195    1.600799   -0.423853
     10          8           0        2.379876    0.603578   -0.215684
     11          6           0        3.716897    0.933055   -0.610580
     12          8           0       -0.348294    0.016584   -2.040834
     13          6           0        0.065742    1.172387    1.557085
     14          8           0        1.752279    2.713928   -0.854507
     15          6           0        4.595764   -0.275405   -0.353611
     16          1           0       -0.917476   -2.392656    0.830225
     17          1           0       -5.002717    0.172936   -0.343695
     18          1           0       -3.133585   -3.199817    1.548565
     19          1           0       -2.794513    0.998234   -1.077495
     20          1           0       -5.179232   -1.924600    0.968293
     21          1           0        0.423009   -0.910574   -0.407137
     22          1           0       -0.587278    1.992238   -0.321613
     23          1           0        4.076600    1.783975   -0.021419
     24          1           0        3.737492    1.185304   -1.676736
     25          1           0       -0.936234   -0.673364   -2.396666
     26          1           0        0.481408    2.099284    1.968148
     27          1           0       -0.953891    1.070069    1.941245
     28          1           0        0.663494    0.342606    1.950369
     29          1           0        4.569148   -0.553169    0.705287
     30          1           0        5.631520   -0.072723   -0.639909
     31          1           0        4.235236   -1.141213   -0.918891
 ---------------------------------------------------------------------
                    Distance matrix (angstroms):
                    1          2          3          4          5
     1  C    0.000000
     2  C    2.789825   0.000000
     3  C    1.396081   2.412846   0.000000
     4  C    1.402778   2.432054   2.430221   0.000000
     5  C    2.415606   1.395399   2.787478   1.404306   0.000000
     6  C    2.417183   1.393085   1.393434   2.807613   2.415235
     7  C    2.533309   3.827554   3.820220   1.517924   2.543863
     8  C    3.599515   4.482656   4.781150   2.557710   3.191505
     9  C    4.838201   5.932670   6.126208   3.879439   4.590347
    10  O    4.895961   6.562024   6.266549   4.251825   5.269312
    11  C    6.278458   7.950345   7.661236   5.643893   6.628722
    12  O    3.502630   4.253631   4.657222   2.385856   2.943918
    13  C    3.664120   4.747439   4.690544   3.056148   3.736245
    14  O    5.932651   6.671856   7.169074   4.847310   5.320435
    15  C    6.645689   8.706378   8.019693   6.296417   7.461018
    16  H    1.088095   3.877742   2.145228   2.168870   3.409674
    17  H    3.876922   1.087098   3.398285   3.415356   2.154965
    18  H    2.155886   3.397533   1.087156   3.413900   3.874633
    19  H    3.407858   2.147963   3.876200   2.167189   1.088821
    20  H    3.402251   2.153220   2.153878   3.894585   3.400375
    21  H    2.592642   4.570302   3.984907   2.141647   3.425448
    22  H    4.097077   4.253274   5.101283   2.850257   2.973449
    23  H    6.920267   8.465554   8.268549   6.252675   7.154923
    24  H    6.688764   8.155355   8.073015   5.915444   6.788273
    25  H    3.290484   3.931585   4.293132   2.344322   2.801511
    26  H    4.747828   5.607902   5.716372   4.095208   4.616118
    27  H    3.311216   4.021719   4.071441   2.814947   3.248984
    28  H    3.560506   5.237759   4.654161   3.317346   4.295707
    29  H    6.497956   8.712858   7.821927   6.319482   7.548083
    30  H    7.730887   9.758024   9.106737   7.355536   8.489492
    31  H    6.254202   8.416314   7.617523   5.991180   7.206959
                    6          7          8          9         10
     6  C    0.000000
     7  C    4.325520   0.000000
     8  C    5.140711   1.536803   0.000000
     9  C    6.589370   2.506287   1.514636   0.000000
    10  O    6.986146   2.830810   2.382337   1.363101   0.000000
    11  C    8.401031   4.178986   3.696337   2.347437   1.432523
    12  O    4.960190   1.432360   2.422300   2.906171   3.334463
    13  C    5.153122   2.566409   1.528797   2.468075   2.970096
    14  O    7.486630   3.532913   2.419516   1.225500   2.292499
    15  C    8.950877   4.928057   4.759873   3.642701   2.387843
    16  H    3.395209   2.746507   3.813628   4.820839   4.576447
    17  H    2.153510   4.697526   5.204237   6.632918   7.396250
    18  H    2.152687   4.688163   5.658458   6.940316   6.926517
    19  H    3.396063   2.757508   3.091994   4.360298   5.260491
    20  H    1.086972   5.412489   6.193287   7.657323   8.058139
    21  H    4.791594   1.096444   2.179578   2.722548   2.481660
    22  H    5.164947   2.163898   1.098331   2.100796   3.277743
    23  H    8.957891   4.836955   4.033750   2.639701   2.076042
    24  H    8.720556   4.399639   4.030193   2.620090   2.077547
    25  H    4.555110   1.957944   3.229513   3.856680   4.169394
    26  H    6.093143   3.510235   2.174859   2.637381   3.257367
    27  H    4.379675   2.897155   2.180754   3.430883   3.997994
    28  H    5.388352   2.791418   2.181448   2.806638   2.775943
    29  H    8.832412   5.085099   4.860510   3.936149   2.641811
    30  H   10.031997   5.955155   5.728520   4.486726   3.348215
    31  H    8.594896   4.677973   4.856707   3.922632   2.642188
                   11         12         13         14         15
    11  C    0.000000
    12  O    4.405828   0.000000
    13  C    4.252879   3.801621   0.000000
    14  O    2.662843   3.618762   3.322128   0.000000
    15  C    1.516185   5.232178   5.125228   4.156010   0.000000
    16  H    5.883339   3.790961   3.768896   6.003592   6.023291
    17  H    8.756750   4.956650   5.504647   7.235160   9.608951
    18  H    8.286835   5.566584   5.417742   8.038582   8.480171
    19  H    6.528454   2.806358   3.892608   4.864838   7.534080
    20  H    9.476294   6.013402   6.119457   8.537235  10.000891
    21  H    3.780219   2.030639   2.885227   3.886401   4.221160
    22  H    4.441991   2.629836   2.151301   2.505661   5.657486
    23  H    1.095701   5.175074   4.353470   2.638431   2.149634
    24  H    1.095785   4.265223   4.892803   2.637011   2.149642
    25  H    5.236632   0.973817   4.476930   4.591308   5.910622
    26  H    4.298641   4.593253   1.095851   3.155991   5.287498
    27  H    5.324174   4.163355   1.094394   4.223961   6.154294
    28  H    4.028692   4.130340   1.095681   3.830921   4.599240
    29  H    2.160254   5.661010   4.897323   4.587116   1.095046
    30  H    2.162922   6.142372   6.111871   4.781212   1.093543
    31  H    2.160166   4.858806   5.372884   4.585993   1.095055
                   16         17         18         19         20
    16  H    0.000000
    17  H    4.964830   0.000000
    18  H    2.465493   4.295319   0.000000
    19  H    4.319814   2.468956   4.963344   0.000000
    20  H    4.289604   2.480348   2.479429   4.291281   0.000000
    21  H    2.350432   5.533220   4.659910   3.800707   5.857061
    22  H    4.545663   4.775610   6.077720   2.535999   6.171833
    23  H    6.565846   9.226771   8.904482   6.996062  10.020154
    24  H    6.383995   8.899053   8.766046   6.562102   9.806919
    25  H    3.656384   4.633271   5.174569   2.826244   5.558019
    26  H    4.840379   6.255483   6.428429   4.606508   7.016709
    27  H    3.636778   4.734849   4.810114   3.536360   5.269553
    28  H    3.351991   6.115347   5.208456   4.642803   6.343670
    29  H    5.788123   9.656510   8.188282   7.733606   9.847889
    30  H    7.101601  10.641198   9.560083   8.505084  11.085492
    31  H    5.583544   9.348669   8.039012   7.349813   9.633658
                   21         22         23         24         25
    21  H    0.000000
    22  H    3.074786   0.000000
    23  H    4.556106   4.678167   0.000000
    24  H    4.121940   4.603384   1.792617   0.000000
    25  H    2.421164   3.396035   6.067027   5.081010   0.000000
    26  H    3.834662   2.529141   4.121068   4.972185   5.361799
    27  H    3.366556   2.470895   5.446792   5.925550   4.675184
    28  H    2.680696   3.073698   4.196998   4.828613   4.742156
    29  H    4.307632   5.841433   2.496586   3.063980   6.320268
    30  H    5.280603   6.560398   2.499527   2.498996   6.825127
    31  H    3.853331   5.782032   3.063877   2.496949   5.398778
                   26         27         28         29         30
    26  H    0.000000
    27  H    1.766377   0.000000
    28  H    1.766179   1.773477   0.000000
    29  H    5.033879   5.887822   4.196043   0.000000
    30  H    6.167919   7.164912   5.618124   1.780172   0.000000
    31  H    5.738208   6.324332   4.815778   1.759331   1.780199
                   31
    31  H    0.000000
 Stoichiometry    C12H16O3
 Framework group  C1[X(C12H16O3)]
 Deg. of freedom    87
 Full point group                 C1      NOp   1
 Largest Abelian subgroup         C1      NOp   1
 Largest concise Abelian subgroup C1      NOp   1
                         Standard orientation:                         
 ---------------------------------------------------------------------
 Center     Atomic      Atomic             Coordinates (Angstroms)
 Number     Number       Type             X           Y           Z
 ---------------------------------------------------------------------
      1          6           0        2.254471    1.403537    0.090228
      2          6           0        3.925522   -0.816801   -0.156366
      3          6           0        3.624834    1.528121    0.326078
      4          6           0        1.703374    0.164997   -0.270460
      5          6           0        2.556128   -0.944068   -0.392377
      6          6           0        4.459084    0.418805    0.203183
      7          6           0        0.212161    0.035754   -0.522794
      8          6           0       -0.510014   -0.866783    0.489951
      9          6           0       -1.995858   -0.905393    0.198573
     10          8           0       -2.526244    0.348014    0.123051
     11          6           0       -3.935004    0.374694   -0.135416
     12          8           0        0.033085   -0.494758   -1.841181
     13          6           0       -0.315014   -0.436832    1.944026
     14          8           0       -2.645245   -1.941382    0.115670
     15          6           0       -4.370337    1.824195   -0.226246
     16          1           0        1.620845    2.282069    0.193427
     17          1           0        4.575854   -1.682495   -0.253443
     18          1           0        4.042363    2.491839    0.606836
     19          1           0        2.154593   -1.915447   -0.676496
     20          1           0        5.525774    0.517259    0.387539
     21          1           0       -0.234766    1.036900   -0.535129
     22          1           0       -0.153340   -1.899145    0.374441
     23          1           0       -4.469656   -0.121520    0.682190
     24          1           0       -4.148513   -0.135529   -1.081371
     25          1           0        0.760323   -0.155255   -2.392709
     26          1           0       -0.945330   -1.031988    2.614384
     27          1           0        0.723101   -0.569828    2.263909
     28          1           0       -0.584684    0.615209    2.088964
     29          1           0       -4.144161    2.353650    0.705230
     30          1           0       -5.443508    1.897828   -0.423015
     31          1           0       -3.827746    2.340098   -1.025361
 ---------------------------------------------------------------------
 Rotational constants (GHZ):      1.3291962      0.2880751      0.2723419
 Standard basis: 6-31+G(d,p) (6D, 7F)
 There are   365 symmetry adapted basis functions of A   symmetry.
 Integral buffers will be    131072 words long.
 Raffenetti 2 integral format.
 Two-electron integral symmetry is turned on.
   365 basis functions,   592 primitive gaussians,   365 cartesian basis functions
    56 alpha electrons       56 beta electrons
       nuclear repulsion energy       993.5025607713 Hartrees.
 NAtoms=   31 NActive=   31 NUniq=   31 SFac= 1.00D+00 NAtFMM=   60 NAOKFM=F Big=F
 Nuclear repulsion after empirical dispersion term =      993.4819869728 Hartrees.
 ------------------------------------------------------------------------------
 Polarizable Continuum Model (PCM)
 =================================
 Model                : C-PCM.
 Atomic radii         : SMD-Coulomb.
 Polarization charges : Total charges.
 Charge compensation  : None.
 Solution method      : Matrix inversion.
 Cavity type          : VdW (van der Waals Surface) (Alpha=1.000).
 Cavity algorithm     : GePol (No added spheres)
                        Default sphere list used, NSphG=   31.
                        Lebedev-Laikov grids with approx.  5.0 points / Ang**2.
                        Smoothing algorithm: Karplus/York (Gamma=1.0000).
                        Polarization charges: spherical gaussians, with
                                              point-specific exponents (IZeta= 3).
                        Self-potential: point-specific (ISelfS= 7).
                        Self-field    : sphere-specific E.n sum rule (ISelfD= 2).
 Solvent              : Chloroform, Eps=   4.711300 Eps(inf)=   2.090627
 ------------------------------------------------------------------------------
 ------------------------------------------------------------------------------
 Atomic radii for non-electrostatic terms: SMD-CDS.
 ------------------------------------------------------------------------------
 Nuclear repulsion after PCM non-electrostatic terms =      993.4755307348 Hartrees.
 One-electron integrals computed using PRISM.
 NBasis=   365 RedAO= T  NBF=   365
 NBsUse=   365 1.00D-06 NBFU=   365
 Harris functional with IExCor= 4639 diagonalized for initial guess.
 ExpMin= 4.38D-02 ExpMax= 5.48D+03 ExpMxC= 8.25D+02 IAcc=2 IRadAn=         4 AccDes= 0.00D+00
 HarFok:  IExCor= 4639 AccDes= 0.00D+00 IRadAn=         4 IDoV= 1
 ScaDFX=  1.000000  1.000000  1.000000  1.000000
 FoFCou: FMM=F IPFlag=           0 FMFlag=      100000 FMFlg1=           0
         NFxFlg=           0 DoJE=T BraDBF=F KetDBF=T FulRan=T
         Omega=  0.000000  0.000000  1.000000  0.000000  0.000000 ICntrl=     500 IOpCl=  0
         NMat0=    1 NMatS0=    1 NMatT0=    0 NMatD0=    1 NMtDS0=    0 NMtDT0=    0
         I1Cent=           4 NGrid=           0.
 Petite list used in FoFCou.
 Initial guess orbital symmetries:
       Occupied  (A) (A) (A) (A) (A) (A) (A) (A) (A) (A) (A) (A)
                 (A) (A) (A) (A) (A) (A) (A) (A) (A) (A) (A) (A)
                 (A) (A) (A) (A) (A) (A) (A) (A) (A) (A) (A) (A)
                 (A) (A) (A) (A) (A) (A) (A) (A) (A) (A) (A) (A)
                 (A) (A) (A) (A) (A) (A) (A) (A)
       Virtual   (A) (A) (A) (A) (A) (A) (A) (A) (A) (A) (A) (A)
                 (A) (A) (A) (A) (A) (A) (A) (A) (A) (A) (A) (A)
                 (A) (A) (A) (A) (A) (A) (A) (A) (A) (A) (A) (A)
                 (A) (A) (A) (A) (A) (A) (A) (A) (A) (A) (A) (A)
                 (A) (A) (A) (A) (A) (A) (A) (A) (A) (A) (A) (A)
                 (A) (A) (A) (A) (A) (A) (A) (A) (A) (A) (A) (A)
                 (A) (A) (A) (A) (A) (A) (A) (A) (A) (A) (A) (A)
                 (A) (A) (A) (A) (A) (A) (A) (A) (A) (A) (A) (A)
                 (A) (A) (A) (A) (A) (A) (A) (A) (A) (A) (A) (A)
                 (A) (A) (A) (A) (A) (A) (A) (A) (A) (A) (A) (A)
                 (A) (A) (A) (A) (A) (A) (A) (A) (A) (A) (A) (A)
                 (A) (A) (A) (A) (A) (A) (A) (A) (A) (A) (A) (A)
                 (A) (A) (A) (A) (A) (A) (A) (A) (A) (A) (A) (A)
                 (A) (A) (A) (A) (A) (A) (A) (A) (A) (A) (A) (A)
                 (A) (A) (A) (A) (A) (A) (A) (A) (A) (A) (A) (A)
                 (A) (A) (A) (A) (A) (A) (A) (A) (A) (A) (A) (A)
                 (A) (A) (A) (A) (A) (A) (A) (A) (A) (A) (A) (A)
                 (A) (A) (A) (A) (A) (A) (A) (A) (A) (A) (A) (A)
                 (A) (A) (A) (A) (A) (A) (A) (A) (A) (A) (A) (A)
                 (A) (A) (A) (A) (A) (A) (A) (A) (A) (A) (A) (A)
                 (A) (A) (A) (A) (A) (A) (A) (A) (A) (A) (A) (A)
                 (A) (A) (A) (A) (A) (A) (A) (A) (A) (A) (A) (A)
                 (A) (A) (A) (A) (A) (A) (A) (A) (A) (A) (A) (A)
                 (A) (A) (A) (A) (A) (A) (A) (A) (A) (A) (A) (A)
                 (A) (A) (A) (A) (A) (A) (A) (A) (A) (A) (A) (A)
                 (A) (A) (A) (A) (A) (A) (A) (A) (A)
 The electronic state of the initial guess is 1-A.
 Requested convergence on RMS density matrix=1.00D-08 within 128 cycles.
 Requested convergence on MAX density matrix=1.00D-06.
 Requested convergence on             energy=1.00D-06.
 No special actions if energy rises.
 FoFJK:  IHMeth= 1 ICntrl=     0 DoSepK=T KAlg= 1 I1Cent= 0 FoldK=F
 FoFJK:  IHMeth= 1 ICntrl=     0 DoSepK=T KAlg= 1 I1Cent= 0 FoldK=F
 FoFJK:  IHMeth= 1 ICntrl=     0 DoSepK=T KAlg= 1 I1Cent= 0 FoldK=F
 FoFJK:  IHMeth= 1 ICntrl=     0 DoSepK=T KAlg= 1 I1Cent= 0 FoldK=F
 FoFJK:  IHMeth= 1 ICntrl=     0 DoSepK=T KAlg= 1 I1Cent= 0 FoldK=F
 FoFJK:  IHMeth= 1 ICntrl=     0 DoSepK=T KAlg= 1 I1Cent= 0 FoldK=F
 FoFJK:  IHMeth= 1 ICntrl=     0 DoSepK=T KAlg= 1 I1Cent= 0 FoldK=F
 FoFJK:  IHMeth= 1 ICntrl=     0 DoSepK=T KAlg= 1 I1Cent= 0 FoldK=F
 FoFJK:  IHMeth= 1 ICntrl=     0 DoSepK=T KAlg= 1 I1Cent= 0 FoldK=F
 FoFJK:  IHMeth= 1 ICntrl=     0 DoSepK=T KAlg= 1 I1Cent= 0 FoldK=F
 FoFJK:  IHMeth= 1 ICntrl=     0 DoSepK=T KAlg= 1 I1Cent= 0 FoldK=F
 FoFJK:  IHMeth= 1 ICntrl=     0 DoSepK=T KAlg= 1 I1Cent= 0 FoldK=F
 FoFJK:  IHMeth= 1 ICntrl=     0 DoSepK=T KAlg= 1 I1Cent= 0 FoldK=F
 FoFJK:  IHMeth= 1 ICntrl=     0 DoSepK=T KAlg= 1 I1Cent= 0 FoldK=F
 FoFJK:  IHMeth= 1 ICntrl=     0 DoSepK=T KAlg= 1 I1Cent= 0 FoldK=F
 FoFJK:  IHMeth= 1 ICntrl=     0 DoSepK=T KAlg= 1 I1Cent= 0 FoldK=F
 Error on total polarization charges =  0.04015
 SCF Done:  E(RwB97XD) =  -692.445575885     A.U. after   16 cycles
             Convg  =    0.3229D-08             -V/T =  2.0095
 SMD-CDS (non-electrostatic) energy       (kcal/mol) =      -4.05
 (included in total energy above)
 Range of M.O.s used for correlation:     1   365
 NBasis=   365 NAE=    56 NBE=    56 NFC=     0 NFV=     0
 NROrb=    365 NOA=    56 NOB=    56 NVA=   309 NVB=   309

 **** Warning!!: The largest alpha MO coefficient is  0.17065676D+03

 NEqPCM:  Using equilibrium solvation (IEInf=0, Eps=   4.7113, EpsInf=   2.0906)
          Differentiating once with respect to magnetic field using GIAOs.
          Electric field/nuclear overlap derivatives assumed to be zero.
 FoFCou: FMM=F IPFlag=           0 FMFlag=    10101102 FMFlg1=           0
         NFxFlg=    40000000 DoJE=F BraDBF=F KetDBF=T FulRan=T
         Omega=  0.000000  0.000000  1.000000  0.000000  0.000000 ICntrl=    6100 IOpCl=  0
         NMat0=    1 NMatS0=    1 NMatT0=    0 NMatD0=    1 NMtDS0=    0 NMtDT0=    0
         I1Cent=           7 NGrid=        2323.
 Symmetry not used in FoFCou.
 FoFJK:  IHMeth= 1 ICntrl=  6127 DoSepK=T KAlg= 1 I1Cent= 0 FoldK=F
 FoFJK:  IHMeth= 1 ICntrl=     0 DoSepK=T KAlg= 1 I1Cent= 0 FoldK=F
          There are     3 degrees of freedom in the 1st order CPHF.  IDoFFX=0.
      3 vectors produced by pass  0 Test12= 5.77D-13 3.33D-08 XBig12= 2.06D+02 2.17D+00.
 AX will form     3 AO Fock derivatives at one time.
 FoFJK:  IHMeth= 1 ICntrl=     0 DoSepK=T KAlg= 1 I1Cent= 0 FoldK=F
      3 vectors produced by pass  1 Test12= 5.77D-13 3.33D-08 XBig12= 1.63D+00 3.48D-01.
 FoFJK:  IHMeth= 1 ICntrl=     0 DoSepK=T KAlg= 1 I1Cent= 0 FoldK=F
      3 vectors produced by pass  2 Test12= 5.77D-13 3.33D-08 XBig12= 3.12D-02 7.29D-02.
 FoFJK:  IHMeth= 1 ICntrl=     0 DoSepK=T KAlg= 1 I1Cent= 0 FoldK=F
      3 vectors produced by pass  3 Test12= 5.77D-13 3.33D-08 XBig12= 5.45D-04 5.46D-03.
 FoFJK:  IHMeth= 1 ICntrl=     0 DoSepK=T KAlg= 1 I1Cent= 0 FoldK=F
      3 vectors produced by pass  4 Test12= 5.77D-13 3.33D-08 XBig12= 7.09D-06 4.42D-04.
 FoFJK:  IHMeth= 1 ICntrl=     0 DoSepK=T KAlg= 1 I1Cent= 0 FoldK=F
      3 vectors produced by pass  5 Test12= 5.77D-13 3.33D-08 XBig12= 9.16D-08 7.54D-05.
 FoFJK:  IHMeth= 1 ICntrl=     0 DoSepK=T KAlg= 1 I1Cent= 0 FoldK=F
      3 vectors produced by pass  6 Test12= 5.77D-13 3.33D-08 XBig12= 1.28D-09 1.23D-05.
 FoFJK:  IHMeth= 1 ICntrl=     0 DoSepK=T KAlg= 1 I1Cent= 0 FoldK=F
      3 vectors produced by pass  7 Test12= 5.77D-13 3.33D-08 XBig12= 1.80D-11 1.37D-06.
 FoFJK:  IHMeth= 1 ICntrl=     0 DoSepK=T KAlg= 1 I1Cent= 0 FoldK=F
      3 vectors produced by pass  8 Test12= 5.77D-13 3.33D-08 XBig12= 2.14D-13 1.18D-07.
 FoFJK:  IHMeth= 1 ICntrl=     0 DoSepK=T KAlg= 1 I1Cent= 0 FoldK=F
 Inverted reduced A of dimension    27 with in-core refinement.
 Calculating GIAO nuclear magnetic shielding tensors.
 SCF GIAO Magnetic shielding tensor (ppm):
      1  C    Isotropic =    69.1049   Anisotropy =   159.2513
   XX=    34.0061   YX=    45.6507   ZX=   -12.2204
   XY=    43.7293   YY=     5.2242   ZY=   -32.0018
   XZ=    -2.2857   YZ=   -28.6047   ZZ=   168.0845
   Eigenvalues:   -29.4679    61.5102   175.2724
      2  C    Isotropic =    69.2859   Anisotropy =   179.0645
   XX=    28.1269   YX=    44.5747   ZX=   -14.8299
   XY=    47.5556   YY=     0.6133   ZY=   -35.3797
   XZ=   -14.3598   YZ=   -32.0534   ZZ=   179.1174
   Eigenvalues:   -35.3495    54.5449   188.6622
      3  C    Isotropic =    70.2225   Anisotropy =   174.4278
   XX=    45.8786   YX=   -25.2719   ZX=   -27.3889
   XY=   -27.3908   YY=    -6.7758   ZY=   -47.5990
   XZ=   -26.8523   YZ=   -48.1002   ZZ=   171.5648
   Eigenvalues:   -32.3338    56.4937   186.5077
      4  C    Isotropic =    52.9431   Anisotropy =   187.1731
   XX=   -26.9901   YX=    -5.4490   ZX=   -27.7401
   XY=     1.5112   YY=    17.5066   ZY=   -29.7070
   XZ=   -33.0959   YZ=   -26.8717   ZZ=   168.3126
   Eigenvalues:   -32.4499    13.5540   177.7251
      5  C    Isotropic =    73.0984   Anisotropy =   179.4075
   XX=    45.9622   YX=   -20.6540   ZX=   -27.0174
   XY=   -23.6732   YY=    -5.0965   ZY=   -50.0721
   XZ=   -21.9374   YZ=   -46.3537   ZZ=   178.4293
   Eigenvalues:   -27.4294    54.0212   192.7033
      6  C    Isotropic =    70.6309   Anisotropy =   176.2477
   XX=   -24.2766   YX=    -4.7560   ZX=   -33.7566
   XY=    -3.0611   YY=    60.7607   ZY=   -29.2530
   XZ=   -36.7755   YZ=   -31.1701   ZZ=   175.4087
   Eigenvalues:   -31.2334    54.9968   188.1294
      7  C    Isotropic =   117.8715   Anisotropy =    26.9088
   XX=   107.8481   YX=     3.8999   ZX=     1.1521
   XY=     3.0501   YY=   115.9342   ZY=     8.7358
   XZ=     3.6505   YZ=    11.8560   ZZ=   129.8322
   Eigenvalues:   106.4267   111.3771   135.8107
      8  C    Isotropic =   145.7465   Anisotropy =    27.0526
   XX=   163.2076   YX=    -3.6858   ZX=    -4.8989
   XY=     5.6922   YY=   141.6461   ZY=    -2.1747
   XZ=    -3.0521   YZ=    -1.6762   ZZ=   132.3859
   Eigenvalues:   131.5642   141.8938   163.7816
      9  C    Isotropic =    17.5699   Anisotropy =   103.8854
   XX=   -14.7911   YX=    34.8062   ZX=   -15.3114
   XY=    72.1935   YY=   -16.6710   ZY=    11.0272
   XZ=   -17.4952   YZ=     4.7748   ZZ=    84.1719
   Eigenvalues:   -71.1333    37.0163    86.8269
     10  O    Isotropic =   140.2780   Anisotropy =   157.0313
   XX=    22.3557   YX=   -51.1380   ZX=   -37.1440
   XY=  -185.0926   YY=   182.2385   ZY=   -30.2291
   XZ=   -29.4330   YZ=    -7.3990   ZZ=   216.2399
   Eigenvalues:   -45.9015   221.7700   244.9656
     11  C    Isotropic =   136.3082   Anisotropy =    59.0576
   XX=   173.5419   YX=     1.9282   ZX=    11.0474
   XY=    -8.1196   YY=   119.4238   ZY=    -1.7864
   XZ=    10.5888   YZ=     0.9831   ZZ=   115.9590
   Eigenvalues:   113.9890   119.2558   175.6800
     12  O    Isotropic =   267.2187   Anisotropy =    47.4801
   XX=   290.2618   YX=    22.8662   ZX=    -9.5538
   XY=    17.7910   YY=   219.0374   ZY=    -0.9786
   XZ=    -2.4895   YZ=    12.2824   ZZ=   292.3571
   Eigenvalues:   213.0230   289.7610   298.8721
     13  C    Isotropic =   180.8859   Anisotropy =    22.3638
   XX=   177.2292   YX=     2.5833   ZX=     0.8695
   XY=     0.1958   YY=   171.0880   ZY=     7.6768
   XZ=     1.7083   YZ=     3.7210   ZZ=   194.3405
   Eigenvalues:   169.6163   177.2463   195.7951
     14  O    Isotropic =   -56.1324   Anisotropy =   530.7654
   XX=  -152.3683   YX=   -23.0710   ZX=   -69.4956
   XY=    -0.2208   YY=  -302.2849   ZY=     1.6665
   XZ=   -74.1096   YZ=    -4.4509   ZZ=   286.2559
   Eigenvalues:  -303.2702  -162.8382   297.7112
     15  C    Isotropic =   182.5124   Anisotropy =    22.9538
   XX=   184.5891   YX=    -3.0557   ZX=     2.8041
   XY=   -10.0729   YY=   194.2799   ZY=    -2.1435
   XZ=     2.6962   YZ=    -0.7537   ZZ=   168.6683
   Eigenvalues:   168.2016   181.5207   197.8150
     16  H    Isotropic =    23.7417   Anisotropy =     7.7904
   XX=    26.4406   YX=     3.1927   ZX=     1.0431
   XY=     2.9332   YY=    24.7281   ZY=     0.7942
   XZ=     1.0573   YZ=     0.5085   ZZ=    20.0563
   Eigenvalues:    19.8806    22.4091    28.9353
     17  H    Isotropic =    23.6544   Anisotropy =     5.0650
   XX=    26.4665   YX=     0.8788   ZX=     0.9585
   XY=     1.0734   YY=    23.8838   ZY=     1.1266
   XZ=     0.8552   YZ=     1.1200   ZZ=    20.6130
   Eigenvalues:    20.2079    23.7242    27.0311
     18  H    Isotropic =    23.7985   Anisotropy =     4.8856
   XX=    26.8510   YX=    -0.6889   ZX=     0.6257
   XY=    -0.7109   YY=    24.0342   ZY=     0.4884
   XZ=     0.6737   YZ=     0.6068   ZZ=    20.5103
   Eigenvalues:    20.3401    23.9999    27.0556
     19  H    Isotropic =    23.3512   Anisotropy =     9.7756
   XX=    28.4572   YX=    -3.6766   ZX=     0.0494
   XY=    -2.8685   YY=    22.2713   ZY=     0.3596
   XZ=     0.2051   YZ=     0.7959   ZZ=    19.3252
   Eigenvalues:    19.1292    21.0562    29.8683
     20  H    Isotropic =    23.7797   Anisotropy =     4.1249
   XX=    24.4451   YX=    -0.3957   ZX=     0.3669
   XY=    -0.3462   YY=    26.2434   ZY=     1.2074
   XZ=     0.2844   YZ=     1.1743   ZZ=    20.6505
   Eigenvalues:    20.3695    24.4399    26.5296
     21  H    Isotropic =    26.5117   Anisotropy =     3.7399
   XX=    26.8145   YX=    -0.1554   ZX=     0.7494
   XY=    -1.3087   YY=    28.3901   ZY=     1.0841
   XZ=    -0.2919   YZ=     1.6932   ZZ=    24.3305
   Eigenvalues:    23.8357    26.6944    29.0050
     22  H    Isotropic =    28.4865   Anisotropy =     5.1235
   XX=    28.8305   YX=    -1.9788   ZX=    -0.1835
   XY=     0.4624   YY=    31.5572   ZY=     1.4962
   XZ=    -2.0609   YZ=    -0.0369   ZZ=    25.0719
   Eigenvalues:    24.7244    28.8329    31.9022
     23  H    Isotropic =    27.4471   Anisotropy =     7.0420
   XX=    30.8540   YX=     0.7255   ZX=    -3.0022
   XY=    -0.4390   YY=    27.1868   ZY=    -2.5151
   XZ=    -2.6667   YZ=    -2.4810   ZZ=    24.3007
   Eigenvalues:    22.1754    28.0243    32.1418
     24  H    Isotropic =    27.4600   Anisotropy =     6.6947
   XX=    28.5253   YX=    -0.1123   ZX=     4.1783
   XY=    -1.2182   YY=    27.1966   ZY=     2.2691
   XZ=     3.7991   YZ=     2.5659   ZZ=    26.6582
   Eigenvalues:    22.3683    28.0886    31.9232
     25  H    Isotropic =    29.9427   Anisotropy =    14.4397
   XX=    31.2999   YX=     4.2551   ZX=    -6.9691
   XY=     2.6088   YY=    23.3596   ZY=    -1.2304
   XZ=    -3.9215   YZ=    -1.1919   ZZ=    35.1686
   Eigenvalues:    22.0248    28.2341    39.5692
     26  H    Isotropic =    30.6020   Anisotropy =    10.2848
   XX=    29.2448   YX=     2.4682   ZX=    -2.3230
   XY=     2.1092   YY=    28.0858   ZY=    -2.6350
   XZ=    -3.5317   YZ=    -3.9664   ZZ=    34.4754
   Eigenvalues:    26.1582    28.1892    37.4586
     27  H    Isotropic =    31.1867   Anisotropy =     6.7869
   XX=    34.8410   YX=    -0.6688   ZX=     2.7007
   XY=     0.4109   YY=    25.8238   ZY=    -0.9454
   XZ=     0.2785   YZ=    -1.8573   ZZ=    32.8954
   Eigenvalues:    25.5536    32.2952    35.7114
     28  H    Isotropic =    30.6732   Anisotropy =     7.3799
   XX=    28.4416   YX=    -1.5077   ZX=     0.3128
   XY=    -1.6116   YY=    33.0402   ZY=     2.3054
   XZ=    -1.9596   YZ=     3.9617   ZZ=    30.5380
   Eigenvalues:    27.9380    28.4885    35.5932
     29  H    Isotropic =    30.2511   Anisotropy =     8.1720
   XX=    27.7794   YX=    -1.3207   ZX=     0.8879
   XY=    -0.6737   YY=    31.6135   ZY=     4.5101
   XZ=     0.3722   YZ=     3.8906   ZZ=    31.3605
   Eigenvalues:    26.3558    28.6984    35.6991
     30  H    Isotropic =    30.3331   Anisotropy =    11.0289
   XX=    36.4010   YX=    -2.6863   ZX=     1.8948
   XY=    -3.1891   YY=    28.4201   ZY=    -0.5192
   XZ=     1.8161   YZ=    -0.4810   ZZ=    26.1782
   Eigenvalues:    25.8518    27.4619    37.6857
     31  H    Isotropic =    30.2048   Anisotropy =     7.8382
   XX=    28.8097   YX=     0.0082   ZX=    -2.0875
   XY=     0.8239   YY=    31.4269   ZY=    -4.2856
   XZ=    -1.7173   YZ=    -3.9420   ZZ=    30.3778
   Eigenvalues:    26.1882    28.9959    35.4303
 End of Minotr Frequency-dependent properties file   721 does not exist.
 End of Minotr Frequency-dependent properties file   722 does not exist.

 **********************************************************************

            Population analysis using the SCF density.

 **********************************************************************

 Orbital symmetries:
       Occupied  (A) (A) (A) (A) (A) (A) (A) (A) (A) (A) (A) (A)
                 (A) (A) (A) (A) (A) (A) (A) (A) (A) (A) (A) (A)
                 (A) (A) (A) (A) (A) (A) (A) (A) (A) (A) (A) (A)
                 (A) (A) (A) (A) (A) (A) (A) (A) (A) (A) (A) (A)
                 (A) (A) (A) (A) (A) (A) (A) (A)
       Virtual   (A) (A) (A) (A) (A) (A) (A) (A) (A) (A) (A) (A)
                 (A) (A) (A) (A) (A) (A) (A) (A) (A) (A) (A) (A)
                 (A) (A) (A) (A) (A) (A) (A) (A) (A) (A) (A) (A)
                 (A) (A) (A) (A) (A) (A) (A) (A) (A) (A) (A) (A)
                 (A) (A) (A) (A) (A) (A) (A) (A) (A) (A) (A) (A)
                 (A) (A) (A) (A) (A) (A) (A) (A) (A) (A) (A) (A)
                 (A) (A) (A) (A) (A) (A) (A) (A) (A) (A) (A) (A)
                 (A) (A) (A) (A) (A) (A) (A) (A) (A) (A) (A) (A)
                 (A) (A) (A) (A) (A) (A) (A) (A) (A) (A) (A) (A)
                 (A) (A) (A) (A) (A) (A) (A) (A) (A) (A) (A) (A)
                 (A) (A) (A) (A) (A) (A) (A) (A) (A) (A) (A) (A)
                 (A) (A) (A) (A) (A) (A) (A) (A) (A) (A) (A) (A)
                 (A) (A) (A) (A) (A) (A) (A) (A) (A) (A) (A) (A)
                 (A) (A) (A) (A) (A) (A) (A) (A) (A) (A) (A) (A)
                 (A) (A) (A) (A) (A) (A) (A) (A) (A) (A) (A) (A)
                 (A) (A) (A) (A) (A) (A) (A) (A) (A) (A) (A) (A)
                 (A) (A) (A) (A) (A) (A) (A) (A) (A) (A) (A) (A)
                 (A) (A) (A) (A) (A) (A) (A) (A) (A) (A) (A) (A)
                 (A) (A) (A) (A) (A) (A) (A) (A) (A) (A) (A) (A)
                 (A) (A) (A) (A) (A) (A) (A) (A) (A) (A) (A) (A)
                 (A) (A) (A) (A) (A) (A) (A) (A) (A) (A) (A) (A)
                 (A) (A) (A) (A) (A) (A) (A) (A) (A) (A) (A) (A)
                 (A) (A) (A) (A) (A) (A) (A) (A) (A) (A) (A) (A)
                 (A) (A) (A) (A) (A) (A) (A) (A) (A) (A) (A) (A)
                 (A) (A) (A) (A) (A) (A) (A) (A) (A) (A) (A) (A)
                 (A) (A) (A) (A) (A) (A) (A) (A) (A)
 The electronic state is 1-A.
 Alpha  occ. eigenvalues --  -19.32720 -19.28169 -19.27378 -10.43778 -10.35964
 Alpha  occ. eigenvalues --  -10.34943 -10.31936 -10.31688 -10.30966 -10.30942
 Alpha  occ. eigenvalues --  -10.30879 -10.30854 -10.30758 -10.29425 -10.28762
 Alpha  occ. eigenvalues --   -1.20924  -1.12997  -1.12231  -0.96415  -0.91633
 Alpha  occ. eigenvalues --   -0.86852  -0.85239  -0.84948  -0.77946  -0.75305
 Alpha  occ. eigenvalues --   -0.71485  -0.70226  -0.67826  -0.65705  -0.61881
 Alpha  occ. eigenvalues --   -0.59512  -0.58597  -0.58161  -0.56957  -0.54989
 Alpha  occ. eigenvalues --   -0.53498  -0.52999  -0.51394  -0.50754  -0.50083
 Alpha  occ. eigenvalues --   -0.49230  -0.47518  -0.46971  -0.46124  -0.45401
 Alpha  occ. eigenvalues --   -0.45216  -0.43719  -0.43402  -0.42941  -0.42514
 Alpha  occ. eigenvalues --   -0.40975  -0.38756  -0.36880  -0.36002  -0.33560
 Alpha  occ. eigenvalues --   -0.32682
 Alpha virt. eigenvalues --    0.04553   0.05110   0.06636   0.07290   0.07994
 Alpha virt. eigenvalues --    0.08302   0.08583   0.09481   0.09665   0.10247
 Alpha virt. eigenvalues --    0.10735   0.11057   0.11418   0.12422   0.12780
 Alpha virt. eigenvalues --    0.13257   0.13481   0.14306   0.14494   0.15251
 Alpha virt. eigenvalues --    0.16416   0.16437   0.16902   0.17073   0.17838
 Alpha virt. eigenvalues --    0.18264   0.19142   0.19342   0.19924   0.20076
 Alpha virt. eigenvalues --    0.20585   0.21156   0.21241   0.21713   0.22025
 Alpha virt. eigenvalues --    0.22603   0.23234   0.24132   0.24835   0.24962
 Alpha virt. eigenvalues --    0.25378   0.25789   0.25959   0.26695   0.27003
 Alpha virt. eigenvalues --    0.27266   0.27952   0.28451   0.28646   0.29061
 Alpha virt. eigenvalues --    0.29357   0.30066   0.30295   0.30599   0.31519
 Alpha virt. eigenvalues --    0.31774   0.32339   0.32549   0.33300   0.33482
 Alpha virt. eigenvalues --    0.33731   0.34607   0.35489   0.35866   0.36136
 Alpha virt. eigenvalues --    0.36488   0.36599   0.36936   0.38416   0.38854
 Alpha virt. eigenvalues --    0.39142   0.39427   0.40251   0.40740   0.41399
 Alpha virt. eigenvalues --    0.42321   0.42959   0.43542   0.43726   0.45422
 Alpha virt. eigenvalues --    0.45838   0.46370   0.46464   0.46953   0.47644
 Alpha virt. eigenvalues --    0.48311   0.49930   0.51015   0.51929   0.53251
 Alpha virt. eigenvalues --    0.54797   0.57183   0.60241   0.66309   0.69959
 Alpha virt. eigenvalues --    0.73889   0.74203   0.74471   0.75631   0.76794
 Alpha virt. eigenvalues --    0.76842   0.77013   0.78236   0.79584   0.80474
 Alpha virt. eigenvalues --    0.81152   0.82572   0.82727   0.83597   0.83841
 Alpha virt. eigenvalues --    0.84589   0.86202   0.88298   0.88675   0.89551
 Alpha virt. eigenvalues --    0.90402   0.91045   0.92823   0.94087   0.95540
 Alpha virt. eigenvalues --    0.96261   0.96933   0.99292   1.00999   1.01982
 Alpha virt. eigenvalues --    1.02341   1.03491   1.05566   1.06797   1.07141
 Alpha virt. eigenvalues --    1.08026   1.09358   1.10092   1.11104   1.12452
 Alpha virt. eigenvalues --    1.13870   1.14959   1.17211   1.17853   1.19455
 Alpha virt. eigenvalues --    1.20396   1.21324   1.22344   1.24286   1.24725
 Alpha virt. eigenvalues --    1.25665   1.26910   1.28567   1.29639   1.30324
 Alpha virt. eigenvalues --    1.33057   1.33931   1.34627   1.34931   1.37720
 Alpha virt. eigenvalues --    1.38856   1.41120   1.41337   1.43524   1.44635
 Alpha virt. eigenvalues --    1.46294   1.47060   1.48088   1.48956   1.49898
 Alpha virt. eigenvalues --    1.50669   1.52269   1.54040   1.54969   1.56248
 Alpha virt. eigenvalues --    1.57601   1.58212   1.60882   1.62995   1.64219
 Alpha virt. eigenvalues --    1.66239   1.68293   1.70510   1.74727   1.76502
 Alpha virt. eigenvalues --    1.77953   1.81962   1.84313   1.87118   1.87319
 Alpha virt. eigenvalues --    1.90254   1.91023   1.92321   1.93297   1.94343
 Alpha virt. eigenvalues --    1.96346   1.97379   1.98872   1.99754   2.01180
 Alpha virt. eigenvalues --    2.02598   2.03455   2.04487   2.05038   2.06475
 Alpha virt. eigenvalues --    2.06957   2.07906   2.09671   2.10994   2.11561
 Alpha virt. eigenvalues --    2.13697   2.13844   2.14372   2.15642   2.17149
 Alpha virt. eigenvalues --    2.18280   2.20341   2.20580   2.20982   2.22127
 Alpha virt. eigenvalues --    2.23269   2.23800   2.25609   2.29324   2.30471
 Alpha virt. eigenvalues --    2.32585   2.35620   2.37181   2.38089   2.39170
 Alpha virt. eigenvalues --    2.42624   2.43723   2.45345   2.47744   2.48037
 Alpha virt. eigenvalues --    2.48660   2.50128   2.51293   2.52249   2.54792
 Alpha virt. eigenvalues --    2.55902   2.57404   2.57686   2.59511   2.61205
 Alpha virt. eigenvalues --    2.61836   2.63943   2.64805   2.65983   2.68601
 Alpha virt. eigenvalues --    2.69115   2.70849   2.72600   2.73341   2.75603
 Alpha virt. eigenvalues --    2.76395   2.78572   2.79353   2.82380   2.83120
 Alpha virt. eigenvalues --    2.84404   2.85355   2.86083   2.87117   2.89353
 Alpha virt. eigenvalues --    2.91465   2.92040   2.95677   2.97388   2.98814
 Alpha virt. eigenvalues --    2.99762   3.00725   3.01883   3.05849   3.08476
 Alpha virt. eigenvalues --    3.12094   3.14880   3.16139   3.20026   3.27516
 Alpha virt. eigenvalues --    3.28471   3.29510   3.36393   3.36880   3.38111
 Alpha virt. eigenvalues --    3.39366   3.44684   3.44932   3.49009   3.49884
 Alpha virt. eigenvalues --    3.53865   3.57736   3.58806   3.61250   3.62138
 Alpha virt. eigenvalues --    3.63874   3.65134   3.68904   3.99627   4.39954
 Alpha virt. eigenvalues --    4.41234   4.44172   4.46322   4.49292   4.54391
 Alpha virt. eigenvalues --    4.57763   4.60147   4.63205   4.65834   4.73595
 Alpha virt. eigenvalues --    4.79277   4.81218   4.93431   4.97518
          Condensed to atoms (all electrons):
              1          2          3          4          5          6
     1  C   15.934880  -1.277730  -1.165890  -5.381774  -5.990611   0.393585
     2  C   -1.277730   8.449324   0.593286   1.255807  -1.414095   0.382617
     3  C   -1.165890   0.593286   6.934819   0.687741  -0.495602   0.366139
     4  C   -5.381774   1.255807   0.687741  18.495013  -1.354793  -1.178325
     5  C   -5.990611  -1.414095  -0.495602  -1.354793  15.721191   0.338948
     6  C    0.393585   0.382617   0.366139  -1.178325   0.338948   5.593475
     7  C    4.144078  -2.304888  -1.059853  -7.971278  -1.406161   0.005749
     8  C   -1.593207   0.281561   0.002223   0.997222   1.279558  -0.064080
     9  C    0.462792   0.041512   0.024015  -0.278910  -0.662069  -0.020908
    10  O   -0.010123   0.003045   0.000797   0.026957  -0.006250  -0.000818
    11  C    0.005639   0.005085   0.004776   0.064049  -0.015285  -0.000873
    12  O   -0.074390   0.115938   0.030010   0.418663  -0.064837  -0.000433
    13  C    0.191996  -0.077314  -0.029792   0.134119  -0.036826   0.044393
    14  O   -0.004171  -0.001803  -0.000211  -0.012270   0.007548  -0.000038
    15  C    0.013882  -0.000632  -0.000148  -0.017822  -0.008124   0.000171
    16  H    0.218456   0.008562   0.043676   0.075390   0.001595  -0.010516
    17  H    0.006380   0.281354  -0.001985   0.046406   0.005698  -0.006496
    18  H    0.030278   0.003450   0.278239   0.011248  -0.009948   0.017123
    19  H    0.032882  -0.019818   0.001902   0.083354   0.173935  -0.021299
    20  H   -0.000850   0.013527   0.024344   0.003304   0.000739   0.283507
    21  H    0.195703   0.010298   0.064705   0.034380  -0.104396   0.002549
    22  H    0.044642  -0.007202   0.005609   0.051114  -0.099424  -0.003188
    23  H   -0.000335   0.000018  -0.000001   0.001028   0.000219  -0.000001
    24  H    0.000626  -0.000022   0.000008   0.001151  -0.000585   0.000001
    25  H   -0.023102   0.006993   0.005508   0.105620  -0.080439  -0.007627
    26  H    0.004623  -0.001459  -0.001890  -0.029630  -0.004906   0.000126
    27  H    0.005674  -0.006033  -0.008115   0.038088   0.030641   0.006348
    28  H    0.024680  -0.001459   0.006587  -0.024206  -0.013941   0.000339
    29  H    0.000188   0.000001   0.000008   0.000235  -0.000036   0.000000
    30  H    0.000042   0.000000   0.000003  -0.000022  -0.000014   0.000000
    31  H   -0.000315  -0.000001  -0.000045   0.000851   0.000002   0.000001
              7          8          9         10         11         12
     1  C    4.144078  -1.593207   0.462792  -0.010123   0.005639  -0.074390
     2  C   -2.304888   0.281561   0.041512   0.003045   0.005085   0.115938
     3  C   -1.059853   0.002223   0.024015   0.000797   0.004776   0.030010
     4  C   -7.971278   0.997222  -0.278910   0.026957   0.064049   0.418663
     5  C   -1.406161   1.279558  -0.662069  -0.006250  -0.015285  -0.064837
     6  C    0.005749  -0.064080  -0.020908  -0.000818  -0.000873  -0.000433
     7  C   16.427747  -1.780452   0.305341  -0.000781  -0.109564  -0.312853
     8  C   -1.780452   9.517967  -1.908127  -0.526979  -0.138289  -0.095788
     9  C    0.305341  -1.908127   7.310335   0.416598  -0.017221   0.000094
    10  O   -0.000781  -0.526979   0.416598   8.521563   0.064997   0.000355
    11  C   -0.109564  -0.138289  -0.017221   0.064997   5.340304  -0.011939
    12  O   -0.312853  -0.095788   0.000094   0.000355  -0.011939   8.308722
    13  C   -0.162999  -0.140096  -0.360963   0.015777  -0.016734   0.037658
    14  O   -0.062325   0.133790   0.478088  -0.152394  -0.060959   0.001059
    15  C    0.017503  -0.087980   0.064600  -0.007296   0.132526  -0.000008
    16  H   -0.019852   0.002825  -0.006295  -0.000041   0.000171  -0.000219
    17  H   -0.005179   0.000082   0.000526   0.000000   0.000002   0.000083
    18  H   -0.003281  -0.000242   0.000143   0.000000  -0.000001   0.000014
    19  H    0.053794  -0.016458   0.038510  -0.000007   0.000210   0.001897
    20  H    0.002721  -0.000436  -0.000119   0.000000   0.000000  -0.000008
    21  H    0.093422  -0.053981   0.046242   0.006643   0.012972  -0.044259
    22  H    0.009800   0.233791   0.065588   0.013192   0.005179   0.001945
    23  H   -0.004096  -0.010734  -0.005572  -0.044508   0.409331  -0.000032
    24  H    0.008560  -0.018745  -0.022324  -0.041550   0.416191  -0.000106
    25  H    0.007792   0.005302  -0.002052   0.000154   0.000256   0.231375
    26  H    0.062306  -0.124988   0.033222  -0.001332  -0.002131  -0.000470
    27  H   -0.042132  -0.047352  -0.069905  -0.000534  -0.001717  -0.000624
    28  H   -0.001560  -0.080276   0.027207   0.006147   0.004362   0.000374
    29  H    0.001869  -0.006114  -0.002121  -0.003520  -0.059494  -0.000005
    30  H    0.000119  -0.000940   0.001346   0.006855  -0.059443  -0.000003
    31  H   -0.000659  -0.004995   0.000580  -0.003374  -0.060882  -0.000057
             13         14         15         16         17         18
     1  C    0.191996  -0.004171   0.013882   0.218456   0.006380   0.030278
     2  C   -0.077314  -0.001803  -0.000632   0.008562   0.281354   0.003450
     3  C   -0.029792  -0.000211  -0.000148   0.043676  -0.001985   0.278239
     4  C    0.134119  -0.012270  -0.017822   0.075390   0.046406   0.011248
     5  C   -0.036826   0.007548  -0.008124   0.001595   0.005698  -0.009948
     6  C    0.044393  -0.000038   0.000171  -0.010516  -0.006496   0.017123
     7  C   -0.162999  -0.062325   0.017503  -0.019852  -0.005179  -0.003281
     8  C   -0.140096   0.133790  -0.087980   0.002825   0.000082  -0.000242
     9  C   -0.360963   0.478088   0.064600  -0.006295   0.000526   0.000143
    10  O    0.015777  -0.152394  -0.007296  -0.000041   0.000000   0.000000
    11  C   -0.016734  -0.060959   0.132526   0.000171   0.000002  -0.000001
    12  O    0.037658   0.001059  -0.000008  -0.000219   0.000083   0.000014
    13  C    5.778267  -0.049979  -0.004964   0.003732   0.000057  -0.000042
    14  O   -0.049979   8.198733   0.011269   0.000008   0.000000   0.000000
    15  C   -0.004964   0.011269   5.327877  -0.000175   0.000000   0.000001
    16  H    0.003732   0.000008  -0.000175   0.504075   0.000011  -0.003899
    17  H    0.000057   0.000000   0.000000   0.000011   0.494003  -0.000121
    18  H   -0.000042   0.000000   0.000001  -0.003899  -0.000121   0.495052
    19  H   -0.010330  -0.000040   0.000025  -0.000107  -0.003966   0.000011
    20  H    0.000055   0.000000   0.000000  -0.000120  -0.003815  -0.003854
    21  H   -0.018648  -0.000700   0.001200   0.002283   0.000002  -0.000002
    22  H   -0.016481  -0.006659   0.000817  -0.000008   0.000002   0.000000
    23  H    0.000489   0.001206  -0.017010   0.000000   0.000000   0.000000
    24  H    0.000704   0.003717  -0.017323   0.000000   0.000000   0.000000
    25  H   -0.001302  -0.000047  -0.000049   0.000114  -0.000003   0.000000
    26  H    0.422992   0.002018   0.000133   0.000003   0.000000   0.000000
    27  H    0.457295   0.000208  -0.000140  -0.000043  -0.000003  -0.000002
    28  H    0.402077  -0.000337   0.001408  -0.000086   0.000000   0.000000
    29  H   -0.000057  -0.000100   0.431695   0.000000   0.000000   0.000000
    30  H   -0.000003   0.000119   0.419233   0.000000   0.000000   0.000000
    31  H    0.000748  -0.000155   0.430760   0.000000   0.000000   0.000000
             19         20         21         22         23         24
     1  C    0.032882  -0.000850   0.195703   0.044642  -0.000335   0.000626
     2  C   -0.019818   0.013527   0.010298  -0.007202   0.000018  -0.000022
     3  C    0.001902   0.024344   0.064705   0.005609  -0.000001   0.000008
     4  C    0.083354   0.003304   0.034380   0.051114   0.001028   0.001151
     5  C    0.173935   0.000739  -0.104396  -0.099424   0.000219  -0.000585
     6  C   -0.021299   0.283507   0.002549  -0.003188  -0.000001   0.000001
     7  C    0.053794   0.002721   0.093422   0.009800  -0.004096   0.008560
     8  C   -0.016458  -0.000436  -0.053981   0.233791  -0.010734  -0.018745
     9  C    0.038510  -0.000119   0.046242   0.065588  -0.005572  -0.022324
    10  O   -0.000007   0.000000   0.006643   0.013192  -0.044508  -0.041550
    11  C    0.000210   0.000000   0.012972   0.005179   0.409331   0.416191
    12  O    0.001897  -0.000008  -0.044259   0.001945  -0.000032  -0.000106
    13  C   -0.010330   0.000055  -0.018648  -0.016481   0.000489   0.000704
    14  O   -0.000040   0.000000  -0.000700  -0.006659   0.001206   0.003717
    15  C    0.000025   0.000000   0.001200   0.000817  -0.017010  -0.017323
    16  H   -0.000107  -0.000120   0.002283  -0.000008   0.000000   0.000000
    17  H   -0.003966  -0.003815   0.000002   0.000002   0.000000   0.000000
    18  H    0.000011  -0.003854  -0.000002   0.000000   0.000000   0.000000
    19  H    0.501824  -0.000117  -0.000071  -0.000092   0.000000   0.000000
    20  H   -0.000117   0.497473   0.000000   0.000000   0.000000   0.000000
    21  H   -0.000071   0.000000   0.588899   0.003774  -0.000010   0.000027
    22  H   -0.000092   0.000000   0.003774   0.501001   0.000000   0.000008
    23  H    0.000000   0.000000  -0.000010   0.000000   0.531840  -0.033438
    24  H    0.000000   0.000000   0.000027   0.000008  -0.033438   0.530371
    25  H   -0.000307   0.000000  -0.003059  -0.000020   0.000000   0.000001
    26  H    0.000006   0.000000  -0.000069  -0.002336   0.000001  -0.000001
    27  H   -0.000051   0.000000  -0.000062  -0.004264  -0.000001   0.000000
    28  H    0.000000   0.000000   0.002176   0.003893   0.000016  -0.000003
    29  H    0.000000   0.000000   0.000007   0.000000  -0.005128   0.004021
    30  H    0.000000   0.000000   0.000000   0.000000  -0.001673  -0.001672
    31  H    0.000000   0.000000  -0.000008   0.000000   0.004003  -0.005075
             25         26         27         28         29         30
     1  C   -0.023102   0.004623   0.005674   0.024680   0.000188   0.000042
     2  C    0.006993  -0.001459  -0.006033  -0.001459   0.000001   0.000000
     3  C    0.005508  -0.001890  -0.008115   0.006587   0.000008   0.000003
     4  C    0.105620  -0.029630   0.038088  -0.024206   0.000235  -0.000022
     5  C   -0.080439  -0.004906   0.030641  -0.013941  -0.000036  -0.000014
     6  C   -0.007627   0.000126   0.006348   0.000339   0.000000   0.000000
     7  C    0.007792   0.062306  -0.042132  -0.001560   0.001869   0.000119
     8  C    0.005302  -0.124988  -0.047352  -0.080276  -0.006114  -0.000940
     9  C   -0.002052   0.033222  -0.069905   0.027207  -0.002121   0.001346
    10  O    0.000154  -0.001332  -0.000534   0.006147  -0.003520   0.006855
    11  C    0.000256  -0.002131  -0.001717   0.004362  -0.059494  -0.059443
    12  O    0.231375  -0.000470  -0.000624   0.000374  -0.000005  -0.000003
    13  C   -0.001302   0.422992   0.457295   0.402077  -0.000057  -0.000003
    14  O   -0.000047   0.002018   0.000208  -0.000337  -0.000100   0.000119
    15  C   -0.000049   0.000133  -0.000140   0.001408   0.431695   0.419233
    16  H    0.000114   0.000003  -0.000043  -0.000086   0.000000   0.000000
    17  H   -0.000003   0.000000  -0.000003   0.000000   0.000000   0.000000
    18  H    0.000000   0.000000  -0.000002   0.000000   0.000000   0.000000
    19  H   -0.000307   0.000006  -0.000051   0.000000   0.000000   0.000000
    20  H    0.000000   0.000000   0.000000   0.000000   0.000000   0.000000
    21  H   -0.003059  -0.000069  -0.000062   0.002176   0.000007   0.000000
    22  H   -0.000020  -0.002336  -0.004264   0.003893   0.000000   0.000000
    23  H    0.000000   0.000001  -0.000001   0.000016  -0.005128  -0.001673
    24  H    0.000001  -0.000001   0.000000  -0.000003   0.004021  -0.001672
    25  H    0.353737   0.000002  -0.000001  -0.000003   0.000000   0.000000
    26  H    0.000002   0.507722  -0.022847  -0.025066   0.000000   0.000000
    27  H   -0.000001  -0.022847   0.503289  -0.024453   0.000000   0.000000
    28  H   -0.000003  -0.025066  -0.024453   0.506772  -0.000006   0.000000
    29  H    0.000000   0.000000   0.000000  -0.000006   0.514965  -0.022725
    30  H    0.000000   0.000000   0.000000   0.000000  -0.022725   0.500628
    31  H    0.000000   0.000000   0.000000   0.000000  -0.028649  -0.022578
             31
     1  C   -0.000315
     2  C   -0.000001
     3  C   -0.000045
     4  C    0.000851
     5  C    0.000002
     6  C    0.000001
     7  C   -0.000659
     8  C   -0.004995
     9  C    0.000580
    10  O   -0.003374
    11  C   -0.060882
    12  O   -0.000057
    13  C    0.000748
    14  O   -0.000155
    15  C    0.430760
    16  H    0.000000
    17  H    0.000000
    18  H    0.000000
    19  H    0.000000
    20  H    0.000000
    21  H   -0.000008
    22  H    0.000000
    23  H    0.004003
    24  H   -0.005075
    25  H    0.000000
    26  H    0.000000
    27  H    0.000000
    28  H    0.000000
    29  H   -0.028649
    30  H   -0.022578
    31  H    0.513752
 Mulliken atomic charges:
              1
     1  C   -0.188526
     2  C   -0.339925
     3  C   -0.310860
     4  C   -0.282707
     5  C    0.208271
     6  C   -0.120468
     7  C    0.107111
     8  C    0.245937
     9  C    0.039846
    10  O   -0.283570
    11  C    0.088484
    12  O   -0.542156
    13  C   -0.563827
    14  O   -0.485572
    15  C   -0.691425
    16  H    0.180462
    17  H    0.186962
    18  H    0.185834
    19  H    0.184313
    20  H    0.183648
    21  H    0.159985
    22  H    0.199322
    23  H    0.174389
    24  H    0.175455
    25  H    0.401159
    26  H    0.183972
    27  H    0.186740
    28  H    0.185360
    29  H    0.174964
    30  H    0.180728
    31  H    0.176095
 Sum of Mulliken atomic charges =   0.00000
 Mulliken charges with hydrogens summed into heavy atoms:
              1
     1  C   -0.008064
     2  C   -0.152963
     3  C   -0.125025
     4  C   -0.282707
     5  C    0.392584
     6  C    0.063180
     7  C    0.267096
     8  C    0.445258
     9  C    0.039846
    10  O   -0.283570
    11  C    0.438327
    12  O   -0.140997
    13  C   -0.007755
    14  O   -0.485572
    15  C   -0.159639
 Sum of Mulliken charges with hydrogens summed into heavy atoms =   0.00000
 Electronic spatial extent (au):  <R**2>=           4185.6564
 Charge=              0.0000 electrons
 Dipole moment (field-independent basis, Debye):
    X=              2.2616    Y=              3.6704    Z=              0.9893  Tot=              4.4233
 Quadrupole moment (field-independent basis, Debye-Ang):
   XX=            -77.1532   YY=            -92.2873   ZZ=            -90.3830
   XY=            -10.7144   XZ=             -1.4510   YZ=             -1.2878
 Traceless Quadrupole moment (field-independent basis, Debye-Ang):
   XX=              9.4546   YY=             -5.6795   ZZ=             -3.7751
   XY=            -10.7144   XZ=             -1.4510   YZ=             -1.2878
 Octapole moment (field-independent basis, Debye-Ang**2):
  XXX=            -20.3197  YYY=             17.9093  ZZZ=             -8.4868  XYY=             26.1726
  XXY=             31.9081  XXZ=             -0.0939  XZZ=            -15.5492  YZZ=             -0.0280
  YYZ=              1.5261  XYZ=              7.8168
 Hexadecapole moment (field-independent basis, Debye-Ang**3):
 XXXX=          -3846.0174 YYYY=           -763.0724 ZZZZ=           -450.3484 XXXY=           -118.4019
 XXXZ=             63.1501 YYYX=            -37.6361 YYYZ=             13.1551 ZZZX=            -29.8554
 ZZZY=            -11.2903 XXYY=           -864.4615 XXZZ=           -845.2071 YYZZ=           -211.1156
 XXYZ=             24.4006 YYXZ=              6.6426 ZZXY=             -0.6246
 N-N= 9.934755307348D+02 E-N=-3.598698738327D+03  KE= 6.858968253384D+02
 1\1\GINC-COMPUTE-8-6\SP\RwB97XD\6-31+G(d,p)\C12H16O3\ELUCIANO.IQUIR\17
 -May-2022\0\\# wb97xd/6-31+g** scrf=(pcm,solvent=chloroform,smd,dovacu
 um) nmr\\comment\\0,1\C,0,-1.802770734,-1.818893107,0.563766263\C,0,-4
 .105872449,-0.385879834,-0.088397665\C,0,-3.054959468,-2.280448117,0.9
 73684914\C,0,-1.688000825,-0.632895226,-0.176518589\C,0,-2.855470484,0
 .077765988,-0.499088544\C,0,-4.205020378,-1.564209863,0.648076878\C,0,
 -0.323263131,-0.135119036,-0.616749899\C,0,0.085920259,1.198223701,0.0
 2864024\C,0,1.474194523,1.600799294,-0.423852926\O,0,2.379875553,0.603
 577667,-0.215684232\C,0,3.716896576,0.933055016,-0.610579616\O,0,-0.34
 8294102,0.016584284,-2.040833554\C,0,0.065741654,1.172387143,1.5570852
 62\O,0,1.752278595,2.713928081,-0.854506969\C,0,4.595764046,-0.2754052
 36,-0.353610987\H,0,-0.917476462,-2.392655678,0.830225216\H,0,-5.00271
 712,0.172936033,-0.343694786\H,0,-3.133584964,-3.199816951,1.548564813
 \H,0,-2.794513168,0.998233637,-1.077494963\H,0,-5.17923237,-1.92459976
 3,0.968293375\H,0,0.423008716,-0.910574088,-0.407137336\H,0,-0.5872778
 24,1.992237655,-0.321612763\H,0,4.076600088,1.78397468,-0.021419379\H,
 0,3.737492428,1.185303796,-1.676736433\H,0,-0.936234259,-0.673363998,-
 2.396666438\H,0,0.481408205,2.099283757,1.968147936\H,0,-0.953890594,1
 .070069469,1.941244674\H,0,0.663493964,0.34260551,1.950369428\H,0,4.56
 9147962,-0.553168706,0.705286564\H,0,5.631519815,-0.072723491,-0.63990
 9267\H,0,4.23523595,-1.141212617,-0.918891217\\Version=EM64L-G09RevC.0
 1\State=1-A\HF=-692.4455759\RMSD=3.229e-09\Dipole=-0.3682764,-1.467198
 3,0.8603687\Quadrupole=10.7480275,-6.7616128,-3.9864147,-2.5745516,1.2
 804567,2.502279\PG=C01 [X(C12H16O3)]\\@


 There are more things in heaven and earth, Horatio,
 than are dreamt of in your philosophy.
                   -- Hamlet, Act I, Scene 5
 The chemist is a guest at the physicist's table and
 frequently dines well.
                   -- Richard Bersohn
 Job cpu time:  0 days  1 hours 38 minutes  2.4 seconds.
 File lengths (MBytes):  RWF=    125 Int=      0 D2E=      0 Chk=      9 Scr=      1
 Normal termination of Gaussian 09 at Tue May 17 18:46:26 2022.
