 Entering Gaussian System, Link 0=g09
 Input=/home/eluciano.iquir/wb9/73b_016.gjc
 Output=/home/eluciano.iquir/wb9/73b_016.log
 Initial command:
 /share/apps/Gaussian09/EM64T.SSE4.2-enabled/g09/l1.exe /tmp/Gau-13304.inp -scrdir=/tmp/
 Entering Link 1 = /share/apps/Gaussian09/EM64T.SSE4.2-enabled/g09/l1.exe PID=     13305.
  
 Copyright (c) 1988,1990,1992,1993,1995,1998,2003,2009,2011,
            Gaussian, Inc.  All Rights Reserved.
  
 This is part of the Gaussian(R) 09 program.  It is based on
 the Gaussian(R) 03 system (copyright 2003, Gaussian, Inc.),
 the Gaussian(R) 98 system (copyright 1998, Gaussian, Inc.),
 the Gaussian(R) 94 system (copyright 1995, Gaussian, Inc.),
 the Gaussian 92(TM) system (copyright 1992, Gaussian, Inc.),
 the Gaussian 90(TM) system (copyright 1990, Gaussian, Inc.),
 the Gaussian 88(TM) system (copyright 1988, Gaussian, Inc.),
 the Gaussian 86(TM) system (copyright 1986, Carnegie Mellon
 University), and the Gaussian 82(TM) system (copyright 1983,
 Carnegie Mellon University). Gaussian is a federally registered
 trademark of Gaussian, Inc.
  
 This software contains proprietary and confidential information,
 including trade secrets, belonging to Gaussian, Inc.
  
 This software is provided under written license and may be
 used, copied, transmitted, or stored only in accord with that
 written license.
  
 The following legend is applicable only to US Government
 contracts under FAR:
  
                    RESTRICTED RIGHTS LEGEND
  
 Use, reproduction and disclosure by the US Government is
 subject to restrictions as set forth in subparagraphs (a)
 and (c) of the Commercial Computer Software - Restricted
 Rights clause in FAR 52.227-19.
  
 Gaussian, Inc.
 340 Quinnipiac St., Bldg. 40, Wallingford CT 06492
  
  
 ---------------------------------------------------------------
 Warning -- This program may not be used in any manner that
 competes with the business of Gaussian, Inc. or will provide
 assistance to any competitor of Gaussian, Inc.  The licensee
 of this program is prohibited from giving any competitor of
 Gaussian, Inc. access to this program.  By using this program,
 the user acknowledges that Gaussian, Inc. is engaged in the
 business of creating and licensing software in the field of
 computational chemistry and represents and warrants to the
 licensee that it is not a competitor of Gaussian, Inc. and that
 it will not use this program in any manner prohibited above.
 ---------------------------------------------------------------
  

 Cite this work as:
 Gaussian 09, Revision C.01,
 M. J. Frisch, G. W. Trucks, H. B. Schlegel, G. E. Scuseria, 
 M. A. Robb, J. R. Cheeseman, G. Scalmani, V. Barone, B. Mennucci, 
 G. A. Petersson, H. Nakatsuji, M. Caricato, X. Li, H. P. Hratchian, 
 A. F. Izmaylov, J. Bloino, G. Zheng, J. L. Sonnenberg, M. Hada, 
 M. Ehara, K. Toyota, R. Fukuda, J. Hasegawa, M. Ishida, T. Nakajima, 
 Y. Honda, O. Kitao, H. Nakai, T. Vreven, J. A. Montgomery, Jr., 
 J. E. Peralta, F. Ogliaro, M. Bearpark, J. J. Heyd, E. Brothers, 
 K. N. Kudin, V. N. Staroverov, T. Keith, R. Kobayashi, J. Normand, 
 K. Raghavachari, A. Rendell, J. C. Burant, S. S. Iyengar, J. Tomasi, 
 M. Cossi, N. Rega, J. M. Millam, M. Klene, J. E. Knox, J. B. Cross, 
 V. Bakken, C. Adamo, J. Jaramillo, R. Gomperts, R. E. Stratmann, 
 O. Yazyev, A. J. Austin, R. Cammi, C. Pomelli, J. W. Ochterski, 
 R. L. Martin, K. Morokuma, V. G. Zakrzewski, G. A. Voth, 
 P. Salvador, J. J. Dannenberg, S. Dapprich, A. D. Daniels, 
 O. Farkas, J. B. Foresman, J. V. Ortiz, J. Cioslowski, 
 and D. J. Fox, Gaussian, Inc., Wallingford CT, 2010.
 
 ******************************************
 Gaussian 09:  EM64L-G09RevC.01 23-Sep-2011
                17-May-2022 
 ******************************************
 %nprocshared=4
 Will use up to    4 processors via shared memory.
 ----------------------------------------------------------------
 # wb97xd/6-31+g** scrf=(pcm,solvent=chloroform,smd,dovacuum) nmr
 ----------------------------------------------------------------
 1/38=1/1;
 2/12=2,17=6,18=5,40=1/2;
 3/5=1,6=6,7=111,11=2,16=1,25=1,30=1,70=32101,72=7,74=-58/1,2,8,3;
 4//1;
 5/5=2,38=5,53=7/2;
 8/6=1,10=90,11=11/1;
 10/13=100,45=16/2;
 6/7=2,8=2,9=2,10=2,28=1/1;
 99/9=1/99;
 -------
 comment
 -------
 Charge =  0 Multiplicity = 1
 Symbolic Z-Matrix:
 6                    -1.36009  -2.3241    0.16049 
 6                    -3.87725  -1.16638  -0.16619 
 6                    -2.51305  -3.08099   0.37697 
 6                    -1.45317  -0.97732  -0.22068 
 6                    -2.72642  -0.4076   -0.38291 
 6                    -3.77011  -2.50227   0.21408 
 6                    -0.19571  -0.15916  -0.45189 
 6                    -0.01427   0.99129   0.55083 
 6                     1.28019   1.72926   0.27837 
 8                     2.3445    0.878     0.24608 
 6                     3.62148   1.48397  -0.00175 
 8                    -0.2554    0.37474  -1.77967 
 6                    -0.01533   0.53925   2.01118 
 8                     1.35531   2.94733   0.16883 
 6                     3.85186   1.6247   -1.49473 
 1                    -0.38853  -2.7952    0.2949 
 1                    -4.85759  -0.71443  -0.29448 
 1                    -2.4307   -4.12358   0.67385 
 1                    -2.82639   0.63409  -0.68363 
 1                    -4.66689  -3.09272   0.38339 
 1                     0.67275  -0.82818  -0.43274 
 1                    -0.8167    1.72742   0.40735 
 1                     4.3787    0.81863   0.4258 
 1                     3.71328   2.44732   0.51269 
 1                    -0.72174  -0.27577  -2.33433 
 1                     0.24038   1.37129   2.67691 
 1                    -0.99906   0.16646   2.31287 
 1                     0.71844  -0.25591   2.18375 
 1                     3.75674   0.65348  -1.9914 
 1                     4.84763   2.02902  -1.69715 
 1                     3.10711   2.28734  -1.94679 
 
                          Input orientation:                          
 ---------------------------------------------------------------------
 Center     Atomic      Atomic             Coordinates (Angstroms)
 Number     Number       Type             X           Y           Z
 ---------------------------------------------------------------------
      1          6           0       -1.360092   -2.324100    0.160490
      2          6           0       -3.877251   -1.166383   -0.166190
      3          6           0       -2.513046   -3.080991    0.376971
      4          6           0       -1.453166   -0.977323   -0.220685
      5          6           0       -2.726419   -0.407600   -0.382912
      6          6           0       -3.770108   -2.502271    0.214076
      7          6           0       -0.195710   -0.159155   -0.451887
      8          6           0       -0.014274    0.991293    0.550825
      9          6           0        1.280194    1.729261    0.278368
     10          8           0        2.344503    0.878004    0.246078
     11          6           0        3.621480    1.483970   -0.001753
     12          8           0       -0.255402    0.374743   -1.779666
     13          6           0       -0.015331    0.539254    2.011181
     14          8           0        1.355313    2.947332    0.168829
     15          6           0        3.851862    1.624697   -1.494731
     16          1           0       -0.388529   -2.795198    0.294902
     17          1           0       -4.857589   -0.714429   -0.294481
     18          1           0       -2.430701   -4.123577    0.673854
     19          1           0       -2.826389    0.634089   -0.683633
     20          1           0       -4.666886   -3.092721    0.383389
     21          1           0        0.672750   -0.828185   -0.432739
     22          1           0       -0.816698    1.727420    0.407354
     23          1           0        4.378704    0.818632    0.425804
     24          1           0        3.713280    2.447325    0.512693
     25          1           0       -0.721736   -0.275767   -2.334327
     26          1           0        0.240379    1.371287    2.676914
     27          1           0       -0.999063    0.166464    2.312870
     28          1           0        0.718437   -0.255906    2.183748
     29          1           0        3.756745    0.653477   -1.991403
     30          1           0        4.847631    2.029016   -1.697146
     31          1           0        3.107112    2.287341   -1.946792
 ---------------------------------------------------------------------
                    Distance matrix (angstroms):
                    1          2          3          4          5
     1  C    0.000000
     2  C    2.789824   0.000000
     3  C    1.396084   2.412842   0.000000
     4  C    1.402770   2.432057   2.430217   0.000000
     5  C    2.415596   1.395397   2.787466   1.404306   0.000000
     6  C    2.417187   1.393083   1.393434   2.807615   2.415228
     7  C    2.533333   3.827516   3.820232   1.517910   2.543811
     8  C    3.599363   4.482440   4.780960   2.557555   3.191316
     9  C    4.838878   5.931410   6.126737   3.878906   4.588727
    10  O    4.897430   6.561989   6.267899   4.252340   5.269028
    11  C    6.272462   7.955022   7.656024   5.644283   6.634692
    12  O    3.502613   4.253959   4.657267   2.386032   2.944301
    13  C    3.665001   4.750217   4.692056   3.057548   3.738744
    14  O    5.929712   6.664429   7.165765   4.841714   5.312299
    15  C    6.745163   8.324322   8.133807   6.044587   6.974249
    16  H    1.088088   3.877735   2.145224   2.168859   3.409661
    17  H    3.876922   1.087098   3.398286   3.415355   2.154959
    18  H    2.155891   3.397526   1.087155   3.413896   3.874621
    19  H    3.407851   2.147966   3.876195   2.167190   1.088827
    20  H    3.402256   2.153216   2.153882   3.894587   3.400368
    21  H    2.592707   4.570332   3.984979   2.141665   3.425452
    22  H    4.095245   4.250887   5.098955   2.848713   2.971510
    23  H    6.548354   8.511847   7.918690   6.136295   7.255373
    24  H    6.973496   8.434211   8.327534   6.241652   7.100875
    25  H    3.290483   3.930813   4.292926   2.344068   2.800742
    26  H    4.748661   5.610516   5.717855   4.096357   4.618319
    27  H    3.311494   4.025691   4.072569   2.816622   3.252776
    28  H    3.562483   5.241329   4.657041   3.319277   4.298580
    29  H    6.299097   8.057368   7.672400   5.739175   6.763471
    30  H    7.806168   9.416898   9.197483   7.135689   8.064152
    31  H    6.757362   7.992502   8.112031   5.868017   6.613510
                    6          7          8          9         10
     6  C    0.000000
     7  C    4.325509   0.000000
     8  C    5.140494   1.536841   0.000000
     9  C    6.589048   2.505530   1.514753   0.000000
    10  O    6.986827   2.831172   2.381078   1.363244   0.000000
    11  C    8.400731   4.180121   3.710361   2.370708   1.435021
    12  O    4.960381   1.432344   2.422698   2.903150   3.334129
    13  C    5.155464   2.566518   1.528718   2.469239   2.966337
    14  O    7.481321   3.527211   2.418218   1.225291   2.294903
    15  C    8.834383   4.544501   4.419560   3.125426   2.420764
    16  H    3.395206   2.746560   3.813538   4.822410   4.578674
    17  H    2.153515   4.697470   5.204010   6.631150   7.395821
    18  H    2.152682   4.688189   5.658281   6.941387   6.928303
    19  H    3.396063   2.757429   3.091840   4.357622   5.259466
    20  H    1.086972   5.412477   6.193060   7.657042   8.058851
    21  H    4.791651   1.096444   2.179426   2.723085   2.483270
    22  H    5.162391   2.164045   1.098340   2.100856   3.277302
    23  H    8.802066   4.759377   4.398147   3.232916   2.042988
    24  H    8.977125   4.796285   4.002017   2.547632   2.099381
    25  H    4.554586   1.958031   3.229558   3.854094   4.170312
    26  H    6.095411   3.510245   2.174741   2.638632   3.252634
    27  H    4.382440   2.897462   2.180585   3.431697   3.994665
    28  H    5.391921   2.791343   2.181469   2.808367   2.772076
    29  H    8.454372   4.318840   4.560442   3.527389   2.655402
    30  H    9.922236   5.636848   5.456040   4.088902   3.371439
    31  H    8.654820   4.373639   4.202486   2.932648   2.715968
                   11         12         13         14         15
    11  C    0.000000
    12  O    4.406991   0.000000
    13  C    4.262721   3.802002   0.000000
    14  O    2.702969   3.606834   3.327426   0.000000
    15  C    1.517189   4.302695   5.331490   3.278651   0.000000
    16  H    5.871920   3.790789   3.768747   6.002793   6.381158
    17  H    8.764317   4.957035   5.507745   7.226568   9.097617
    18  H    8.278280   5.566559   5.418897   8.036585   8.787264
    19  H    6.539287   2.806871   3.895261   4.854319   6.799869
    20  H    9.475834   6.013593   6.121920   8.532007   9.917179
    21  H    3.771845   2.030447   2.883763   3.883594   4.153458
    22  H    4.463637   2.632080   2.150858   2.502540   5.042214
    23  H    1.094928   5.151318   4.679639   3.706520   2.148432
    24  H    1.095963   5.030004   4.448454   2.434801   2.173861
    25  H    5.234606   0.973796   4.477355   4.579114   5.023394
    26  H    4.315066   4.593474   1.095841   3.165041   5.523554
    27  H    5.333171   4.164765   1.094402   4.227673   6.336856
    28  H    4.028801   4.129737   1.095662   3.837478   5.185192
    29  H    2.160259   4.027387   5.501116   3.961723   1.094988
    30  H    2.162147   5.365107   6.294401   4.064659   1.093619
    31  H    2.166369   3.872010   5.335824   2.824933   1.094581
                   16         17         18         19         20
    16  H    0.000000
    17  H    4.964823   0.000000
    18  H    2.465495   4.295317   0.000000
    19  H    4.319804   2.468949   4.963338   0.000000
    20  H    4.289603   2.480353   2.479427   4.291279   0.000000
    21  H    2.350513   5.533236   4.659996   3.800680   5.857124
    22  H    4.544233   4.773259   6.075376   2.534657   6.169140
    23  H    5.983595   9.390324   8.417538   7.292343   9.855109
    24  H    6.660053   9.171041   8.997289   6.891029  10.046691
    25  H    3.656694   4.632351   5.174491   2.825277   5.557465
    26  H    4.840362   6.258488   6.429654   4.608883   7.019179
    27  H    3.635435   4.739459   4.810448   3.540738   5.272392
    28  H    3.352777   6.119144   5.211116   4.645402   6.347482
    29  H    5.856948   8.885800   8.258833   6.711802   9.520041
    30  H    7.393150  10.182595   9.820904   7.865343  11.003947
    31  H    6.563300   8.670480   8.867640   6.287706   9.737035
                   21         22         23         24         25
    21  H    0.000000
    22  H    3.074952   0.000000
    23  H    4.145262   5.274318   0.000000
    24  H    4.568110   4.588034   1.761527   0.000000
    25  H    2.421940   3.396850   5.901739   5.932126   0.000000
    26  H    3.833348   2.528863   4.743274   4.231164   5.361995
    27  H    3.364915   2.469987   5.736437   5.536166   4.676422
    28  H    2.678730   3.073402   4.200303   4.366802   4.742098
    29  H    3.759758   5.274824   2.501400   3.080629   4.586707
    30  H    5.214591   6.050165   2.488341   2.518952   6.061013
    31  H    4.233790   4.609968   3.066474   2.538129   4.623828
                   26         27         28         29         30
    26  H    0.000000
    27  H    1.766449   0.000000
    28  H    1.766213   1.773380   0.000000
    29  H    5.888401   6.432857   5.243107   0.000000
    30  H    6.386844   7.330290   6.110028   1.780092   0.000000
    31  H    5.516881   6.285182   5.406961   1.758841   1.777206
                   31
    31  H    0.000000
 Stoichiometry    C12H16O3
 Framework group  C1[X(C12H16O3)]
 Deg. of freedom    87
 Full point group                 C1      NOp   1
 Largest Abelian subgroup         C1      NOp   1
 Largest concise Abelian subgroup C1      NOp   1
                         Standard orientation:                         
 ---------------------------------------------------------------------
 Center     Atomic      Atomic             Coordinates (Angstroms)
 Number     Number       Type             X           Y           Z
 ---------------------------------------------------------------------
      1          6           0       -2.353282   -0.985057    0.924737
      2          6           0       -3.835877    0.540956   -0.879789
      3          6           0       -3.742067   -0.909861    1.045863
      4          6           0       -1.689236   -0.295566   -0.100645
      5          6           0       -2.447852    0.467679   -1.002883
      6          6           0       -4.482185   -0.147242    0.144589
      7          6           0       -0.178765   -0.379327   -0.225196
      8          6           0        0.536105    0.959538    0.016218
      9          6           0        2.037023    0.781763   -0.084375
     10          8           0        2.479301   -0.213617    0.735407
     11          6           0        3.893402   -0.456933    0.715464
     12          8           0        0.129253   -0.850005   -1.542465
     13          6           0        0.213564    1.592840    1.369685
     14          8           0        2.759033    1.494866   -0.771051
     15          6           0        4.244098   -1.406375   -0.414773
     16          1           0       -1.794482   -1.584901    1.640185
     17          1           0       -4.412661    1.135313   -1.583949
     18          1           0       -4.247553   -1.446405    1.844931
     19          1           0       -1.957488    1.007915   -1.811110
     20          1           0       -5.563374   -0.089313    0.240414
     21          1           0        0.193362   -1.145384    0.465359
     22          1           0        0.262332    1.665518   -0.779391
     23          1           0        4.151584   -0.916695    1.675062
     24          1           0        4.459037    0.479174    0.645499
     25          1           0       -0.582098   -1.459975   -1.807412
     26          1           0        0.838697    2.475466    1.545891
     27          1           0       -0.831439    1.913814    1.421256
     28          1           0        0.396276    0.892399    2.192165
     29          1           0        3.670487   -2.335085   -0.328363
     30          1           0        5.310743   -1.647432   -0.402006
     31          1           0        3.996316   -0.968858   -1.387034
 ---------------------------------------------------------------------
 Rotational constants (GHZ):      1.4384230      0.2858329      0.2819339
 Standard basis: 6-31+G(d,p) (6D, 7F)
 There are   365 symmetry adapted basis functions of A   symmetry.
 Integral buffers will be    131072 words long.
 Raffenetti 2 integral format.
 Two-electron integral symmetry is turned on.
   365 basis functions,   592 primitive gaussians,   365 cartesian basis functions
    56 alpha electrons       56 beta electrons
       nuclear repulsion energy       999.1817773035 Hartrees.
 NAtoms=   31 NActive=   31 NUniq=   31 SFac= 1.00D+00 NAtFMM=   60 NAOKFM=F Big=F
 Nuclear repulsion after empirical dispersion term =      999.1607450606 Hartrees.
 ------------------------------------------------------------------------------
 Polarizable Continuum Model (PCM)
 =================================
 Model                : C-PCM.
 Atomic radii         : SMD-Coulomb.
 Polarization charges : Total charges.
 Charge compensation  : None.
 Solution method      : Matrix inversion.
 Cavity type          : VdW (van der Waals Surface) (Alpha=1.000).
 Cavity algorithm     : GePol (No added spheres)
                        Default sphere list used, NSphG=   31.
                        Lebedev-Laikov grids with approx.  5.0 points / Ang**2.
                        Smoothing algorithm: Karplus/York (Gamma=1.0000).
                        Polarization charges: spherical gaussians, with
                                              point-specific exponents (IZeta= 3).
                        Self-potential: point-specific (ISelfS= 7).
                        Self-field    : sphere-specific E.n sum rule (ISelfD= 2).
 Solvent              : Chloroform, Eps=   4.711300 Eps(inf)=   2.090627
 ------------------------------------------------------------------------------
 ------------------------------------------------------------------------------
 Atomic radii for non-electrostatic terms: SMD-CDS.
 ------------------------------------------------------------------------------
 Nuclear repulsion after PCM non-electrostatic terms =      999.1543377949 Hartrees.
 One-electron integrals computed using PRISM.
 NBasis=   365 RedAO= T  NBF=   365
 NBsUse=   365 1.00D-06 NBFU=   365
 Harris functional with IExCor= 4639 diagonalized for initial guess.
 ExpMin= 4.38D-02 ExpMax= 5.48D+03 ExpMxC= 8.25D+02 IAcc=2 IRadAn=         4 AccDes= 0.00D+00
 HarFok:  IExCor= 4639 AccDes= 0.00D+00 IRadAn=         4 IDoV= 1
 ScaDFX=  1.000000  1.000000  1.000000  1.000000
 FoFCou: FMM=F IPFlag=           0 FMFlag=      100000 FMFlg1=           0
         NFxFlg=           0 DoJE=T BraDBF=F KetDBF=T FulRan=T
         Omega=  0.000000  0.000000  1.000000  0.000000  0.000000 ICntrl=     500 IOpCl=  0
         NMat0=    1 NMatS0=    1 NMatT0=    0 NMatD0=    1 NMtDS0=    0 NMtDT0=    0
         I1Cent=           4 NGrid=           0.
 Petite list used in FoFCou.
 Initial guess orbital symmetries:
       Occupied  (A) (A) (A) (A) (A) (A) (A) (A) (A) (A) (A) (A)
                 (A) (A) (A) (A) (A) (A) (A) (A) (A) (A) (A) (A)
                 (A) (A) (A) (A) (A) (A) (A) (A) (A) (A) (A) (A)
                 (A) (A) (A) (A) (A) (A) (A) (A) (A) (A) (A) (A)
                 (A) (A) (A) (A) (A) (A) (A) (A)
       Virtual   (A) (A) (A) (A) (A) (A) (A) (A) (A) (A) (A) (A)
                 (A) (A) (A) (A) (A) (A) (A) (A) (A) (A) (A) (A)
                 (A) (A) (A) (A) (A) (A) (A) (A) (A) (A) (A) (A)
                 (A) (A) (A) (A) (A) (A) (A) (A) (A) (A) (A) (A)
                 (A) (A) (A) (A) (A) (A) (A) (A) (A) (A) (A) (A)
                 (A) (A) (A) (A) (A) (A) (A) (A) (A) (A) (A) (A)
                 (A) (A) (A) (A) (A) (A) (A) (A) (A) (A) (A) (A)
                 (A) (A) (A) (A) (A) (A) (A) (A) (A) (A) (A) (A)
                 (A) (A) (A) (A) (A) (A) (A) (A) (A) (A) (A) (A)
                 (A) (A) (A) (A) (A) (A) (A) (A) (A) (A) (A) (A)
                 (A) (A) (A) (A) (A) (A) (A) (A) (A) (A) (A) (A)
                 (A) (A) (A) (A) (A) (A) (A) (A) (A) (A) (A) (A)
                 (A) (A) (A) (A) (A) (A) (A) (A) (A) (A) (A) (A)
                 (A) (A) (A) (A) (A) (A) (A) (A) (A) (A) (A) (A)
                 (A) (A) (A) (A) (A) (A) (A) (A) (A) (A) (A) (A)
                 (A) (A) (A) (A) (A) (A) (A) (A) (A) (A) (A) (A)
                 (A) (A) (A) (A) (A) (A) (A) (A) (A) (A) (A) (A)
                 (A) (A) (A) (A) (A) (A) (A) (A) (A) (A) (A) (A)
                 (A) (A) (A) (A) (A) (A) (A) (A) (A) (A) (A) (A)
                 (A) (A) (A) (A) (A) (A) (A) (A) (A) (A) (A) (A)
                 (A) (A) (A) (A) (A) (A) (A) (A) (A) (A) (A) (A)
                 (A) (A) (A) (A) (A) (A) (A) (A) (A) (A) (A) (A)
                 (A) (A) (A) (A) (A) (A) (A) (A) (A) (A) (A) (A)
                 (A) (A) (A) (A) (A) (A) (A) (A) (A) (A) (A) (A)
                 (A) (A) (A) (A) (A) (A) (A) (A) (A) (A) (A) (A)
                 (A) (A) (A) (A) (A) (A) (A) (A) (A)
 The electronic state of the initial guess is 1-A.
 Requested convergence on RMS density matrix=1.00D-08 within 128 cycles.
 Requested convergence on MAX density matrix=1.00D-06.
 Requested convergence on             energy=1.00D-06.
 No special actions if energy rises.
 FoFJK:  IHMeth= 1 ICntrl=     0 DoSepK=T KAlg= 1 I1Cent= 0 FoldK=F
 FoFJK:  IHMeth= 1 ICntrl=     0 DoSepK=T KAlg= 1 I1Cent= 0 FoldK=F
 FoFJK:  IHMeth= 1 ICntrl=     0 DoSepK=T KAlg= 1 I1Cent= 0 FoldK=F
 FoFJK:  IHMeth= 1 ICntrl=     0 DoSepK=T KAlg= 1 I1Cent= 0 FoldK=F
 FoFJK:  IHMeth= 1 ICntrl=     0 DoSepK=T KAlg= 1 I1Cent= 0 FoldK=F
 FoFJK:  IHMeth= 1 ICntrl=     0 DoSepK=T KAlg= 1 I1Cent= 0 FoldK=F
 FoFJK:  IHMeth= 1 ICntrl=     0 DoSepK=T KAlg= 1 I1Cent= 0 FoldK=F
 FoFJK:  IHMeth= 1 ICntrl=     0 DoSepK=T KAlg= 1 I1Cent= 0 FoldK=F
 FoFJK:  IHMeth= 1 ICntrl=     0 DoSepK=T KAlg= 1 I1Cent= 0 FoldK=F
 FoFJK:  IHMeth= 1 ICntrl=     0 DoSepK=T KAlg= 1 I1Cent= 0 FoldK=F
 FoFJK:  IHMeth= 1 ICntrl=     0 DoSepK=T KAlg= 1 I1Cent= 0 FoldK=F
 FoFJK:  IHMeth= 1 ICntrl=     0 DoSepK=T KAlg= 1 I1Cent= 0 FoldK=F
 FoFJK:  IHMeth= 1 ICntrl=     0 DoSepK=T KAlg= 1 I1Cent= 0 FoldK=F
 FoFJK:  IHMeth= 1 ICntrl=     0 DoSepK=T KAlg= 1 I1Cent= 0 FoldK=F
 FoFJK:  IHMeth= 1 ICntrl=     0 DoSepK=T KAlg= 1 I1Cent= 0 FoldK=F
 FoFJK:  IHMeth= 1 ICntrl=     0 DoSepK=T KAlg= 1 I1Cent= 0 FoldK=F
 Error on total polarization charges =  0.03985
 SCF Done:  E(RwB97XD) =  -692.445122741     A.U. after   16 cycles
             Convg  =    0.2797D-08             -V/T =  2.0096
 SMD-CDS (non-electrostatic) energy       (kcal/mol) =      -4.02
 (included in total energy above)
 Range of M.O.s used for correlation:     1   365
 NBasis=   365 NAE=    56 NBE=    56 NFC=     0 NFV=     0
 NROrb=    365 NOA=    56 NOB=    56 NVA=   309 NVB=   309

 **** Warning!!: The largest alpha MO coefficient is  0.17673453D+03

 NEqPCM:  Using equilibrium solvation (IEInf=0, Eps=   4.7113, EpsInf=   2.0906)
          Differentiating once with respect to magnetic field using GIAOs.
          Electric field/nuclear overlap derivatives assumed to be zero.
 FoFCou: FMM=F IPFlag=           0 FMFlag=    10101102 FMFlg1=           0
         NFxFlg=    40000000 DoJE=F BraDBF=F KetDBF=T FulRan=T
         Omega=  0.000000  0.000000  1.000000  0.000000  0.000000 ICntrl=    6100 IOpCl=  0
         NMat0=    1 NMatS0=    1 NMatT0=    0 NMatD0=    1 NMtDS0=    0 NMtDT0=    0
         I1Cent=           7 NGrid=        2288.
 Symmetry not used in FoFCou.
 FoFJK:  IHMeth= 1 ICntrl=  6127 DoSepK=T KAlg= 1 I1Cent= 0 FoldK=F
 FoFJK:  IHMeth= 1 ICntrl=     0 DoSepK=T KAlg= 1 I1Cent= 0 FoldK=F
          There are     3 degrees of freedom in the 1st order CPHF.  IDoFFX=0.
      3 vectors produced by pass  0 Test12= 5.77D-13 3.33D-08 XBig12= 1.58D+02 2.91D+00.
 AX will form     3 AO Fock derivatives at one time.
 FoFJK:  IHMeth= 1 ICntrl=     0 DoSepK=T KAlg= 1 I1Cent= 0 FoldK=F
      3 vectors produced by pass  1 Test12= 5.77D-13 3.33D-08 XBig12= 1.35D+00 3.11D-01.
 FoFJK:  IHMeth= 1 ICntrl=     0 DoSepK=T KAlg= 1 I1Cent= 0 FoldK=F
      3 vectors produced by pass  2 Test12= 5.77D-13 3.33D-08 XBig12= 2.57D-02 6.42D-02.
 FoFJK:  IHMeth= 1 ICntrl=     0 DoSepK=T KAlg= 1 I1Cent= 0 FoldK=F
      3 vectors produced by pass  3 Test12= 5.77D-13 3.33D-08 XBig12= 4.37D-04 5.31D-03.
 FoFJK:  IHMeth= 1 ICntrl=     0 DoSepK=T KAlg= 1 I1Cent= 0 FoldK=F
      3 vectors produced by pass  4 Test12= 5.77D-13 3.33D-08 XBig12= 5.21D-06 5.06D-04.
 FoFJK:  IHMeth= 1 ICntrl=     0 DoSepK=T KAlg= 1 I1Cent= 0 FoldK=F
      3 vectors produced by pass  5 Test12= 5.77D-13 3.33D-08 XBig12= 6.94D-08 7.98D-05.
 FoFJK:  IHMeth= 1 ICntrl=     0 DoSepK=T KAlg= 1 I1Cent= 0 FoldK=F
      3 vectors produced by pass  6 Test12= 5.77D-13 3.33D-08 XBig12= 1.10D-09 7.89D-06.
 FoFJK:  IHMeth= 1 ICntrl=     0 DoSepK=T KAlg= 1 I1Cent= 0 FoldK=F
      3 vectors produced by pass  7 Test12= 5.77D-13 3.33D-08 XBig12= 1.48D-11 9.10D-07.
 FoFJK:  IHMeth= 1 ICntrl=     0 DoSepK=T KAlg= 1 I1Cent= 0 FoldK=F
      3 vectors produced by pass  8 Test12= 5.77D-13 3.33D-08 XBig12= 1.66D-13 1.05D-07.
 FoFJK:  IHMeth= 1 ICntrl=     0 DoSepK=T KAlg= 1 I1Cent= 0 FoldK=F
 Inverted reduced A of dimension    27 with in-core refinement.
 Calculating GIAO nuclear magnetic shielding tensors.
 SCF GIAO Magnetic shielding tensor (ppm):
      1  C    Isotropic =    69.8742   Anisotropy =   161.4681
   XX=    39.7274   YX=    34.4402   ZX=   -22.9560
   XY=    25.6138   YY=   106.5701   ZY=    90.7121
   XZ=   -29.4050   YZ=    88.4415   ZZ=    63.3250
   Eigenvalues:   -29.4408    61.5437   177.5196
      2  C    Isotropic =    69.0774   Anisotropy =   177.7912
   XX=    32.9948   YX=    34.6899   ZX=   -20.5117
   XY=    36.6566   YY=   110.0628   ZY=    97.9154
   XZ=   -23.0031   YZ=    94.8035   ZZ=    64.1744
   Eigenvalues:   -34.8791    54.5063   187.6048
      3  C    Isotropic =    69.8114   Anisotropy =   173.1460
   XX=    38.0426   YX=    -9.8478   ZX=    37.5204
   XY=   -11.7841   YY=   117.1019   ZY=    93.0671
   XZ=    37.9974   YZ=    93.2221   ZZ=    54.2897
   Eigenvalues:   -32.2744    56.4665   185.2421
      4  C    Isotropic =    53.0470   Anisotropy =   187.6769
   XX=   -30.7611   YX=     7.7948   ZX=    14.6096
   XY=    15.6425   YY=   110.7731   ZY=    81.9249
   XZ=    13.5851   YZ=    78.3039   ZZ=    79.1290
   Eigenvalues:   -32.5703    13.5465   178.1649
      5  C    Isotropic =    72.8998   Anisotropy =   178.6230
   XX=    39.3687   YX=    -5.3275   ZX=    33.0384
   XY=   -11.9802   YY=   122.3534   ZY=    96.9066
   XZ=    31.9490   YZ=    94.9866   ZZ=    56.9773
   Eigenvalues:   -26.8015    53.5191   191.9818
      6  C    Isotropic =    70.5812   Anisotropy =   176.2380
   XX=   -28.8318   YX=    13.9837   ZX=    16.5411
   XY=    17.2643   YY=   139.9265   ZY=    61.7670
   XZ=    17.6385   YZ=    63.0107   ZZ=   100.6488
   Eigenvalues:   -31.4447    55.1151   188.0732
      7  C    Isotropic =   117.0368   Anisotropy =    26.6300
   XX=   108.3170   YX=     1.6001   ZX=    -6.0642
   XY=    -1.4880   YY=   110.6778   ZY=     6.2322
   XZ=    -7.4357   YZ=     3.3857   ZZ=   132.1157
   Eigenvalues:   106.1039   110.2164   134.7901
      8  C    Isotropic =   145.7330   Anisotropy =    26.5699
   XX=   162.4604   YX=     0.2467   ZX=     8.5660
   XY=     5.8627   YY=   140.1832   ZY=    -3.9322
   XZ=     0.5464   YZ=    -3.5064   ZZ=   134.5556
   Eigenvalues:   131.7408   142.0120   163.4463
      9  C    Isotropic =    18.4486   Anisotropy =   102.9313
   XX=    -6.8960   YX=    32.3700   ZX=   -18.1010
   XY=    65.8092   YY=    21.0936   ZY=    49.6419
   XZ=   -37.9611   YZ=    57.4865   ZZ=    41.1482
   Eigenvalues:   -71.6771    39.9534    87.0695
     10  O    Isotropic =   140.5414   Anisotropy =   166.3255
   XX=     3.9265   YX=     2.1823   ZX=    22.7341
   XY=  -110.4600   YY=   217.4846   ZY=    50.7620
   XZ=   112.5192   YZ=    32.6140   ZZ=   200.2132
   Eigenvalues:   -33.6151   203.8143   251.4251
     11  C    Isotropic =   137.4601   Anisotropy =    66.0533
   XX=   176.7495   YX=   -15.1445   ZX=     3.4639
   XY=   -20.7720   YY=   113.4400   ZY=    15.1104
   XZ=     2.6084   YZ=    12.8016   ZZ=   122.1907
   Eigenvalues:    99.6617   131.2229   181.4956
     12  O    Isotropic =   266.8646   Anisotropy =    46.7567
   XX=   292.3927   YX=    18.9616   ZX=    -4.3973
   XY=     8.9229   YY=   244.2965   ZY=    44.0646
   XZ=    -7.3000   YZ=    31.3770   ZZ=   263.9047
   Eigenvalues:   212.4512   290.1070   298.0358
     13  C    Isotropic =   181.0421   Anisotropy =    22.3783
   XX=   177.8947   YX=    -0.1563   ZX=    -3.5147
   XY=    -1.7120   YY=   175.5350   ZY=     8.5740
   XZ=    -2.5644   YZ=    12.7662   ZZ=   189.6967
   Eigenvalues:   169.7614   177.4040   195.9610
     14  O    Isotropic =   -48.6323   Anisotropy =   534.2993
   XX=  -147.4526   YX=    18.8169   ZX=    39.3352
   XY=    26.6978   YY=   -31.8986   ZY=   289.6605
   XZ=    46.3665   YZ=   310.6181   ZZ=    33.4544
   Eigenvalues:  -302.0378  -151.4263   307.5672
     15  C    Isotropic =   181.4060   Anisotropy =    25.5314
   XX=   186.6839   YX=    -4.9237   ZX=    -0.7394
   XY=    -8.1129   YY=   176.6087   ZY=    14.8311
   XZ=    -4.3100   YZ=    17.5029   ZZ=   180.9255
   Eigenvalues:   162.0098   183.7814   198.4270
     16  H    Isotropic =    23.7530   Anisotropy =     7.7899
   XX=    26.9148   YX=     1.8703   ZX=    -2.5592
   XY=     1.6667   YY=    22.0951   ZY=    -2.4288
   XZ=    -2.3840   YZ=    -2.1224   ZZ=    22.2491
   Eigenvalues:    19.8561    22.4567    28.9463
     17  H    Isotropic =    23.6609   Anisotropy =     5.1440
   XX=    26.7530   YX=     0.1709   ZX=    -0.9839
   XY=     0.3968   YY=    21.3604   ZY=    -1.8555
   XZ=    -1.0047   YZ=    -1.7914   ZZ=    22.8693
   Eigenvalues:    20.1258    23.7667    27.0902
     18  H    Isotropic =    23.8743   Anisotropy =     4.7330
   XX=    26.7729   YX=    -0.7735   ZX=     0.3754
   XY=    -0.8535   YY=    22.1352   ZY=    -1.7938
   XZ=     0.3451   YZ=    -1.8641   ZZ=    22.7148
   Eigenvalues:    20.5487    24.0445    27.0296
     19  H    Isotropic =    23.3767   Anisotropy =     9.7925
   XX=    28.0289   YX=    -2.6520   ZX=     3.0711
   XY=    -2.0577   YY=    20.4592   ZY=    -1.5900
   XZ=     2.3757   YZ=    -2.1510   ZZ=    21.6419
   Eigenvalues:    19.0740    21.1510    29.9050
     20  H    Isotropic =    23.7831   Anisotropy =     4.1436
   XX=    24.4199   YX=    -0.2508   ZX=    -0.0370
   XY=    -0.1975   YY=    22.6683   ZY=    -2.9618
   XZ=    -0.0306   YZ=    -2.9786   ZZ=    24.2612
   Eigenvalues:    20.3799    24.4240    26.5455
     21  H    Isotropic =    26.5775   Anisotropy =     3.5126
   XX=    26.8104   YX=    -0.2977   ZX=    -0.9735
   XY=    -0.6201   YY=    25.4019   ZY=    -1.9370
   XZ=     0.5459   YZ=    -2.4950   ZZ=    27.5203
   Eigenvalues:    23.9178    26.8956    28.9193
     22  H    Isotropic =    28.5015   Anisotropy =     5.0355
   XX=    28.6592   YX=    -1.2752   ZX=     1.3643
   XY=     1.9719   YY=    28.0714   ZY=    -3.9315
   XZ=     1.0192   YZ=    -2.6209   ZZ=    28.7740
   Eigenvalues:    24.8318    28.8143    31.8585
     23  H    Isotropic =    27.6688   Anisotropy =     8.1790
   XX=    28.3712   YX=    -3.1902   ZX=     3.2248
   XY=    -2.0199   YY=    23.6461   ZY=    -0.3407
   XZ=     2.1339   YZ=    -1.1917   ZZ=    30.9892
   Eigenvalues:    22.4719    27.4130    33.1215
     24  H    Isotropic =    26.7811   Anisotropy =     6.6614
   XX=    30.0894   YX=     2.2813   ZX=     0.7820
   XY=     0.7885   YY=    26.7985   ZY=     1.4606
   XZ=     2.3289   YZ=     1.5886   ZZ=    23.4555
   Eigenvalues:    22.7410    26.3803    31.2220
     25  H    Isotropic =    29.9258   Anisotropy =    14.4065
   XX=    31.2037   YX=     7.1871   ZX=     2.7269
   XY=     3.8773   YY=    29.4300   ZY=     6.4690
   XZ=     1.4965   YZ=     6.6355   ZZ=    29.1437
   Eigenvalues:    21.9520    28.2953    39.5301
     26  H    Isotropic =    30.6379   Anisotropy =    10.3124
   XX=    29.1870   YX=     2.9829   ZX=     0.1847
   XY=     3.6851   YY=    34.0149   ZY=     3.4293
   XZ=     1.3174   YZ=     4.6616   ZZ=    28.7119
   Eigenvalues:    26.1024    28.2986    37.5129
     27  H    Isotropic =    31.2280   Anisotropy =     6.8009
   XX=    34.9970   YX=    -2.6817   ZX=    -0.9872
   XY=    -0.1853   YY=    30.3307   ZY=     3.2471
   XZ=     0.0998   YZ=     3.9483   ZZ=    28.3561
   Eigenvalues:    25.5836    32.3384    35.7619
     28  H    Isotropic =    30.6749   Anisotropy =     7.5142
   XX=    28.0678   YX=    -0.9628   ZX=    -0.0343
   XY=     0.2907   YY=    28.8212   ZY=    -0.8744
   XZ=     1.7213   YZ=    -2.5828   ZZ=    35.1357
   Eigenvalues:    27.9314    28.4089    35.6844
     29  H    Isotropic =    30.3624   Anisotropy =     7.5799
   XX=    29.3312   YX=     1.5004   ZX=    -0.9338
   XY=     1.5356   YY=    34.9507   ZY=     0.2650
   XZ=    -0.2164   YZ=     1.7405   ZZ=    26.8055
   Eigenvalues:    26.4673    29.2043    35.4157
     30  H    Isotropic =    30.5446   Anisotropy =    11.7132
   XX=    36.5154   YX=    -3.5129   ZX=    -1.2308
   XY=    -4.2395   YY=    28.2515   ZY=     0.8200
   XZ=    -1.9992   YZ=     1.1778   ZZ=    26.8669
   Eigenvalues:    26.3008    26.9796    38.3534
     31  H    Isotropic =    30.1852   Anisotropy =     6.1128
   XX=    27.9676   YX=    -2.0710   ZX=    -0.0172
   XY=    -2.3105   YY=    28.4292   ZY=    -0.2076
   XZ=    -0.9422   YZ=    -1.2752   ZZ=    34.1587
   Eigenvalues:    25.9073    30.3878    34.2604
 End of Minotr Frequency-dependent properties file   721 does not exist.
 End of Minotr Frequency-dependent properties file   722 does not exist.

 **********************************************************************

            Population analysis using the SCF density.

 **********************************************************************

 Orbital symmetries:
       Occupied  (A) (A) (A) (A) (A) (A) (A) (A) (A) (A) (A) (A)
                 (A) (A) (A) (A) (A) (A) (A) (A) (A) (A) (A) (A)
                 (A) (A) (A) (A) (A) (A) (A) (A) (A) (A) (A) (A)
                 (A) (A) (A) (A) (A) (A) (A) (A) (A) (A) (A) (A)
                 (A) (A) (A) (A) (A) (A) (A) (A)
       Virtual   (A) (A) (A) (A) (A) (A) (A) (A) (A) (A) (A) (A)
                 (A) (A) (A) (A) (A) (A) (A) (A) (A) (A) (A) (A)
                 (A) (A) (A) (A) (A) (A) (A) (A) (A) (A) (A) (A)
                 (A) (A) (A) (A) (A) (A) (A) (A) (A) (A) (A) (A)
                 (A) (A) (A) (A) (A) (A) (A) (A) (A) (A) (A) (A)
                 (A) (A) (A) (A) (A) (A) (A) (A) (A) (A) (A) (A)
                 (A) (A) (A) (A) (A) (A) (A) (A) (A) (A) (A) (A)
                 (A) (A) (A) (A) (A) (A) (A) (A) (A) (A) (A) (A)
                 (A) (A) (A) (A) (A) (A) (A) (A) (A) (A) (A) (A)
                 (A) (A) (A) (A) (A) (A) (A) (A) (A) (A) (A) (A)
                 (A) (A) (A) (A) (A) (A) (A) (A) (A) (A) (A) (A)
                 (A) (A) (A) (A) (A) (A) (A) (A) (A) (A) (A) (A)
                 (A) (A) (A) (A) (A) (A) (A) (A) (A) (A) (A) (A)
                 (A) (A) (A) (A) (A) (A) (A) (A) (A) (A) (A) (A)
                 (A) (A) (A) (A) (A) (A) (A) (A) (A) (A) (A) (A)
                 (A) (A) (A) (A) (A) (A) (A) (A) (A) (A) (A) (A)
                 (A) (A) (A) (A) (A) (A) (A) (A) (A) (A) (A) (A)
                 (A) (A) (A) (A) (A) (A) (A) (A) (A) (A) (A) (A)
                 (A) (A) (A) (A) (A) (A) (A) (A) (A) (A) (A) (A)
                 (A) (A) (A) (A) (A) (A) (A) (A) (A) (A) (A) (A)
                 (A) (A) (A) (A) (A) (A) (A) (A) (A) (A) (A) (A)
                 (A) (A) (A) (A) (A) (A) (A) (A) (A) (A) (A) (A)
                 (A) (A) (A) (A) (A) (A) (A) (A) (A) (A) (A) (A)
                 (A) (A) (A) (A) (A) (A) (A) (A) (A) (A) (A) (A)
                 (A) (A) (A) (A) (A) (A) (A) (A) (A) (A) (A) (A)
                 (A) (A) (A) (A) (A) (A) (A) (A) (A)
 The electronic state is 1-A.
 Alpha  occ. eigenvalues --  -19.32654 -19.28174 -19.27304 -10.43841 -10.35976
 Alpha  occ. eigenvalues --  -10.34930 -10.31944 -10.31695 -10.30968 -10.30948
 Alpha  occ. eigenvalues --  -10.30884 -10.30855 -10.30761 -10.29408 -10.28488
 Alpha  occ. eigenvalues --   -1.20770  -1.13006  -1.12186  -0.96419  -0.91607
 Alpha  occ. eigenvalues --   -0.86641  -0.85101  -0.84918  -0.77982  -0.75815
 Alpha  occ. eigenvalues --   -0.71944  -0.70287  -0.67835  -0.64647  -0.61880
 Alpha  occ. eigenvalues --   -0.60197  -0.58668  -0.57245  -0.56308  -0.54810
 Alpha  occ. eigenvalues --   -0.53461  -0.52929  -0.52414  -0.50684  -0.49895
 Alpha  occ. eigenvalues --   -0.49763  -0.47096  -0.46920  -0.46377  -0.45460
 Alpha  occ. eigenvalues --   -0.44949  -0.44619  -0.43426  -0.42571  -0.41635
 Alpha  occ. eigenvalues --   -0.40969  -0.38613  -0.36882  -0.36000  -0.33562
 Alpha  occ. eigenvalues --   -0.32688
 Alpha virt. eigenvalues --    0.04545   0.05107   0.06616   0.07453   0.07750
 Alpha virt. eigenvalues --    0.08060   0.08548   0.09303   0.10008   0.10274
 Alpha virt. eigenvalues --    0.10298   0.11060   0.11595   0.12312   0.12916
 Alpha virt. eigenvalues --    0.13247   0.13835   0.14167   0.14669   0.15130
 Alpha virt. eigenvalues --    0.15768   0.16316   0.16867   0.17269   0.17952
 Alpha virt. eigenvalues --    0.18413   0.18876   0.19164   0.19830   0.20057
 Alpha virt. eigenvalues --    0.20297   0.20949   0.21677   0.21896   0.22173
 Alpha virt. eigenvalues --    0.22239   0.22832   0.23405   0.24267   0.24803
 Alpha virt. eigenvalues --    0.25488   0.25924   0.26280   0.26618   0.26751
 Alpha virt. eigenvalues --    0.27097   0.27974   0.28138   0.28166   0.29050
 Alpha virt. eigenvalues --    0.29520   0.30188   0.30819   0.31038   0.31498
 Alpha virt. eigenvalues --    0.32025   0.32148   0.32769   0.33274   0.33586
 Alpha virt. eigenvalues --    0.34481   0.35150   0.35454   0.36095   0.36455
 Alpha virt. eigenvalues --    0.36799   0.37125   0.37687   0.38145   0.38359
 Alpha virt. eigenvalues --    0.39180   0.40125   0.40377   0.40923   0.42288
 Alpha virt. eigenvalues --    0.42734   0.42916   0.43144   0.44225   0.44732
 Alpha virt. eigenvalues --    0.46084   0.46558   0.46820   0.48239   0.48498
 Alpha virt. eigenvalues --    0.48863   0.50092   0.50296   0.52244   0.53587
 Alpha virt. eigenvalues --    0.54383   0.56738   0.61171   0.66288   0.69944
 Alpha virt. eigenvalues --    0.72785   0.74051   0.74065   0.75779   0.75987
 Alpha virt. eigenvalues --    0.77128   0.77566   0.78854   0.79558   0.80936
 Alpha virt. eigenvalues --    0.81051   0.81964   0.82950   0.83677   0.83723
 Alpha virt. eigenvalues --    0.84835   0.85856   0.88323   0.88944   0.89234
 Alpha virt. eigenvalues --    0.90273   0.91037   0.91731   0.93767   0.94796
 Alpha virt. eigenvalues --    0.96385   0.97708   0.99851   1.00665   1.01199
 Alpha virt. eigenvalues --    1.02255   1.05054   1.06335   1.06610   1.07745
 Alpha virt. eigenvalues --    1.08840   1.09594   1.10636   1.11799   1.13430
 Alpha virt. eigenvalues --    1.14524   1.14930   1.16045   1.17373   1.17945
 Alpha virt. eigenvalues --    1.19914   1.21801   1.22465   1.24352   1.25541
 Alpha virt. eigenvalues --    1.26526   1.27392   1.29195   1.29958   1.31591
 Alpha virt. eigenvalues --    1.32954   1.34017   1.34606   1.35876   1.37741
 Alpha virt. eigenvalues --    1.40534   1.40683   1.41737   1.42904   1.44705
 Alpha virt. eigenvalues --    1.46002   1.46479   1.47130   1.48174   1.49972
 Alpha virt. eigenvalues --    1.50725   1.51716   1.54041   1.54849   1.57000
 Alpha virt. eigenvalues --    1.57201   1.60643   1.61599   1.63533   1.65759
 Alpha virt. eigenvalues --    1.67655   1.69243   1.70909   1.73374   1.74947
 Alpha virt. eigenvalues --    1.77675   1.79501   1.85644   1.87138   1.89104
 Alpha virt. eigenvalues --    1.90066   1.91222   1.91948   1.92734   1.96314
 Alpha virt. eigenvalues --    1.96611   1.97434   1.97855   1.99016   2.00558
 Alpha virt. eigenvalues --    2.01117   2.03949   2.04328   2.05365   2.06468
 Alpha virt. eigenvalues --    2.07156   2.07805   2.09502   2.11261   2.11511
 Alpha virt. eigenvalues --    2.13238   2.14082   2.15434   2.15906   2.17401
 Alpha virt. eigenvalues --    2.19608   2.19966   2.21460   2.22680   2.23747
 Alpha virt. eigenvalues --    2.24408   2.25540   2.27936   2.30111   2.30732
 Alpha virt. eigenvalues --    2.32568   2.35219   2.36929   2.38149   2.40537
 Alpha virt. eigenvalues --    2.42805   2.44216   2.45634   2.46973   2.48136
 Alpha virt. eigenvalues --    2.48631   2.50062   2.51008   2.51944   2.54899
 Alpha virt. eigenvalues --    2.55744   2.56395   2.57302   2.58387   2.60495
 Alpha virt. eigenvalues --    2.61869   2.63752   2.64771   2.65668   2.67851
 Alpha virt. eigenvalues --    2.68911   2.71832   2.73080   2.73435   2.75006
 Alpha virt. eigenvalues --    2.76565   2.78617   2.80019   2.81282   2.82466
 Alpha virt. eigenvalues --    2.83198   2.86049   2.86822   2.88349   2.89079
 Alpha virt. eigenvalues --    2.91445   2.92284   2.95216   2.96955   2.98140
 Alpha virt. eigenvalues --    2.99796   3.00807   3.02358   3.05068   3.09980
 Alpha virt. eigenvalues --    3.10442   3.15253   3.16166   3.21134   3.25513
 Alpha virt. eigenvalues --    3.28187   3.30176   3.36759   3.36857   3.38091
 Alpha virt. eigenvalues --    3.39021   3.43737   3.44909   3.48975   3.52317
 Alpha virt. eigenvalues --    3.53860   3.57715   3.59369   3.61085   3.62156
 Alpha virt. eigenvalues --    3.65015   3.65986   3.69284   3.99633   4.39846
 Alpha virt. eigenvalues --    4.41100   4.44064   4.45653   4.50025   4.54326
 Alpha virt. eigenvalues --    4.56660   4.59898   4.63126   4.66944   4.74664
 Alpha virt. eigenvalues --    4.78156   4.82636   4.93562   4.97577
          Condensed to atoms (all electrons):
              1          2          3          4          5          6
     1  C   16.147241  -1.211556  -1.327652  -5.745577  -6.165373   0.296777
     2  C   -1.211556   8.155052   0.489317   1.077705  -1.076563   0.452834
     3  C   -1.327652   0.489317   6.992379   0.765983  -0.292276   0.433740
     4  C   -5.745577   1.077705   0.765983  18.810186  -0.697393  -1.099067
     5  C   -6.165373  -1.076563  -0.292276  -0.697393  15.484513   0.289301
     6  C    0.296777   0.452834   0.433740  -1.099067   0.289301   5.594436
     7  C    4.754414  -2.148467  -1.219426  -8.567673  -2.294748  -0.063004
     8  C   -1.450267   0.254834   0.017611   1.308104   1.192823  -0.053109
     9  C    0.349741  -0.040857   0.002347  -0.614226  -0.471855  -0.016140
    10  O   -0.018390   0.003697   0.001445   0.012859  -0.000590  -0.000984
    11  C    0.006713   0.001198   0.003829   0.034232  -0.005287  -0.000280
    12  O   -0.097204   0.112949   0.036056   0.431384  -0.003567   0.000505
    13  C    0.159023  -0.056774  -0.027076   0.088333  -0.048390   0.035789
    14  O   -0.005032  -0.000771  -0.000217  -0.016251   0.009360  -0.000072
    15  C   -0.004553  -0.000303   0.000243  -0.001238   0.002363  -0.000052
    16  H    0.230441   0.007885   0.035988   0.058544  -0.000091  -0.010431
    17  H    0.007405   0.274664  -0.002933   0.045203   0.011536  -0.005336
    18  H    0.029871   0.003758   0.279123   0.010861  -0.010419   0.017173
    19  H    0.037208  -0.032157   0.000618   0.079368   0.179165  -0.020766
    20  H    0.000281   0.015355   0.023947   0.003632  -0.001806   0.282599
    21  H    0.169687   0.008647   0.068845   0.084386  -0.084917   0.002781
    22  H    0.043820  -0.008051   0.006577   0.065694  -0.099659  -0.003414
    23  H   -0.000047   0.000014  -0.000011   0.001674   0.000014  -0.000001
    24  H   -0.000014   0.000020   0.000007   0.000565   0.000195  -0.000001
    25  H   -0.024920   0.007808   0.004392   0.106738  -0.078181  -0.007454
    26  H    0.006954  -0.001780  -0.002219  -0.037841  -0.007712   0.000140
    27  H   -0.000572  -0.002814  -0.006453   0.047595   0.033120   0.005899
    28  H    0.024658  -0.001671   0.007114  -0.016835  -0.013547   0.000436
    29  H   -0.000185   0.000013  -0.000034   0.000654   0.000182   0.000001
    30  H    0.000026   0.000000   0.000000  -0.000080  -0.000033   0.000000
    31  H   -0.000200   0.000046   0.000004   0.003146   0.000433  -0.000001
              7          8          9         10         11         12
     1  C    4.754414  -1.450267   0.349741  -0.018390   0.006713  -0.097204
     2  C   -2.148467   0.254834  -0.040857   0.003697   0.001198   0.112949
     3  C   -1.219426   0.017611   0.002347   0.001445   0.003829   0.036056
     4  C   -8.567673   1.308104  -0.614226   0.012859   0.034232   0.431384
     5  C   -2.294748   1.192823  -0.471855  -0.000590  -0.005287  -0.003567
     6  C   -0.063004  -0.053109  -0.016140  -0.000984  -0.000280   0.000505
     7  C   17.357229  -2.235299   0.812997  -0.008250  -0.077236  -0.378398
     8  C   -2.235299   8.911888  -1.284522  -0.379391  -0.052964  -0.089052
     9  C    0.812997  -1.284522   6.311495   0.383556  -0.074368  -0.001053
    10  O   -0.008250  -0.379391   0.383556   8.467270   0.084674   0.004059
    11  C   -0.077236  -0.052964  -0.074368   0.084674   5.185633  -0.006490
    12  O   -0.378398  -0.089052  -0.001053   0.004059  -0.006490   8.321380
    13  C   -0.077933  -0.248311  -0.159583  -0.004277  -0.019100   0.028335
    14  O   -0.062765   0.113642   0.504852  -0.150101   0.003996  -0.000138
    15  C    0.027258  -0.055968   0.005388  -0.050994   0.275430   0.001615
    16  H   -0.004726  -0.000659  -0.003217  -0.000035  -0.000120  -0.000271
    17  H   -0.004060  -0.000099   0.000303   0.000000   0.000001   0.000075
    18  H   -0.003202  -0.000260   0.000093   0.000000   0.000000   0.000014
    19  H    0.064141  -0.010488   0.028116   0.000010   0.000082   0.001718
    20  H    0.003131  -0.000384  -0.000076   0.000000   0.000000  -0.000008
    21  H    0.052858  -0.024191   0.019993   0.005370   0.011153  -0.044660
    22  H   -0.006083   0.268352   0.033038   0.012608   0.004449   0.002035
    23  H    0.002258  -0.004831   0.008262  -0.060708   0.422227   0.000009
    24  H   -0.003466   0.020647  -0.009643  -0.036212   0.397059   0.000052
    25  H    0.008847   0.004919  -0.003405   0.000201   0.000329   0.228769
    26  H    0.073108  -0.139992   0.037126  -0.001190  -0.001703  -0.000472
    27  H   -0.059283  -0.048302  -0.053054  -0.000780  -0.001151  -0.000546
    28  H   -0.007724  -0.066168   0.009591   0.006581   0.003680   0.000392
    29  H   -0.002915   0.007168   0.004158  -0.003079  -0.045370   0.000070
    30  H   -0.000451   0.003289   0.006119   0.007882  -0.052720   0.000017
    31  H    0.000926   0.000010  -0.008742  -0.006033  -0.042934  -0.000014
             13         14         15         16         17         18
     1  C    0.159023  -0.005032  -0.004553   0.230441   0.007405   0.029871
     2  C   -0.056774  -0.000771  -0.000303   0.007885   0.274664   0.003758
     3  C   -0.027076  -0.000217   0.000243   0.035988  -0.002933   0.279123
     4  C    0.088333  -0.016251  -0.001238   0.058544   0.045203   0.010861
     5  C   -0.048390   0.009360   0.002363  -0.000091   0.011536  -0.010419
     6  C    0.035789  -0.000072  -0.000052  -0.010431  -0.005336   0.017173
     7  C   -0.077933  -0.062765   0.027258  -0.004726  -0.004060  -0.003202
     8  C   -0.248311   0.113642  -0.055968  -0.000659  -0.000099  -0.000260
     9  C   -0.159583   0.504852   0.005388  -0.003217   0.000303   0.000093
    10  O   -0.004277  -0.150101  -0.050994  -0.000035   0.000000   0.000000
    11  C   -0.019100   0.003996   0.275430  -0.000120   0.000001   0.000000
    12  O    0.028335  -0.000138   0.001615  -0.000271   0.000075   0.000014
    13  C    5.726550  -0.052771   0.001380   0.003894   0.000160  -0.000019
    14  O   -0.052771   8.189171  -0.037907   0.000007   0.000000   0.000000
    15  C    0.001380  -0.037907   5.190024   0.000081   0.000000   0.000000
    16  H    0.003894   0.000007   0.000081   0.504213   0.000011  -0.003896
    17  H    0.000160   0.000000   0.000000   0.000011   0.494201  -0.000122
    18  H   -0.000019   0.000000   0.000000  -0.003896  -0.000122   0.494997
    19  H   -0.008413   0.000000  -0.000004  -0.000107  -0.003980   0.000011
    20  H    0.000035   0.000000   0.000000  -0.000119  -0.003814  -0.003850
    21  H   -0.023467  -0.000704  -0.001217   0.002258   0.000002  -0.000002
    22  H   -0.013937  -0.006489  -0.000461  -0.000007   0.000002   0.000000
    23  H    0.000731   0.000493  -0.039645   0.000000   0.000000   0.000000
    24  H   -0.002833   0.000206  -0.034590   0.000000   0.000000   0.000000
    25  H   -0.001243  -0.000023  -0.000320   0.000119  -0.000003   0.000000
    26  H    0.431869   0.002308  -0.000015   0.000003   0.000000   0.000000
    27  H    0.448033   0.000051   0.000019  -0.000043  -0.000003  -0.000002
    28  H    0.405271  -0.000242  -0.000157  -0.000083   0.000000   0.000000
    29  H    0.000150  -0.000440   0.402031   0.000000   0.000000   0.000000
    30  H    0.000045  -0.000202   0.399294   0.000000   0.000000   0.000000
    31  H   -0.000567   0.002381   0.416014   0.000000   0.000000   0.000000
             19         20         21         22         23         24
     1  C    0.037208   0.000281   0.169687   0.043820  -0.000047  -0.000014
     2  C   -0.032157   0.015355   0.008647  -0.008051   0.000014   0.000020
     3  C    0.000618   0.023947   0.068845   0.006577  -0.000011   0.000007
     4  C    0.079368   0.003632   0.084386   0.065694   0.001674   0.000565
     5  C    0.179165  -0.001806  -0.084917  -0.099659   0.000014   0.000195
     6  C   -0.020766   0.282599   0.002781  -0.003414  -0.000001  -0.000001
     7  C    0.064141   0.003131   0.052858  -0.006083   0.002258  -0.003466
     8  C   -0.010488  -0.000384  -0.024191   0.268352  -0.004831   0.020647
     9  C    0.028116  -0.000076   0.019993   0.033038   0.008262  -0.009643
    10  O    0.000010   0.000000   0.005370   0.012608  -0.060708  -0.036212
    11  C    0.000082   0.000000   0.011153   0.004449   0.422227   0.397059
    12  O    0.001718  -0.000008  -0.044660   0.002035   0.000009   0.000052
    13  C   -0.008413   0.000035  -0.023467  -0.013937   0.000731  -0.002833
    14  O    0.000000   0.000000  -0.000704  -0.006489   0.000493   0.000206
    15  C   -0.000004   0.000000  -0.001217  -0.000461  -0.039645  -0.034590
    16  H   -0.000107  -0.000119   0.002258  -0.000007   0.000000   0.000000
    17  H   -0.003980  -0.003814   0.000002   0.000002   0.000000   0.000000
    18  H    0.000011  -0.003850  -0.000002   0.000000   0.000000   0.000000
    19  H    0.501504  -0.000117  -0.000068  -0.000132   0.000000   0.000000
    20  H   -0.000117   0.497347   0.000000   0.000000   0.000000   0.000000
    21  H   -0.000068   0.000000   0.591040   0.003781   0.000007  -0.000005
    22  H   -0.000132   0.000000   0.003781   0.500522   0.000002  -0.000003
    23  H    0.000000   0.000000   0.000007   0.000002   0.530900  -0.031432
    24  H    0.000000   0.000000  -0.000005  -0.000003  -0.031432   0.522230
    25  H   -0.000307   0.000000  -0.003146  -0.000029   0.000000   0.000000
    26  H    0.000006   0.000000  -0.000072  -0.002372   0.000002  -0.000005
    27  H   -0.000040   0.000000  -0.000034  -0.004197   0.000000   0.000000
    28  H    0.000000   0.000000   0.002257   0.003878   0.000011   0.000010
    29  H    0.000000   0.000000   0.000004   0.000000  -0.005033   0.003808
    30  H    0.000000   0.000000  -0.000001   0.000000  -0.001199  -0.001000
    31  H    0.000000   0.000000   0.000004   0.000005   0.003937  -0.004740
             25         26         27         28         29         30
     1  C   -0.024920   0.006954  -0.000572   0.024658  -0.000185   0.000026
     2  C    0.007808  -0.001780  -0.002814  -0.001671   0.000013   0.000000
     3  C    0.004392  -0.002219  -0.006453   0.007114  -0.000034   0.000000
     4  C    0.106738  -0.037841   0.047595  -0.016835   0.000654  -0.000080
     5  C   -0.078181  -0.007712   0.033120  -0.013547   0.000182  -0.000033
     6  C   -0.007454   0.000140   0.005899   0.000436   0.000001   0.000000
     7  C    0.008847   0.073108  -0.059283  -0.007724  -0.002915  -0.000451
     8  C    0.004919  -0.139992  -0.048302  -0.066168   0.007168   0.003289
     9  C   -0.003405   0.037126  -0.053054   0.009591   0.004158   0.006119
    10  O    0.000201  -0.001190  -0.000780   0.006581  -0.003079   0.007882
    11  C    0.000329  -0.001703  -0.001151   0.003680  -0.045370  -0.052720
    12  O    0.228769  -0.000472  -0.000546   0.000392   0.000070   0.000017
    13  C   -0.001243   0.431869   0.448033   0.405271   0.000150   0.000045
    14  O   -0.000023   0.002308   0.000051  -0.000242  -0.000440  -0.000202
    15  C   -0.000320  -0.000015   0.000019  -0.000157   0.402031   0.399294
    16  H    0.000119   0.000003  -0.000043  -0.000083   0.000000   0.000000
    17  H   -0.000003   0.000000  -0.000003   0.000000   0.000000   0.000000
    18  H    0.000000   0.000000  -0.000002   0.000000   0.000000   0.000000
    19  H   -0.000307   0.000006  -0.000040   0.000000   0.000000   0.000000
    20  H    0.000000   0.000000   0.000000   0.000000   0.000000   0.000000
    21  H   -0.003146  -0.000072  -0.000034   0.002257   0.000004  -0.000001
    22  H   -0.000029  -0.002372  -0.004197   0.003878   0.000000   0.000000
    23  H    0.000000   0.000002   0.000000   0.000011  -0.005033  -0.001199
    24  H    0.000000  -0.000005   0.000000   0.000010   0.003808  -0.001000
    25  H    0.353891   0.000003  -0.000002  -0.000003   0.000003   0.000000
    26  H    0.000003   0.507992  -0.023082  -0.025048   0.000000   0.000000
    27  H   -0.000002  -0.023082   0.503293  -0.024449   0.000000   0.000000
    28  H   -0.000003  -0.025048  -0.024449   0.506390   0.000000   0.000000
    29  H    0.000003   0.000000   0.000000   0.000000   0.517203  -0.022935
    30  H    0.000000   0.000000   0.000000   0.000000  -0.022935   0.507408
    31  H    0.000003   0.000000   0.000000   0.000000  -0.028687  -0.022074
             31
     1  C   -0.000200
     2  C    0.000046
     3  C    0.000004
     4  C    0.003146
     5  C    0.000433
     6  C   -0.000001
     7  C    0.000926
     8  C    0.000010
     9  C   -0.008742
    10  O   -0.006033
    11  C   -0.042934
    12  O   -0.000014
    13  C   -0.000567
    14  O    0.002381
    15  C    0.416014
    16  H    0.000000
    17  H    0.000000
    18  H    0.000000
    19  H    0.000000
    20  H    0.000000
    21  H    0.000004
    22  H    0.000005
    23  H    0.003937
    24  H   -0.004740
    25  H    0.000003
    26  H    0.000000
    27  H    0.000000
    28  H    0.000000
    29  H   -0.028687
    30  H   -0.022074
    31  H    0.507096
 Mulliken atomic charges:
              1
     1  C   -0.212720
     2  C   -0.284031
     3  C   -0.291268
     4  C   -0.240664
     5  C    0.149401
     6  C   -0.132299
     7  C    0.067940
     8  C    0.040969
     9  C    0.223566
    10  O   -0.269198
    11  C   -0.054964
    12  O   -0.547561
    13  C   -0.584906
    14  O   -0.492344
    15  C   -0.493719
    16  H    0.180362
    17  H    0.186788
    18  H    0.185871
    19  H    0.184633
    20  H    0.183847
    21  H    0.159414
    22  H    0.200069
    23  H    0.172367
    24  H    0.179143
    25  H    0.403016
    26  H    0.183994
    27  H    0.186800
    28  H    0.185658
    29  H    0.173234
    30  H    0.176617
    31  H    0.179986
 Sum of Mulliken atomic charges =   0.00000
 Mulliken charges with hydrogens summed into heavy atoms:
              1
     1  C   -0.032358
     2  C   -0.097243
     3  C   -0.105397
     4  C   -0.240664
     5  C    0.334034
     6  C    0.051548
     7  C    0.227354
     8  C    0.241037
     9  C    0.223566
    10  O   -0.269198
    11  C    0.296546
    12  O   -0.144545
    13  C   -0.028455
    14  O   -0.492344
    15  C    0.036119
 Sum of Mulliken charges with hydrogens summed into heavy atoms =   0.00000
 Electronic spatial extent (au):  <R**2>=           4104.9243
 Charge=              0.0000 electrons
 Dipole moment (field-independent basis, Debye):
    X=             -2.5564    Y=             -2.0820    Z=              2.7529  Tot=              4.2952
 Quadrupole moment (field-independent basis, Debye-Ang):
   XX=            -78.8024   YY=            -89.9634   ZZ=            -90.0367
   XY=             -7.1255   XZ=              8.3867   YZ=             -0.1361
 Traceless Quadrupole moment (field-independent basis, Debye-Ang):
   XX=              7.4651   YY=             -3.6959   ZZ=             -3.7692
   XY=             -7.1255   XZ=              8.3867   YZ=             -0.1361
 Octapole moment (field-independent basis, Debye-Ang**2):
  XXX=             13.6843  YYY=             -8.3035  ZZZ=              0.7362  XYY=             -0.0051
  XXY=            -27.5560  XXZ=             23.6227  XZZ=             -3.9213  YZZ=             -5.7995
  YYZ=              3.6011  XYZ=             18.1511
 Hexadecapole moment (field-independent basis, Debye-Ang**3):
 XXXX=          -3835.7228 YYYY=           -621.9805 ZZZZ=           -539.5845 XXXY=           -124.7834
 XXXZ=             70.7463 YYYX=            -15.7966 YYYZ=             12.4754 ZZZX=             21.0320
 ZZZY=             -7.9493 XXYY=           -872.2396 XXZZ=           -803.1652 YYZZ=           -176.0326
 XXYZ=            -35.1340 YYXZ=             21.1333 ZZXY=              2.5616
 N-N= 9.991543377949D+02 E-N=-3.610154757675D+03  KE= 6.858891352659D+02
 1\1\GINC-COMPUTE-8-6\SP\RwB97XD\6-31+G(d,p)\C12H16O3\ELUCIANO.IQUIR\17
 -May-2022\0\\# wb97xd/6-31+g** scrf=(pcm,solvent=chloroform,smd,dovacu
 um) nmr\\comment\\0,1\C,0,-1.36009223,-2.324099728,0.160489805\C,0,-3.
 877251174,-1.166382653,-0.166190342\C,0,-2.513045771,-3.080990901,0.37
 6970984\C,0,-1.453166254,-0.977323312,-0.220684604\C,0,-2.726418955,-0
 .407600349,-0.382912035\C,0,-3.770108416,-2.502271226,0.214076135\C,0,
 -0.195709609,-0.159155371,-0.451886873\C,0,-0.014274261,0.991292706,0.
 550825171\C,0,1.280194038,1.729260781,0.278368453\O,0,2.344502766,0.87
 800426,0.246078095\C,0,3.621479865,1.483969552,-0.001753482\O,0,-0.255
 401955,0.3747432,-1.779666282\C,0,-0.015331443,0.539253922,2.011180714
 \O,0,1.355312681,2.947331744,0.168829188\C,0,3.851861722,1.624697393,-
 1.494730961\H,0,-0.388528508,-2.795197879,0.294902426\H,0,-4.857588593
 ,-0.714428579,-0.294481176\H,0,-2.430700746,-4.123577037,0.673854447\H
 ,0,-2.826389,0.634088999,-0.683633326\H,0,-4.666886029,-3.092720831,0.
 383388507\H,0,0.672749736,-0.828184921,-0.432738761\H,0,-0.81669774,1.
 727420426,0.407353808\H,0,4.378703842,0.818632212,0.425804057\H,0,3.71
 3279707,2.447324592,0.512692693\H,0,-0.721736194,-0.27576676,-2.334327
 237\H,0,0.240379321,1.371286929,2.676913967\H,0,-0.999062587,0.1664640
 12,2.312870202\H,0,0.718437472,-0.255905715,2.183747603\H,0,3.75674473
 3,0.653477177,-1.99140309\H,0,4.847631091,2.029016402,-1.697145931\H,0
 ,3.10711249,2.287340957,-1.946792155\\Version=EM64L-G09RevC.01\State=1
 -A\HF=-692.4451227\RMSD=2.797e-09\Dipole=-0.1233801,-1.6462055,0.36105
 23\Quadrupole=10.5630822,-7.5572183,-3.0058639,0.3674819,0.5428713,0.8
 751216\PG=C01 [X(C12H16O3)]\\@


 NO SCIENCE HAS EVER MADE MORE RAPID PROGRESS IN A
 SHORTER TIME THAN CHEMISTRY.
   -- MARTIN HEINRICH KLOPROTH, 1791
 (FIRST PROFESSOR OF CHEMISTRY AT THE UNIVERSITY OF BERLIN)
 Job cpu time:  0 days  1 hours 52 minutes 38.3 seconds.
 File lengths (MBytes):  RWF=    124 Int=      0 D2E=      0 Chk=      9 Scr=      1
 Normal termination of Gaussian 09 at Tue May 17 20:07:21 2022.
