 Entering Gaussian System, Link 0=g09
 Input=/home/eluciano.iquir/wb9/73b_038.gjc
 Output=/home/eluciano.iquir/wb9/73b_038.log
 Initial command:
 /share/apps/Gaussian09/EM64T.SSE4.2-enabled/g09/l1.exe /tmp/Gau-2337.inp -scrdir=/tmp/
 Entering Link 1 = /share/apps/Gaussian09/EM64T.SSE4.2-enabled/g09/l1.exe PID=      2338.
  
 Copyright (c) 1988,1990,1992,1993,1995,1998,2003,2009,2011,
            Gaussian, Inc.  All Rights Reserved.
  
 This is part of the Gaussian(R) 09 program.  It is based on
 the Gaussian(R) 03 system (copyright 2003, Gaussian, Inc.),
 the Gaussian(R) 98 system (copyright 1998, Gaussian, Inc.),
 the Gaussian(R) 94 system (copyright 1995, Gaussian, Inc.),
 the Gaussian 92(TM) system (copyright 1992, Gaussian, Inc.),
 the Gaussian 90(TM) system (copyright 1990, Gaussian, Inc.),
 the Gaussian 88(TM) system (copyright 1988, Gaussian, Inc.),
 the Gaussian 86(TM) system (copyright 1986, Carnegie Mellon
 University), and the Gaussian 82(TM) system (copyright 1983,
 Carnegie Mellon University). Gaussian is a federally registered
 trademark of Gaussian, Inc.
  
 This software contains proprietary and confidential information,
 including trade secrets, belonging to Gaussian, Inc.
  
 This software is provided under written license and may be
 used, copied, transmitted, or stored only in accord with that
 written license.
  
 The following legend is applicable only to US Government
 contracts under FAR:
  
                    RESTRICTED RIGHTS LEGEND
  
 Use, reproduction and disclosure by the US Government is
 subject to restrictions as set forth in subparagraphs (a)
 and (c) of the Commercial Computer Software - Restricted
 Rights clause in FAR 52.227-19.
  
 Gaussian, Inc.
 340 Quinnipiac St., Bldg. 40, Wallingford CT 06492
  
  
 ---------------------------------------------------------------
 Warning -- This program may not be used in any manner that
 competes with the business of Gaussian, Inc. or will provide
 assistance to any competitor of Gaussian, Inc.  The licensee
 of this program is prohibited from giving any competitor of
 Gaussian, Inc. access to this program.  By using this program,
 the user acknowledges that Gaussian, Inc. is engaged in the
 business of creating and licensing software in the field of
 computational chemistry and represents and warrants to the
 licensee that it is not a competitor of Gaussian, Inc. and that
 it will not use this program in any manner prohibited above.
 ---------------------------------------------------------------
  

 Cite this work as:
 Gaussian 09, Revision C.01,
 M. J. Frisch, G. W. Trucks, H. B. Schlegel, G. E. Scuseria, 
 M. A. Robb, J. R. Cheeseman, G. Scalmani, V. Barone, B. Mennucci, 
 G. A. Petersson, H. Nakatsuji, M. Caricato, X. Li, H. P. Hratchian, 
 A. F. Izmaylov, J. Bloino, G. Zheng, J. L. Sonnenberg, M. Hada, 
 M. Ehara, K. Toyota, R. Fukuda, J. Hasegawa, M. Ishida, T. Nakajima, 
 Y. Honda, O. Kitao, H. Nakai, T. Vreven, J. A. Montgomery, Jr., 
 J. E. Peralta, F. Ogliaro, M. Bearpark, J. J. Heyd, E. Brothers, 
 K. N. Kudin, V. N. Staroverov, T. Keith, R. Kobayashi, J. Normand, 
 K. Raghavachari, A. Rendell, J. C. Burant, S. S. Iyengar, J. Tomasi, 
 M. Cossi, N. Rega, J. M. Millam, M. Klene, J. E. Knox, J. B. Cross, 
 V. Bakken, C. Adamo, J. Jaramillo, R. Gomperts, R. E. Stratmann, 
 O. Yazyev, A. J. Austin, R. Cammi, C. Pomelli, J. W. Ochterski, 
 R. L. Martin, K. Morokuma, V. G. Zakrzewski, G. A. Voth, 
 P. Salvador, J. J. Dannenberg, S. Dapprich, A. D. Daniels, 
 O. Farkas, J. B. Foresman, J. V. Ortiz, J. Cioslowski, 
 and D. J. Fox, Gaussian, Inc., Wallingford CT, 2010.
 
 ******************************************
 Gaussian 09:  EM64L-G09RevC.01 23-Sep-2011
                17-May-2022 
 ******************************************
 %nprocshared=4
 Will use up to    4 processors via shared memory.
 ----------------------------------------------------------------
 # wb97xd/6-31+g** scrf=(pcm,solvent=chloroform,smd,dovacuum) nmr
 ----------------------------------------------------------------
 1/38=1/1;
 2/12=2,17=6,18=5,40=1/2;
 3/5=1,6=6,7=111,11=2,16=1,25=1,30=1,70=32101,72=7,74=-58/1,2,8,3;
 4//1;
 5/5=2,38=5,53=7/2;
 8/6=1,10=90,11=11/1;
 10/13=100,45=16/2;
 6/7=2,8=2,9=2,10=2,28=1/1;
 99/9=1/99;
 -------
 comment
 -------
 Charge =  0 Multiplicity = 1
 Symbolic Z-Matrix:
 6                    -2.44644  -0.23305  -1.22569 
 6                    -0.25947  -0.1874   -2.95384 
 6                    -2.60003   0.21814  -2.53796 
 6                    -1.19711  -0.67361  -0.76222 
 6                    -0.10468  -0.63971  -1.64258 
 6                    -1.50722   0.23967  -3.40149 
 6                    -1.04701  -1.14569   0.6711 
 6                    -0.80869  -0.02094   1.6892 
 6                     0.35782   0.87664   1.33071 
 8                     1.55147   0.23134   1.41799 
 6                     2.71935   1.03154   1.18585 
 8                    -0.07074  -2.18197   0.77817 
 6                    -0.64599  -0.54448   3.11658 
 8                     0.22415   2.05933   1.03617 
 6                     3.04297   1.08483  -0.29494 
 1                    -3.31176  -0.23397  -0.56602 
 1                     0.59627  -0.16152  -3.62356 
 1                    -3.57212   0.55903  -2.8851 
 1                     0.88108  -0.9575   -1.30827 
 1                    -1.62637   0.59641  -4.42116 
 1                    -1.99037  -1.63745   0.94506 
 1                    -1.69333   0.6319    1.68194 
 1                     3.54465   0.55432   1.72448 
 1                     2.60217   2.03693   1.60648 
 1                    -0.18315  -2.76011   0.00335 
 1                    -0.51141   0.28531   3.81933 
 1                    -1.53257  -1.10804   3.42524 
 1                     0.22518  -1.20044   3.21742 
 1                     3.16923   0.0746   -0.69742 
 1                     3.96256   1.6503   -0.47018 
 1                     2.23157   1.55556  -0.85862 
 
                          Input orientation:                          
 ---------------------------------------------------------------------
 Center     Atomic      Atomic             Coordinates (Angstroms)
 Number     Number       Type             X           Y           Z
 ---------------------------------------------------------------------
      1          6           0       -2.446445   -0.233048   -1.225689
      2          6           0       -0.259469   -0.187403   -2.953845
      3          6           0       -2.600030    0.218145   -2.537959
      4          6           0       -1.197113   -0.673606   -0.762224
      5          6           0       -0.104676   -0.639711   -1.642583
      6          6           0       -1.507219    0.239666   -3.401487
      7          6           0       -1.047012   -1.145692    0.671101
      8          6           0       -0.808694   -0.020938    1.689201
      9          6           0        0.357822    0.876644    1.330706
     10          8           0        1.551465    0.231342    1.417994
     11          6           0        2.719354    1.031540    1.185853
     12          8           0       -0.070741   -2.181973    0.778169
     13          6           0       -0.645989   -0.544479    3.116579
     14          8           0        0.224153    2.059331    1.036174
     15          6           0        3.042968    1.084835   -0.294941
     16          1           0       -3.311761   -0.233965   -0.566018
     17          1           0        0.596266   -0.161515   -3.623560
     18          1           0       -3.572118    0.559035   -2.885102
     19          1           0        0.881085   -0.957497   -1.308274
     20          1           0       -1.626371    0.596408   -4.421159
     21          1           0       -1.990367   -1.637446    0.945061
     22          1           0       -1.693328    0.631905    1.681941
     23          1           0        3.544646    0.554317    1.724477
     24          1           0        2.602168    2.036927    1.606476
     25          1           0       -0.183153   -2.760109    0.003347
     26          1           0       -0.511411    0.285310    3.819327
     27          1           0       -1.532573   -1.108042    3.425236
     28          1           0        0.225183   -1.200444    3.217420
     29          1           0        3.169225    0.074601   -0.697423
     30          1           0        3.962561    1.650303   -0.470178
     31          1           0        2.231573    1.555559   -0.858617
 ---------------------------------------------------------------------
                    Distance matrix (angstroms):
                    1          2          3          4          5
     1  C    0.000000
     2  C    2.787735   0.000000
     3  C    1.396142   2.411567   0.000000
     4  C    1.403467   2.432852   2.432412   0.000000
     5  C    2.413101   1.395690   2.786469   1.403424   0.000000
     6  C    2.416547   1.392714   1.392976   2.809972   2.415404
     7  C    2.527676   3.831289   3.817064   1.516515   2.548950
     8  C    3.350195   4.678380   4.597274   2.566385   3.461114
     9  C    3.953541   4.457647   4.914171   3.033389   3.369523
    10  O    4.815392   4.750558   5.734514   3.623115   3.587292
    11  C    5.839537   5.243692   6.544023   4.694810   4.332237
    12  O    3.668477   4.235782   4.811919   2.432426   2.870499
    13  C    4.711043   6.093189   6.031059   3.919889   4.790795
    14  O    4.183673   4.604558   4.913289   3.566956   3.816896
    15  C    5.721605   4.426562   6.133980   4.613974   3.833779
    16  H    1.088090   3.875612   2.144647   2.168759   3.407200
    17  H    3.874660   1.086956   3.396908   3.415507   2.155055
    18  H    2.155965   3.396400   1.087046   3.415649   3.873499
    19  H    3.406479   2.145183   3.874586   2.167411   1.088336
    20  H    3.401697   2.153088   2.153494   3.896793   3.400592
    21  H    2.625356   4.505563   3.993285   2.114961   3.353686
    22  H    3.125643   4.921151   4.335995   2.815054   3.897856
    23  H    6.724329   6.075207   7.485882   5.493247   5.106893
    24  H    6.217913   5.825216   6.895446   5.233762   5.004776
    25  H    3.608193   3.920411   4.601035   2.442889   2.685392
    26  H    5.428189   6.794320   6.691929   4.730784   5.554598
    27  H    4.819946   6.569706   6.201445   4.223279   5.285926
    28  H    5.273962   6.272611   6.566476   4.258879   4.903352
    29  H    5.648846   4.112910   6.057432   4.430454   3.481666
    30  H    6.722586   5.231759   7.028115   5.666399   4.812599
    31  H    5.021723   3.692315   5.287084   4.090764   3.300284
                    6          7          8          9         10
     6  C    0.000000
     7  C    4.326313   0.000000
     8  C    5.144993   1.535707   0.000000
     9  C    5.126184   2.549212   1.514903   0.000000
    10  O    5.708153   3.034165   2.389048   1.359712   0.000000
    11  C    6.287660   4.380733   3.715938   2.371035   1.434632
    12  O    5.039576   1.427741   2.458582   3.137531   2.977418
    13  C    6.621313   2.550028   1.529044   2.493305   2.883730
    14  O    5.099183   3.467176   2.412620   1.226118   2.291088
    15  C    5.573970   4.757776   4.471561   3.145804   2.426351
    16  H    3.394198   2.736932   3.375905   4.277482   5.272929
    17  H    2.152885   4.702455   5.497191   5.067483   5.146262
    18  H    2.152314   4.682823   5.375605   5.772204   6.698889
    19  H    3.393926   2.769639   3.566140   3.256086   3.048817
    20  H    1.086826   5.413102   6.195660   6.090936   6.657899
    21  H    4.759145   1.098542   2.136163   3.461699   4.032445
    22  H    5.101933   2.144615   1.099469   2.095347   3.280061
    23  H    7.203878   5.008289   4.391325   3.227197   2.042307
    24  H    6.722864   4.931582   3.984424   2.541534   2.097531
    25  H    4.727018   1.948971   3.276654   3.909029   3.736161
    26  H    7.289298   3.499423   2.172464   2.701569   3.166192
    27  H    6.958527   2.796863   2.172466   3.449583   3.915898
    28  H    6.991786   2.846966   2.189884   2.809195   2.654613
    29  H    5.404474   4.597677   4.639930   3.558170   2.667715
    30  H    6.364036   5.849438   5.497349   4.103154   3.375207
    31  H    4.709175   4.515076   4.268482   2.960575   2.720119
                   11         12         13         14         15
    11  C    0.000000
    12  O    4.275219   0.000000
    13  C    4.187729   2.912123   0.000000
    14  O    2.702737   4.259364   3.444569   0.000000
    15  C    1.516680   4.638834   5.282191   3.266073   0.000000
    16  H    6.406629   4.013201   4.556784   4.508760   6.495791
    17  H    5.390857   4.889004   6.864353   5.175302   4.315026
    18  H    7.508565   5.761277   6.767581   5.660297   7.123536
    19  H    3.681871   2.599722   4.699135   3.876758   3.141927
    20  H    7.107267   6.096916   7.686369   5.945340   6.250357
    21  H    5.418758   2.002330   2.778025   4.310285   5.855159
    22  H    4.458427   3.371572   2.130489   2.476145   5.152253
    23  H    1.094973   4.631826   4.550464   3.710055   2.147367
    24  H    1.096111   5.062573   4.415268   2.445547   2.171675
    25  H    4.919295   0.973255   3.849084   4.945668   5.027964
    26  H    4.234370   3.940852   1.095680   3.381441   5.495458
    27  H    5.260373   3.208932   1.094944   4.338888   6.291582
    28  H    3.915342   2.645924   1.095172   3.922240   5.049663
    29  H    2.159826   4.215077   5.430077   3.951957   1.094763
    30  H    2.161220   5.701950   6.238640   4.051184   1.093669
    31  H    2.166191   4.684961   5.337856   2.806021   1.094382
                   16         17         18         19         20
    16  H    0.000000
    17  H    4.962508   0.000000
    18  H    2.464708   4.294175   0.000000
    19  H    4.319073   2.464804   4.961579   0.000000
    20  H    4.288609   2.480066   2.479273   4.288590   0.000000
    21  H    2.449326   5.453562   4.690054   3.712827   5.823994
    22  H    2.902133   5.832675   4.938931   4.253844   6.103570
    23  H    7.271731   6.148729   8.479185   4.310189   8.031814
    24  H    6.697106   6.017481   7.776904   4.519344   7.502534
    25  H    4.061252   4.529309   5.553821   2.470296   5.738060
    26  H    5.229039   7.538115   7.375108   5.456731   8.321389
    27  H    4.456414   7.423839   6.838073   5.315498   8.029934
    28  H    5.268630   6.929364   7.399732   4.579425   8.062556
    29  H    6.489658   3.903607   7.103965   2.583399   6.093950
    30  H    7.515012   4.955648   7.987121   4.122927   6.925106
    31  H    5.832372   3.642456   6.227562   2.888159   5.338109
                   21         22         23         24         25
    21  H    0.000000
    22  H    2.404408   0.000000
    23  H    6.003973   5.238722   0.000000
    24  H    5.918603   4.520074   1.760773   0.000000
    25  H    2.326633   4.074808   5.276760   5.774044   0.000000
    26  H    3.761078   2.466875   4.573004   4.202291   4.893264
    27  H    2.577036   2.468265   5.606618   5.504071   4.032317
    28  H    3.203631   3.065271   4.040656   4.327328   3.595769
    29  H    5.678931   5.442094   2.497333   3.078998   4.445795
    30  H    6.946189   6.136597   2.488444   2.512497   6.071483
    31  H    5.592254   4.765754   3.065782   2.538846   5.019847
                   26         27         28         29         30
    26  H    0.000000
    27  H    1.771865   0.000000
    28  H    1.764180   1.772409   0.000000
    29  H    5.830310   6.364108   5.061533   0.000000
    30  H    6.346612   7.278682   5.974373   1.778724   0.000000
    31  H    5.569619   6.294041   5.313683   1.760230   1.776564
                   31
    31  H    0.000000
 Stoichiometry    C12H16O3
 Framework group  C1[X(C12H16O3)]
 Deg. of freedom    87
 Full point group                 C1      NOp   1
 Largest Abelian subgroup         C1      NOp   1
 Largest concise Abelian subgroup C1      NOp   1
                         Standard orientation:                         
 ---------------------------------------------------------------------
 Center     Atomic      Atomic             Coordinates (Angstroms)
 Number     Number       Type             X           Y           Z
 ---------------------------------------------------------------------
      1          6           0        2.389012   -1.030736   -0.539124
      2          6           0        2.460223    1.537816    0.542048
      3          6           0        3.463699   -0.183712   -0.816273
      4          6           0        1.338053   -0.605807    0.288306
      5          6           0        1.385767    0.691781    0.820834
      6          6           0        3.499439    1.099243   -0.274857
      7          6           0        0.171970   -1.534990    0.565230
      8          6           0       -0.925896   -1.514725   -0.508397
      9          6           0       -1.450107   -0.124793   -0.805422
     10          8           0       -2.142257    0.400235    0.240566
     11          6           0       -2.754920    1.677487    0.013759
     12          8           0       -0.355780   -1.331366    1.876131
     13          6           0       -2.087973   -2.452295   -0.178981
     14          8           0       -1.291970    0.431320   -1.886670
     15          6           0       -1.776932    2.797880    0.311383
     16          1           0        2.377743   -2.025929   -0.978902
     17          1           0        2.481876    2.542268    0.956873
     18          1           0        4.270978   -0.523044   -1.460339
     19          1           0        0.577553    1.057558    1.451288
     20          1           0        4.333583    1.760016   -0.495707
     21          1           0        0.577864   -2.555342    0.595694
     22          1           0       -0.481472   -1.867347   -1.450192
     23          1           0       -3.609483    1.746283    0.694902
     24          1           0       -3.151621    1.752519   -1.005289
     25          1           0        0.402428   -1.186578    2.468907
     26          1           0       -2.835053   -2.437757   -0.980339
     27          1           0       -1.733879   -3.482226   -0.066004
     28          1           0       -2.598376   -2.165480    0.746560
     29          1           0       -1.399388    2.716567    1.335762
     30          1           0       -2.256866    3.773120    0.190212
     31          1           0       -0.909846    2.750959   -0.354674
 ---------------------------------------------------------------------
 Rotational constants (GHZ):      0.8197342      0.4721845      0.3781406
 Standard basis: 6-31+G(d,p) (6D, 7F)
 There are   365 symmetry adapted basis functions of A   symmetry.
 Integral buffers will be    131072 words long.
 Raffenetti 2 integral format.
 Two-electron integral symmetry is turned on.
   365 basis functions,   592 primitive gaussians,   365 cartesian basis functions
    56 alpha electrons       56 beta electrons
       nuclear repulsion energy      1033.0840459770 Hartrees.
 NAtoms=   31 NActive=   31 NUniq=   31 SFac= 1.00D+00 NAtFMM=   60 NAOKFM=F Big=F
 Nuclear repulsion after empirical dispersion term =     1033.0616026997 Hartrees.
 ------------------------------------------------------------------------------
 Polarizable Continuum Model (PCM)
 =================================
 Model                : C-PCM.
 Atomic radii         : SMD-Coulomb.
 Polarization charges : Total charges.
 Charge compensation  : None.
 Solution method      : Matrix inversion.
 Cavity type          : VdW (van der Waals Surface) (Alpha=1.000).
 Cavity algorithm     : GePol (No added spheres)
                        Default sphere list used, NSphG=   31.
                        Lebedev-Laikov grids with approx.  5.0 points / Ang**2.
                        Smoothing algorithm: Karplus/York (Gamma=1.0000).
                        Polarization charges: spherical gaussians, with
                                              point-specific exponents (IZeta= 3).
                        Self-potential: point-specific (ISelfS= 7).
                        Self-field    : sphere-specific E.n sum rule (ISelfD= 2).
 Solvent              : Chloroform, Eps=   4.711300 Eps(inf)=   2.090627
 ------------------------------------------------------------------------------
 ------------------------------------------------------------------------------
 Atomic radii for non-electrostatic terms: SMD-CDS.
 ------------------------------------------------------------------------------
 Nuclear repulsion after PCM non-electrostatic terms =     1033.0550653911 Hartrees.
 One-electron integrals computed using PRISM.
 NBasis=   365 RedAO= T  NBF=   365
 NBsUse=   365 1.00D-06 NBFU=   365
 Harris functional with IExCor= 4639 diagonalized for initial guess.
 ExpMin= 4.38D-02 ExpMax= 5.48D+03 ExpMxC= 8.25D+02 IAcc=2 IRadAn=         4 AccDes= 0.00D+00
 HarFok:  IExCor= 4639 AccDes= 0.00D+00 IRadAn=         4 IDoV= 1
 ScaDFX=  1.000000  1.000000  1.000000  1.000000
 FoFCou: FMM=F IPFlag=           0 FMFlag=      100000 FMFlg1=           0
         NFxFlg=           0 DoJE=T BraDBF=F KetDBF=T FulRan=T
         Omega=  0.000000  0.000000  1.000000  0.000000  0.000000 ICntrl=     500 IOpCl=  0
         NMat0=    1 NMatS0=    1 NMatT0=    0 NMatD0=    1 NMtDS0=    0 NMtDT0=    0
         I1Cent=           4 NGrid=           0.
 Petite list used in FoFCou.
 Initial guess orbital symmetries:
       Occupied  (A) (A) (A) (A) (A) (A) (A) (A) (A) (A) (A) (A)
                 (A) (A) (A) (A) (A) (A) (A) (A) (A) (A) (A) (A)
                 (A) (A) (A) (A) (A) (A) (A) (A) (A) (A) (A) (A)
                 (A) (A) (A) (A) (A) (A) (A) (A) (A) (A) (A) (A)
                 (A) (A) (A) (A) (A) (A) (A) (A)
       Virtual   (A) (A) (A) (A) (A) (A) (A) (A) (A) (A) (A) (A)
                 (A) (A) (A) (A) (A) (A) (A) (A) (A) (A) (A) (A)
                 (A) (A) (A) (A) (A) (A) (A) (A) (A) (A) (A) (A)
                 (A) (A) (A) (A) (A) (A) (A) (A) (A) (A) (A) (A)
                 (A) (A) (A) (A) (A) (A) (A) (A) (A) (A) (A) (A)
                 (A) (A) (A) (A) (A) (A) (A) (A) (A) (A) (A) (A)
                 (A) (A) (A) (A) (A) (A) (A) (A) (A) (A) (A) (A)
                 (A) (A) (A) (A) (A) (A) (A) (A) (A) (A) (A) (A)
                 (A) (A) (A) (A) (A) (A) (A) (A) (A) (A) (A) (A)
                 (A) (A) (A) (A) (A) (A) (A) (A) (A) (A) (A) (A)
                 (A) (A) (A) (A) (A) (A) (A) (A) (A) (A) (A) (A)
                 (A) (A) (A) (A) (A) (A) (A) (A) (A) (A) (A) (A)
                 (A) (A) (A) (A) (A) (A) (A) (A) (A) (A) (A) (A)
                 (A) (A) (A) (A) (A) (A) (A) (A) (A) (A) (A) (A)
                 (A) (A) (A) (A) (A) (A) (A) (A) (A) (A) (A) (A)
                 (A) (A) (A) (A) (A) (A) (A) (A) (A) (A) (A) (A)
                 (A) (A) (A) (A) (A) (A) (A) (A) (A) (A) (A) (A)
                 (A) (A) (A) (A) (A) (A) (A) (A) (A) (A) (A) (A)
                 (A) (A) (A) (A) (A) (A) (A) (A) (A) (A) (A) (A)
                 (A) (A) (A) (A) (A) (A) (A) (A) (A) (A) (A) (A)
                 (A) (A) (A) (A) (A) (A) (A) (A) (A) (A) (A) (A)
                 (A) (A) (A) (A) (A) (A) (A) (A) (A) (A) (A) (A)
                 (A) (A) (A) (A) (A) (A) (A) (A) (A) (A) (A) (A)
                 (A) (A) (A) (A) (A) (A) (A) (A) (A) (A) (A) (A)
                 (A) (A) (A) (A) (A) (A) (A) (A) (A) (A) (A) (A)
                 (A) (A) (A) (A) (A) (A) (A) (A) (A)
 The electronic state of the initial guess is 1-A.
 Requested convergence on RMS density matrix=1.00D-08 within 128 cycles.
 Requested convergence on MAX density matrix=1.00D-06.
 Requested convergence on             energy=1.00D-06.
 No special actions if energy rises.
 FoFJK:  IHMeth= 1 ICntrl=     0 DoSepK=T KAlg= 1 I1Cent= 0 FoldK=F
 FoFJK:  IHMeth= 1 ICntrl=     0 DoSepK=T KAlg= 1 I1Cent= 0 FoldK=F
 FoFJK:  IHMeth= 1 ICntrl=     0 DoSepK=T KAlg= 1 I1Cent= 0 FoldK=F
 FoFJK:  IHMeth= 1 ICntrl=     0 DoSepK=T KAlg= 1 I1Cent= 0 FoldK=F
 FoFJK:  IHMeth= 1 ICntrl=     0 DoSepK=T KAlg= 1 I1Cent= 0 FoldK=F
 FoFJK:  IHMeth= 1 ICntrl=     0 DoSepK=T KAlg= 1 I1Cent= 0 FoldK=F
 FoFJK:  IHMeth= 1 ICntrl=     0 DoSepK=T KAlg= 1 I1Cent= 0 FoldK=F
 FoFJK:  IHMeth= 1 ICntrl=     0 DoSepK=T KAlg= 1 I1Cent= 0 FoldK=F
 FoFJK:  IHMeth= 1 ICntrl=     0 DoSepK=T KAlg= 1 I1Cent= 0 FoldK=F
 FoFJK:  IHMeth= 1 ICntrl=     0 DoSepK=T KAlg= 1 I1Cent= 0 FoldK=F
 FoFJK:  IHMeth= 1 ICntrl=     0 DoSepK=T KAlg= 1 I1Cent= 0 FoldK=F
 FoFJK:  IHMeth= 1 ICntrl=     0 DoSepK=T KAlg= 1 I1Cent= 0 FoldK=F
 FoFJK:  IHMeth= 1 ICntrl=     0 DoSepK=T KAlg= 1 I1Cent= 0 FoldK=F
 FoFJK:  IHMeth= 1 ICntrl=     0 DoSepK=T KAlg= 1 I1Cent= 0 FoldK=F
 FoFJK:  IHMeth= 1 ICntrl=     0 DoSepK=T KAlg= 1 I1Cent= 0 FoldK=F
 FoFJK:  IHMeth= 1 ICntrl=     0 DoSepK=T KAlg= 1 I1Cent= 0 FoldK=F
 Error on total polarization charges =  0.03926
 SCF Done:  E(RwB97XD) =  -692.442364548     A.U. after   16 cycles
             Convg  =    0.3986D-08             -V/T =  2.0095
 SMD-CDS (non-electrostatic) energy       (kcal/mol) =      -4.10
 (included in total energy above)
 Range of M.O.s used for correlation:     1   365
 NBasis=   365 NAE=    56 NBE=    56 NFC=     0 NFV=     0
 NROrb=    365 NOA=    56 NOB=    56 NVA=   309 NVB=   309

 **** Warning!!: The largest alpha MO coefficient is  0.13676440D+03

 NEqPCM:  Using equilibrium solvation (IEInf=0, Eps=   4.7113, EpsInf=   2.0906)
          Differentiating once with respect to magnetic field using GIAOs.
          Electric field/nuclear overlap derivatives assumed to be zero.
 FoFCou: FMM=F IPFlag=           0 FMFlag=    10101102 FMFlg1=           0
         NFxFlg=    40000000 DoJE=F BraDBF=F KetDBF=T FulRan=T
         Omega=  0.000000  0.000000  1.000000  0.000000  0.000000 ICntrl=    6100 IOpCl=  0
         NMat0=    1 NMatS0=    1 NMatT0=    0 NMatD0=    1 NMtDS0=    0 NMtDT0=    0
         I1Cent=           7 NGrid=        2224.
 Symmetry not used in FoFCou.
 FoFJK:  IHMeth= 1 ICntrl=  6127 DoSepK=T KAlg= 1 I1Cent= 0 FoldK=F
 FoFJK:  IHMeth= 1 ICntrl=     0 DoSepK=T KAlg= 1 I1Cent= 0 FoldK=F
          There are     3 degrees of freedom in the 1st order CPHF.  IDoFFX=0.
      3 vectors produced by pass  0 Test12= 5.77D-13 3.33D-08 XBig12= 1.36D+02 2.92D+00.
 AX will form     3 AO Fock derivatives at one time.
 FoFJK:  IHMeth= 1 ICntrl=     0 DoSepK=T KAlg= 1 I1Cent= 0 FoldK=F
      3 vectors produced by pass  1 Test12= 5.77D-13 3.33D-08 XBig12= 1.05D+00 2.68D-01.
 FoFJK:  IHMeth= 1 ICntrl=     0 DoSepK=T KAlg= 1 I1Cent= 0 FoldK=F
      3 vectors produced by pass  2 Test12= 5.77D-13 3.33D-08 XBig12= 1.70D-02 5.39D-02.
 FoFJK:  IHMeth= 1 ICntrl=     0 DoSepK=T KAlg= 1 I1Cent= 0 FoldK=F
      3 vectors produced by pass  3 Test12= 5.77D-13 3.33D-08 XBig12= 3.23D-04 5.41D-03.
 FoFJK:  IHMeth= 1 ICntrl=     0 DoSepK=T KAlg= 1 I1Cent= 0 FoldK=F
      3 vectors produced by pass  4 Test12= 5.77D-13 3.33D-08 XBig12= 5.72D-06 5.20D-04.
 FoFJK:  IHMeth= 1 ICntrl=     0 DoSepK=T KAlg= 1 I1Cent= 0 FoldK=F
      3 vectors produced by pass  5 Test12= 5.77D-13 3.33D-08 XBig12= 1.04D-07 9.40D-05.
 FoFJK:  IHMeth= 1 ICntrl=     0 DoSepK=T KAlg= 1 I1Cent= 0 FoldK=F
      3 vectors produced by pass  6 Test12= 5.77D-13 3.33D-08 XBig12= 1.46D-09 7.99D-06.
 FoFJK:  IHMeth= 1 ICntrl=     0 DoSepK=T KAlg= 1 I1Cent= 0 FoldK=F
      3 vectors produced by pass  7 Test12= 5.77D-13 3.33D-08 XBig12= 1.35D-11 8.47D-07.
 FoFJK:  IHMeth= 1 ICntrl=     0 DoSepK=T KAlg= 1 I1Cent= 0 FoldK=F
      3 vectors produced by pass  8 Test12= 5.77D-13 3.33D-08 XBig12= 1.41D-13 7.81D-08.
 FoFJK:  IHMeth= 1 ICntrl=     0 DoSepK=T KAlg= 1 I1Cent= 0 FoldK=F
 Inverted reduced A of dimension    27 with in-core refinement.
 Calculating GIAO nuclear magnetic shielding tensors.
 SCF GIAO Magnetic shielding tensor (ppm):
      1  C    Isotropic =    71.1646   Anisotropy =   164.9065
   XX=    82.5090   YX=   -22.2527   ZX=    50.4105
   XY=   -20.1871   YY=     4.8275   ZY=   -67.3488
   XZ=    36.2118   YZ=   -71.0753   ZZ=   126.1571
   Eigenvalues:   -26.5649    58.9563   181.1022
      2  C    Isotropic =    69.8839   Anisotropy =   178.0128
   XX=    86.9862   YX=   -21.2618   ZX=    52.4484
   XY=   -23.8523   YY=    -7.1716   ZY=   -69.3427
   XZ=    50.3807   YZ=   -65.7576   ZZ=   129.8371
   Eigenvalues:   -34.8922    55.9849   188.5591
      3  C    Isotropic =    70.3914   Anisotropy =   175.7434
   XX=    39.3635   YX=    -3.2163   ZX=    88.4965
   XY=    -1.5218   YY=    64.2937   ZY=   -53.3013
   XZ=    91.8036   YZ=   -55.2531   ZZ=   107.5172
   Eigenvalues:   -32.6028    56.2235   187.5537
      4  C    Isotropic =    52.2910   Anisotropy =   181.7633
   XX=    19.6870   YX=   -41.9110   ZX=    71.3623
   XY=   -46.1221   YY=    12.6402   ZY=   -39.4015
   XZ=    62.6758   YZ=   -30.3437   ZZ=   124.5458
   Eigenvalues:   -31.9707    15.3772   173.4665
      5  C    Isotropic =    73.6317   Anisotropy =   181.0756
   XX=    40.7794   YX=    -8.2578   ZX=    92.1841
   XY=    -0.3423   YY=    64.0410   ZY=   -57.5648
   XZ=    80.5849   YZ=   -61.9227   ZZ=   116.0749
   Eigenvalues:   -26.8138    53.3602   194.3488
      6  C    Isotropic =    71.6802   Anisotropy =   176.7848
   XX=    40.3566   YX=   -60.9111   ZX=    64.1178
   XY=   -65.3249   YY=    38.2297   ZY=   -26.0888
   XZ=    70.3927   YZ=   -23.5106   ZZ=   136.4544
   Eigenvalues:   -30.2881    55.7921   189.5368
      7  C    Isotropic =   121.6402   Anisotropy =    36.2409
   XX=   121.6723   YX=    -2.8904   ZX=   -21.8279
   XY=     1.2068   YY=   110.4549   ZY=     5.4222
   XZ=   -10.9564   YZ=     9.6916   ZZ=   132.7934
   Eigenvalues:   105.8895   113.2303   145.8008
      8  C    Isotropic =   146.0530   Anisotropy =    19.7173
   XX=   145.1425   YX=    -6.2594   ZX=    -2.1764
   XY=   -12.9844   YY=   152.5518   ZY=     2.2193
   XZ=     3.2294   YZ=     0.6071   ZZ=   140.4647
   Eigenvalues:   137.9280   141.0331   159.1979
      9  C    Isotropic =    19.9048   Anisotropy =   104.1108
   XX=    44.0631   YX=    60.7432   ZX=    34.8978
   XY=    51.8581   YY=    -4.6824   ZY=   -13.5233
   XZ=    53.2823   YZ=   -46.2772   ZZ=    20.3338
   Eigenvalues:   -69.4693    39.8718    89.3120
     10  O    Isotropic =   130.6063   Anisotropy =   180.7287
   XX=   204.7168   YX=    33.7492   ZX=    33.3736
   XY=    68.1391   YY=    66.1271   ZY=    69.8264
   XZ=   -32.1296   YZ=   187.9154   ZZ=   120.9749
   Eigenvalues:   -44.4718   185.1986   251.0921
     11  C    Isotropic =   137.1300   Anisotropy =    66.3995
   XX=   138.9618   YX=   -18.0372   ZX=     8.1785
   XY=   -20.8249   YY=   171.8533   ZY=    -5.5908
   XZ=     8.3538   YZ=    -1.1396   ZZ=   100.5748
   Eigenvalues:    98.8643   131.1293   181.3963
     12  O    Isotropic =   292.0657   Anisotropy =    78.0812
   XX=   299.9541   YX=    26.1284   ZX=    33.7952
   XY=    27.7512   YY=   258.0363   ZY=     1.4703
   XZ=    24.1555   YZ=     7.0375   ZZ=   318.2068
   Eigenvalues:   243.6113   288.4661   344.1199
     13  C    Isotropic =   180.2872   Anisotropy =    26.6537
   XX=   185.3243   YX=    11.0252   ZX=    -0.3850
   XY=     9.8656   YY=   189.1744   ZY=    -2.5413
   XZ=    -3.5697   YZ=    -0.4787   ZZ=   166.3630
   Eigenvalues:   166.1483   176.6570   198.0564
     14  O    Isotropic =   -53.1570   Anisotropy =   532.3833
   XX=   141.7973   YX=   164.8193   ZX=   189.3144
   XY=   155.9404   YY=   -73.0188   ZY=    68.6172
   XZ=   190.0854   YZ=    62.0026   ZZ=  -228.2496
   Eigenvalues:  -308.2412  -152.9950   301.7652
     15  C    Isotropic =   180.4285   Anisotropy =    22.3342
   XX=   183.9765   YX=     6.1927   ZX=     8.0709
   XY=     2.0615   YY=   192.9498   ZY=     2.1524
   XZ=     7.2470   YZ=     1.7267   ZZ=   164.3593
   Eigenvalues:   161.7154   184.2522   195.3180
     16  H    Isotropic =    23.7959   Anisotropy =     8.1224
   XX=    27.8808   YX=     0.4064   ZX=    -3.4988
   XY=     0.7600   YY=    22.2947   ZY=     0.4759
   XZ=    -2.9552   YZ=     0.2313   ZZ=    21.2121
   Eigenvalues:    19.7863    22.3905    29.2108
     17  H    Isotropic =    23.7939   Anisotropy =     5.7353
   XX=    26.4329   YX=     1.7524   ZX=    -1.9886
   XY=     1.6266   YY=    23.0646   ZY=     0.7592
   XZ=    -2.0420   YZ=     0.5451   ZZ=    21.8842
   Eigenvalues:    20.4864    23.2779    27.6174
     18  H    Isotropic =    23.7420   Anisotropy =     4.6296
   XX=    24.4901   YX=     1.7930   ZX=    -1.3809
   XY=     1.8139   YY=    25.4374   ZY=     1.0898
   XZ=    -1.4278   YZ=     1.0664   ZZ=    21.2985
   Eigenvalues:    20.2126    24.1851    26.8284
     19  H    Isotropic =    23.4555   Anisotropy =     7.8993
   XX=    24.1107   YX=     3.4315   ZX=     1.5701
   XY=     2.8954   YY=    26.2321   ZY=     0.8038
   XZ=     0.5317   YZ=     1.0404   ZZ=    20.0236
   Eigenvalues:    19.7636    21.8812    28.7217
     20  H    Isotropic =    23.8032   Anisotropy =     4.2442
   XX=    24.4854   YX=     0.0957   ZX=    -2.1197
   XY=    -0.1135   YY=    24.6830   ZY=     2.1812
   XZ=    -1.8351   YZ=     2.2795   ZZ=    22.2410
   Eigenvalues:    20.2158    24.5611    26.6326
     21  H    Isotropic =    26.5324   Anisotropy =     7.6850
   XX=    26.4055   YX=    -4.0905   ZX=    -2.1465
   XY=    -2.6618   YY=    28.0980   ZY=     0.5859
   XZ=    -3.5368   YZ=     1.0387   ZZ=    25.0939
   Eigenvalues:    22.3231    25.6185    31.6558
     22  H    Isotropic =    28.6941   Anisotropy =     5.4833
   XX=    28.5192   YX=     1.5416   ZX=    -3.3495
   XY=    -0.7360   YY=    26.8031   ZY=     2.3415
   XZ=    -0.5981   YZ=     1.6243   ZZ=    30.7599
   Eigenvalues:    25.4862    28.2464    32.3496
     23  H    Isotropic =    27.6419   Anisotropy =     8.4514
   XX=    31.8893   YX=    -1.1491   ZX=    -4.1601
   XY=    -1.8112   YY=    27.8524   ZY=     0.9738
   XZ=    -1.8496   YZ=     0.0331   ZZ=    23.1839
   Eigenvalues:    22.2472    27.4024    33.2761
     24  H    Isotropic =    27.0575   Anisotropy =     7.2902
   XX=    28.0461   YX=    -2.5347   ZX=     4.1752
   XY=    -2.0781   YY=    27.2307   ZY=    -1.0991
   XZ=     3.5479   YZ=     0.3373   ZZ=    25.8957
   Eigenvalues:    22.6680    26.5869    31.9176
     25  H    Isotropic =    29.9436   Anisotropy =    15.6667
   XX=    31.4355   YX=     1.2073   ZX=     6.9117
   XY=     3.4494   YY=    22.8379   ZY=     1.4476
   XZ=     5.5802   YZ=     0.9657   ZZ=    35.5574
   Eigenvalues:    22.2334    27.2093    40.3881
     26  H    Isotropic =    30.4322   Anisotropy =     9.9270
   XX=    32.8857   YX=     2.9585   ZX=     4.6787
   XY=     2.6849   YY=    28.7693   ZY=     0.9488
   XZ=     4.2078   YZ=     1.2745   ZZ=    29.6418
   Eigenvalues:    26.2308    28.0157    37.0503
     27  H    Isotropic =    30.3696   Anisotropy =    10.5975
   XX=    27.8037   YX=     0.9502   ZX=    -0.2830
   XY=    -0.1719   YY=    37.4141   ZY=    -0.4972
   XZ=     0.3954   YZ=     0.0213   ZZ=    25.8910
   Eigenvalues:    25.8840    27.7902    37.4346
     28  H    Isotropic =    29.7013   Anisotropy =     6.2962
   XX=    30.4459   YX=     1.4123   ZX=    -4.1116
   XY=     1.4697   YY=    28.3291   ZY=     0.5231
   XZ=    -2.8975   YZ=     1.8982   ZZ=    30.3289
   Eigenvalues:    25.5961    29.6090    33.8988
     29  H    Isotropic =    30.2156   Anisotropy =     6.5331
   XX=    28.8562   YX=    -0.0236   ZX=     3.2167
   XY=     0.3041   YY=    29.4714   ZY=     2.3898
   XZ=     2.8397   YZ=     1.0937   ZZ=    32.3193
   Eigenvalues:    26.8506    29.2252    34.5710
     30  H    Isotropic =    30.5790   Anisotropy =    11.7563
   XX=    28.1701   YX=    -2.4738   ZX=     0.3612
   XY=    -3.3109   YY=    37.5840   ZY=    -0.1826
   XZ=     0.7920   YZ=    -0.3852   ZZ=    25.9829
   Eigenvalues:    25.8194    27.5011    38.4165
     31  H    Isotropic =    30.3678   Anisotropy =     5.8111
   XX=    33.1045   YX=     0.9934   ZX=    -4.0050
   XY=     0.5211   YY=    30.4708   ZY=     0.3159
   XZ=    -1.1403   YZ=    -0.3102   ZZ=    27.5281
   Eigenvalues:    26.5027    30.3588    34.2419
 End of Minotr Frequency-dependent properties file   721 does not exist.
 End of Minotr Frequency-dependent properties file   722 does not exist.

 **********************************************************************

            Population analysis using the SCF density.

 **********************************************************************

 Orbital symmetries:
       Occupied  (A) (A) (A) (A) (A) (A) (A) (A) (A) (A) (A) (A)
                 (A) (A) (A) (A) (A) (A) (A) (A) (A) (A) (A) (A)
                 (A) (A) (A) (A) (A) (A) (A) (A) (A) (A) (A) (A)
                 (A) (A) (A) (A) (A) (A) (A) (A) (A) (A) (A) (A)
                 (A) (A) (A) (A) (A) (A) (A) (A)
       Virtual   (A) (A) (A) (A) (A) (A) (A) (A) (A) (A) (A) (A)
                 (A) (A) (A) (A) (A) (A) (A) (A) (A) (A) (A) (A)
                 (A) (A) (A) (A) (A) (A) (A) (A) (A) (A) (A) (A)
                 (A) (A) (A) (A) (A) (A) (A) (A) (A) (A) (A) (A)
                 (A) (A) (A) (A) (A) (A) (A) (A) (A) (A) (A) (A)
                 (A) (A) (A) (A) (A) (A) (A) (A) (A) (A) (A) (A)
                 (A) (A) (A) (A) (A) (A) (A) (A) (A) (A) (A) (A)
                 (A) (A) (A) (A) (A) (A) (A) (A) (A) (A) (A) (A)
                 (A) (A) (A) (A) (A) (A) (A) (A) (A) (A) (A) (A)
                 (A) (A) (A) (A) (A) (A) (A) (A) (A) (A) (A) (A)
                 (A) (A) (A) (A) (A) (A) (A) (A) (A) (A) (A) (A)
                 (A) (A) (A) (A) (A) (A) (A) (A) (A) (A) (A) (A)
                 (A) (A) (A) (A) (A) (A) (A) (A) (A) (A) (A) (A)
                 (A) (A) (A) (A) (A) (A) (A) (A) (A) (A) (A) (A)
                 (A) (A) (A) (A) (A) (A) (A) (A) (A) (A) (A) (A)
                 (A) (A) (A) (A) (A) (A) (A) (A) (A) (A) (A) (A)
                 (A) (A) (A) (A) (A) (A) (A) (A) (A) (A) (A) (A)
                 (A) (A) (A) (A) (A) (A) (A) (A) (A) (A) (A) (A)
                 (A) (A) (A) (A) (A) (A) (A) (A) (A) (A) (A) (A)
                 (A) (A) (A) (A) (A) (A) (A) (A) (A) (A) (A) (A)
                 (A) (A) (A) (A) (A) (A) (A) (A) (A) (A) (A) (A)
                 (A) (A) (A) (A) (A) (A) (A) (A) (A) (A) (A) (A)
                 (A) (A) (A) (A) (A) (A) (A) (A) (A) (A) (A) (A)
                 (A) (A) (A) (A) (A) (A) (A) (A) (A) (A) (A) (A)
                 (A) (A) (A) (A) (A) (A) (A) (A) (A) (A) (A) (A)
                 (A) (A) (A) (A) (A) (A) (A) (A) (A)
 The electronic state is 1-A.
 Alpha  occ. eigenvalues --  -19.32377 -19.28012 -19.27162 -10.43675 -10.36190
 Alpha  occ. eigenvalues --  -10.34829 -10.31990 -10.31689 -10.30851 -10.30756
 Alpha  occ. eigenvalues --  -10.30747 -10.30699 -10.30564 -10.28934 -10.28479
 Alpha  occ. eigenvalues --   -1.20623  -1.12969  -1.12006  -0.96313  -0.91362
 Alpha  occ. eigenvalues --   -0.86614  -0.85191  -0.84827  -0.77718  -0.75920
 Alpha  occ. eigenvalues --   -0.71149  -0.70168  -0.68405  -0.64540  -0.62205
 Alpha  occ. eigenvalues --   -0.60208  -0.57718  -0.57203  -0.56043  -0.55005
 Alpha  occ. eigenvalues --   -0.53364  -0.52512  -0.51895  -0.50623  -0.50475
 Alpha  occ. eigenvalues --   -0.49456  -0.47307  -0.46527  -0.46131  -0.45436
 Alpha  occ. eigenvalues --   -0.45386  -0.44468  -0.43020  -0.42360  -0.41471
 Alpha  occ. eigenvalues --   -0.40412  -0.38471  -0.37066  -0.35644  -0.33377
 Alpha  occ. eigenvalues --   -0.32354
 Alpha virt. eigenvalues --    0.04889   0.05094   0.06525   0.07163   0.07542
 Alpha virt. eigenvalues --    0.08401   0.08668   0.09505   0.09529   0.10213
 Alpha virt. eigenvalues --    0.10684   0.11374   0.11652   0.12509   0.13100
 Alpha virt. eigenvalues --    0.13383   0.14065   0.14094   0.14700   0.14964
 Alpha virt. eigenvalues --    0.15410   0.16871   0.17264   0.18044   0.18393
 Alpha virt. eigenvalues --    0.18554   0.19018   0.19465   0.19726   0.20558
 Alpha virt. eigenvalues --    0.20831   0.21803   0.22110   0.22879   0.23021
 Alpha virt. eigenvalues --    0.23309   0.23722   0.24234   0.24525   0.24889
 Alpha virt. eigenvalues --    0.25181   0.25996   0.26084   0.26439   0.26665
 Alpha virt. eigenvalues --    0.26861   0.27564   0.27994   0.28768   0.29359
 Alpha virt. eigenvalues --    0.29417   0.30150   0.30345   0.30588   0.31737
 Alpha virt. eigenvalues --    0.32259   0.32494   0.32730   0.33109   0.33298
 Alpha virt. eigenvalues --    0.34077   0.34475   0.35216   0.35805   0.36455
 Alpha virt. eigenvalues --    0.37127   0.37640   0.38150   0.38490   0.39336
 Alpha virt. eigenvalues --    0.39838   0.40766   0.41111   0.41849   0.42075
 Alpha virt. eigenvalues --    0.42526   0.42924   0.43849   0.44407   0.44813
 Alpha virt. eigenvalues --    0.45262   0.46249   0.46966   0.48165   0.48499
 Alpha virt. eigenvalues --    0.49302   0.50101   0.51808   0.52781   0.53936
 Alpha virt. eigenvalues --    0.54718   0.57871   0.61634   0.66198   0.70231
 Alpha virt. eigenvalues --    0.73480   0.75255   0.75532   0.76280   0.77448
 Alpha virt. eigenvalues --    0.77857   0.78876   0.79589   0.80403   0.81061
 Alpha virt. eigenvalues --    0.82495   0.82923   0.83270   0.83691   0.84289
 Alpha virt. eigenvalues --    0.85822   0.86488   0.87388   0.89606   0.91070
 Alpha virt. eigenvalues --    0.91366   0.92174   0.93786   0.96299   0.96750
 Alpha virt. eigenvalues --    0.97821   0.99622   0.99734   1.00963   1.01292
 Alpha virt. eigenvalues --    1.03287   1.04652   1.05461   1.06357   1.07892
 Alpha virt. eigenvalues --    1.08967   1.09378   1.11011   1.11573   1.12448
 Alpha virt. eigenvalues --    1.13090   1.15682   1.17869   1.18423   1.18560
 Alpha virt. eigenvalues --    1.20348   1.21988   1.22901   1.23783   1.24982
 Alpha virt. eigenvalues --    1.25818   1.27501   1.28124   1.29280   1.31960
 Alpha virt. eigenvalues --    1.32324   1.33974   1.35211   1.37703   1.38394
 Alpha virt. eigenvalues --    1.41034   1.42316   1.43407   1.44402   1.45422
 Alpha virt. eigenvalues --    1.47142   1.48057   1.49229   1.49723   1.50198
 Alpha virt. eigenvalues --    1.50768   1.52287   1.53441   1.54772   1.56634
 Alpha virt. eigenvalues --    1.59497   1.60627   1.62218   1.64235   1.66956
 Alpha virt. eigenvalues --    1.67807   1.69617   1.74215   1.76898   1.77481
 Alpha virt. eigenvalues --    1.78267   1.82005   1.83894   1.86846   1.89034
 Alpha virt. eigenvalues --    1.90925   1.91304   1.93193   1.94991   1.95743
 Alpha virt. eigenvalues --    1.96068   1.97981   1.98439   2.01163   2.01783
 Alpha virt. eigenvalues --    2.02752   2.03440   2.05182   2.05398   2.06697
 Alpha virt. eigenvalues --    2.07662   2.09633   2.10069   2.10524   2.11821
 Alpha virt. eigenvalues --    2.12874   2.15309   2.15878   2.17596   2.18692
 Alpha virt. eigenvalues --    2.19332   2.21042   2.21813   2.24009   2.24139
 Alpha virt. eigenvalues --    2.25220   2.27606   2.28061   2.30283   2.31995
 Alpha virt. eigenvalues --    2.32353   2.35187   2.37270   2.39159   2.39380
 Alpha virt. eigenvalues --    2.42186   2.43357   2.45690   2.47785   2.48343
 Alpha virt. eigenvalues --    2.49361   2.50595   2.51535   2.52555   2.55182
 Alpha virt. eigenvalues --    2.55727   2.56896   2.58035   2.58899   2.60038
 Alpha virt. eigenvalues --    2.61591   2.63656   2.64767   2.67640   2.68589
 Alpha virt. eigenvalues --    2.68994   2.70531   2.72532   2.73402   2.75290
 Alpha virt. eigenvalues --    2.77339   2.78440   2.80659   2.81385   2.82836
 Alpha virt. eigenvalues --    2.83844   2.85369   2.86781   2.88349   2.89590
 Alpha virt. eigenvalues --    2.90302   2.92177   2.94764   2.97002   2.97848
 Alpha virt. eigenvalues --    2.99484   3.00923   3.02146   3.07306   3.10835
 Alpha virt. eigenvalues --    3.13462   3.14955   3.17104   3.18335   3.25247
 Alpha virt. eigenvalues --    3.28277   3.31032   3.36875   3.37293   3.38775
 Alpha virt. eigenvalues --    3.39172   3.43962   3.45311   3.50643   3.52644
 Alpha virt. eigenvalues --    3.54123   3.58232   3.60030   3.60434   3.62818
 Alpha virt. eigenvalues --    3.65373   3.66992   3.68476   3.99576   4.41396
 Alpha virt. eigenvalues --    4.42824   4.43502   4.52020   4.54323   4.56139
 Alpha virt. eigenvalues --    4.57759   4.62609   4.64589   4.65640   4.70740
 Alpha virt. eigenvalues --    4.82386   4.86985   4.96261   4.99320
          Condensed to atoms (all electrons):
              1          2          3          4          5          6
     1  C   17.278500  -1.020155  -0.653555  -5.998464  -8.229394   0.531092
     2  C   -1.020155   8.102321   0.291119  -0.546980  -0.095676   0.797730
     3  C   -0.653555   0.291119   6.364030   0.036111   0.031574   0.422902
     4  C   -5.998464  -0.546980   0.036111  17.059237   0.684137  -0.967918
     5  C   -8.229394  -0.095676   0.031574   0.684137  16.453157  -0.349684
     6  C    0.531092   0.797730   0.422902  -0.967918  -0.349684   5.443505
     7  C    4.592475  -1.900706  -0.644541  -5.075773  -3.318939  -0.011020
     8  C   -0.686720   0.443140   0.080342   0.892790   0.755853  -0.027340
     9  C   -0.095900  -0.262019  -0.008610   0.149262  -0.089247   0.007448
    10  O   -0.063970   0.015443  -0.001260  -0.083581   0.128141   0.001542
    11  C   -0.061065   0.051059   0.007775   0.014692   0.097653   0.001732
    12  O   -0.126839   0.171223   0.007956   0.093895   0.187420   0.007474
    13  C    0.087853  -0.063779  -0.015833  -0.296033  -0.196870  -0.005909
    14  O   -0.086714   0.035803   0.009690   0.129737   0.009410  -0.002047
    15  C   -0.011983  -0.010768  -0.000624  -0.070191   0.070058   0.001321
    16  H    0.136200   0.006387   0.066057   0.096866   0.023394  -0.012025
    17  H    0.006578   0.255151  -0.008114   0.027020   0.033215   0.014473
    18  H    0.015012  -0.001997   0.276682   0.022768  -0.000930   0.019011
    19  H    0.038061  -0.044569  -0.003145   0.109467   0.241324  -0.002965
    20  H   -0.005780   0.028953   0.024886   0.007301  -0.000780   0.270047
    21  H    0.074269   0.027183   0.052239   0.142775  -0.022307   0.001666
    22  H   -0.013607  -0.003652  -0.006989   0.009594   0.009412   0.000607
    23  H   -0.000552   0.000921  -0.000038  -0.006294   0.005252   0.000095
    24  H    0.002927  -0.001606   0.000018   0.004435  -0.007964  -0.000108
    25  H    0.066005  -0.007371  -0.002470  -0.047722  -0.070567   0.001953
    26  H    0.001367  -0.000456   0.000018  -0.011456  -0.003826   0.000025
    27  H    0.016793   0.000128   0.001207  -0.008639  -0.009076   0.000038
    28  H    0.000884   0.000032  -0.000049   0.003289  -0.001360  -0.000032
    29  H    0.003395  -0.006160  -0.000004   0.017498  -0.017963  -0.000272
    30  H    0.000188  -0.000341   0.000022   0.002720  -0.001900  -0.000479
    31  H   -0.000564  -0.003038  -0.000427  -0.017975   0.024314   0.000267
              7          8          9         10         11         12
     1  C    4.592475  -0.686720  -0.095900  -0.063970  -0.061065  -0.126839
     2  C   -1.900706   0.443140  -0.262019   0.015443   0.051059   0.171223
     3  C   -0.644541   0.080342  -0.008610  -0.001260   0.007775   0.007956
     4  C   -5.075773   0.892790   0.149262  -0.083581   0.014692   0.093895
     5  C   -3.318939   0.755853  -0.089247   0.128141   0.097653   0.187420
     6  C   -0.011020  -0.027340   0.007448   0.001542   0.001732   0.007474
     7  C   13.595381  -2.443726   0.643004   0.034325  -0.172171  -0.179194
     8  C   -2.443726   9.405320  -1.569691  -0.482481   0.011822  -0.095647
     9  C    0.643004  -1.569691   6.491643   0.402305  -0.211075  -0.075340
    10  O    0.034325  -0.482481   0.402305   8.408848   0.089048   0.007453
    11  C   -0.172171   0.011822  -0.211075   0.089048   5.160405   0.019164
    12  O   -0.179194  -0.095647  -0.075340   0.007453   0.019164   8.343167
    13  C    0.653164  -0.664927  -0.001756   0.034684  -0.011865   0.012780
    14  O   -0.146417  -0.070390   0.691130  -0.158011  -0.002397   0.005061
    15  C    0.018796  -0.011877  -0.022739  -0.037493   0.304197  -0.004334
    16  H   -0.024692   0.016546   0.001369  -0.000009   0.000041   0.000543
    17  H   -0.003827  -0.001108   0.002022  -0.000069  -0.000343   0.000118
    18  H   -0.003682  -0.000699   0.000684   0.000001   0.000004   0.000017
    19  H   -0.023824  -0.008452   0.011079  -0.000543  -0.003156   0.005253
    20  H    0.002293  -0.000083  -0.000221   0.000001   0.000016  -0.000004
    21  H   -0.017538   0.104904  -0.017173  -0.000200   0.001355  -0.055003
    22  H    0.009380   0.311187  -0.039039   0.011574   0.003224   0.007089
    23  H    0.002108  -0.000520   0.006477  -0.064345   0.425644  -0.000176
    24  H    0.005545   0.008491   0.007847  -0.040882   0.390940  -0.000213
    25  H    0.051727   0.049181  -0.013318  -0.001440  -0.001107   0.229171
    26  H    0.049051  -0.148840   0.044593  -0.003987  -0.003580  -0.000400
    27  H    0.003489  -0.053251  -0.019307  -0.000126  -0.000272  -0.000762
    28  H   -0.004727  -0.070186  -0.025523   0.006628   0.002369   0.003611
    29  H    0.004844   0.002092   0.012791  -0.005313  -0.052843  -0.000409
    30  H   -0.000154   0.001606   0.006347   0.006661  -0.044379   0.000003
    31  H   -0.000479   0.000123  -0.007713  -0.005343  -0.036149  -0.000015
             13         14         15         16         17         18
     1  C    0.087853  -0.086714  -0.011983   0.136200   0.006578   0.015012
     2  C   -0.063779   0.035803  -0.010768   0.006387   0.255151  -0.001997
     3  C   -0.015833   0.009690  -0.000624   0.066057  -0.008114   0.276682
     4  C   -0.296033   0.129737  -0.070191   0.096866   0.027020   0.022768
     5  C   -0.196870   0.009410   0.070058   0.023394   0.033215  -0.000930
     6  C   -0.005909  -0.002047   0.001321  -0.012025   0.014473   0.019011
     7  C    0.653164  -0.146417   0.018796  -0.024692  -0.003827  -0.003682
     8  C   -0.664927  -0.070390  -0.011877   0.016546  -0.001108  -0.000699
     9  C   -0.001756   0.691130  -0.022739   0.001369   0.002022   0.000684
    10  O    0.034684  -0.158011  -0.037493  -0.000009  -0.000069   0.000001
    11  C   -0.011865  -0.002397   0.304197   0.000041  -0.000343   0.000004
    12  O    0.012780   0.005061  -0.004334   0.000543   0.000118   0.000017
    13  C    5.938931  -0.043634   0.006236   0.006519  -0.000011   0.000002
    14  O   -0.043634   8.110882  -0.031785  -0.000127  -0.000064  -0.000013
    15  C    0.006236  -0.031785   5.167610   0.000007   0.000923   0.000001
    16  H    0.006519  -0.000127   0.000007   0.508767   0.000011  -0.003929
    17  H   -0.000011  -0.000064   0.000923   0.000011   0.498853  -0.000123
    18  H    0.000002  -0.000013   0.000001  -0.003929  -0.000123   0.495299
    19  H   -0.001340  -0.000447   0.000071  -0.000114  -0.004048   0.000012
    20  H   -0.000009   0.000006  -0.000045  -0.000120  -0.003887  -0.003835
    21  H   -0.052656   0.000424  -0.000426   0.001691   0.000002  -0.000002
    22  H   -0.000420  -0.004380  -0.000871  -0.000085   0.000000   0.000001
    23  H   -0.000890   0.000359  -0.038422   0.000000   0.000000   0.000000
    24  H   -0.002512  -0.001450  -0.034123   0.000000   0.000000   0.000000
    25  H   -0.003133   0.000050   0.001066   0.000024   0.000001   0.000000
    26  H    0.436775  -0.000237   0.000455   0.000001   0.000000   0.000000
    27  H    0.427771   0.000063  -0.000070   0.000001   0.000000   0.000000
    28  H    0.445811   0.000046  -0.000812   0.000000   0.000000   0.000000
    29  H    0.000487  -0.001067   0.405701   0.000000   0.000001   0.000000
    30  H   -0.000230  -0.000119   0.392737   0.000000   0.000001   0.000000
    31  H   -0.000233   0.001666   0.409834   0.000000  -0.000013   0.000000
             19         20         21         22         23         24
     1  C    0.038061  -0.005780   0.074269  -0.013607  -0.000552   0.002927
     2  C   -0.044569   0.028953   0.027183  -0.003652   0.000921  -0.001606
     3  C   -0.003145   0.024886   0.052239  -0.006989  -0.000038   0.000018
     4  C    0.109467   0.007301   0.142775   0.009594  -0.006294   0.004435
     5  C    0.241324  -0.000780  -0.022307   0.009412   0.005252  -0.007964
     6  C   -0.002965   0.270047   0.001666   0.000607   0.000095  -0.000108
     7  C   -0.023824   0.002293  -0.017538   0.009380   0.002108   0.005545
     8  C   -0.008452  -0.000083   0.104904   0.311187  -0.000520   0.008491
     9  C    0.011079  -0.000221  -0.017173  -0.039039   0.006477   0.007847
    10  O   -0.000543   0.000001  -0.000200   0.011574  -0.064345  -0.040882
    11  C   -0.003156   0.000016   0.001355   0.003224   0.425644   0.390940
    12  O    0.005253  -0.000004  -0.055003   0.007089  -0.000176  -0.000213
    13  C   -0.001340  -0.000009  -0.052656  -0.000420  -0.000890  -0.002512
    14  O   -0.000447   0.000006   0.000424  -0.004380   0.000359  -0.001450
    15  C    0.000071  -0.000045  -0.000426  -0.000871  -0.038422  -0.034123
    16  H   -0.000114  -0.000120   0.001691  -0.000085   0.000000   0.000000
    17  H   -0.004048  -0.003887   0.000002   0.000000   0.000000   0.000000
    18  H    0.000012  -0.003835  -0.000002   0.000001   0.000000   0.000000
    19  H    0.510084  -0.000126   0.000010  -0.000004  -0.000006  -0.000005
    20  H   -0.000126   0.498267   0.000000   0.000000   0.000000   0.000000
    21  H    0.000010   0.000000   0.614007  -0.003855   0.000000   0.000000
    22  H   -0.000004   0.000000  -0.003855   0.510522   0.000002  -0.000002
    23  H   -0.000006   0.000000   0.000000   0.000002   0.532828  -0.031428
    24  H   -0.000005   0.000000   0.000000  -0.000002  -0.031428   0.526313
    25  H   -0.000852   0.000000  -0.004646  -0.000158   0.000000   0.000000
    26  H    0.000000   0.000000  -0.000019  -0.003706   0.000003   0.000000
    27  H    0.000000   0.000000   0.003792  -0.003520  -0.000001   0.000000
    28  H   -0.000002   0.000000  -0.000024   0.003873   0.000009   0.000006
    29  H   -0.000048   0.000000   0.000000   0.000000  -0.005174   0.003853
    30  H    0.000030   0.000000   0.000000   0.000000  -0.001134  -0.001076
    31  H   -0.000263   0.000000   0.000000   0.000002   0.003963  -0.005007
             25         26         27         28         29         30
     1  C    0.066005   0.001367   0.016793   0.000884   0.003395   0.000188
     2  C   -0.007371  -0.000456   0.000128   0.000032  -0.006160  -0.000341
     3  C   -0.002470   0.000018   0.001207  -0.000049  -0.000004   0.000022
     4  C   -0.047722  -0.011456  -0.008639   0.003289   0.017498   0.002720
     5  C   -0.070567  -0.003826  -0.009076  -0.001360  -0.017963  -0.001900
     6  C    0.001953   0.000025   0.000038  -0.000032  -0.000272  -0.000479
     7  C    0.051727   0.049051   0.003489  -0.004727   0.004844  -0.000154
     8  C    0.049181  -0.148840  -0.053251  -0.070186   0.002092   0.001606
     9  C   -0.013318   0.044593  -0.019307  -0.025523   0.012791   0.006347
    10  O   -0.001440  -0.003987  -0.000126   0.006628  -0.005313   0.006661
    11  C   -0.001107  -0.003580  -0.000272   0.002369  -0.052843  -0.044379
    12  O    0.229171  -0.000400  -0.000762   0.003611  -0.000409   0.000003
    13  C   -0.003133   0.436775   0.427771   0.445811   0.000487  -0.000230
    14  O    0.000050  -0.000237   0.000063   0.000046  -0.001067  -0.000119
    15  C    0.001066   0.000455  -0.000070  -0.000812   0.405701   0.392737
    16  H    0.000024   0.000001   0.000001   0.000000   0.000000   0.000000
    17  H    0.000001   0.000000   0.000000   0.000000   0.000001   0.000001
    18  H    0.000000   0.000000   0.000000   0.000000   0.000000   0.000000
    19  H   -0.000852   0.000000   0.000000  -0.000002  -0.000048   0.000030
    20  H    0.000000   0.000000   0.000000   0.000000   0.000000   0.000000
    21  H   -0.004646  -0.000019   0.003792  -0.000024   0.000000   0.000000
    22  H   -0.000158  -0.003706  -0.003520   0.003873   0.000000   0.000000
    23  H    0.000000   0.000003  -0.000001   0.000009  -0.005174  -0.001134
    24  H    0.000000   0.000000   0.000000   0.000006   0.003853  -0.001076
    25  H    0.359410  -0.000001  -0.000041  -0.000077  -0.000001   0.000000
    26  H   -0.000001   0.516978  -0.023484  -0.025997   0.000000   0.000000
    27  H   -0.000041  -0.023484   0.515075  -0.023988   0.000000   0.000000
    28  H   -0.000077  -0.025997  -0.023988   0.495447   0.000000   0.000000
    29  H   -0.000001   0.000000   0.000000   0.000000   0.520764  -0.023494
    30  H    0.000000   0.000000   0.000000   0.000000  -0.023494   0.509488
    31  H    0.000000   0.000000   0.000000   0.000000  -0.030057  -0.022209
             31
     1  C   -0.000564
     2  C   -0.003038
     3  C   -0.000427
     4  C   -0.017975
     5  C    0.024314
     6  C    0.000267
     7  C   -0.000479
     8  C    0.000123
     9  C   -0.007713
    10  O   -0.005343
    11  C   -0.036149
    12  O   -0.000015
    13  C   -0.000233
    14  O    0.001666
    15  C    0.409834
    16  H    0.000000
    17  H   -0.000013
    18  H    0.000000
    19  H   -0.000263
    20  H    0.000000
    21  H    0.000000
    22  H    0.000002
    23  H    0.003963
    24  H   -0.005007
    25  H    0.000000
    26  H    0.000000
    27  H    0.000000
    28  H    0.000000
    29  H   -0.030057
    30  H   -0.022209
    31  H    0.507355
 Mulliken atomic charges:
              1
     1  C    0.203661
     2  C   -0.257320
     3  C   -0.326969
     4  C   -0.372568
     5  C   -0.337831
     6  C   -0.143127
     7  C    0.305826
     8  C    0.252544
     9  C   -0.019332
    10  O   -0.197604
    11  C    0.019263
    12  O   -0.563064
    13  C   -0.688976
    14  O   -0.445028
    15  C   -0.502449
    16  H    0.176675
    17  H    0.183236
    18  H    0.185717
    19  H    0.178519
    20  H    0.183119
    21  H    0.149531
    22  H    0.203821
    23  H    0.171318
    24  H    0.176000
    25  H    0.394314
    26  H    0.176724
    27  H    0.174180
    28  H    0.190771
    29  H    0.171379
    30  H    0.175713
    31  H    0.181958
 Sum of Mulliken atomic charges =   0.00000
 Mulliken charges with hydrogens summed into heavy atoms:
              1
     1  C    0.380337
     2  C   -0.074083
     3  C   -0.141252
     4  C   -0.372568
     5  C   -0.159313
     6  C    0.039992
     7  C    0.455357
     8  C    0.456365
     9  C   -0.019332
    10  O   -0.197604
    11  C    0.366580
    12  O   -0.168751
    13  C   -0.147302
    14  O   -0.445028
    15  C    0.026601
 Sum of Mulliken charges with hydrogens summed into heavy atoms =   0.00000
 Electronic spatial extent (au):  <R**2>=           3249.1541
 Charge=              0.0000 electrons
 Dipole moment (field-independent basis, Debye):
    X=              1.1449    Y=             -0.3139    Z=              1.6137  Tot=              2.0033
 Quadrupole moment (field-independent basis, Debye-Ang):
   XX=            -80.6248   YY=            -78.5681   ZZ=            -96.6154
   XY=             -3.4795   XZ=             -1.3570   YZ=              6.8866
 Traceless Quadrupole moment (field-independent basis, Debye-Ang):
   XX=              4.6446   YY=              6.7013   ZZ=            -11.3460
   XY=             -3.4795   XZ=             -1.3570   YZ=              6.8866
 Octapole moment (field-independent basis, Debye-Ang**2):
  XXX=            -21.2072  YYY=              3.1769  ZZZ=             27.0162  XYY=             -7.8137
  XXY=             19.9861  XXZ=            -17.8291  XZZ=              8.4517  YZZ=             -5.7296
  YYZ=             -0.8034  XYZ=             -4.3530
 Hexadecapole moment (field-independent basis, Debye-Ang**3):
 XXXX=          -2327.7417 YYYY=          -1281.0186 ZZZZ=           -536.4406 XXXY=            -11.7275
 XXXZ=            -81.5729 YYYX=            -24.4614 YYYZ=             14.2624 ZZZX=              1.1179
 ZZZY=              0.5788 XXYY=           -569.9138 XXZZ=           -511.8326 YYZZ=           -315.8364
 XXYZ=             16.0985 YYXZ=              8.3595 ZZXY=            -16.9529
 N-N= 1.033055065391D+03 E-N=-3.678268684441D+03  KE= 6.859032782887D+02
 1\1\GINC-COMPUTE-9-6\SP\RwB97XD\6-31+G(d,p)\C12H16O3\ELUCIANO.IQUIR\17
 -May-2022\0\\# wb97xd/6-31+g** scrf=(pcm,solvent=chloroform,smd,dovacu
 um) nmr\\comment\\0,1\C,0,-2.446444538,-0.233048109,-1.225689493\C,0,-
 0.259469291,-0.18740326,-2.953844879\C,0,-2.600030387,0.218144719,-2.5
 37958581\C,0,-1.197112978,-0.673605685,-0.762224149\C,0,-0.104675907,-
 0.639710888,-1.642583196\C,0,-1.507219086,0.239666435,-3.401487015\C,0
 ,-1.047011856,-1.145692168,0.671100977\C,0,-0.808694205,-0.020937945,1
 .689201195\C,0,0.35782175,0.876644011,1.330705787\O,0,1.551465134,0.23
 1342244,1.41799355\C,0,2.719353872,1.031539772,1.18585315\O,0,-0.07074
 1046,-2.181972651,0.778168527\C,0,-0.645989116,-0.544478618,3.11657927
 5\O,0,0.224153066,2.059330897,1.03617421\C,0,3.042968435,1.084834901,-
 0.294941494\H,0,-3.311760666,-0.233965083,-0.566018174\H,0,0.596266147
 ,-0.16151543,-3.623560492\H,0,-3.572117726,0.559034788,-2.885101874\H,
 0,0.881084694,-0.957497284,-1.308274377\H,0,-1.626371065,0.596408065,-
 4.42115851\H,0,-1.990367171,-1.637445835,0.945060506\H,0,-1.69332781,0
 .631904838,1.68194062\H,0,3.544646442,0.554316905,1.72447747\H,0,2.602
 167891,2.036927037,1.606476053\H,0,-0.183152846,-2.760108615,0.0033470
 32\H,0,-0.511411479,0.285309946,3.819326913\H,0,-1.53257286,-1.1080416
 4,3.425235532\H,0,0.225183471,-1.200444286,3.217419771\H,0,3.16922524,
 0.074601069,-0.697423497\H,0,3.962560794,1.650303186,-0.470178212\H,0,
 2.231573096,1.555558685,-0.858616625\\Version=EM64L-G09RevC.01\State=1
 -A\HF=-692.4423645\RMSD=3.986e-09\Dipole=-0.1012465,-0.6839323,-0.3783
 889\Quadrupole=7.8012068,-9.7568925,1.9556857,2.6459234,-0.8943181,0.3
 682049\PG=C01 [X(C12H16O3)]\\@


 THE MOST INCOMPREHENSIBLE THING ABOUT THE WORLD
 IS THAT IT IS COMPREHENSIBLE. -- A. EINSTEIN
 Job cpu time:  0 days  0 hours 26 minutes 33.1 seconds.
 File lengths (MBytes):  RWF=    122 Int=      0 D2E=      0 Chk=      9 Scr=      1
 Normal termination of Gaussian 09 at Tue May 17 16:56:51 2022.
