 Entering Gaussian System, Link 0=g09
 Input=/home/eluciano.iquir/wb9/73b_018.gjc
 Output=/home/eluciano.iquir/wb9/73b_018.log
 Initial command:
 /share/apps/Gaussian09/EM64T.SSE4.2-enabled/g09/l1.exe /tmp/Gau-17556.inp -scrdir=/tmp/
 Entering Link 1 = /share/apps/Gaussian09/EM64T.SSE4.2-enabled/g09/l1.exe PID=     17557.
  
 Copyright (c) 1988,1990,1992,1993,1995,1998,2003,2009,2011,
            Gaussian, Inc.  All Rights Reserved.
  
 This is part of the Gaussian(R) 09 program.  It is based on
 the Gaussian(R) 03 system (copyright 2003, Gaussian, Inc.),
 the Gaussian(R) 98 system (copyright 1998, Gaussian, Inc.),
 the Gaussian(R) 94 system (copyright 1995, Gaussian, Inc.),
 the Gaussian 92(TM) system (copyright 1992, Gaussian, Inc.),
 the Gaussian 90(TM) system (copyright 1990, Gaussian, Inc.),
 the Gaussian 88(TM) system (copyright 1988, Gaussian, Inc.),
 the Gaussian 86(TM) system (copyright 1986, Carnegie Mellon
 University), and the Gaussian 82(TM) system (copyright 1983,
 Carnegie Mellon University). Gaussian is a federally registered
 trademark of Gaussian, Inc.
  
 This software contains proprietary and confidential information,
 including trade secrets, belonging to Gaussian, Inc.
  
 This software is provided under written license and may be
 used, copied, transmitted, or stored only in accord with that
 written license.
  
 The following legend is applicable only to US Government
 contracts under FAR:
  
                    RESTRICTED RIGHTS LEGEND
  
 Use, reproduction and disclosure by the US Government is
 subject to restrictions as set forth in subparagraphs (a)
 and (c) of the Commercial Computer Software - Restricted
 Rights clause in FAR 52.227-19.
  
 Gaussian, Inc.
 340 Quinnipiac St., Bldg. 40, Wallingford CT 06492
  
  
 ---------------------------------------------------------------
 Warning -- This program may not be used in any manner that
 competes with the business of Gaussian, Inc. or will provide
 assistance to any competitor of Gaussian, Inc.  The licensee
 of this program is prohibited from giving any competitor of
 Gaussian, Inc. access to this program.  By using this program,
 the user acknowledges that Gaussian, Inc. is engaged in the
 business of creating and licensing software in the field of
 computational chemistry and represents and warrants to the
 licensee that it is not a competitor of Gaussian, Inc. and that
 it will not use this program in any manner prohibited above.
 ---------------------------------------------------------------
  

 Cite this work as:
 Gaussian 09, Revision C.01,
 M. J. Frisch, G. W. Trucks, H. B. Schlegel, G. E. Scuseria, 
 M. A. Robb, J. R. Cheeseman, G. Scalmani, V. Barone, B. Mennucci, 
 G. A. Petersson, H. Nakatsuji, M. Caricato, X. Li, H. P. Hratchian, 
 A. F. Izmaylov, J. Bloino, G. Zheng, J. L. Sonnenberg, M. Hada, 
 M. Ehara, K. Toyota, R. Fukuda, J. Hasegawa, M. Ishida, T. Nakajima, 
 Y. Honda, O. Kitao, H. Nakai, T. Vreven, J. A. Montgomery, Jr., 
 J. E. Peralta, F. Ogliaro, M. Bearpark, J. J. Heyd, E. Brothers, 
 K. N. Kudin, V. N. Staroverov, T. Keith, R. Kobayashi, J. Normand, 
 K. Raghavachari, A. Rendell, J. C. Burant, S. S. Iyengar, J. Tomasi, 
 M. Cossi, N. Rega, J. M. Millam, M. Klene, J. E. Knox, J. B. Cross, 
 V. Bakken, C. Adamo, J. Jaramillo, R. Gomperts, R. E. Stratmann, 
 O. Yazyev, A. J. Austin, R. Cammi, C. Pomelli, J. W. Ochterski, 
 R. L. Martin, K. Morokuma, V. G. Zakrzewski, G. A. Voth, 
 P. Salvador, J. J. Dannenberg, S. Dapprich, A. D. Daniels, 
 O. Farkas, J. B. Foresman, J. V. Ortiz, J. Cioslowski, 
 and D. J. Fox, Gaussian, Inc., Wallingford CT, 2010.
 
 ******************************************
 Gaussian 09:  EM64L-G09RevC.01 23-Sep-2011
                17-May-2022 
 ******************************************
 %nprocshared=4
 Will use up to    4 processors via shared memory.
 ----------------------------------------------------------------
 # wb97xd/6-31+g** scrf=(pcm,solvent=chloroform,smd,dovacuum) nmr
 ----------------------------------------------------------------
 1/38=1/1;
 2/12=2,17=6,18=5,40=1/2;
 3/5=1,6=6,7=111,11=2,16=1,25=1,30=1,70=32101,72=7,74=-58/1,2,8,3;
 4//1;
 5/5=2,38=5,53=7/2;
 8/6=1,10=90,11=11/1;
 10/13=100,45=16/2;
 6/7=2,8=2,9=2,10=2,28=1/1;
 99/9=1/99;
 -------
 comment
 -------
 Charge =  0 Multiplicity = 1
 Symbolic Z-Matrix:
 6                    -1.38045  -2.38651   0.09069 
 6                    -3.87621  -1.33925  -0.58577 
 6                    -2.5413   -3.11611   0.35369 
 6                    -1.45492  -1.12242  -0.5129 
 6                    -2.71747  -0.60786  -0.84946 
 6                    -3.78769  -2.59253   0.01602 
 6                    -0.18908  -0.33308  -0.79363 
 6                    -0.08124   0.96942   0.01464 
 6                     1.22623   1.67312  -0.2854 
 8                     2.29345   0.84309  -0.11102 
 6                     3.58292   1.42593  -0.34941 
 8                    -0.16308  -0.02553  -2.19233 
 6                    -0.18118   0.7644    1.52642 
 8                     1.30474   2.86189  -0.57208 
 6                     4.10249   2.07755   0.91823 
 1                    -0.41759  -2.81327   0.36401 
 1                    -4.84814  -0.9305   -0.85042 
 1                    -2.4735   -4.09422   0.8234 
 1                    -2.80261   0.36847  -1.32387 
 1                    -4.69066  -3.16157   0.2218 
 1                     0.67959  -0.97578  -0.60789 
 1                    -0.87453   1.65953  -0.30283 
 1                     3.55313   2.13603  -1.18378 
 1                     4.25195   0.61117  -0.64508 
 1                    -0.58733  -0.76617  -2.66112 
 1                     0.02473   1.69863   2.06096 
 1                    -1.18178   0.43131   1.81889 
 1                     0.54243   0.02016   1.87716 
 1                     3.4487    2.89582   1.23611 
 1                     5.11      2.47453   0.76549 
 1                     4.1284    1.35376   1.73947 
 
                          Input orientation:                          
 ---------------------------------------------------------------------
 Center     Atomic      Atomic             Coordinates (Angstroms)
 Number     Number       Type             X           Y           Z
 ---------------------------------------------------------------------
      1          6           0       -1.380454   -2.386512    0.090689
      2          6           0       -3.876206   -1.339253   -0.585769
      3          6           0       -2.541300   -3.116115    0.353693
      4          6           0       -1.454916   -1.122422   -0.512897
      5          6           0       -2.717471   -0.607856   -0.849461
      6          6           0       -3.787691   -2.592527    0.016020
      7          6           0       -0.189075   -0.333084   -0.793628
      8          6           0       -0.081240    0.969417    0.014642
      9          6           0        1.226231    1.673118   -0.285399
     10          8           0        2.293453    0.843089   -0.111017
     11          6           0        3.582921    1.425933   -0.349408
     12          8           0       -0.163076   -0.025529   -2.192331
     13          6           0       -0.181183    0.764396    1.526418
     14          8           0        1.304739    2.861888   -0.572076
     15          6           0        4.102488    2.077549    0.918232
     16          1           0       -0.417588   -2.813267    0.364014
     17          1           0       -4.848143   -0.930499   -0.850420
     18          1           0       -2.473498   -4.094219    0.823397
     19          1           0       -2.802615    0.368474   -1.323873
     20          1           0       -4.690659   -3.161571    0.221799
     21          1           0        0.679589   -0.975776   -0.607889
     22          1           0       -0.874534    1.659532   -0.302830
     23          1           0        3.553134    2.136028   -1.183784
     24          1           0        4.251951    0.611174   -0.645084
     25          1           0       -0.587333   -0.766168   -2.661122
     26          1           0        0.024730    1.698631    2.060959
     27          1           0       -1.181780    0.431311    1.818888
     28          1           0        0.542425    0.020156    1.877158
     29          1           0        3.448697    2.895822    1.236110
     30          1           0        5.110003    2.474526    0.765494
     31          1           0        4.128402    1.353757    1.739474
 ---------------------------------------------------------------------
                    Distance matrix (angstroms):
                    1          2          3          4          5
     1  C    0.000000
     2  C    2.789825   0.000000
     3  C    1.396086   2.412840   0.000000
     4  C    1.402777   2.432071   2.430230   0.000000
     5  C    2.415598   1.395400   2.787468   1.404314   0.000000
     6  C    2.417190   1.393083   1.393433   2.807632   2.415232
     7  C    2.533371   3.827599   3.820284   1.517966   2.543895
     8  C    3.599444   4.482434   4.781048   2.557553   3.191266
     9  C    4.839096   5.932914   6.126948   3.880123   4.590621
    10  O    4.895774   6.561456   6.266266   4.251472   5.268767
    11  C    6.274035   7.958687   7.657064   5.648066   6.639374
    12  O    3.502632   4.253733   4.657243   2.385902   2.944034
    13  C    3.664395   4.747617   4.690821   3.056352   3.736394
    14  O    5.932556   6.670230   7.168374   4.847054   5.319233
    15  C    7.118660   8.808865   8.451791   6.570592   7.539760
    16  H    1.088089   3.877737   2.145222   2.168866   3.409666
    17  H    3.876922   1.087098   3.398283   3.415369   2.154962
    18  H    2.155892   3.397525   1.087155   3.413908   3.874623
    19  H    3.407855   2.147959   3.876193   2.167197   1.088823
    20  H    3.402258   2.153216   2.153881   3.894603   3.400372
    21  H    2.592675   4.570325   3.984949   2.141644   3.425454
    22  H    4.096497   4.252388   5.100582   2.849604   2.972587
    23  H    6.813071   8.223764   8.190908   6.012334   6.852822
    24  H    6.422730   8.359104   7.812714   5.965833   7.078181
    25  H    3.290444   3.930929   4.292942   2.344033   2.800833
    26  H    4.748147   5.608138   5.716734   4.095416   4.616287
    27  H    3.311535   4.022089   4.071771   2.815299   3.249354
    28  H    3.561038   5.238159   4.654730   3.317714   4.296019
    29  H    7.248154   8.655016   8.532415   6.576529   7.392360
    30  H    8.137019   9.855088   9.485108   7.594108   8.566125
    31  H    6.859708   8.759726   8.147704   6.509845   7.577367
                    6          7          8          9         10
     6  C    0.000000
     7  C    4.325581   0.000000
     8  C    5.140547   1.536697   0.000000
     9  C    6.589841   2.507237   1.514827   0.000000
    10  O    6.985693   2.830599   2.381369   1.363203   0.000000
    11  C    8.402825   4.185621   3.710393   2.370482   1.435014
    12  O    4.960255   1.432353   2.422260   2.907226   3.334801
    13  C    5.153362   2.566542   1.528885   2.467644   2.968368
    14  O    7.485275   3.533895   2.417979   1.225365   2.294707
    15  C    9.212953   5.211442   4.421313   3.144065   2.419886
    16  H    3.395205   2.746573   3.813646   4.821985   4.576499
    17  H    2.153512   4.697557   5.203977   6.632955   7.395589
    18  H    2.152682   4.688230   5.658392   6.941153   6.926324
    19  H    3.396059   2.757523   3.091704   4.360290   5.259866
    20  H    1.086972   5.412549   6.193119   7.657745   8.057660
    21  H    4.791631   1.096416   2.179491   2.723868   2.481876
    22  H    5.164122   2.163621   1.098346   2.100882   3.277120
    23  H    8.813993   4.500318   4.000735   2.536900   2.099838
    24  H    8.679665   4.542730   4.397740   3.226775   2.043214
    25  H    4.554664   1.957984   3.229256   3.857874   4.170333
    26  H    6.093470   3.510306   2.174948   2.636219   3.255232
    27  H    4.380034   2.897413   2.180837   3.430543   3.996416
    28  H    5.388864   2.791590   2.181518   2.806515   2.774195
    29  H    9.163836   5.270584   4.202793   2.957929   2.713494
    30  H   10.266727   6.196270   5.456934   4.102476   3.370876
    31  H    9.011547   5.282296   4.565507   3.553125   2.655585
                   11         12         13         14         15
    11  C    0.000000
    12  O    4.419909   0.000000
    13  C    4.257326   3.801763   0.000000
    14  O    2.702158   3.621724   3.318299   0.000000
    15  C    1.517058   5.682743   4.521514   3.265517   0.000000
    16  H    5.872296   3.790931   3.769184   6.004170   6.682688
    17  H    8.768502   4.956768   5.504775   7.233093   9.606783
    18  H    8.278150   5.566588   5.418034   8.038025   9.019052
    19  H    6.545446   2.806532   3.892662   4.863401   7.458446
    20  H    9.477531   6.013468   6.119691   8.535637  10.259280
    21  H    3.776818   2.030643   2.885202   3.888414   4.834054
    22  H    4.463815   2.629794   2.151315   2.503475   5.141642
    23  H    1.096041   4.415848   4.813698   2.440562   2.173403
    24  H    1.094924   4.721421   4.938782   3.709056   2.148617
    25  H    5.247890   0.973810   4.476949   4.594218   6.549269
    26  H    4.306385   4.593308   1.095870   3.150311   4.251765
    27  H    5.328523   4.163693   1.094386   4.219857   5.607564
    28  H    4.022240   4.130443   1.095682   3.828225   4.222138
    29  H    2.166208   5.773508   4.219393   2.804860   1.094559
    30  H    2.162066   6.542504   5.612503   4.052058   1.093621
    31  H    2.160135   5.981496   4.354912   3.948518   1.094981
                   16         17         18         19         20
    16  H    0.000000
    17  H    4.964825   0.000000
    18  H    2.465489   4.295315   0.000000
    19  H    4.319814   2.468942   4.963337   0.000000
    20  H    4.289601   2.480350   2.479426   4.291274   0.000000
    21  H    2.350482   5.533235   4.659959   3.800708   5.857102
    22  H    4.545263   4.774692   6.077066   2.535124   6.170987
    23  H    6.531297   8.949647   8.897474   6.598441   9.899512
    24  H    5.877897   9.232043   8.338394   7.091301   9.744504
    25  H    3.656621   4.632510   5.174497   2.825441   5.557560
    26  H    4.840713   6.255666   6.428827   4.606548   7.017049
    27  H    3.637023   4.735182   4.810401   3.536665   5.269888
    28  H    3.352540   6.115690   5.209059   4.642975   6.344192
    29  H    6.949993   9.371867   9.170790   7.212482  10.196565
    30  H    7.660039  10.647537  10.033008   8.450469  11.318752
    31  H    6.318387   9.617887   8.608410   7.641588  10.023341
                   21         22         23         24         25
    21  H    0.000000
    22  H    3.074607   0.000000
    23  H    4.274604   4.539535   0.000000
    24  H    3.909164   5.243762   1.761738   0.000000
    25  H    2.421733   3.395297   5.267707   5.420346   0.000000
    26  H    3.834585   2.529369   4.813451   5.135623   5.361707
    27  H    3.366576   2.470752   5.860164   5.968999   4.675234
    28  H    2.680700   3.073707   4.786507   4.524554   4.742430
    29  H    5.104661   4.752586   2.538520   3.066549   6.699860
    30  H    5.780945   6.133532   2.517559   2.489591   7.396176
    31  H    4.778195   5.412382   3.080311   2.500562   6.789513
                   26         27         28         29         30
    26  H    0.000000
    27  H    1.766456   0.000000
    28  H    1.766088   1.773507   0.000000
    29  H    3.719837   5.277761   4.138454   0.000000
    30  H    5.304737   6.698574   5.303064   1.777332   0.000000
    31  H    4.130667   5.390292   3.828404   1.758789   1.779971
                   31
    31  H    0.000000
 Stoichiometry    C12H16O3
 Framework group  C1[X(C12H16O3)]
 Deg. of freedom    87
 Full point group                 C1      NOp   1
 Largest Abelian subgroup         C1      NOp   1
 Largest concise Abelian subgroup C1      NOp   1
                         Standard orientation:                         
 ---------------------------------------------------------------------
 Center     Atomic      Atomic             Coordinates (Angstroms)
 Number     Number       Type             X           Y           Z
 ---------------------------------------------------------------------
      1          6           0        2.373111    1.250547   -0.562596
      2          6           0        3.906319   -0.829909    0.488165
      3          6           0        3.728664    1.446374   -0.292072
      4          6           0        1.767828    0.010804   -0.308721
      5          6           0        2.551568   -1.028156    0.218928
      6          6           0        4.494026    0.407113    0.233107
      7          6           0        0.292815   -0.194701   -0.602530
      8          6           0       -0.557069   -0.450975    0.651846
      9          6           0       -2.018468   -0.598414    0.281338
     10          8           0       -2.457245    0.459840   -0.457507
     11          6           0       -3.840066    0.423886   -0.839316
     12          8           0        0.172391   -1.311037   -1.491872
     13          6           0       -0.437456    0.646331    1.709721
     14          8           0       -2.725564   -1.520514    0.670271
     15          6           0       -4.696580    1.048283    0.246031
     16          1           0        1.793513    2.075954   -0.970894
     17          1           0        4.502964   -1.641507    0.896951
     18          1           0        4.188396    2.411333   -0.490586
     19          1           0        2.107486   -2.001776    0.419909
     20          1           0        5.549226    0.561210    0.443620
     21          1           0       -0.084720    0.674673   -1.153697
     22          1           0       -0.261753   -1.409270    1.099978
     23          1           0       -4.164955   -0.596965   -1.070865
     24          1           0       -3.932020    1.006919   -1.761528
     25          1           0        0.958176   -1.311006   -2.067065
     26          1           0       -1.151749    0.481935    2.524393
     27          1           0        0.564321    0.669255    2.149718
     28          1           0       -0.646584    1.634612    1.285356
     29          1           0       -4.620376    0.483609    1.180587
     30          1           0       -5.746483    1.079906   -0.058453
     31          1           0       -4.360240    2.067697    0.462026
 ---------------------------------------------------------------------
 Rotational constants (GHZ):      1.5198808      0.2784945      0.2702858
 Standard basis: 6-31+G(d,p) (6D, 7F)
 There are   365 symmetry adapted basis functions of A   symmetry.
 Integral buffers will be    131072 words long.
 Raffenetti 2 integral format.
 Two-electron integral symmetry is turned on.
   365 basis functions,   592 primitive gaussians,   365 cartesian basis functions
    56 alpha electrons       56 beta electrons
       nuclear repulsion energy       995.8487089219 Hartrees.
 NAtoms=   31 NActive=   31 NUniq=   31 SFac= 1.00D+00 NAtFMM=   60 NAOKFM=F Big=F
 Nuclear repulsion after empirical dispersion term =      995.8277491621 Hartrees.
 ------------------------------------------------------------------------------
 Polarizable Continuum Model (PCM)
 =================================
 Model                : C-PCM.
 Atomic radii         : SMD-Coulomb.
 Polarization charges : Total charges.
 Charge compensation  : None.
 Solution method      : Matrix inversion.
 Cavity type          : VdW (van der Waals Surface) (Alpha=1.000).
 Cavity algorithm     : GePol (No added spheres)
                        Default sphere list used, NSphG=   31.
                        Lebedev-Laikov grids with approx.  5.0 points / Ang**2.
                        Smoothing algorithm: Karplus/York (Gamma=1.0000).
                        Polarization charges: spherical gaussians, with
                                              point-specific exponents (IZeta= 3).
                        Self-potential: point-specific (ISelfS= 7).
                        Self-field    : sphere-specific E.n sum rule (ISelfD= 2).
 Solvent              : Chloroform, Eps=   4.711300 Eps(inf)=   2.090627
 ------------------------------------------------------------------------------
 ------------------------------------------------------------------------------
 Atomic radii for non-electrostatic terms: SMD-CDS.
 ------------------------------------------------------------------------------
 Nuclear repulsion after PCM non-electrostatic terms =      995.8213877273 Hartrees.
 One-electron integrals computed using PRISM.
 NBasis=   365 RedAO= T  NBF=   365
 NBsUse=   365 1.00D-06 NBFU=   365
 Harris functional with IExCor= 4639 diagonalized for initial guess.
 ExpMin= 4.38D-02 ExpMax= 5.48D+03 ExpMxC= 8.25D+02 IAcc=2 IRadAn=         4 AccDes= 0.00D+00
 HarFok:  IExCor= 4639 AccDes= 0.00D+00 IRadAn=         4 IDoV= 1
 ScaDFX=  1.000000  1.000000  1.000000  1.000000
 FoFCou: FMM=F IPFlag=           0 FMFlag=      100000 FMFlg1=           0
         NFxFlg=           0 DoJE=T BraDBF=F KetDBF=T FulRan=T
         Omega=  0.000000  0.000000  1.000000  0.000000  0.000000 ICntrl=     500 IOpCl=  0
         NMat0=    1 NMatS0=    1 NMatT0=    0 NMatD0=    1 NMtDS0=    0 NMtDT0=    0
         I1Cent=           4 NGrid=           0.
 Petite list used in FoFCou.
 Initial guess orbital symmetries:
       Occupied  (A) (A) (A) (A) (A) (A) (A) (A) (A) (A) (A) (A)
                 (A) (A) (A) (A) (A) (A) (A) (A) (A) (A) (A) (A)
                 (A) (A) (A) (A) (A) (A) (A) (A) (A) (A) (A) (A)
                 (A) (A) (A) (A) (A) (A) (A) (A) (A) (A) (A) (A)
                 (A) (A) (A) (A) (A) (A) (A) (A)
       Virtual   (A) (A) (A) (A) (A) (A) (A) (A) (A) (A) (A) (A)
                 (A) (A) (A) (A) (A) (A) (A) (A) (A) (A) (A) (A)
                 (A) (A) (A) (A) (A) (A) (A) (A) (A) (A) (A) (A)
                 (A) (A) (A) (A) (A) (A) (A) (A) (A) (A) (A) (A)
                 (A) (A) (A) (A) (A) (A) (A) (A) (A) (A) (A) (A)
                 (A) (A) (A) (A) (A) (A) (A) (A) (A) (A) (A) (A)
                 (A) (A) (A) (A) (A) (A) (A) (A) (A) (A) (A) (A)
                 (A) (A) (A) (A) (A) (A) (A) (A) (A) (A) (A) (A)
                 (A) (A) (A) (A) (A) (A) (A) (A) (A) (A) (A) (A)
                 (A) (A) (A) (A) (A) (A) (A) (A) (A) (A) (A) (A)
                 (A) (A) (A) (A) (A) (A) (A) (A) (A) (A) (A) (A)
                 (A) (A) (A) (A) (A) (A) (A) (A) (A) (A) (A) (A)
                 (A) (A) (A) (A) (A) (A) (A) (A) (A) (A) (A) (A)
                 (A) (A) (A) (A) (A) (A) (A) (A) (A) (A) (A) (A)
                 (A) (A) (A) (A) (A) (A) (A) (A) (A) (A) (A) (A)
                 (A) (A) (A) (A) (A) (A) (A) (A) (A) (A) (A) (A)
                 (A) (A) (A) (A) (A) (A) (A) (A) (A) (A) (A) (A)
                 (A) (A) (A) (A) (A) (A) (A) (A) (A) (A) (A) (A)
                 (A) (A) (A) (A) (A) (A) (A) (A) (A) (A) (A) (A)
                 (A) (A) (A) (A) (A) (A) (A) (A) (A) (A) (A) (A)
                 (A) (A) (A) (A) (A) (A) (A) (A) (A) (A) (A) (A)
                 (A) (A) (A) (A) (A) (A) (A) (A) (A) (A) (A) (A)
                 (A) (A) (A) (A) (A) (A) (A) (A) (A) (A) (A) (A)
                 (A) (A) (A) (A) (A) (A) (A) (A) (A) (A) (A) (A)
                 (A) (A) (A) (A) (A) (A) (A) (A) (A) (A) (A) (A)
                 (A) (A) (A) (A) (A) (A) (A) (A) (A)
 The electronic state of the initial guess is 1-A.
 Requested convergence on RMS density matrix=1.00D-08 within 128 cycles.
 Requested convergence on MAX density matrix=1.00D-06.
 Requested convergence on             energy=1.00D-06.
 No special actions if energy rises.
 FoFJK:  IHMeth= 1 ICntrl=     0 DoSepK=T KAlg= 1 I1Cent= 0 FoldK=F
 FoFJK:  IHMeth= 1 ICntrl=     0 DoSepK=T KAlg= 1 I1Cent= 0 FoldK=F
 FoFJK:  IHMeth= 1 ICntrl=     0 DoSepK=T KAlg= 1 I1Cent= 0 FoldK=F
 FoFJK:  IHMeth= 1 ICntrl=     0 DoSepK=T KAlg= 1 I1Cent= 0 FoldK=F
 FoFJK:  IHMeth= 1 ICntrl=     0 DoSepK=T KAlg= 1 I1Cent= 0 FoldK=F
 FoFJK:  IHMeth= 1 ICntrl=     0 DoSepK=T KAlg= 1 I1Cent= 0 FoldK=F
 FoFJK:  IHMeth= 1 ICntrl=     0 DoSepK=T KAlg= 1 I1Cent= 0 FoldK=F
 FoFJK:  IHMeth= 1 ICntrl=     0 DoSepK=T KAlg= 1 I1Cent= 0 FoldK=F
 FoFJK:  IHMeth= 1 ICntrl=     0 DoSepK=T KAlg= 1 I1Cent= 0 FoldK=F
 FoFJK:  IHMeth= 1 ICntrl=     0 DoSepK=T KAlg= 1 I1Cent= 0 FoldK=F
 FoFJK:  IHMeth= 1 ICntrl=     0 DoSepK=T KAlg= 1 I1Cent= 0 FoldK=F
 FoFJK:  IHMeth= 1 ICntrl=     0 DoSepK=T KAlg= 1 I1Cent= 0 FoldK=F
 FoFJK:  IHMeth= 1 ICntrl=     0 DoSepK=T KAlg= 1 I1Cent= 0 FoldK=F
 FoFJK:  IHMeth= 1 ICntrl=     0 DoSepK=T KAlg= 1 I1Cent= 0 FoldK=F
 FoFJK:  IHMeth= 1 ICntrl=     0 DoSepK=T KAlg= 1 I1Cent= 0 FoldK=F
 FoFJK:  IHMeth= 1 ICntrl=     0 DoSepK=T KAlg= 1 I1Cent= 0 FoldK=F
 Error on total polarization charges =  0.03988
 SCF Done:  E(RwB97XD) =  -692.444900511     A.U. after   16 cycles
             Convg  =    0.3224D-08             -V/T =  2.0096
 SMD-CDS (non-electrostatic) energy       (kcal/mol) =      -3.99
 (included in total energy above)
 Range of M.O.s used for correlation:     1   365
 NBasis=   365 NAE=    56 NBE=    56 NFC=     0 NFV=     0
 NROrb=    365 NOA=    56 NOB=    56 NVA=   309 NVB=   309

 **** Warning!!: The largest alpha MO coefficient is  0.17122292D+03

 NEqPCM:  Using equilibrium solvation (IEInf=0, Eps=   4.7113, EpsInf=   2.0906)
          Differentiating once with respect to magnetic field using GIAOs.
          Electric field/nuclear overlap derivatives assumed to be zero.
 FoFCou: FMM=F IPFlag=           0 FMFlag=    10101102 FMFlg1=           0
         NFxFlg=    40000000 DoJE=F BraDBF=F KetDBF=T FulRan=T
         Omega=  0.000000  0.000000  1.000000  0.000000  0.000000 ICntrl=    6100 IOpCl=  0
         NMat0=    1 NMatS0=    1 NMatT0=    0 NMatD0=    1 NMtDS0=    0 NMtDT0=    0
         I1Cent=           7 NGrid=        2317.
 Symmetry not used in FoFCou.
 FoFJK:  IHMeth= 1 ICntrl=  6127 DoSepK=T KAlg= 1 I1Cent= 0 FoldK=F
 FoFJK:  IHMeth= 1 ICntrl=     0 DoSepK=T KAlg= 1 I1Cent= 0 FoldK=F
          There are     3 degrees of freedom in the 1st order CPHF.  IDoFFX=0.
      3 vectors produced by pass  0 Test12= 5.77D-13 3.33D-08 XBig12= 1.88D+02 3.52D+00.
 AX will form     3 AO Fock derivatives at one time.
 FoFJK:  IHMeth= 1 ICntrl=     0 DoSepK=T KAlg= 1 I1Cent= 0 FoldK=F
      3 vectors produced by pass  1 Test12= 5.77D-13 3.33D-08 XBig12= 1.49D+00 3.35D-01.
 FoFJK:  IHMeth= 1 ICntrl=     0 DoSepK=T KAlg= 1 I1Cent= 0 FoldK=F
      3 vectors produced by pass  2 Test12= 5.77D-13 3.33D-08 XBig12= 2.77D-02 6.78D-02.
 FoFJK:  IHMeth= 1 ICntrl=     0 DoSepK=T KAlg= 1 I1Cent= 0 FoldK=F
      3 vectors produced by pass  3 Test12= 5.77D-13 3.33D-08 XBig12= 4.15D-04 5.40D-03.
 FoFJK:  IHMeth= 1 ICntrl=     0 DoSepK=T KAlg= 1 I1Cent= 0 FoldK=F
      3 vectors produced by pass  4 Test12= 5.77D-13 3.33D-08 XBig12= 5.43D-06 5.60D-04.
 FoFJK:  IHMeth= 1 ICntrl=     0 DoSepK=T KAlg= 1 I1Cent= 0 FoldK=F
      3 vectors produced by pass  5 Test12= 5.77D-13 3.33D-08 XBig12= 8.63D-08 7.23D-05.
 FoFJK:  IHMeth= 1 ICntrl=     0 DoSepK=T KAlg= 1 I1Cent= 0 FoldK=F
      3 vectors produced by pass  6 Test12= 5.77D-13 3.33D-08 XBig12= 1.23D-09 9.96D-06.
 FoFJK:  IHMeth= 1 ICntrl=     0 DoSepK=T KAlg= 1 I1Cent= 0 FoldK=F
      3 vectors produced by pass  7 Test12= 5.77D-13 3.33D-08 XBig12= 1.66D-11 1.07D-06.
 FoFJK:  IHMeth= 1 ICntrl=     0 DoSepK=T KAlg= 1 I1Cent= 0 FoldK=F
      3 vectors produced by pass  8 Test12= 5.77D-13 3.33D-08 XBig12= 1.87D-13 1.01D-07.
 FoFJK:  IHMeth= 1 ICntrl=     0 DoSepK=T KAlg= 1 I1Cent= 0 FoldK=F
 Inverted reduced A of dimension    27 with in-core refinement.
 Calculating GIAO nuclear magnetic shielding tensors.
 SCF GIAO Magnetic shielding tensor (ppm):
      1  C    Isotropic =    69.8950   Anisotropy =   161.1359
   XX=    41.5862   YX=    27.6514   ZX=   -42.9534
   XY=    31.5154   YY=    18.7124   ZY=    59.0663
   XZ=   -32.3007   YZ=    60.5449   ZZ=   149.3864
   Eigenvalues:   -29.4538    61.8199   177.3189
      2  C    Isotropic =    68.7159   Anisotropy =   176.8132
   XX=    37.2303   YX=    24.8849   ZX=   -45.6254
   XY=    27.3701   YY=    15.3708   ZY=    62.0896
   XZ=   -47.1610   YZ=    65.5944   ZZ=   153.5466
   Eigenvalues:   -35.0153    54.5716   186.5914
      3  C    Isotropic =    69.9469   Anisotropy =   173.6178
   XX=    47.0059   YX=   -41.6268   ZX=   -21.1672
   XY=   -43.0871   YY=    -1.9718   ZY=    49.7958
   XZ=   -20.0055   YZ=    49.2596   ZZ=   164.8067
   Eigenvalues:   -32.3292    56.4778   185.6921
      4  C    Isotropic =    52.2686   Anisotropy =   185.6365
   XX=   -21.1272   YX=   -22.3672   ZX=   -37.2029
   XY=   -18.4421   YY=    30.7053   ZY=    48.9431
   XZ=   -44.1252   YZ=    50.7710   ZZ=   147.2277
   Eigenvalues:   -32.0434    12.8229   176.0262
      5  C    Isotropic =    73.8119   Anisotropy =   181.5427
   XX=    47.2953   YX=   -37.9938   ZX=   -23.7324
   XY=   -37.3670   YY=     0.8567   ZY=    51.2797
   XZ=   -17.9652   YZ=    55.2217   ZZ=   173.2839
   Eigenvalues:   -27.4987    54.0941   194.8404
      6  C    Isotropic =    71.7410   Anisotropy =   179.4337
   XX=   -18.1837   YX=   -22.3368   ZX=   -44.2702
   XY=   -22.7131   YY=    64.7937   ZY=    35.2420
   XZ=   -48.3049   YZ=    33.6751   ZZ=   168.6132
   Eigenvalues:   -31.2514    55.1110   191.3635
      7  C    Isotropic =   119.2695   Anisotropy =    28.6246
   XX=   109.1506   YX=     3.2460   ZX=    -0.8362
   XY=     4.1990   YY=   128.8174   ZY=    11.1807
   XZ=     0.7793   YZ=    14.7287   ZZ=   119.8404
   Eigenvalues:   107.3827   112.0733   138.3525
      8  C    Isotropic =   145.7311   Anisotropy =    27.2648
   XX=   163.6825   YX=    -6.6440   ZX=    -0.9329
   XY=     3.5520   YY=   137.6941   ZY=    -5.7328
   XZ=    -3.5144   YZ=    -5.2330   ZZ=   135.8167
   Eigenvalues:   130.9704   142.3152   163.9077
      9  C    Isotropic =    18.6619   Anisotropy =   103.4990
   XX=    -4.5039   YX=    18.5335   ZX=   -35.3497
   XY=    52.9669   YY=    18.1734   ZY=    56.5036
   XZ=   -52.7284   YZ=    51.1919   ZZ=    42.3162
   Eigenvalues:   -71.4671    39.7916    87.6613
     10  O    Isotropic =   141.0580   Anisotropy =   167.9147
   XX=    22.2502   YX=   -48.5946   ZX=   -51.3415
   XY=  -165.4907   YY=   174.9970   ZY=     6.6366
   XZ=    30.2764   YZ=    38.5055   ZZ=   225.9267
   Eigenvalues:   -32.8754   203.0482   253.0011
     11  C    Isotropic =   137.5309   Anisotropy =    66.0406
   XX=   177.3587   YX=    -4.3504   ZX=    14.8466
   XY=   -10.4857   YY=   104.7922   ZY=     7.4456
   XZ=    13.1447   YZ=     8.2666   ZZ=   130.4417
   Eigenvalues:   100.9226   130.1121   181.5579
     12  O    Isotropic =   267.0968   Anisotropy =    47.2831
   XX=   293.0396   YX=    10.4887   ZX=   -17.2382
   XY=     9.1922   YY=   241.9011   ZY=    29.7982
   XZ=    -7.2796   YZ=    42.4238   ZZ=   266.3497
   Eigenvalues:   213.1246   289.5469   298.6189
     13  C    Isotropic =   181.0648   Anisotropy =    22.1175
   XX=   177.4433   YX=     1.7365   ZX=    -0.8483
   XY=    -0.1510   YY=   181.9382   ZY=    14.7278
   XZ=     0.8200   YZ=    11.0421   ZZ=   183.8130
   Eigenvalues:   169.9103   177.4743   195.8099
     14  O    Isotropic =   -49.7022   Anisotropy =   531.1703
   XX=  -130.6970   YX=   -65.5560   ZX=   -75.2932
   XY=   -56.5681   YY=  -140.8766   ZY=   252.2282
   XZ=   -76.9165   YZ=   269.1637   ZZ=   122.4669
   Eigenvalues:  -302.2121  -151.3059   304.4113
     15  C    Isotropic =   181.6052   Anisotropy =    25.8114
   XX=   192.1863   YX=    -5.6013   ZX=    -2.7301
   XY=    -7.0506   YY=   169.5293   ZY=    10.3923
   XZ=    -7.6295   YZ=    12.6490   ZZ=   183.0999
   Eigenvalues:   162.6327   183.3701   198.8127
     16  H    Isotropic =    23.7621   Anisotropy =     7.7760
   XX=    26.5846   YX=     3.3935   ZX=    -0.2370
   XY=     3.1779   YY=    24.0359   ZY=    -1.3411
   XZ=    -0.0931   YZ=    -1.5463   ZZ=    20.6657
   Eigenvalues:    19.9186    22.4215    28.9461
     17  H    Isotropic =    23.6655   Anisotropy =     5.0697
   XX=    26.4477   YX=     1.2723   ZX=     0.9125
   XY=     1.3698   YY=    23.9556   ZY=    -0.7447
   XZ=     0.6592   YZ=    -0.8152   ZZ=    20.5932
   Eigenvalues:    20.2333    23.7180    27.0453
     18  H    Isotropic =    23.8255   Anisotropy =     4.8111
   XX=    26.5983   YX=    -0.2105   ZX=     1.3585
   XY=    -0.2130   YY=    23.6427   ZY=    -1.3146
   XZ=     1.4631   YZ=    -1.3124   ZZ=    21.2356
   Eigenvalues:    20.4164    24.0273    27.0329
     19  H    Isotropic =    23.3260   Anisotropy =     9.8785
   XX=    28.0297   YX=    -3.2104   ZX=     2.6371
   XY=    -2.4439   YY=    22.1918   ZY=    -1.4305
   XZ=     2.2338   YZ=    -1.1163   ZZ=    19.7567
   Eigenvalues:    18.9878    21.0787    29.9117
     20  H    Isotropic =    23.6421   Anisotropy =     4.3395
   XX=    24.3232   YX=     0.0714   ZX=     0.8047
   XY=     0.0703   YY=    25.8331   ZY=    -1.9608
   XZ=     0.7559   YZ=    -2.0090   ZZ=    20.7701
   Eigenvalues:    19.9522    24.4391    26.5351
     21  H    Isotropic =    26.5109   Anisotropy =     3.8110
   XX=    26.5298   YX=     0.4584   ZX=     0.6025
   XY=    -0.9913   YY=    28.6994   ZY=    -1.5452
   XZ=     0.3784   YZ=    -0.8065   ZZ=    24.3034
   Eigenvalues:    23.9427    26.5384    29.0515
     22  H    Isotropic =    28.6108   Anisotropy =     5.0406
   XX=    29.0645   YX=    -1.5165   ZX=     1.1097
   XY=    -0.4885   YY=    30.7615   ZY=    -1.5585
   XZ=    -1.9007   YZ=    -3.2337   ZZ=    26.0063
   Eigenvalues:    24.8712    28.9900    31.9711
     23  H    Isotropic =    26.7764   Anisotropy =     6.2785
   XX=    28.5129   YX=     1.6423   ZX=     1.9526
   XY=     0.0298   YY=    26.5392   ZY=     2.4521
   XZ=     2.9431   YZ=     3.1976   ZZ=    25.2770
   Eigenvalues:    22.6364    26.7307    30.9620
     24  H    Isotropic =    27.6456   Anisotropy =     7.8435
   XX=    28.2444   YX=    -2.1706   ZX=     1.9105
   XY=    -1.1630   YY=    23.2436   ZY=    -1.7490
   XZ=     1.0797   YZ=    -3.0117   ZZ=    31.4486
   Eigenvalues:    22.3344    27.7277    32.8746
     25  H    Isotropic =    29.9841   Anisotropy =    14.5938
   XX=    32.4853   YX=    -0.3925   ZX=    -8.2167
   XY=    -0.1761   YY=    25.4087   ZY=     4.6137
   XZ=    -4.9013   YZ=     4.7381   ZZ=    32.0583
   Eigenvalues:    22.0021    28.2370    39.7133
     26  H    Isotropic =    30.6520   Anisotropy =     9.9193
   XX=    30.3670   YX=     0.8004   ZX=    -3.5416
   XY=    -0.3061   YY=    26.7397   ZY=     1.7448
   XZ=    -4.4407   YZ=     0.6562   ZZ=    34.8492
   Eigenvalues:    26.2798    28.4113    37.2648
     27  H    Isotropic =    31.2197   Anisotropy =     6.7807
   XX=    34.6758   YX=     0.4337   ZX=     2.8786
   XY=     0.0272   YY=    26.4571   ZY=     2.7483
   XZ=     0.3255   YZ=     2.0018   ZZ=    32.5262
   Eigenvalues:    25.6275    32.2914    35.7401
     28  H    Isotropic =    30.6877   Anisotropy =     7.3815
   XX=    28.6788   YX=    -0.9750   ZX=     0.8838
   XY=    -2.0564   YY=    35.2598   ZY=    -0.5629
   XZ=    -1.0006   YZ=     1.2601   ZZ=    28.1246
   Eigenvalues:    28.1067    28.3477    35.6087
     29  H    Isotropic =    30.2722   Anisotropy =     6.3857
   XX=    29.3425   YX=    -1.3752   ZX=    -1.8193
   XY=    -1.9271   YY=    28.4551   ZY=    -1.8309
   XZ=    -2.6946   YZ=    -3.0299   ZZ=    33.0191
   Eigenvalues:    25.6961    30.5912    34.5293
     30  H    Isotropic =    30.5853   Anisotropy =    11.5878
   XX=    37.9784   YX=    -1.5877   ZX=     1.2392
   XY=    -2.0327   YY=    26.9508   ZY=     0.0541
   XZ=     0.2403   YZ=     0.3501   ZZ=    26.8265
   Eigenvalues:    26.4009    27.0444    38.3105
     31  H    Isotropic =    30.4727   Anisotropy =     8.0338
   XX=    29.0552   YX=    -0.4633   ZX=    -0.7592
   XY=    -0.1168   YY=    35.0105   ZY=     1.8674
   XZ=    -0.3215   YZ=     3.2993   ZZ=    27.3524
   Eigenvalues:    26.4892    29.1004    35.8286
 End of Minotr Frequency-dependent properties file   721 does not exist.
 End of Minotr Frequency-dependent properties file   722 does not exist.

 **********************************************************************

            Population analysis using the SCF density.

 **********************************************************************

 Orbital symmetries:
       Occupied  (A) (A) (A) (A) (A) (A) (A) (A) (A) (A) (A) (A)
                 (A) (A) (A) (A) (A) (A) (A) (A) (A) (A) (A) (A)
                 (A) (A) (A) (A) (A) (A) (A) (A) (A) (A) (A) (A)
                 (A) (A) (A) (A) (A) (A) (A) (A) (A) (A) (A) (A)
                 (A) (A) (A) (A) (A) (A) (A) (A)
       Virtual   (A) (A) (A) (A) (A) (A) (A) (A) (A) (A) (A) (A)
                 (A) (A) (A) (A) (A) (A) (A) (A) (A) (A) (A) (A)
                 (A) (A) (A) (A) (A) (A) (A) (A) (A) (A) (A) (A)
                 (A) (A) (A) (A) (A) (A) (A) (A) (A) (A) (A) (A)
                 (A) (A) (A) (A) (A) (A) (A) (A) (A) (A) (A) (A)
                 (A) (A) (A) (A) (A) (A) (A) (A) (A) (A) (A) (A)
                 (A) (A) (A) (A) (A) (A) (A) (A) (A) (A) (A) (A)
                 (A) (A) (A) (A) (A) (A) (A) (A) (A) (A) (A) (A)
                 (A) (A) (A) (A) (A) (A) (A) (A) (A) (A) (A) (A)
                 (A) (A) (A) (A) (A) (A) (A) (A) (A) (A) (A) (A)
                 (A) (A) (A) (A) (A) (A) (A) (A) (A) (A) (A) (A)
                 (A) (A) (A) (A) (A) (A) (A) (A) (A) (A) (A) (A)
                 (A) (A) (A) (A) (A) (A) (A) (A) (A) (A) (A) (A)
                 (A) (A) (A) (A) (A) (A) (A) (A) (A) (A) (A) (A)
                 (A) (A) (A) (A) (A) (A) (A) (A) (A) (A) (A) (A)
                 (A) (A) (A) (A) (A) (A) (A) (A) (A) (A) (A) (A)
                 (A) (A) (A) (A) (A) (A) (A) (A) (A) (A) (A) (A)
                 (A) (A) (A) (A) (A) (A) (A) (A) (A) (A) (A) (A)
                 (A) (A) (A) (A) (A) (A) (A) (A) (A) (A) (A) (A)
                 (A) (A) (A) (A) (A) (A) (A) (A) (A) (A) (A) (A)
                 (A) (A) (A) (A) (A) (A) (A) (A) (A) (A) (A) (A)
                 (A) (A) (A) (A) (A) (A) (A) (A) (A) (A) (A) (A)
                 (A) (A) (A) (A) (A) (A) (A) (A) (A) (A) (A) (A)
                 (A) (A) (A) (A) (A) (A) (A) (A) (A) (A) (A) (A)
                 (A) (A) (A) (A) (A) (A) (A) (A) (A) (A) (A) (A)
                 (A) (A) (A) (A) (A) (A) (A) (A) (A)
 The electronic state is 1-A.
 Alpha  occ. eigenvalues --  -19.32653 -19.28158 -19.27306 -10.43845 -10.35950
 Alpha  occ. eigenvalues --  -10.34940 -10.31944 -10.31683 -10.30961 -10.30940
 Alpha  occ. eigenvalues --  -10.30877 -10.30850 -10.30756 -10.29428 -10.28571
 Alpha  occ. eigenvalues --   -1.20773  -1.12986  -1.12183  -0.96410  -0.91604
 Alpha  occ. eigenvalues --   -0.86658  -0.85131  -0.84924  -0.77927  -0.75814
 Alpha  occ. eigenvalues --   -0.72028  -0.70293  -0.67770  -0.64690  -0.61863
 Alpha  occ. eigenvalues --   -0.60138  -0.58670  -0.57620  -0.55493  -0.55402
 Alpha  occ. eigenvalues --   -0.53656  -0.52879  -0.52300  -0.50662  -0.49793
 Alpha  occ. eigenvalues --   -0.48838  -0.48498  -0.46994  -0.46162  -0.45412
 Alpha  occ. eigenvalues --   -0.45070  -0.44133  -0.43498  -0.42551  -0.41936
 Alpha  occ. eigenvalues --   -0.40860  -0.38622  -0.36869  -0.35994  -0.33555
 Alpha  occ. eigenvalues --   -0.32675
 Alpha virt. eigenvalues --    0.04565   0.05113   0.06717   0.07131   0.07954
 Alpha virt. eigenvalues --    0.08132   0.08636   0.09390   0.09993   0.10184
 Alpha virt. eigenvalues --    0.10328   0.10973   0.11662   0.12258   0.12913
 Alpha virt. eigenvalues --    0.13369   0.13798   0.14462   0.14842   0.15072
 Alpha virt. eigenvalues --    0.15631   0.15891   0.17094   0.17314   0.17805
 Alpha virt. eigenvalues --    0.18434   0.18896   0.18938   0.19176   0.20210
 Alpha virt. eigenvalues --    0.20584   0.20980   0.21278   0.21927   0.22155
 Alpha virt. eigenvalues --    0.22513   0.23283   0.23997   0.24406   0.24672
 Alpha virt. eigenvalues --    0.25639   0.25897   0.26068   0.26672   0.26795
 Alpha virt. eigenvalues --    0.26984   0.27872   0.28480   0.28949   0.29292
 Alpha virt. eigenvalues --    0.29544   0.30015   0.30508   0.30914   0.31275
 Alpha virt. eigenvalues --    0.32185   0.32471   0.32905   0.33048   0.33706
 Alpha virt. eigenvalues --    0.34026   0.34895   0.35247   0.35768   0.36330
 Alpha virt. eigenvalues --    0.36630   0.36835   0.37542   0.38146   0.38703
 Alpha virt. eigenvalues --    0.38984   0.39628   0.40161   0.41321   0.41809
 Alpha virt. eigenvalues --    0.42634   0.42870   0.43536   0.43851   0.44762
 Alpha virt. eigenvalues --    0.45528   0.46872   0.47053   0.47647   0.47818
 Alpha virt. eigenvalues --    0.48612   0.50014   0.50446   0.52059   0.53670
 Alpha virt. eigenvalues --    0.55636   0.56649   0.61025   0.66302   0.69946
 Alpha virt. eigenvalues --    0.73285   0.73809   0.75294   0.75853   0.76241
 Alpha virt. eigenvalues --    0.77478   0.77719   0.78063   0.79419   0.80528
 Alpha virt. eigenvalues --    0.80998   0.81790   0.83186   0.83745   0.84520
 Alpha virt. eigenvalues --    0.85573   0.86195   0.87031   0.88606   0.89498
 Alpha virt. eigenvalues --    0.90128   0.90804   0.91854   0.94071   0.94574
 Alpha virt. eigenvalues --    0.96647   0.97824   0.98518   1.00288   1.02047
 Alpha virt. eigenvalues --    1.02554   1.04803   1.05742   1.06237   1.07115
 Alpha virt. eigenvalues --    1.08374   1.09976   1.10691   1.11595   1.12753
 Alpha virt. eigenvalues --    1.14235   1.15421   1.16374   1.17399   1.18799
 Alpha virt. eigenvalues --    1.20300   1.21302   1.22717   1.23860   1.25301
 Alpha virt. eigenvalues --    1.26681   1.27160   1.28297   1.29316   1.31313
 Alpha virt. eigenvalues --    1.33121   1.34322   1.34556   1.36543   1.36747
 Alpha virt. eigenvalues --    1.39843   1.40356   1.41411   1.43121   1.44857
 Alpha virt. eigenvalues --    1.45864   1.46670   1.47790   1.48281   1.49958
 Alpha virt. eigenvalues --    1.50893   1.52431   1.53757   1.55080   1.56946
 Alpha virt. eigenvalues --    1.57669   1.60520   1.61599   1.63298   1.65714
 Alpha virt. eigenvalues --    1.67661   1.69428   1.70840   1.73841   1.74070
 Alpha virt. eigenvalues --    1.77021   1.79959   1.85533   1.85828   1.88007
 Alpha virt. eigenvalues --    1.90324   1.91489   1.92164   1.93855   1.95644
 Alpha virt. eigenvalues --    1.96582   1.97445   1.98254   1.99246   2.00625
 Alpha virt. eigenvalues --    2.01218   2.03575   2.04478   2.05900   2.06499
 Alpha virt. eigenvalues --    2.07283   2.08123   2.09532   2.11168   2.11557
 Alpha virt. eigenvalues --    2.13521   2.14308   2.15037   2.15732   2.17425
 Alpha virt. eigenvalues --    2.19010   2.20419   2.21322   2.22104   2.23720
 Alpha virt. eigenvalues --    2.24592   2.25964   2.28103   2.30001   2.31192
 Alpha virt. eigenvalues --    2.32570   2.35740   2.36932   2.38038   2.39853
 Alpha virt. eigenvalues --    2.42663   2.43511   2.45224   2.47885   2.48157
 Alpha virt. eigenvalues --    2.48979   2.50079   2.50971   2.52255   2.53896
 Alpha virt. eigenvalues --    2.55646   2.57237   2.57275   2.57597   2.60122
 Alpha virt. eigenvalues --    2.61810   2.63590   2.64495   2.65705   2.68714
 Alpha virt. eigenvalues --    2.69367   2.70635   2.72716   2.73863   2.74800
 Alpha virt. eigenvalues --    2.77545   2.77840   2.79973   2.81595   2.82778
 Alpha virt. eigenvalues --    2.83361   2.85624   2.86785   2.88144   2.89467
 Alpha virt. eigenvalues --    2.91513   2.92092   2.94417   2.97656   2.98329
 Alpha virt. eigenvalues --    2.98960   3.00960   3.02250   3.05388   3.09927
 Alpha virt. eigenvalues --    3.10701   3.15190   3.16159   3.20909   3.25356
 Alpha virt. eigenvalues --    3.28121   3.30090   3.36856   3.37079   3.38099
 Alpha virt. eigenvalues --    3.38896   3.43718   3.44923   3.48987   3.51937
 Alpha virt. eigenvalues --    3.53941   3.57744   3.59098   3.61085   3.62175
 Alpha virt. eigenvalues --    3.64974   3.66049   3.68971   3.99648   4.39841
 Alpha virt. eigenvalues --    4.41025   4.44068   4.45604   4.50121   4.54298
 Alpha virt. eigenvalues --    4.56392   4.59909   4.63300   4.67161   4.74852
 Alpha virt. eigenvalues --    4.77761   4.82112   4.94149   4.97525
          Condensed to atoms (all electrons):
              1          2          3          4          5          6
     1  C   15.924331  -1.247221  -1.280152  -5.220888  -5.965439   0.339527
     2  C   -1.247221   8.383486   0.562320   1.172081  -1.278658   0.430777
     3  C   -1.280152   0.562320   6.964953   0.718024  -0.372675   0.407934
     4  C   -5.220888   1.172081   0.718024  18.374626  -1.090074  -1.097254
     5  C   -5.965439  -1.278658  -0.372675  -1.090074  15.445119   0.294841
     6  C    0.339527   0.430777   0.407934  -1.097254   0.294841   5.593440
     7  C    4.103280  -2.339967  -1.168195  -8.519775  -1.660712  -0.066196
     8  C   -1.376044   0.273363   0.043253   1.393126   1.087539  -0.058765
     9  C    0.292757   0.011969   0.002005  -0.460666  -0.448693  -0.017520
    10  O   -0.012897   0.002404   0.001338   0.008539  -0.003192  -0.000751
    11  C    0.008778   0.000006   0.003672   0.002350  -0.007112  -0.000261
    12  O   -0.079589   0.127033   0.034803   0.466919  -0.038849   0.001086
    13  C    0.194892  -0.078144  -0.034497   0.111541  -0.048252   0.042879
    14  O   -0.003215  -0.002092  -0.000181  -0.010246   0.005407  -0.000055
    15  C   -0.003832   0.000533  -0.000632  -0.006425   0.000861  -0.000125
    16  H    0.222396   0.008469   0.040222   0.064884   0.001635  -0.010566
    17  H    0.006767   0.276627  -0.002381   0.045934   0.010459  -0.005565
    18  H    0.029408   0.003424   0.279016   0.011075  -0.009905   0.017513
    19  H    0.033210  -0.034462   0.001360   0.084701   0.187532  -0.020665
    20  H    0.000217   0.015389   0.024020   0.003568  -0.002029   0.282873
    21  H    0.174812   0.011927   0.066008   0.087631  -0.087532   0.002540
    22  H    0.044569  -0.008600   0.005597   0.060988  -0.101020  -0.003200
    23  H    0.000429   0.000006   0.000032   0.000035  -0.000069  -0.000001
    24  H    0.000204  -0.000015  -0.000070  -0.000634  -0.000321   0.000004
    25  H   -0.024541   0.008793   0.005020   0.102025  -0.077452  -0.007545
    26  H    0.005033  -0.002012  -0.001929  -0.030983  -0.006330   0.000124
    27  H    0.002053  -0.002911  -0.006261   0.039115   0.030813   0.005864
    28  H    0.024308  -0.002011   0.006288  -0.023517  -0.013264   0.000442
    29  H   -0.000056   0.000000  -0.000014  -0.000014   0.000006   0.000001
    30  H    0.000029  -0.000001   0.000001  -0.000008  -0.000018   0.000000
    31  H    0.000043   0.000005   0.000019  -0.000141   0.000066  -0.000001
              7          8          9         10         11         12
     1  C    4.103280  -1.376044   0.292757  -0.012897   0.008778  -0.079589
     2  C   -2.339967   0.273363   0.011969   0.002404   0.000006   0.127033
     3  C   -1.168195   0.043253   0.002005   0.001338   0.003672   0.034803
     4  C   -8.519775   1.393126  -0.460666   0.008539   0.002350   0.466919
     5  C   -1.660712   1.087539  -0.448693  -0.003192  -0.007112  -0.038849
     6  C   -0.066196  -0.058765  -0.017520  -0.000751  -0.000261   0.001086
     7  C   17.890181  -2.540064   0.701978  -0.007415   0.001245  -0.417733
     8  C   -2.540064   9.122925  -1.286604  -0.395269  -0.096647  -0.080846
     9  C    0.701978  -1.286604   6.322376   0.396200  -0.042007  -0.015723
    10  O   -0.007415  -0.395269   0.396200   8.462779   0.075240   0.001135
    11  C    0.001245  -0.096647  -0.042007   0.075240   5.187237  -0.004755
    12  O   -0.417733  -0.080846  -0.015723   0.001135  -0.004755   8.322704
    13  C   -0.148091  -0.199820  -0.258757   0.006863  -0.032254   0.037278
    14  O   -0.055287   0.106273   0.487902  -0.149810   0.012538   0.000849
    15  C   -0.006114  -0.048066   0.034678  -0.047222   0.247179  -0.000177
    16  H   -0.009435   0.000047  -0.003289  -0.000070  -0.000018  -0.000225
    17  H   -0.005399  -0.000042   0.000274   0.000000   0.000001   0.000079
    18  H   -0.003375  -0.000273   0.000094   0.000000   0.000000   0.000014
    19  H    0.055234  -0.008941   0.027298   0.000018   0.000095   0.001583
    20  H    0.003143  -0.000389  -0.000073   0.000000   0.000000  -0.000008
    21  H    0.031086  -0.011899   0.022834   0.006432   0.008655  -0.043061
    22  H    0.005408   0.262088   0.034728   0.012639   0.004676   0.001910
    23  H   -0.005814   0.023964  -0.015400  -0.038345   0.398753   0.000071
    24  H    0.001417  -0.011544   0.016202  -0.061837   0.421343   0.000000
    25  H    0.005953   0.006820  -0.001114   0.000211   0.000001   0.231957
    26  H    0.068846  -0.135293   0.034042  -0.001017  -0.001176  -0.000499
    27  H   -0.050725  -0.051332  -0.053027  -0.000701  -0.000680  -0.000533
    28  H    0.001320  -0.071766   0.013555   0.005934   0.004927   0.000360
    29  H   -0.000681  -0.010288   0.006359  -0.005803  -0.045758   0.000006
    30  H   -0.000153   0.004269   0.003354   0.007476  -0.050770   0.000000
    31  H   -0.001346   0.008041   0.005269  -0.005161  -0.047024   0.000005
             13         14         15         16         17         18
     1  C    0.194892  -0.003215  -0.003832   0.222396   0.006767   0.029408
     2  C   -0.078144  -0.002092   0.000533   0.008469   0.276627   0.003424
     3  C   -0.034497  -0.000181  -0.000632   0.040222  -0.002381   0.279016
     4  C    0.111541  -0.010246  -0.006425   0.064884   0.045934   0.011075
     5  C   -0.048252   0.005407   0.000861   0.001635   0.010459  -0.009905
     6  C    0.042879  -0.000055  -0.000125  -0.010566  -0.005565   0.017513
     7  C   -0.148091  -0.055287  -0.006114  -0.009435  -0.005399  -0.003375
     8  C   -0.199820   0.106273  -0.048066   0.000047  -0.000042  -0.000273
     9  C   -0.258757   0.487902   0.034678  -0.003289   0.000274   0.000094
    10  O    0.006863  -0.149810  -0.047222  -0.000070   0.000000   0.000000
    11  C   -0.032254   0.012538   0.247179  -0.000018   0.000001   0.000000
    12  O    0.037278   0.000849  -0.000177  -0.000225   0.000079   0.000014
    13  C    5.802470  -0.052886   0.006473   0.003216   0.000160   0.000005
    14  O   -0.052886   8.198805  -0.043551   0.000005   0.000000   0.000000
    15  C    0.006473  -0.043551   5.226685   0.000034   0.000000   0.000000
    16  H    0.003216   0.000005   0.000034   0.504143   0.000011  -0.003902
    17  H    0.000160   0.000000   0.000000   0.000011   0.494122  -0.000122
    18  H    0.000005   0.000000   0.000000  -0.003902  -0.000122   0.495280
    19  H   -0.008446   0.000011  -0.000012  -0.000107  -0.003979   0.000011
    20  H    0.000022   0.000000   0.000000  -0.000120  -0.003819  -0.003857
    21  H   -0.021394  -0.000810  -0.001435   0.002296   0.000002  -0.000002
    22  H   -0.014694  -0.006164  -0.000529  -0.000007   0.000002   0.000000
    23  H   -0.000989   0.000717  -0.031321   0.000000   0.000000   0.000000
    24  H    0.003805   0.000361  -0.039453   0.000000   0.000000   0.000000
    25  H   -0.001605  -0.000075   0.000051   0.000114  -0.000003   0.000000
    26  H    0.427420   0.002122  -0.000098   0.000003   0.000000   0.000000
    27  H    0.450447   0.000110  -0.000289  -0.000042  -0.000003  -0.000002
    28  H    0.405305  -0.000216  -0.000536  -0.000085   0.000000   0.000000
    29  H    0.003135   0.001288   0.415979   0.000000   0.000000   0.000000
    30  H    0.000346  -0.000134   0.399109   0.000000   0.000000   0.000000
    31  H   -0.002039  -0.000541   0.405583   0.000000   0.000000   0.000000
             19         20         21         22         23         24
     1  C    0.033210   0.000217   0.174812   0.044569   0.000429   0.000204
     2  C   -0.034462   0.015389   0.011927  -0.008600   0.000006  -0.000015
     3  C    0.001360   0.024020   0.066008   0.005597   0.000032  -0.000070
     4  C    0.084701   0.003568   0.087631   0.060988   0.000035  -0.000634
     5  C    0.187532  -0.002029  -0.087532  -0.101020  -0.000069  -0.000321
     6  C   -0.020665   0.282873   0.002540  -0.003200  -0.000001   0.000004
     7  C    0.055234   0.003143   0.031086   0.005408  -0.005814   0.001417
     8  C   -0.008941  -0.000389  -0.011899   0.262088   0.023964  -0.011544
     9  C    0.027298  -0.000073   0.022834   0.034728  -0.015400   0.016202
    10  O    0.000018   0.000000   0.006432   0.012639  -0.038345  -0.061837
    11  C    0.000095   0.000000   0.008655   0.004676   0.398753   0.421343
    12  O    0.001583  -0.000008  -0.043061   0.001910   0.000071   0.000000
    13  C   -0.008446   0.000022  -0.021394  -0.014694  -0.000989   0.003805
    14  O    0.000011   0.000000  -0.000810  -0.006164   0.000717   0.000361
    15  C   -0.000012   0.000000  -0.001435  -0.000529  -0.031321  -0.039453
    16  H   -0.000107  -0.000120   0.002296  -0.000007   0.000000   0.000000
    17  H   -0.003979  -0.003819   0.000002   0.000002   0.000000   0.000000
    18  H    0.000011  -0.003857  -0.000002   0.000000   0.000000   0.000000
    19  H    0.501704  -0.000117  -0.000070  -0.000130   0.000000   0.000000
    20  H   -0.000117   0.497569   0.000000   0.000000   0.000000   0.000000
    21  H   -0.000070   0.000000   0.589724   0.003759   0.000015   0.000030
    22  H   -0.000130   0.000000   0.003759   0.500410  -0.000001   0.000003
    23  H    0.000000   0.000000   0.000015  -0.000001   0.520838  -0.031195
    24  H    0.000000   0.000000   0.000030   0.000003  -0.031195   0.530997
    25  H   -0.000290   0.000000  -0.003191  -0.000019   0.000000   0.000000
    26  H    0.000006   0.000000  -0.000075  -0.002326  -0.000004   0.000000
    27  H   -0.000046   0.000000  -0.000041  -0.004186   0.000000   0.000000
    28  H    0.000000   0.000000   0.002181   0.003887  -0.000004   0.000001
    29  H    0.000000   0.000000   0.000000   0.000003  -0.004759   0.003935
    30  H    0.000000   0.000000   0.000000   0.000000  -0.001007  -0.001150
    31  H    0.000000   0.000000   0.000001   0.000000   0.003804  -0.005083
             25         26         27         28         29         30
     1  C   -0.024541   0.005033   0.002053   0.024308  -0.000056   0.000029
     2  C    0.008793  -0.002012  -0.002911  -0.002011   0.000000  -0.000001
     3  C    0.005020  -0.001929  -0.006261   0.006288  -0.000014   0.000001
     4  C    0.102025  -0.030983   0.039115  -0.023517  -0.000014  -0.000008
     5  C   -0.077452  -0.006330   0.030813  -0.013264   0.000006  -0.000018
     6  C   -0.007545   0.000124   0.005864   0.000442   0.000001   0.000000
     7  C    0.005953   0.068846  -0.050725   0.001320  -0.000681  -0.000153
     8  C    0.006820  -0.135293  -0.051332  -0.071766  -0.010288   0.004269
     9  C   -0.001114   0.034042  -0.053027   0.013555   0.006359   0.003354
    10  O    0.000211  -0.001017  -0.000701   0.005934  -0.005803   0.007476
    11  C    0.000001  -0.001176  -0.000680   0.004927  -0.045758  -0.050770
    12  O    0.231957  -0.000499  -0.000533   0.000360   0.000006   0.000000
    13  C   -0.001605   0.427420   0.450447   0.405305   0.003135   0.000346
    14  O   -0.000075   0.002122   0.000110  -0.000216   0.001288  -0.000134
    15  C    0.000051  -0.000098  -0.000289  -0.000536   0.415979   0.399109
    16  H    0.000114   0.000003  -0.000042  -0.000085   0.000000   0.000000
    17  H   -0.000003   0.000000  -0.000003   0.000000   0.000000   0.000000
    18  H    0.000000   0.000000  -0.000002   0.000000   0.000000   0.000000
    19  H   -0.000290   0.000006  -0.000046   0.000000   0.000000   0.000000
    20  H    0.000000   0.000000   0.000000   0.000000   0.000000   0.000000
    21  H   -0.003191  -0.000075  -0.000041   0.002181   0.000000   0.000000
    22  H   -0.000019  -0.002326  -0.004186   0.003887   0.000003   0.000000
    23  H    0.000000  -0.000004   0.000000  -0.000004  -0.004759  -0.001007
    24  H    0.000000   0.000000   0.000000   0.000001   0.003935  -0.001150
    25  H    0.353376   0.000003  -0.000002  -0.000003   0.000000   0.000000
    26  H    0.000003   0.508606  -0.023107  -0.024953  -0.000023   0.000000
    27  H   -0.000002  -0.023107   0.503062  -0.024428   0.000000   0.000000
    28  H   -0.000003  -0.024953  -0.024428   0.506629   0.000001   0.000000
    29  H    0.000000  -0.000023   0.000000   0.000001   0.508050  -0.021933
    30  H    0.000000   0.000000   0.000000   0.000000  -0.021933   0.506411
    31  H    0.000000  -0.000018   0.000001  -0.000008  -0.029319  -0.022725
             31
     1  C    0.000043
     2  C    0.000005
     3  C    0.000019
     4  C   -0.000141
     5  C    0.000066
     6  C   -0.000001
     7  C   -0.001346
     8  C    0.008041
     9  C    0.005269
    10  O   -0.005161
    11  C   -0.047024
    12  O    0.000005
    13  C   -0.002039
    14  O   -0.000541
    15  C    0.405583
    16  H    0.000000
    17  H    0.000000
    18  H    0.000000
    19  H    0.000000
    20  H    0.000000
    21  H    0.000001
    22  H    0.000000
    23  H    0.003804
    24  H   -0.005083
    25  H    0.000000
    26  H   -0.000018
    27  H    0.000001
    28  H   -0.000008
    29  H   -0.029319
    30  H   -0.022725
    31  H    0.517823
 Mulliken atomic charges:
              1
     1  C   -0.193167
     2  C   -0.292521
     3  C   -0.298898
     4  C   -0.286538
     5  C    0.147323
     6  C   -0.131372
     7  C    0.137386
     8  C    0.052185
     9  C    0.189001
    10  O   -0.257721
    11  C   -0.048235
    12  O   -0.545792
    13  C   -0.594389
    14  O   -0.491125
    15  C   -0.507348
    16  H    0.180391
    17  H    0.186877
    18  H    0.185600
    19  H    0.184503
    20  H    0.183611
    21  H    0.159580
    22  H    0.200209
    23  H    0.180246
    24  H    0.173001
    25  H    0.401517
    26  H    0.183639
    27  H    0.186850
    28  H    0.185654
    29  H    0.179885
    30  H    0.176904
    31  H    0.172746
 Sum of Mulliken atomic charges =   0.00000
 Mulliken charges with hydrogens summed into heavy atoms:
              1
     1  C   -0.012776
     2  C   -0.105643
     3  C   -0.113299
     4  C   -0.286538
     5  C    0.331826
     6  C    0.052239
     7  C    0.296966
     8  C    0.252394
     9  C    0.189001
    10  O   -0.257721
    11  C    0.305012
    12  O   -0.144276
    13  C   -0.038246
    14  O   -0.491125
    15  C    0.022187
 Sum of Mulliken charges with hydrogens summed into heavy atoms =   0.00000
 Electronic spatial extent (au):  <R**2>=           4213.3257
 Charge=              0.0000 electrons
 Dipole moment (field-independent basis, Debye):
    X=              2.3370    Y=              3.5788    Z=             -0.6045  Tot=              4.3168
 Quadrupole moment (field-independent basis, Debye-Ang):
   XX=            -77.7097   YY=            -92.1027   ZZ=            -89.0039
   XY=             -9.7723   XZ=              4.2670   YZ=             -1.5017
 Traceless Quadrupole moment (field-independent basis, Debye-Ang):
   XX=              8.5624   YY=             -5.8306   ZZ=             -2.7318
   XY=             -9.7723   XZ=              4.2670   YZ=             -1.5017
 Octapole moment (field-independent basis, Debye-Ang**2):
  XXX=            -15.3707  YYY=             10.8149  ZZZ=            -10.9831  XYY=             20.9440
  XXY=             29.5136  XXZ=            -15.4324  XZZ=            -14.1638  YZZ=             -1.7551
  YYZ=             -5.8400  XYZ=             -9.2599
 Hexadecapole moment (field-independent basis, Debye-Ang**3):
 XXXX=          -4066.5803 YYYY=           -613.2495 ZZZZ=           -458.9860 XXXY=            -70.3148
 XXXZ=            166.4145 YYYX=            -18.6177 YYYZ=            -10.9944 ZZZX=            -11.8425
 ZZZY=             11.1548 XXYY=           -851.1608 XXZZ=           -863.1286 YYZZ=           -183.8952
 XXYZ=            -11.3241 YYXZ=              7.7742 ZZXY=            -22.8836
 N-N= 9.958213877273D+02 E-N=-3.603440816799D+03  KE= 6.858884021065D+02
 1\1\GINC-COMPUTE-8-6\SP\RwB97XD\6-31+G(d,p)\C12H16O3\ELUCIANO.IQUIR\17
 -May-2022\0\\# wb97xd/6-31+g** scrf=(pcm,solvent=chloroform,smd,dovacu
 um) nmr\\comment\\0,1\C,0,-1.380454039,-2.38651193,0.090689413\C,0,-3.
 87620582,-1.339253483,-0.585768688\C,0,-2.541300351,-3.116114837,0.353
 693402\C,0,-1.454916401,-1.122422362,-0.512896665\C,0,-2.717471011,-0.
 607856448,-0.849461412\C,0,-3.787690673,-2.592527352,0.016019599\C,0,-
 0.189075119,-0.333083984,-0.793628392\C,0,-0.081240075,0.969417145,0.0
 14641805\C,0,1.226231122,1.673118339,-0.285398626\O,0,2.293453333,0.84
 3088684,-0.111016623\C,0,3.582920716,1.425933164,-0.34940771\O,0,-0.16
 3075859,-0.025528719,-2.192330758\C,0,-0.181182657,0.764395926,1.52641
 7826\O,0,1.304739163,2.861887935,-0.57207552\C,0,4.102487577,2.0775487
 ,0.918232319\H,0,-0.417587961,-2.813267408,0.364013813\H,0,-4.84814309
 4,-0.930499413,-0.850420458\H,0,-2.473497922,-4.094219218,0.823396999\
 H,0,-2.802614712,0.368473774,-1.323873034\H,0,-4.69065878,-3.16157109,
 0.221799248\H,0,0.679588546,-0.975775933,-0.60788893\H,0,-0.874534277,
 1.659532186,-0.302830333\H,0,3.553134461,2.136027578,-1.183784095\H,0,
 4.251950638,0.611173871,-0.645084243\H,0,-0.587333177,-0.766167969,-2.
 661121867\H,0,0.024730353,1.698631255,2.060959195\H,0,-1.181780461,0.4
 31310746,1.818887974\H,0,0.54242529,0.020156495,1.877158274\H,0,3.4486
 96517,2.89582168,1.23611019\H,0,5.110002522,2.474525614,0.765493646\H,
 0,4.128402153,1.353757052,1.739473649\\Version=EM64L-G09RevC.01\State=
 1-A\HF=-692.4449005\RMSD=3.224e-09\Dipole=-0.1286986,-1.5367993,0.7113
 817\Quadrupole=10.5467005,-6.6641722,-3.8825282,0.870239,1.9965729,2.3
 90704\PG=C01 [X(C12H16O3)]\\@


 TIME IS NATURE'S WAY OF MAKING SURE EVERYTHING
 DOESN'T HAPPEN AT ONCE.
                     - WOODY ALLEN
 Job cpu time:  0 days  1 hours 57 minutes 20.6 seconds.
 File lengths (MBytes):  RWF=    125 Int=      0 D2E=      0 Chk=      9 Scr=      1
 Normal termination of Gaussian 09 at Tue May 17 21:11:14 2022.
