 Entering Gaussian System, Link 0=g09
 Input=/home/lpassaglia.iquir/Link1/01_RRSS_THC_005.gjc
 Output=/home/lpassaglia.iquir/Link1/01_RRSS_THC_005.log
 Initial command:
 /share/apps/Gaussian09/EM64T.SSE4.2-enabled/g09/l1.exe /tmp/Gau-14877.inp -scrdir=/tmp/
 Entering Link 1 = /share/apps/Gaussian09/EM64T.SSE4.2-enabled/g09/l1.exe PID=     14879.
  
 Copyright (c) 1988,1990,1992,1993,1995,1998,2003,2009,2011,
            Gaussian, Inc.  All Rights Reserved.
  
 This is part of the Gaussian(R) 09 program.  It is based on
 the Gaussian(R) 03 system (copyright 2003, Gaussian, Inc.),
 the Gaussian(R) 98 system (copyright 1998, Gaussian, Inc.),
 the Gaussian(R) 94 system (copyright 1995, Gaussian, Inc.),
 the Gaussian 92(TM) system (copyright 1992, Gaussian, Inc.),
 the Gaussian 90(TM) system (copyright 1990, Gaussian, Inc.),
 the Gaussian 88(TM) system (copyright 1988, Gaussian, Inc.),
 the Gaussian 86(TM) system (copyright 1986, Carnegie Mellon
 University), and the Gaussian 82(TM) system (copyright 1983,
 Carnegie Mellon University). Gaussian is a federally registered
 trademark of Gaussian, Inc.
  
 This software contains proprietary and confidential information,
 including trade secrets, belonging to Gaussian, Inc.
  
 This software is provided under written license and may be
 used, copied, transmitted, or stored only in accord with that
 written license.
  
 The following legend is applicable only to US Government
 contracts under FAR:
  
                    RESTRICTED RIGHTS LEGEND
  
 Use, reproduction and disclosure by the US Government is
 subject to restrictions as set forth in subparagraphs (a)
 and (c) of the Commercial Computer Software - Restricted
 Rights clause in FAR 52.227-19.
  
 Gaussian, Inc.
 340 Quinnipiac St., Bldg. 40, Wallingford CT 06492
  
  
 ---------------------------------------------------------------
 Warning -- This program may not be used in any manner that
 competes with the business of Gaussian, Inc. or will provide
 assistance to any competitor of Gaussian, Inc.  The licensee
 of this program is prohibited from giving any competitor of
 Gaussian, Inc. access to this program.  By using this program,
 the user acknowledges that Gaussian, Inc. is engaged in the
 business of creating and licensing software in the field of
 computational chemistry and represents and warrants to the
 licensee that it is not a competitor of Gaussian, Inc. and that
 it will not use this program in any manner prohibited above.
 ---------------------------------------------------------------
  

 Cite this work as:
 Gaussian 09, Revision C.01,
 M. J. Frisch, G. W. Trucks, H. B. Schlegel, G. E. Scuseria, 
 M. A. Robb, J. R. Cheeseman, G. Scalmani, V. Barone, B. Mennucci, 
 G. A. Petersson, H. Nakatsuji, M. Caricato, X. Li, H. P. Hratchian, 
 A. F. Izmaylov, J. Bloino, G. Zheng, J. L. Sonnenberg, M. Hada, 
 M. Ehara, K. Toyota, R. Fukuda, J. Hasegawa, M. Ishida, T. Nakajima, 
 Y. Honda, O. Kitao, H. Nakai, T. Vreven, J. A. Montgomery, Jr., 
 J. E. Peralta, F. Ogliaro, M. Bearpark, J. J. Heyd, E. Brothers, 
 K. N. Kudin, V. N. Staroverov, T. Keith, R. Kobayashi, J. Normand, 
 K. Raghavachari, A. Rendell, J. C. Burant, S. S. Iyengar, J. Tomasi, 
 M. Cossi, N. Rega, J. M. Millam, M. Klene, J. E. Knox, J. B. Cross, 
 V. Bakken, C. Adamo, J. Jaramillo, R. Gomperts, R. E. Stratmann, 
 O. Yazyev, A. J. Austin, R. Cammi, C. Pomelli, J. W. Ochterski, 
 R. L. Martin, K. Morokuma, V. G. Zakrzewski, G. A. Voth, 
 P. Salvador, J. J. Dannenberg, S. Dapprich, A. D. Daniels, 
 O. Farkas, J. B. Foresman, J. V. Ortiz, J. Cioslowski, 
 and D. J. Fox, Gaussian, Inc., Wallingford CT, 2010.
 
 ******************************************
 Gaussian 09:  EM64L-G09RevC.01 23-Sep-2011
                23-Dec-2022 
 ******************************************
 %chk=01_RRSS_THC_005_optB_NMR
 %nprocshared=4
 Will use up to    4 processors via shared memory.
 ------------------------------------------------
 # mPW1PW91/6-31+G** scrf=(PCM,solvent=water) nmr
 ------------------------------------------------
 1/38=1/1;
 2/12=2,17=6,18=5,40=1/2;
 3/5=1,6=6,7=111,11=2,16=1,25=1,30=1,70=2201,72=1,74=-7/1,2,8,3;
 4//1;
 5/5=2,38=5,53=1/2;
 8/6=1,10=90,11=11/1;
 10/13=100,45=16/2;
 6/7=2,8=2,9=2,10=2,28=1/1;
 99/9=1/99;
 -------
 comment
 -------
 Charge =  0 Multiplicity = 1
 Symbolic Z-Matrix:
 6                    -1.72712   0.94538  -2.79665 
 6                    -2.29919   2.11838  -1.98204 
 1                    -1.62213   2.98041  -2.03159 
 1                    -3.25815   2.43899  -2.40832 
 6                    -2.53322   1.75149  -0.51582 
 1                    -2.88993   2.64238   0.01687 
 6                    -1.26073   1.20601   0.16553 
 1                    -0.52799   2.02251   0.15325 
 6                    -0.67556   0.01213  -0.65378 
 1                    -1.46843  -0.74555  -0.68503 
 6                    -0.42743   0.40745  -2.1364 
 1                    -0.07557  -0.48149  -2.67692 
 6                     0.56269  -0.63802  -0.02372 
 6                     2.76277  -1.90159   1.27626 
 6                     1.7266    0.07063   0.31476 
 6                     0.55349  -2.01143   0.28001 
 6                     1.62899  -2.63743   0.92111 
 6                     2.79918  -0.53951   0.96947 
 1                     1.59002  -3.69782   1.15355 
 1                     3.66887   0.06048   1.22698 
 8                    -0.53887  -2.76538  -0.05995 
 1                    -0.41079  -3.66997   0.26718 
 8                     1.9073    1.39278   0.01417 
 1                     1.38322   1.5736   -0.79616 
 8                     0.60563   1.40754  -2.2191 
 1                     0.98559   1.33341  -3.11558 
 6                    -1.47953   1.38962  -4.24312 
 1                    -2.41947   1.67772  -4.72816 
 1                    -1.06679   0.56465  -4.83481 
 1                    -0.79252   2.23937  -4.30406 
 8                    -2.6939   -0.11029  -2.84355 
 1                    -3.5304    0.25768  -3.17755 
 1                    -3.34186   1.01124  -0.45638 
 6                    -1.57158   0.90132   1.63252 
 6                    -2.23226  -0.19511   2.04264 
 1                    -2.42658  -0.38098   3.09422 
 1                    -2.59063  -0.94272   1.34182 
 6                    -1.07977   1.92161   2.62344 
 1                     0.01067   2.00523   2.57308 
 1                    -1.34597   1.65963   3.65288 
 1                    -1.51595   2.90202   2.40642 
 6                     3.91365  -2.55524   1.99483 
 1                     4.00583  -3.59919   1.67124 
 1                     4.85319  -2.06606   1.71015 
 6                     3.7419   -2.49858   3.50507 
 1                     4.59082  -2.97993   4.00078 
 1                     2.8281   -3.01345   3.82066 
 1                     3.68381  -1.46393   3.8598 
 
                          Input orientation:                          
 ---------------------------------------------------------------------
 Center     Atomic      Atomic             Coordinates (Angstroms)
 Number     Number       Type             X           Y           Z
 ---------------------------------------------------------------------
      1          6           0       -1.727116    0.945379   -2.796651
      2          6           0       -2.299190    2.118378   -1.982043
      3          1           0       -1.622134    2.980409   -2.031589
      4          1           0       -3.258149    2.438995   -2.408317
      5          6           0       -2.533218    1.751485   -0.515817
      6          1           0       -2.889932    2.642376    0.016866
      7          6           0       -1.260733    1.206009    0.165526
      8          1           0       -0.527988    2.022511    0.153254
      9          6           0       -0.675563    0.012127   -0.653780
     10          1           0       -1.468425   -0.745553   -0.685029
     11          6           0       -0.427426    0.407452   -2.136398
     12          1           0       -0.075571   -0.481494   -2.676922
     13          6           0        0.562688   -0.638021   -0.023718
     14          6           0        2.762772   -1.901590    1.276263
     15          6           0        1.726604    0.070633    0.314760
     16          6           0        0.553487   -2.011427    0.280006
     17          6           0        1.628990   -2.637434    0.921110
     18          6           0        2.799181   -0.539506    0.969467
     19          1           0        1.590019   -3.697825    1.153546
     20          1           0        3.668865    0.060476    1.226983
     21          8           0       -0.538871   -2.765382   -0.059947
     22          1           0       -0.410786   -3.669968    0.267177
     23          8           0        1.907298    1.392783    0.014170
     24          1           0        1.383223    1.573604   -0.796160
     25          8           0        0.605634    1.407542   -2.219104
     26          1           0        0.985588    1.333412   -3.115577
     27          6           0       -1.479530    1.389617   -4.243120
     28          1           0       -2.419469    1.677723   -4.728160
     29          1           0       -1.066789    0.564654   -4.834805
     30          1           0       -0.792516    2.239366   -4.304062
     31          8           0       -2.693895   -0.110292   -2.843549
     32          1           0       -3.530405    0.257684   -3.177551
     33          1           0       -3.341861    1.011244   -0.456382
     34          6           0       -1.571582    0.901324    1.632523
     35          6           0       -2.232261   -0.195108    2.042638
     36          1           0       -2.426579   -0.380983    3.094218
     37          1           0       -2.590628   -0.942723    1.341825
     38          6           0       -1.079769    1.921614    2.623436
     39          1           0        0.010667    2.005235    2.573080
     40          1           0       -1.345966    1.659630    3.652881
     41          1           0       -1.515952    2.902025    2.406419
     42          6           0        3.913649   -2.555242    1.994827
     43          1           0        4.005829   -3.599194    1.671240
     44          1           0        4.853188   -2.066059    1.710148
     45          6           0        3.741896   -2.498579    3.505069
     46          1           0        4.590816   -2.979927    4.000785
     47          1           0        2.828105   -3.013451    3.820663
     48          1           0        3.683806   -1.463927    3.859802
 ---------------------------------------------------------------------
                    Distance matrix (angstroms):
                    1          2          3          4          5
     1  C    0.000000
     2  C    1.538435   0.000000
     3  H    2.176623   1.097249   0.000000
     4  H    2.173880   1.097318   1.763972   0.000000
     5  C    2.549865   1.529443   2.153576   2.140035   0.000000
     6  H    3.485372   2.149229   2.432642   2.461394   1.097580
     7  C    3.009972   2.553989   2.847177   3.483474   1.543046
     8  H    3.361556   2.775940   2.624551   3.766814   2.131211
     9  C    2.562931   2.972666   3.406619   3.954470   2.548585
    10  H    2.717557   3.251848   3.964800   4.039081   2.719856
    11  C    1.553863   2.540589   2.838735   3.494868   2.977762
    12  H    2.185841   3.490942   3.846178   4.327841   3.961894
    13  C    3.929314   4.429799   4.679533   5.454643   3.941642
    14  C    6.697234   7.238796   7.348687   8.286634   6.678625
    15  C    4.730141   5.067108   5.018585   6.154027   4.654160
    16  C    4.838353   5.505445   5.915676   6.446852   4.931591
    17  C    6.158063   6.817378   7.130806   7.793545   6.217021
    18  C    6.072551   6.462905   6.398763   7.547989   5.990759
    19  H    6.940228   7.667208   8.066090   8.593727   7.034404
    20  H    6.788909   7.081701   6.865783   8.176569   6.660533
    21  O    4.761430   5.535728   6.170489   6.324148   4.958561
    22  H    5.693960   6.490763   7.139972   7.251563   5.874517
    23  O    4.616259   4.712314   4.377509   5.800418   4.486395
    24  H    3.751111   3.906823   3.540842   4.989017   3.930489
    25  O    2.447218   2.999915   2.733500   4.003563   3.587740
    26  H    2.758812   3.562421   3.269227   4.442053   4.394944
    27  C    1.533271   2.513047   2.727971   2.762460   3.890244
    28  H    2.178626   2.783847   3.099069   2.581587   4.214524
    29  H    2.176019   3.474353   3.741965   3.768695   4.713029
    30  H    2.195488   2.770646   2.530128   3.116577   4.197484
    31  O    1.432237   2.421766   3.370516   2.647011   2.985023
    32  H    1.967196   2.531266   3.516810   2.328939   3.211020
    33  H    2.844046   2.154193   3.052269   2.419820   1.097904
    34  C    4.432123   3.882747   4.213178   4.640833   2.502576
    35  C    4.997459   4.642710   5.201489   5.272755   3.228854
    36  H    6.078718   5.659634   6.182231   6.238724   4.194180
    37  H    4.630071   4.528065   5.263920   5.093639   3.273055
    38  C    5.545217   4.768243   4.804630   5.507410   3.463578
    39  H    5.742577   5.108560   4.981965   5.973912   4.009617
    40  H    6.500145   5.733363   5.842424   6.403278   4.335441
    41  H    5.562822   4.526164   4.439970   5.141141   3.301218
    42  C    8.187235   8.732559   8.803428   9.785947   8.149437
    43  H    8.572155   9.262310   9.416798  10.289213   8.727665
    44  H    8.525279   9.071841   9.022042  10.151407   8.607413
    45  C    9.026772   9.376535   9.457627  10.409054   8.579489
    46  H   10.076180  10.452709  10.512653  11.491194   9.671495
    47  H    8.956071   9.289576   9.485770  10.274816   8.381734
    48  H    8.910173   9.097049   9.089203  10.134735   8.254472
                    6          7          8          9         10
     6  H    0.000000
     7  C    2.177048   0.000000
     8  H    2.445735   1.097151   0.000000
     9  C    3.503057   1.561743   2.171342   0.000000
    10  H    3.740508   2.138966   3.041269   1.097126   0.000000
    11  C    3.961738   2.575063   2.803754   1.554352   2.125929
    12  H    4.993565   3.511664   3.805867   2.167200   2.444874
    13  C    4.762692   2.600216   2.880855   1.533928   2.138765
    14  C    7.361167   5.203797   5.242978   4.382868   4.804802
    15  C    5.292920   3.199301   2.986485   2.590733   3.445859
    16  C    5.795193   3.695456   4.178314   2.545052   2.573297
    17  C    7.008189   4.867593   5.192036   3.848561   3.968989
    18  C    6.587703   4.491775   4.277871   3.874671   4.581732
    19  H    7.846027   5.757652   6.181325   4.707763   4.631452
    20  H    7.151812   5.171061   4.755633   4.734307   5.540507
    21  O    5.897222   4.042755   4.792650   2.843568   2.309655
    22  H    6.786347   4.950545   5.694824   3.804746   3.252307
    23  O    4.957309   3.177139   2.519230   3.003921   4.056706
    24  H    4.479190   2.837334   2.180741   2.587872   3.677327
    25  O    4.329361   3.034864   2.700254   2.457415   3.360197
    26  H    5.152208   3.978420   3.667564   3.250486   4.031357
    27  C    4.658983   4.417889   4.542477   3.927748   4.149589
    28  H    4.864891   5.051074   5.246408   4.734553   4.808707
    29  H    5.583860   5.045023   5.224595   4.235482   4.370194
    30  H    4.819958   4.611320   4.470422   4.277713   4.739620
    31  O    3.974617   3.583452   4.268587   2.980560   2.562136
    32  H    4.037482   4.150529   4.819065   3.818356   3.386873
    33  H    1.757497   2.180779   3.051590   2.854180   2.578444
    34  C    2.716552   1.530210   2.129410   2.611648   2.844977
    35  C    3.547901   2.535853   3.375227   3.120405   2.885585
    36  H    4.338835   3.529161   4.246257   4.155488   3.915824
    37  H    3.833801   2.787355   3.802603   2.926030   2.325156
    38  C    3.254289   2.566351   2.533069   3.814403   4.267408
    39  H    3.918374   2.837523   2.479113   3.854350   4.513293
    40  H    4.070654   3.517766   3.612223   4.659510   4.961588
    41  H    2.768611   2.821916   2.612732   4.292154   4.781645
    42  C    8.787279   6.653388   6.638926   5.887900   6.278799
    43  H    9.446993   7.286552   7.379929   6.353172   6.607778
    44  H    9.219136   7.104387   6.935227   6.361926   6.887917
    45  C    9.087251   7.064193   7.064476   6.566096   6.912125
    46  H   10.170717   8.153029   8.125885   7.638855   7.978952
    47  H    8.896808   6.919716   7.076309   6.438202   6.626069
    48  H    8.651238   6.724932   6.605524   6.446337   6.907752
                   11         12         13         14         15
    11  C    0.000000
    12  H    1.098269   0.000000
    13  C    2.556708   2.733380   0.000000
    14  C    5.211074   5.069570   2.850777   0.000000
    15  C    3.280468   3.535936   1.404087   2.426478   0.000000
    16  C    3.556989   3.388190   1.406618   2.426012   2.390059
    17  C    4.780014   4.527631   2.455067   1.397520   2.776836
    18  C    4.577567   4.643675   2.449086   1.396683   1.396901
    19  H    5.634458   5.271761   3.435659   2.148691   3.863094
    20  H    5.311527   5.436452   3.420598   2.161744   2.145841
    21  O    3.793540   3.504190   2.395915   3.665030   3.649078
    22  H    4.733160   4.352753   3.197650   3.770529   4.308456
    23  O    3.323666   3.832318   2.435894   3.630097   1.367876
    24  H    2.536651   3.144642   2.482183   4.274934   1.900256
    25  O    1.440220   2.059635   3.000982   5.274580   3.076421
    26  H    1.952639   2.147641   3.691203   5.736887   3.729735
    27  C    2.551441   2.815161   5.107380   7.700180   5.726542
    28  H    3.507001   3.789941   6.032222   8.701736   6.723370
    29  H    2.777570   2.594879   5.219979   7.621879   5.879211
    30  H    2.861462   3.250334   5.332662   7.805615   5.690597
    31  O    2.430022   2.649751   4.339963   7.068014   5.435850
    32  H    3.276417   3.568318   5.244269   8.006435   6.314061
    33  H    3.417741   4.222288   4.260607   6.982350   5.212364
    34  C    3.969606   4.766714   3.109313   5.173961   3.647544
    35  C    4.591825   5.196882   3.503961   5.333833   4.327677
    36  H    5.654873   6.232448   4.327044   5.704961   5.017795
    37  H    4.312824   4.763252   3.449775   5.438990   4.551949
    38  C    5.037287   5.905687   4.031975   5.585417   4.078215
    39  H    4.992396   5.809800   3.746317   4.951676   3.433239
    40  H    5.993948   6.801817   4.737039   5.933997   4.807144
    41  H    5.295750   6.274015   4.770559   6.531420   4.786019
    42  C    6.685021   6.483791   4.356512   1.506025   3.808019
    43  H    7.085554   6.729368   4.847334   2.140808   4.527973
    44  H    6.985632   6.786008   4.842931   2.141295   4.035851
    45  C    7.593051   7.540471   5.101116   2.506523   4.565121
    46  H    8.621026   8.521097   6.156863   3.453632   5.576415
    47  H    7.601818   7.553857   5.055101   2.777494   4.797524
    48  H    7.507244   7.604397   5.050270   2.777504   4.330455
                   16         17         18         19         20
    16  C    0.000000
    17  C    1.399859   0.000000
    18  C    2.772192   2.402705   0.000000
    19  H    2.163656   1.086266   3.386877   0.000000
    20  H    3.859420   3.396082   1.087494   4.295558   0.000000
    21  O    1.370133   2.382953   4.142078   2.621867   5.229408
    22  H    1.918527   2.377906   4.538379   2.188525   5.610792
    23  O    3.673161   4.140368   2.332763   5.226196   2.519737
    24  H    3.833932   4.554367   3.096386   5.624240   3.406878
    25  O    4.235283   5.222072   4.332393   6.197464   4.803487
    26  H    4.785879   5.698809   4.846083   6.626016   5.261004
    27  C    6.013229   7.249091   7.014268   8.026718   7.628540
    28  H    6.894202   8.180762   8.038244   8.920032   8.668739
    29  H    5.951703   7.116962   7.060769   7.815862   7.708818
    30  H    6.394892   7.546476   6.959348   8.409054   7.432627
    31  O    4.890440   6.264698   6.700537   6.870158   7.555336
    32  H    5.812206   7.197228   7.609003   7.786089   8.442055
    33  H    4.985232   6.318203   6.492323   7.006471   7.272410
    34  C    3.850888   4.824166   4.649646   5.601545   5.322948
    35  C    3.763812   4.704470   5.156134   5.260164   5.962710
    36  H    4.411228   5.124608   5.643427   5.558840   6.390297
    37  H    3.486409   4.566642   5.417681   5.010373   6.340414
    38  C    4.860864   5.569578   4.882517   6.392686   5.288047
    39  H    4.656867   5.186747   4.101596   6.085582   4.356200
    40  H    5.334872   5.897261   5.405474   6.600681   5.795757
    41  H    5.739880   6.540826   5.703449   7.400997   6.028913
    42  C    3.811434   2.525725   2.521229   2.722592   2.737058
    43  H    4.046629   2.671525   3.363061   2.472625   3.701905
    44  H    4.531635   3.368160   2.664192   3.690629   2.481577
    45  C    4.561173   3.340733   3.340054   3.405647   3.426919
    46  H    5.575142   4.286503   4.284215   4.198444   4.217584
    47  H    4.325990   3.160169   3.774991   3.019062   4.108903
    48  H    4.786814   3.772969   3.160879   4.086327   3.042329
                   21         22         23         24         25
    21  O    0.000000
    22  H    0.970408   0.000000
    23  O    4.824891   5.573954   0.000000
    24  H    4.802422   5.643066   0.981827   0.000000
    25  O    4.835819   5.744198   2.584968   1.630028   0.000000
    26  H    5.334881   6.198927   3.263186   2.365481   0.976485
    27  C    5.970577   6.861807   5.440141   4.484501   2.906006
    28  H    6.713422   7.588544   6.425870   5.471009   3.939494
    29  H    5.845263   6.662776   5.748352   4.830238   3.217040
    30  H    6.566913   7.480787   5.162638   4.181204   2.644580
    31  O    4.409316   5.249809   5.621100   4.863147   3.685193
    32  H    5.273296   6.084786   6.406570   5.616619   4.398592
    33  H    4.719832   5.570321   5.284001   4.770547   4.341308
    34  C    4.168415   4.910023   3.868231   3.883470   4.453265
    35  C    3.727565   4.306353   4.875657   4.925326   5.365127
    36  H    4.381502   4.782573   5.604948   5.785330   6.373738
    37  H    3.081681   3.653005   5.239140   5.166659   5.331046
    38  C    5.427803   6.104529   4.001313   4.228602   5.153159
    39  H    5.476642   6.140255   3.243506   3.663603   4.865825
    40  H    5.832428   6.382958   4.888267   5.220137   6.192939
    41  H    6.257567   6.999202   4.440643   4.519561   5.303779
    42  C    4.908278   4.788332   4.851324   5.589278   6.663620
    43  H    4.934223   4.634964   5.662998   6.302695   7.194687
    44  H    5.718094   5.688946   4.849556   5.618664   6.748826
    45  C    5.577230   5.394522   5.540291   6.375467   7.606582
    46  H    6.545935   6.279490   6.497303   7.350780   8.591774
    47  H    5.143656   4.852699   5.895097   6.666619   7.807903
    48  H    5.906710   5.877010   5.109370   6.016416   7.394159
                   26         27         28         29         30
    26  H    0.000000
    27  C    2.711332   0.000000
    28  H    3.783305   1.096246   0.000000
    29  H    2.785496   1.095906   1.755005   0.000000
    30  H    2.322694   1.094429   1.772647   1.778081   0.000000
    31  O    3.961929   2.383948   2.612291   2.658596   3.356968
    32  H    4.642760   2.573479   2.378040   2.984983   3.562600
    33  H    5.089393   4.236842   4.420757   4.954390   4.776200
    34  C    5.410201   5.896617   6.463745   6.495729   6.135173
    35  C    6.268820   6.526003   7.027535   7.016751   6.948391
    36  H    7.289965   7.607132   8.088753   8.100165   8.016916
    37  H    6.151303   6.153532   6.613679   6.537968   6.725692
    38  C    6.127638   6.898726   7.476647   7.580690   6.940729
    39  H    5.810562   7.004303   7.702008   7.623184   6.927843
    40  H    7.166211   7.901745   8.449532   8.562577   7.997208
    41  H    6.261844   6.819464   7.295032   7.622361   6.781817
    42  C    7.057718   9.141131  10.159967   9.010126   9.209357
    43  H    7.507734   9.484570  10.492027   9.241088   9.634165
    44  H    7.057078   9.353418  10.409576   9.208864   9.304912
    45  C    8.131072  10.120069  11.099098  10.102492  10.197625
    46  H    9.068911  11.131216  12.125686  11.074303  11.188912
    47  H    8.390560  10.147282  11.073686  10.143478  10.330157
    48  H    7.985073  10.022979  10.994227  10.113332  10.020006
                   31         32         33         34         35
    31  O    0.000000
    32  H    0.972991   0.000000
    33  H    2.715928   2.829870   0.000000
    34  C    4.724211   5.233362   2.740346   0.000000
    35  C    4.908678   5.398201   2.988578   1.344193   0.000000
    36  H    5.949942   6.400111   3.922091   2.124119   1.085417
    37  H    4.268601   4.769582   2.759689   2.126844   1.085584
    38  C    6.051608   6.513503   3.928245   1.504918   2.479128
    39  H    6.413265   6.975878   4.626565   2.146341   3.186472
    40  H    6.866813   7.306984   4.614113   2.169740   2.611217
    41  H    6.166341   6.498560   3.886467   2.145883   3.199636
    42  C    8.546771   9.491047   8.448116   6.493602   6.583671
    43  H    8.800117   9.756081   8.931487   7.166846   7.116144
    44  H    9.028823   9.978678   9.017897   7.077363   7.335843
    45  C    9.350309  10.253817   8.842599   6.580184   6.567742
    46  H   10.399361  11.312155   9.935951   7.658193   7.625217
    47  H    9.128665  10.005297   8.518201   6.282568   6.059020
    48  H    9.351060  10.224144   8.609060   6.178535   6.317582
                   36         37         38         39         40
    36  H    0.000000
    37  H    1.847524   0.000000
    38  C    2.708779   3.482764   0.000000
    39  H    3.450477   4.119851   1.094796   0.000000
    40  H    2.375696   3.696268   1.095104   1.768012   0.000000
    41  H    3.475694   4.131631   1.094787   1.778362   1.768080
    42  C    6.792242   6.732922   6.735845   6.030389   6.941025
    43  H    7.331959   7.118890   7.566327   6.941489   7.760402
    44  H    7.599351   7.537104   7.206636   6.385146   7.488957
    45  C    6.534761   6.870311   6.600290   5.922416   6.572586
    46  H    7.537917   7.924228   7.620874   6.918666   7.542671
    47  H    5.921935   6.308345   6.407783   5.889110   6.268069
    48  H    6.252655   6.780884   5.973452   5.213702   5.924359
                   41         42         43         44         45
    41  H    0.000000
    42  C    7.709198   0.000000
    43  H    8.561332   1.096833   0.000000
    44  H    8.107564   1.096848   1.752151   0.000000
    45  C    7.616989   1.521033   2.154982   2.154944   0.000000
    46  H    8.627396   2.159347   2.480419   2.480123   1.094575
    47  H    7.474206   2.173026   2.519951   3.074539   1.095312
    48  H    6.943439   2.173000   3.074552   2.520125   1.095315
                   46         47         48
    46  H    0.000000
    47  H    1.772207   0.000000
    48  H    1.772229   1.770531   0.000000
 Stoichiometry    C18H26O4
 Framework group  C1[X(C18H26O4)]
 Deg. of freedom   138
 Full point group                 C1      NOp   1
 Largest Abelian subgroup         C1      NOp   1
 Largest concise Abelian subgroup C1      NOp   1
                         Standard orientation:                         
 ---------------------------------------------------------------------
 Center     Atomic      Atomic             Coordinates (Angstroms)
 Number     Number       Type             X           Y           Z
 ---------------------------------------------------------------------
      1          6           0       -3.232120   -0.935892    0.195473
      2          6           0       -3.660218    0.383400   -0.470098
      3          1           0       -3.638440    0.281671   -1.562404
      4          1           0       -4.693308    0.626509   -0.191296
      5          6           0       -2.771499    1.558901   -0.060743
      6          1           0       -3.096711    2.452832   -0.608289
      7          6           0       -1.276633    1.290409   -0.333285
      8          1           0       -1.175066    1.175925   -1.419710
      9          6           0       -0.833146   -0.045966    0.342334
     10          1           0       -1.027234    0.082774    1.414454
     11          6           0       -1.735371   -1.232533   -0.098188
     12          1           0       -1.418929   -2.129687    0.450606
     13          6           0        0.656501   -0.372172    0.176562
     14          6           0        3.460613   -0.841919   -0.031330
     15          6           0        1.300868   -0.456618   -1.068075
     16          6           0        1.460667   -0.566944    1.314083
     17          6           0        2.838605   -0.794757    1.219248
     18          6           0        2.677727   -0.666930   -1.174654
     19          1           0        3.437261   -0.930789    2.115395
     20          1           0        3.129673   -0.703602   -2.163109
     21          8           0        0.883318   -0.534236    2.556204
     22          1           0        1.577199   -0.627949    3.228096
     23          8           0        0.635049   -0.362006   -2.259216
     24          1           0       -0.276621   -0.690545   -2.101409
     25          8           0       -1.562023   -1.495141   -1.503613
     26          1           0       -1.812633   -2.429115   -1.639299
     27          6           0       -4.135541   -2.077401   -0.285888
     28          1           0       -5.176274   -1.901480    0.010221
     29          1           0       -3.838809   -3.025541    0.176706
     30          1           0       -4.108376   -2.197237   -1.373397
     31          8           0       -3.413673   -0.828484    1.612090
     32          1           0       -4.332707   -0.557573    1.781488
     33          1           0       -2.929861    1.773946    1.004184
     34          6           0       -0.466564    2.525184    0.067540
     35          6           0       -0.155047    2.832343    1.338550
     36          1           0        0.429516    3.713636    1.582962
     37          1           0       -0.466970    2.208918    2.170738
     38          6           0       -0.018486    3.402286   -1.070308
     39          1           0        0.631699    2.841158   -1.749258
     40          1           0        0.540362    4.277371   -0.722216
     41          1           0       -0.884409    3.763547   -1.634422
     42          6           0        4.947098   -1.054366   -0.146821
     43          1           0        5.292868   -1.697053    0.671983
     44          1           0        5.172291   -1.596857   -1.073141
     45          6           0        5.709137    0.261809   -0.123961
     46          1           0        6.784765    0.077829   -0.209219
     47          1           0        5.531123    0.807882    0.808681
     48          1           0        5.408676    0.909359   -0.954693
 ---------------------------------------------------------------------
 Rotational constants (GHZ):      0.4673953      0.1859677      0.1722864
 Standard basis: 6-31+G(d,p) (6D, 7F)
 There are   548 symmetry adapted basis functions of A   symmetry.
 Integral buffers will be    131072 words long.
 Raffenetti 2 integral format.
 Two-electron integral symmetry is turned on.
   548 basis functions,   886 primitive gaussians,   548 cartesian basis functions
    83 alpha electrons       83 beta electrons
       nuclear repulsion energy      1980.9247325111 Hartrees.
 NAtoms=   48 NActive=   48 NUniq=   48 SFac= 1.00D+00 NAtFMM=   60 NAOKFM=F Big=F
 ------------------------------------------------------------------------------
 Polarizable Continuum Model (PCM)
 =================================
 Model                : PCM.
 Atomic radii         : UFF (Universal Force Field).
 Polarization charges : Total charges.
 Charge compensation  : None.
 Solution method      : Matrix inversion.
 Cavity type          : Scaled VdW (van der Waals Surface) (Alpha=1.100).
 Cavity algorithm     : GePol (No added spheres)
                        Default sphere list used, NSphG=   48.
                        Lebedev-Laikov grids with approx.  5.0 points / Ang**2.
                        Smoothing algorithm: Karplus/York (Gamma=1.0000).
                        Polarization charges: spherical gaussians, with
                                              point-specific exponents (IZeta= 3).
                        Self-potential: point-specific (ISelfS= 7).
                        Self-field    : sphere-specific E.n sum rule (ISelfD= 2).
 Solvent              : Water, Eps=  78.355300 Eps(inf)=   1.777849
 ------------------------------------------------------------------------------
 One-electron integrals computed using PRISM.
 NBasis=   548 RedAO= T  NBF=   548
 NBsUse=   546 1.00D-06 NBFU=   546
 Harris functional with IExCor=  908 diagonalized for initial guess.
 ExpMin= 4.38D-02 ExpMax= 5.48D+03 ExpMxC= 8.25D+02 IAcc=2 IRadAn=         4 AccDes= 0.00D+00
 HarFok:  IExCor=  908 AccDes= 0.00D+00 IRadAn=         4 IDoV= 1
 ScaDFX=  1.000000  1.000000  1.000000  1.000000
 FoFCou: FMM=F IPFlag=           0 FMFlag=      100000 FMFlg1=           0
         NFxFlg=           0 DoJE=T BraDBF=F KetDBF=T FulRan=T
         Omega=  0.000000  0.000000  1.000000  0.000000  0.000000 ICntrl=     500 IOpCl=  0
         NMat0=    1 NMatS0=    1 NMatT0=    0 NMatD0=    1 NMtDS0=    0 NMtDT0=    0
         I1Cent=           4 NGrid=           0.
 Petite list used in FoFCou.
 Initial guess orbital symmetries:
       Occupied  (A) (A) (A) (A) (A) (A) (A) (A) (A) (A) (A) (A)
                 (A) (A) (A) (A) (A) (A) (A) (A) (A) (A) (A) (A)
                 (A) (A) (A) (A) (A) (A) (A) (A) (A) (A) (A) (A)
                 (A) (A) (A) (A) (A) (A) (A) (A) (A) (A) (A) (A)
                 (A) (A) (A) (A) (A) (A) (A) (A) (A) (A) (A) (A)
                 (A) (A) (A) (A) (A) (A) (A) (A) (A) (A) (A) (A)
                 (A) (A) (A) (A) (A) (A) (A) (A) (A) (A) (A)
       Virtual   (A) (A) (A) (A) (A) (A) (A) (A) (A) (A) (A) (A)
                 (A) (A) (A) (A) (A) (A) (A) (A) (A) (A) (A) (A)
                 (A) (A) (A) (A) (A) (A) (A) (A) (A) (A) (A) (A)
                 (A) (A) (A) (A) (A) (A) (A) (A) (A) (A) (A) (A)
                 (A) (A) (A) (A) (A) (A) (A) (A) (A) (A) (A) (A)
                 (A) (A) (A) (A) (A) (A) (A) (A) (A) (A) (A) (A)
                 (A) (A) (A) (A) (A) (A) (A) (A) (A) (A) (A) (A)
                 (A) (A) (A) (A) (A) (A) (A) (A) (A) (A) (A) (A)
                 (A) (A) (A) (A) (A) (A) (A) (A) (A) (A) (A) (A)
                 (A) (A) (A) (A) (A) (A) (A) (A) (A) (A) (A) (A)
                 (A) (A) (A) (A) (A) (A) (A) (A) (A) (A) (A) (A)
                 (A) (A) (A) (A) (A) (A) (A) (A) (A) (A) (A) (A)
                 (A) (A) (A) (A) (A) (A) (A) (A) (A) (A) (A) (A)
                 (A) (A) (A) (A) (A) (A) (A) (A) (A) (A) (A) (A)
                 (A) (A) (A) (A) (A) (A) (A) (A) (A) (A) (A) (A)
                 (A) (A) (A) (A) (A) (A) (A) (A) (A) (A) (A) (A)
                 (A) (A) (A) (A) (A) (A) (A) (A) (A) (A) (A) (A)
                 (A) (A) (A) (A) (A) (A) (A) (A) (A) (A) (A) (A)
                 (A) (A) (A) (A) (A) (A) (A) (A) (A) (A) (A) (A)
                 (A) (A) (A) (A) (A) (A) (A) (A) (A) (A) (A) (A)
                 (A) (A) (A) (A) (A) (A) (A) (A) (A) (A) (A) (A)
                 (A) (A) (A) (A) (A) (A) (A) (A) (A) (A) (A) (A)
                 (A) (A) (A) (A) (A) (A) (A) (A) (A) (A) (A) (A)
                 (A) (A) (A) (A) (A) (A) (A) (A) (A) (A) (A) (A)
                 (A) (A) (A) (A) (A) (A) (A) (A) (A) (A) (A) (A)
                 (A) (A) (A) (A) (A) (A) (A) (A) (A) (A) (A) (A)
                 (A) (A) (A) (A) (A) (A) (A) (A) (A) (A) (A) (A)
                 (A) (A) (A) (A) (A) (A) (A) (A) (A) (A) (A) (A)
                 (A) (A) (A) (A) (A) (A) (A) (A) (A) (A) (A) (A)
                 (A) (A) (A) (A) (A) (A) (A) (A) (A) (A) (A) (A)
                 (A) (A) (A) (A) (A) (A) (A) (A) (A) (A) (A) (A)
                 (A) (A) (A) (A) (A) (A) (A) (A) (A) (A) (A) (A)
                 (A) (A) (A) (A) (A) (A) (A) (A) (A) (A) (A) (A)
                 (A) (A) (A) (A) (A) (A) (A) (A) (A) (A) (A) (A)
                 (A) (A) (A) (A) (A) (A) (A) (A) (A) (A) (A) (A)
                 (A) (A) (A) (A) (A) (A) (A) (A) (A) (A) (A) (A)
                 (A) (A) (A) (A) (A) (A) (A) (A) (A) (A) (A) (A)
                 (A) (A) (A) (A) (A) (A) (A) (A) (A) (A) (A) (A)
                 (A) (A) (A) (A) (A) (A) (A)
 The electronic state of the initial guess is 1-A.
 Requested convergence on RMS density matrix=1.00D-08 within 128 cycles.
 Requested convergence on MAX density matrix=1.00D-06.
 Requested convergence on             energy=1.00D-06.
 No special actions if energy rises.
 CoulSu:  requested number of processors reduced to:   2 ShMem   1 Linda.
 CoulSu:  requested number of processors reduced to:   2 ShMem   1 Linda.
 Error on total polarization charges =  0.01923
 SCF Done:  E(RmPW1PW91) =  -1002.31462397     A.U. after   14 cycles
             Convg  =    0.4939D-08             -V/T =  2.0094
 Range of M.O.s used for correlation:     1   546
 NBasis=   548 NAE=    83 NBE=    83 NFC=     0 NFV=     0
 NROrb=    546 NOA=    83 NOB=    83 NVA=   463 NVB=   463

 **** Warning!!: The largest alpha MO coefficient is  0.13353927D+03

 NEqPCM:  Using equilibrium solvation (IEInf=0, Eps=  78.3553, EpsInf=   1.7778)
          Differentiating once with respect to magnetic field using GIAOs.
          Electric field/nuclear overlap derivatives assumed to be zero.
 FoFCou: FMM=F IPFlag=           0 FMFlag=    10101102 FMFlg1=           0
         NFxFlg=    40000000 DoJE=F BraDBF=F KetDBF=T FulRan=T
         Omega=  0.000000  0.000000  1.000000  0.000000  0.000000 ICntrl=    6100 IOpCl=  0
         NMat0=    1 NMatS0=    1 NMatT0=    0 NMatD0=    1 NMtDS0=    0 NMtDT0=    0
         I1Cent=           7 NGrid=        3080.
 Symmetry not used in FoFCou.
          There are     3 degrees of freedom in the 1st order CPHF.  IDoFFX=0.
      3 vectors produced by pass  0 Test12= 1.28D-12 3.33D-08 XBig12= 7.75D+02 4.44D+00.
 AX will form     3 AO Fock derivatives at one time.
      3 vectors produced by pass  1 Test12= 1.28D-12 3.33D-08 XBig12= 1.75D+00 3.44D-01.
      3 vectors produced by pass  2 Test12= 1.28D-12 3.33D-08 XBig12= 7.27D-03 3.88D-02.
      3 vectors produced by pass  3 Test12= 1.28D-12 3.33D-08 XBig12= 3.70D-05 1.95D-03.
      3 vectors produced by pass  4 Test12= 1.28D-12 3.33D-08 XBig12= 1.11D-07 5.87D-05.
      3 vectors produced by pass  5 Test12= 1.28D-12 3.33D-08 XBig12= 2.96D-10 2.70D-06.
      3 vectors produced by pass  6 Test12= 1.28D-12 3.33D-08 XBig12= 1.41D-12 1.60D-07.
 Inverted reduced A of dimension    21 with in-core refinement.
 Calculating GIAO nuclear magnetic shielding tensors.
 SCF GIAO Magnetic shielding tensor (ppm):
      1  C    Isotropic =   122.6924   Anisotropy =    50.1604
   XX=   107.0724   YX=     2.0734   ZX=   -15.1330
   XY=     3.6460   YY=   107.9131   ZY=     6.4670
   XZ=    -6.0765   YZ=     6.7656   ZZ=   153.0917
   Eigenvalues:   101.6148   110.3298   156.1327
      2  C    Isotropic =   158.2046   Anisotropy =    23.8064
   XX=   154.8740   YX=    -2.0501   ZX=     1.4980
   XY=     5.7921   YY=   170.4049   ZY=   -11.9940
   XZ=    -2.4266   YZ=    -6.4910   ZZ=   149.3348
   Eigenvalues:   145.8495   154.6887   174.0755
      3  H    Isotropic =    29.4063   Anisotropy =     6.2997
   XX=    27.9663   YX=     0.6714   ZX=     2.8506
   XY=     0.0416   YY=    28.0430   ZY=    -0.9120
   XZ=     2.5365   YZ=    -0.9900   ZZ=    32.2096
   Eigenvalues:    26.3299    28.2829    33.6061
      4  H    Isotropic =    30.2641   Anisotropy =     8.9089
   XX=    36.1511   YX=    -0.5114   ZX=     0.1509
   XY=    -0.6027   YY=    29.5255   ZY=     0.0182
   XZ=     0.3307   YZ=    -0.2849   ZZ=    25.1156
   Eigenvalues:    25.1070    29.4819    36.2033
      5  C    Isotropic =   163.2053   Anisotropy =    29.1118
   XX=   182.1578   YX=     5.8917   ZX=     2.2767
   XY=    -0.0298   YY=   153.2996   ZY=    10.4479
   XZ=    -0.0617   YZ=     8.1077   ZZ=   154.1586
   Eigenvalues:   144.3922   162.6106   182.6132
      6  H    Isotropic =    29.7998   Anisotropy =     9.0296
   XX=    30.8927   YX=    -2.0575   ZX=     1.8227
   XY=    -2.5397   YY=    33.4489   ZY=    -3.1519
   XZ=     1.2036   YZ=    -2.7488   ZZ=    25.0579
   Eigenvalues:    24.0336    29.5464    35.8196
      7  C    Isotropic =   154.3085   Anisotropy =    26.2417
   XX=   162.1603   YX=    14.4446   ZX=     3.7828
   XY=     6.0172   YY=   159.2751   ZY=     1.7572
   XZ=     2.2411   YZ=     5.8709   ZZ=   141.4903
   Eigenvalues:   140.6561   150.4665   171.8030
      8  H    Isotropic =    28.5352   Anisotropy =     4.5831
   XX=    26.9875   YX=     0.0797   ZX=    -2.7458
   XY=    -1.1712   YY=    29.2265   ZY=    -1.2368
   XZ=    -2.9765   YZ=    -1.4084   ZZ=    29.3917
   Eigenvalues:    24.7636    29.2514    31.5906
      9  C    Isotropic =   154.8629   Anisotropy =    16.6448
   XX=   157.3632   YX=     3.6295   ZX=     1.0407
   XY=    -1.2875   YY=   165.7779   ZY=     5.4080
   XZ=    -1.7378   YZ=    -3.8441   ZZ=   141.4476
   Eigenvalues:   141.4131   157.2162   165.9594
     10  H    Isotropic =    27.3619   Anisotropy =     6.9897
   XX=    29.5189   YX=    -0.2765   ZX=     2.0221
   XY=    -0.0175   YY=    22.5910   ZY=    -0.1565
   XZ=     2.4999   YZ=     0.0681   ZZ=    29.9758
   Eigenvalues:    22.5878    27.4762    32.0217
     11  C    Isotropic =   115.3327   Anisotropy =    34.6219
   XX=   118.3672   YX=     5.8612   ZX=    -9.2996
   XY=    10.1471   YY=    91.3472   ZY=     5.8013
   XZ=    -3.6359   YZ=     2.1319   ZZ=   136.2836
   Eigenvalues:    88.5016   119.0825   138.4139
     12  H    Isotropic =    27.4909   Anisotropy =     3.8428
   XX=    26.5246   YX=     0.0003   ZX=     0.1376
   XY=     2.3104   YY=    27.9713   ZY=    -1.0781
   XZ=     0.9172   YZ=    -2.9560   ZZ=    27.9767
   Eigenvalues:    25.0020    27.4179    30.0528
     13  C    Isotropic =    86.0805   Anisotropy =   121.9732
   XX=    48.4433   YX=    23.3398   ZX=     2.0856
   XY=    22.9749   YY=   162.7822   ZY=     4.2790
   XZ=     0.4543   YZ=     2.3588   ZZ=    47.0162
   Eigenvalues:    43.8107    47.0349   167.3960
     14  C    Isotropic =    50.7722   Anisotropy =   189.5452
   XX=   -25.4472   YX=    37.1571   ZX=     6.0050
   XY=    36.6550   YY=   170.1955   ZY=     3.5985
   XZ=     7.1865   YZ=     6.1157   ZZ=     7.5684
   Eigenvalues:   -32.9595     8.1405   177.1357
     15  C    Isotropic =    41.6512   Anisotropy =   130.0867
   XX=    17.4208   YX=    11.0256   ZX=   -30.1341
   XY=    18.2698   YY=   126.3567   ZY=    12.6307
   XZ=   -31.0152   YZ=     2.3177   ZZ=   -18.8240
   Eigenvalues:   -37.4053    33.9831   128.3756
     16  C    Isotropic =    44.6136   Anisotropy =   125.2822
   XX=    34.1004   YX=    13.8261   ZX=    29.2432
   XY=    17.3978   YY=   125.2579   ZY=     0.4084
   XZ=    21.9351   YZ=     4.0320   ZZ=   -25.5175
   Eigenvalues:   -35.0653    40.7711   128.1351
     17  C    Isotropic =    92.2007   Anisotropy =    95.6791
   XX=    75.6512   YX=    12.0449   ZX=   -32.2858
   XY=     4.0204   YY=   154.8639   ZY=     8.9254
   XZ=   -34.6233   YZ=     8.8427   ZZ=    46.0870
   Eigenvalues:    23.2310    97.3843   155.9868
     18  C    Isotropic =    88.0246   Anisotropy =   107.8872
   XX=    78.1780   YX=     8.3436   ZX=    25.9796
   XY=     8.9908   YY=   159.0072   ZY=    -5.0256
   XZ=    30.2900   YZ=     2.4691   ZZ=    26.8886
   Eigenvalues:    14.3132    89.8112   159.9494
     19  H    Isotropic =    25.2675   Anisotropy =     7.1043
   XX=    28.5620   YX=    -1.1519   ZX=    -2.4192
   XY=    -1.0032   YY=    21.2943   ZY=    -0.5984
   XZ=    -2.2858   YZ=    -0.2881   ZZ=    25.9463
   Eigenvalues:    20.9971    24.8017    30.0037
     20  H    Isotropic =    24.9263   Anisotropy =     7.7313
   XX=    29.2123   YX=    -1.2184   ZX=     1.9149
   XY=    -1.5374   YY=    21.1582   ZY=     0.4320
   XZ=     2.0226   YZ=     0.1119   ZZ=    24.4084
   Eigenvalues:    20.8188    23.8796    30.0805
     21  O    Isotropic =   227.5595   Anisotropy =    48.0876
   XX=   197.4793   YX=     4.8761   ZX=   -19.2280
   XY=    10.7706   YY=   238.5340   ZY=     1.5308
   XZ=   -37.3062   YZ=     2.8392   ZZ=   246.6652
   Eigenvalues:   183.4350   239.6256   259.6179
     22  H    Isotropic =    26.6523   Anisotropy =    15.3827
   XX=    29.2090   YX=    -2.0720   ZX=     4.8046
   XY=    -1.9231   YY=    18.2894   ZY=    -0.9324
   XZ=     6.3832   YZ=    -1.4395   ZZ=    32.4585
   Eigenvalues:    17.9323    25.1171    36.9074
     23  O    Isotropic =   218.9556   Anisotropy =    83.3350
   XX=   181.2270   YX=     6.0187   ZX=     7.2124
   XY=     7.0518   YY=   268.1660   ZY=   -52.0854
   XZ=    28.7237   YZ=    10.8705   ZZ=   207.4738
   Eigenvalues:   169.6414   212.7131   274.5122
     24  H    Isotropic =    21.5752   Anisotropy =    28.3430
   XX=    34.8903   YX=     8.9394   ZX=    -6.4640
   XY=    12.5661   YY=    12.8960   ZY=     0.4654
   XZ=    -4.6504   YZ=    -1.2640   ZZ=    16.9394
   Eigenvalues:     8.1349    16.1202    40.4706
     25  O    Isotropic =   287.6064   Anisotropy =    46.0671
   XX=   285.9700   YX=    16.8469   ZX=     8.8745
   XY=    24.5918   YY=   292.8588   ZY=    15.6794
   XZ=    -3.5458   YZ=    21.6851   ZZ=   283.9904
   Eigenvalues:   262.2660   282.2354   318.3178
     26  H    Isotropic =    28.4848   Anisotropy =    19.2049
   XX=    23.2448   YX=     4.9968   ZX=    -1.8072
   XY=     5.5283   YY=    37.5947   ZY=     6.1213
   XZ=    -1.0660   YZ=     6.6737   ZZ=    24.6149
   Eigenvalues:    18.8498    25.3165    41.2881
     27  C    Isotropic =   166.7570   Anisotropy =    47.0134
   XX=   164.6227   YX=    21.7361   ZX=     8.9367
   XY=    18.4222   YY=   180.7365   ZY=    10.5724
   XZ=     6.7126   YZ=     9.7063   ZZ=   154.9119
   Eigenvalues:   150.3159   151.8560   198.0993
     28  H    Isotropic =    30.5836   Anisotropy =     9.2850
   XX=    35.9872   YX=     1.8247   ZX=    -0.8990
   XY=     3.0493   YY=    28.9285   ZY=    -0.2150
   XZ=    -0.2586   YZ=     0.4658   ZZ=    26.8350
   Eigenvalues:    26.7485    28.2287    36.7736
     29  H    Isotropic =    30.4310   Anisotropy =     9.4687
   XX=    28.5541   YX=     2.1631   ZX=    -0.2652
   XY=     1.4000   YY=    35.9795   ZY=    -2.6009
   XZ=    -0.1396   YZ=    -1.1870   ZZ=    26.7593
   Eigenvalues:    26.3739    28.1755    36.7435
     30  H    Isotropic =    30.1203   Anisotropy =     8.8586
   XX=    29.3011   YX=     2.8967   ZX=     2.0348
   XY=     3.1872   YY=    28.2372   ZY=     4.0951
   XZ=     1.2134   YZ=     2.9274   ZZ=    32.8227
   Eigenvalues:    25.2126    29.1224    36.0260
     31  O    Isotropic =   259.3043   Anisotropy =   100.4109
   XX=   299.6291   YX=   -21.6260   ZX=   -45.1292
   XY=   -16.7396   YY=   213.2497   ZY=     3.8977
   XZ=   -28.4728   YZ=     7.0590   ZZ=   265.0342
   Eigenvalues:   209.0561   242.6119   326.2449
     32  H    Isotropic =    30.7229   Anisotropy =    17.5257
   XX=    38.3541   YX=    -3.2486   ZX=    -5.5746
   XY=    -3.1684   YY=    23.4508   ZY=     0.7547
   XZ=    -6.9342   YZ=     1.8710   ZZ=    30.3638
   Eigenvalues:    22.7893    26.9727    42.4067
     33  H    Isotropic =    29.8224   Anisotropy =     6.1916
   XX=    29.3863   YX=     0.4963   ZX=    -2.2368
   XY=    -0.0347   YY=    29.8331   ZY=     4.3042
   XZ=    -1.9558   YZ=     2.6150   ZZ=    30.2476
   Eigenvalues:    25.8031    29.7139    33.9501
     34  C    Isotropic =    42.1737   Anisotropy =   184.6430
   XX=   106.8113   YX=   -98.0592   ZX=    10.5506
   XY=   -96.4679   YY=    -0.0986   ZY=    43.9195
   XZ=    12.0184   YZ=    38.6620   ZZ=    19.8084
   Eigenvalues:   -75.5942    36.8461   165.2690
     35  C    Isotropic =    91.5854   Anisotropy =   117.9690
   XX=   120.7700   YX=   -76.8602   ZX=     6.9848
   XY=   -76.9034   YY=    48.0478   ZY=    27.5940
   XZ=    10.3692   YZ=    25.3215   ZZ=   105.9384
   Eigenvalues:    -7.0996   111.6245   170.2314
     36  H    Isotropic =    26.4439   Anisotropy =     5.1446
   XX=    24.7748   YX=    -0.3105   ZX=     0.8834
   XY=    -0.9505   YY=    26.4424   ZY=     1.4492
   XZ=     2.1603   YZ=     3.1108   ZZ=    28.1145
   Eigenvalues:    23.3586    26.0994    29.8736
     37  H    Isotropic =    26.3668   Anisotropy =     7.4016
   XX=    24.5159   YX=    -0.6855   ZX=     3.5614
   XY=    -1.5573   YY=    25.6438   ZY=     5.4548
   XZ=     0.8864   YZ=     1.2562   ZZ=    28.9408
   Eigenvalues:    21.7810    26.0182    31.3012
     38  C    Isotropic =   169.7690   Anisotropy =    39.6603
   XX=   154.5409   YX=    14.0240   ZX=    -6.8145
   XY=    14.0529   YY=   177.3720   ZY=   -12.3083
   XZ=    -8.6055   YZ=   -13.8213   ZZ=   177.3939
   Eigenvalues:   147.7843   165.3134   196.2092
     39  H    Isotropic =    29.9928   Anisotropy =     6.0934
   XX=    28.9311   YX=    -0.1565   ZX=    -4.9820
   XY=    -1.3603   YY=    30.9874   ZY=    -1.0791
   XZ=    -3.9714   YZ=     0.7504   ZZ=    30.0598
   Eigenvalues:    24.9076    31.0157    34.0551
     40  H    Isotropic =    30.0859   Anisotropy =     8.9186
   XX=    28.0643   YX=     3.9789   ZX=     0.8180
   XY=     3.5428   YY=    34.2563   ZY=     0.8548
   XZ=    -0.3663   YZ=    -1.0013   ZZ=    27.9372
   Eigenvalues:    26.2560    27.9701    36.0317
     41  H    Isotropic =    29.6378   Anisotropy =     8.2483
   XX=    29.1577   YX=    -0.6539   ZX=     2.0501
   XY=    -1.7287   YY=    30.8035   ZY=    -4.6111
   XZ=     2.7681   YZ=    -3.6712   ZZ=    28.9521
   Eigenvalues:    25.2381    28.5386    35.1367
     42  C    Isotropic =   164.0547   Anisotropy =    30.1181
   XX=   183.8704   YX=   -10.7830   ZX=    -2.2469
   XY=     6.4612   YY=   150.9845   ZY=    -0.8040
   XZ=    -1.3728   YZ=     0.8106   ZZ=   157.3091
   Eigenvalues:   150.8411   157.1895   184.1334
     43  H    Isotropic =    29.3497   Anisotropy =     7.5168
   XX=    29.9449   YX=    -1.8876   ZX=     1.6660
   XY=    -2.8233   YY=    29.5111   ZY=    -4.2299
   XZ=     0.3466   YZ=    -3.6189   ZZ=    28.5933
   Eigenvalues:    24.9457    28.7426    34.3610
     44  H    Isotropic =    29.2300   Anisotropy =     7.4043
   XX=    29.5713   YX=    -1.1900   ZX=    -1.8774
   XY=    -1.9513   YY=    28.3377   ZY=     4.5947
   XZ=    -0.5666   YZ=     3.8402   ZZ=    29.7811
   Eigenvalues:    24.7418    28.7821    34.1663
     45  C    Isotropic =   178.4278   Anisotropy =    27.5522
   XX=   183.5606   YX=     7.8587   ZX=    -0.6036
   XY=    16.3559   YY=   185.7099   ZY=     1.0611
   XZ=    -0.0242   YZ=     0.6647   ZZ=   166.0130
   Eigenvalues:   165.9064   172.5811   196.7960
     46  H    Isotropic =    30.2704   Anisotropy =    12.0708
   XX=    38.0380   YX=     0.4547   ZX=    -0.8547
   XY=     2.7898   YY=    26.9914   ZY=    -0.1765
   XZ=    -0.6640   YZ=     0.0237   ZZ=    25.7820
   Eigenvalues:    25.7345    26.7591    38.3176
     47  H    Isotropic =    30.6832   Anisotropy =     7.4544
   XX=    29.7287   YX=     1.6991   ZX=     0.0992
   XY=     2.7948   YY=    30.3834   ZY=     4.8430
   XZ=     0.0492   YZ=     3.2018   ZZ=    31.9377
   Eigenvalues:    26.1988    30.1981    35.6528
     48  H    Isotropic =    30.6557   Anisotropy =     7.2135
   XX=    29.8149   YX=     1.1794   ZX=     0.3261
   XY=     2.0330   YY=    31.2834   ZY=    -5.0412
   XZ=     0.5724   YZ=    -3.4569   ZZ=    30.8688
   Eigenvalues:    26.2352    30.2672    35.4647
 End of Minotr Frequency-dependent properties file   721 does not exist.
 End of Minotr Frequency-dependent properties file   722 does not exist.

 **********************************************************************

            Population analysis using the SCF density.

 **********************************************************************

 Orbital symmetries:
       Occupied  (A) (A) (A) (A) (A) (A) (A) (A) (A) (A) (A) (A)
                 (A) (A) (A) (A) (A) (A) (A) (A) (A) (A) (A) (A)
                 (A) (A) (A) (A) (A) (A) (A) (A) (A) (A) (A) (A)
                 (A) (A) (A) (A) (A) (A) (A) (A) (A) (A) (A) (A)
                 (A) (A) (A) (A) (A) (A) (A) (A) (A) (A) (A) (A)
                 (A) (A) (A) (A) (A) (A) (A) (A) (A) (A) (A) (A)
                 (A) (A) (A) (A) (A) (A) (A) (A) (A) (A) (A)
       Virtual   (A) (A) (A) (A) (A) (A) (A) (A) (A) (A) (A) (A)
                 (A) (A) (A) (A) (A) (A) (A) (A) (A) (A) (A) (A)
                 (A) (A) (A) (A) (A) (A) (A) (A) (A) (A) (A) (A)
                 (A) (A) (A) (A) (A) (A) (A) (A) (A) (A) (A) (A)
                 (A) (A) (A) (A) (A) (A) (A) (A) (A) (A) (A) (A)
                 (A) (A) (A) (A) (A) (A) (A) (A) (A) (A) (A) (A)
                 (A) (A) (A) (A) (A) (A) (A) (A) (A) (A) (A) (A)
                 (A) (A) (A) (A) (A) (A) (A) (A) (A) (A) (A) (A)
                 (A) (A) (A) (A) (A) (A) (A) (A) (A) (A) (A) (A)
                 (A) (A) (A) (A) (A) (A) (A) (A) (A) (A) (A) (A)
                 (A) (A) (A) (A) (A) (A) (A) (A) (A) (A) (A) (A)
                 (A) (A) (A) (A) (A) (A) (A) (A) (A) (A) (A) (A)
                 (A) (A) (A) (A) (A) (A) (A) (A) (A) (A) (A) (A)
                 (A) (A) (A) (A) (A) (A) (A) (A) (A) (A) (A) (A)
                 (A) (A) (A) (A) (A) (A) (A) (A) (A) (A) (A) (A)
                 (A) (A) (A) (A) (A) (A) (A) (A) (A) (A) (A) (A)
                 (A) (A) (A) (A) (A) (A) (A) (A) (A) (A) (A) (A)
                 (A) (A) (A) (A) (A) (A) (A) (A) (A) (A) (A) (A)
                 (A) (A) (A) (A) (A) (A) (A) (A) (A) (A) (A) (A)
                 (A) (A) (A) (A) (A) (A) (A) (A) (A) (A) (A) (A)
                 (A) (A) (A) (A) (A) (A) (A) (A) (A) (A) (A) (A)
                 (A) (A) (A) (A) (A) (A) (A) (A) (A) (A) (A) (A)
                 (A) (A) (A) (A) (A) (A) (A) (A) (A) (A) (A) (A)
                 (A) (A) (A) (A) (A) (A) (A) (A) (A) (A) (A) (A)
                 (A) (A) (A) (A) (A) (A) (A) (A) (A) (A) (A) (A)
                 (A) (A) (A) (A) (A) (A) (A) (A) (A) (A) (A) (A)
                 (A) (A) (A) (A) (A) (A) (A) (A) (A) (A) (A) (A)
                 (A) (A) (A) (A) (A) (A) (A) (A) (A) (A) (A) (A)
                 (A) (A) (A) (A) (A) (A) (A) (A) (A) (A) (A) (A)
                 (A) (A) (A) (A) (A) (A) (A) (A) (A) (A) (A) (A)
                 (A) (A) (A) (A) (A) (A) (A) (A) (A) (A) (A) (A)
                 (A) (A) (A) (A) (A) (A) (A) (A) (A) (A) (A) (A)
                 (A) (A) (A) (A) (A) (A) (A) (A) (A) (A) (A) (A)
                 (A) (A) (A) (A) (A) (A) (A) (A) (A) (A) (A) (A)
                 (A) (A) (A) (A) (A) (A) (A) (A) (A) (A) (A) (A)
                 (A) (A) (A) (A) (A) (A) (A) (A) (A) (A) (A) (A)
                 (A) (A) (A) (A) (A) (A) (A) (A) (A) (A) (A) (A)
                 (A) (A) (A) (A) (A) (A) (A) (A) (A) (A) (A) (A)
                 (A) (A) (A) (A) (A) (A) (A)
 The electronic state is 1-A.
 Alpha  occ. eigenvalues --  -19.28220 -19.28181 -19.25679 -19.25395 -10.31971
 Alpha  occ. eigenvalues --  -10.31774 -10.31462 -10.31292 -10.26870 -10.26421
 Alpha  occ. eigenvalues --  -10.26330 -10.25950 -10.25927 -10.24848 -10.24529
 Alpha  occ. eigenvalues --  -10.24437 -10.24412 -10.23980 -10.23937 -10.23894
 Alpha  occ. eigenvalues --  -10.23660 -10.23365  -1.09757  -1.09252  -1.07274
 Alpha  occ. eigenvalues --   -1.06076  -0.88530  -0.86642  -0.82127  -0.81839
 Alpha  occ. eigenvalues --   -0.78448  -0.77209  -0.75744  -0.73932  -0.70906
 Alpha  occ. eigenvalues --   -0.70219  -0.67018  -0.64430  -0.63298  -0.62582
 Alpha  occ. eigenvalues --   -0.60890  -0.59859  -0.56577  -0.55142  -0.53473
 Alpha  occ. eigenvalues --   -0.52350  -0.51192  -0.50408  -0.49613  -0.49177
 Alpha  occ. eigenvalues --   -0.47642  -0.46411  -0.46210  -0.45155  -0.44691
 Alpha  occ. eigenvalues --   -0.44268  -0.43287  -0.42770  -0.42380  -0.42163
 Alpha  occ. eigenvalues --   -0.41423  -0.41294  -0.40604  -0.39968  -0.39204
 Alpha  occ. eigenvalues --   -0.38972  -0.38164  -0.37968  -0.37767  -0.36817
 Alpha  occ. eigenvalues --   -0.36222  -0.35714  -0.35508  -0.34761  -0.34382
 Alpha  occ. eigenvalues --   -0.33258  -0.32348  -0.31410  -0.30244  -0.29066
 Alpha  occ. eigenvalues --   -0.25703  -0.23971  -0.23015
 Alpha virt. eigenvalues --   -0.00392  -0.00207   0.00247   0.00839   0.01224
 Alpha virt. eigenvalues --    0.01776   0.01958   0.02509   0.03158   0.03548
 Alpha virt. eigenvalues --    0.03882   0.04324   0.04425   0.04938   0.05159
 Alpha virt. eigenvalues --    0.05498   0.06392   0.06415   0.06782   0.07137
 Alpha virt. eigenvalues --    0.07494   0.07945   0.08392   0.08938   0.09025
 Alpha virt. eigenvalues --    0.09554   0.09829   0.10151   0.10582   0.11147
 Alpha virt. eigenvalues --    0.11468   0.11834   0.12057   0.12768   0.13029
 Alpha virt. eigenvalues --    0.13339   0.13444   0.14140   0.14258   0.14421
 Alpha virt. eigenvalues --    0.15018   0.15163   0.15349   0.15914   0.16111
 Alpha virt. eigenvalues --    0.16528   0.17262   0.17378   0.17751   0.17962
 Alpha virt. eigenvalues --    0.18116   0.18570   0.18611   0.18964   0.19393
 Alpha virt. eigenvalues --    0.19735   0.19830   0.20314   0.20372   0.20941
 Alpha virt. eigenvalues --    0.21214   0.21407   0.21722   0.22052   0.22469
 Alpha virt. eigenvalues --    0.22743   0.22861   0.23156   0.23244   0.23589
 Alpha virt. eigenvalues --    0.23801   0.24066   0.24249   0.24774   0.25035
 Alpha virt. eigenvalues --    0.25535   0.25886   0.26191   0.26463   0.26675
 Alpha virt. eigenvalues --    0.26861   0.27272   0.27674   0.27987   0.28158
 Alpha virt. eigenvalues --    0.28366   0.28743   0.28932   0.29073   0.29872
 Alpha virt. eigenvalues --    0.30121   0.30431   0.30633   0.30938   0.31191
 Alpha virt. eigenvalues --    0.31696   0.32127   0.32687   0.32740   0.33214
 Alpha virt. eigenvalues --    0.33800   0.34055   0.34560   0.34978   0.35152
 Alpha virt. eigenvalues --    0.35638   0.36048   0.36405   0.36563   0.36910
 Alpha virt. eigenvalues --    0.37362   0.37686   0.38206   0.38932   0.39345
 Alpha virt. eigenvalues --    0.40122   0.40573   0.41269   0.41668   0.42393
 Alpha virt. eigenvalues --    0.43288   0.43812   0.44526   0.44894   0.45718
 Alpha virt. eigenvalues --    0.46285   0.46638   0.47326   0.47698   0.48472
 Alpha virt. eigenvalues --    0.49620   0.49763   0.50655   0.51820   0.53106
 Alpha virt. eigenvalues --    0.53620   0.57289   0.60792   0.63100   0.65669
 Alpha virt. eigenvalues --    0.68333   0.68520   0.69545   0.69836   0.70862
 Alpha virt. eigenvalues --    0.71979   0.72553   0.72667   0.73137   0.74319
 Alpha virt. eigenvalues --    0.74624   0.74871   0.75496   0.76322   0.76700
 Alpha virt. eigenvalues --    0.77819   0.78129   0.78762   0.79196   0.79641
 Alpha virt. eigenvalues --    0.80839   0.81192   0.82315   0.82584   0.83346
 Alpha virt. eigenvalues --    0.84576   0.84735   0.85501   0.87334   0.87755
 Alpha virt. eigenvalues --    0.87964   0.88396   0.89713   0.89875   0.90627
 Alpha virt. eigenvalues --    0.91497   0.92483   0.93655   0.94180   0.94412
 Alpha virt. eigenvalues --    0.95533   0.95982   0.97537   0.97950   0.98922
 Alpha virt. eigenvalues --    1.00362   1.01208   1.01776   1.02195   1.03117
 Alpha virt. eigenvalues --    1.04097   1.04870   1.05714   1.05799   1.08302
 Alpha virt. eigenvalues --    1.08565   1.09530   1.10191   1.10563   1.11360
 Alpha virt. eigenvalues --    1.12654   1.13587   1.13740   1.13979   1.14464
 Alpha virt. eigenvalues --    1.15236   1.16479   1.16640   1.17085   1.18654
 Alpha virt. eigenvalues --    1.18888   1.19725   1.20451   1.21130   1.21173
 Alpha virt. eigenvalues --    1.23476   1.23928   1.25177   1.25527   1.26696
 Alpha virt. eigenvalues --    1.27636   1.28253   1.28854   1.29631   1.30356
 Alpha virt. eigenvalues --    1.31501   1.32526   1.33054   1.33394   1.34586
 Alpha virt. eigenvalues --    1.34948   1.36001   1.37565   1.38167   1.38925
 Alpha virt. eigenvalues --    1.39703   1.40866   1.41288   1.41670   1.43148
 Alpha virt. eigenvalues --    1.43462   1.45270   1.46982   1.48485   1.49151
 Alpha virt. eigenvalues --    1.50190   1.50771   1.53420   1.54225   1.55005
 Alpha virt. eigenvalues --    1.56185   1.57019   1.57918   1.58707   1.60223
 Alpha virt. eigenvalues --    1.61046   1.61830   1.62266   1.64534   1.65749
 Alpha virt. eigenvalues --    1.66798   1.67906   1.69549   1.70708   1.71586
 Alpha virt. eigenvalues --    1.73087   1.75447   1.76941   1.78308   1.80143
 Alpha virt. eigenvalues --    1.80757   1.81442   1.82769   1.83859   1.84494
 Alpha virt. eigenvalues --    1.85378   1.85788   1.86031   1.86976   1.88064
 Alpha virt. eigenvalues --    1.88917   1.89845   1.90213   1.90962   1.92219
 Alpha virt. eigenvalues --    1.92635   1.92944   1.93455   1.95103   1.96022
 Alpha virt. eigenvalues --    1.96428   1.96753   1.97108   1.97888   1.99459
 Alpha virt. eigenvalues --    2.00497   2.01772   2.02459   2.04552   2.04981
 Alpha virt. eigenvalues --    2.06049   2.06675   2.06898   2.07222   2.08137
 Alpha virt. eigenvalues --    2.09128   2.10243   2.11144   2.11772   2.12461
 Alpha virt. eigenvalues --    2.13388   2.13648   2.14005   2.15222   2.15473
 Alpha virt. eigenvalues --    2.16104   2.17198   2.17587   2.18532   2.19967
 Alpha virt. eigenvalues --    2.20252   2.20906   2.24095   2.24438   2.25867
 Alpha virt. eigenvalues --    2.26624   2.27254   2.28133   2.28920   2.29956
 Alpha virt. eigenvalues --    2.30553   2.31978   2.32848   2.33781   2.34436
 Alpha virt. eigenvalues --    2.35530   2.36968   2.38775   2.39695   2.40705
 Alpha virt. eigenvalues --    2.41071   2.42557   2.42717   2.44416   2.47297
 Alpha virt. eigenvalues --    2.47973   2.48423   2.49130   2.50771   2.51924
 Alpha virt. eigenvalues --    2.52838   2.53280   2.54778   2.55343   2.56227
 Alpha virt. eigenvalues --    2.56715   2.57302   2.57596   2.58610   2.59912
 Alpha virt. eigenvalues --    2.60781   2.61549   2.61875   2.63077   2.65109
 Alpha virt. eigenvalues --    2.65577   2.66738   2.68279   2.68678   2.70861
 Alpha virt. eigenvalues --    2.71111   2.71289   2.71954   2.72865   2.73542
 Alpha virt. eigenvalues --    2.74692   2.75874   2.76136   2.76671   2.77394
 Alpha virt. eigenvalues --    2.78658   2.79716   2.81714   2.81818   2.82492
 Alpha virt. eigenvalues --    2.83576   2.85380   2.85977   2.86663   2.88117
 Alpha virt. eigenvalues --    2.88427   2.88604   2.89117   2.90231   2.90610
 Alpha virt. eigenvalues --    2.91381   2.91621   2.93177   2.94238   2.95361
 Alpha virt. eigenvalues --    2.96293   2.97268   2.98825   3.02823   3.07398
 Alpha virt. eigenvalues --    3.07880   3.09341   3.10345   3.11077   3.12211
 Alpha virt. eigenvalues --    3.18890   3.21127   3.25496   3.27681   3.29228
 Alpha virt. eigenvalues --    3.30332   3.31257   3.36011   3.37635   3.39401
 Alpha virt. eigenvalues --    3.39863   3.43498   3.45486   3.47083   3.48242
 Alpha virt. eigenvalues --    3.49130   3.49731   3.51035   3.51487   3.52601
 Alpha virt. eigenvalues --    3.53701   3.54626   3.56556   3.58976   3.59684
 Alpha virt. eigenvalues --    3.59866   3.60979   3.62004   3.67958   3.71929
 Alpha virt. eigenvalues --    3.80727   4.35192   4.36310   4.39224   4.46055
 Alpha virt. eigenvalues --    4.49015   4.50862   4.52676   4.53873   4.55737
 Alpha virt. eigenvalues --    4.57573   4.60089   4.63228   4.66554   4.71170
 Alpha virt. eigenvalues --    4.73496   4.74418   4.79235   4.83730   4.90866
 Alpha virt. eigenvalues --    4.94671   5.00526   5.03763
          Condensed to atoms (all electrons):
              1          2          3          4          5          6
     1  C   12.650595  -1.624617  -0.140369   0.038253  -0.676732   0.023416
     2  C   -1.624617   7.223518   0.469208   0.312043   0.145596  -0.016822
     3  H   -0.140369   0.469208   0.520553  -0.024996  -0.096234  -0.004821
     4  H    0.038253   0.312043  -0.024996   0.537613  -0.031845  -0.002582
     5  C   -0.676732   0.145596  -0.096234  -0.031845   8.764608   0.413398
     6  H    0.023416  -0.016822  -0.004821  -0.002582   0.413398   0.544030
     7  C    2.774135  -0.627155   0.095167   0.034969  -5.204675  -0.264870
     8  H   -0.077568   0.017440   0.003539  -0.000047  -0.023810  -0.005472
     9  C   -1.423033   0.423053  -0.064778   0.017688   2.470939   0.165646
    10  H   -0.079115   0.016511   0.000095  -0.000050  -0.063691  -0.000046
    11  C   -1.853725   0.221209   0.062549   0.014877  -0.162780  -0.024710
    12  H   -0.035909   0.031765  -0.000089  -0.000104  -0.034605   0.000010
    13  C   -0.571517  -0.187356  -0.018033   0.003526   0.691159   0.033693
    14  C    0.011655   0.007896  -0.000153  -0.000002   0.010845   0.000231
    15  C    0.919026   0.162776   0.006238  -0.002545  -0.537180  -0.017671
    16  C   -0.995407   0.069036  -0.002278   0.000871   0.569423   0.011867
    17  C   -0.202957   0.020215   0.000064   0.000046   0.082594   0.000869
    18  C   -0.017194  -0.010365   0.000699  -0.000100  -0.283227  -0.001796
    19  H   -0.000180   0.000019   0.000000   0.000000  -0.000089   0.000000
    20  H   -0.000080   0.000021   0.000000   0.000000   0.000079   0.000000
    21  O   -0.013495   0.001530  -0.000006   0.000002   0.019999   0.000006
    22  H    0.000063   0.000062   0.000000   0.000000  -0.001141   0.000000
    23  O    0.018053  -0.001427   0.000058   0.000008   0.035010   0.000108
    24  H    0.005734  -0.008150  -0.000072   0.000001  -0.000356  -0.000013
    25  O    0.029784  -0.051619   0.006184  -0.000781  -0.156696  -0.000217
    26  H   -0.019506   0.011101   0.000186  -0.000014   0.014568   0.000000
    27  C   -2.884382   0.404484   0.030763  -0.053184  -0.722344  -0.005623
    28  H   -0.080735  -0.008968   0.000277   0.002043   0.011456  -0.000001
    29  H   -0.144195   0.022074   0.000055  -0.000050  -0.012816   0.000002
    30  H   -0.142784   0.037081   0.001239   0.000364   0.005324  -0.000003
    31  O    0.422683   0.018157   0.011928  -0.015836  -0.081215  -0.001707
    32  H    0.075158  -0.076085   0.000049   0.004763   0.009809  -0.000013
    33  H   -0.056562  -0.009188   0.004526  -0.004251   0.407839  -0.027752
    34  C   -0.076751  -0.534365  -0.043627  -0.000276   1.008510   0.038519
    35  C    0.176468  -0.074917  -0.006426   0.000764  -0.028655  -0.023657
    36  H   -0.000405   0.001180   0.000000   0.000000   0.010338  -0.000008
    37  H   -0.001905   0.001753  -0.000001   0.000002  -0.012194   0.000066
    38  C   -0.089437  -0.032715   0.006277  -0.001587  -0.063089  -0.003887
    39  H   -0.001040  -0.005100   0.000001   0.000000  -0.013964   0.000010
    40  H    0.000077   0.001105   0.000000   0.000000   0.004670  -0.000061
    41  H    0.001764   0.010014   0.000009   0.000001   0.015382   0.000805
    42  C   -0.002968   0.001508  -0.000003   0.000000   0.001042   0.000012
    43  H    0.000007   0.000000   0.000000   0.000000  -0.000003   0.000000
    44  H   -0.000001   0.000001   0.000000   0.000000  -0.000001   0.000000
    45  C   -0.000022  -0.000048   0.000000   0.000000  -0.000146   0.000000
    46  H    0.000000   0.000000   0.000000   0.000000   0.000000   0.000000
    47  H    0.000001   0.000000   0.000000   0.000000  -0.000007   0.000000
    48  H    0.000000   0.000000   0.000000   0.000000  -0.000004   0.000000
              7          8          9         10         11         12
     1  C    2.774135  -0.077568  -1.423033  -0.079115  -1.853725  -0.035909
     2  C   -0.627155   0.017440   0.423053   0.016511   0.221209   0.031765
     3  H    0.095167   0.003539  -0.064778   0.000095   0.062549  -0.000089
     4  H    0.034969  -0.000047   0.017688  -0.000050   0.014877  -0.000104
     5  C   -5.204675  -0.023810   2.470939  -0.063691  -0.162780  -0.034605
     6  H   -0.264870  -0.005472   0.165646  -0.000046  -0.024710   0.000010
     7  C   29.467486   0.387261  -8.154480   0.084161   0.104857   0.008811
     8  H    0.387261   0.560289   0.043584   0.004951   0.034714  -0.000150
     9  C   -8.154480   0.043584  17.066600   0.357023  -1.878412  -0.029706
    10  H    0.084161   0.004951   0.357023   0.516912   0.142451  -0.003849
    11  C    0.104857   0.034714  -1.878412   0.142451  11.604140   0.191122
    12  H    0.008811  -0.000150  -0.029706  -0.003849   0.191122   0.559262
    13  C   -4.958535   0.137613   4.190506  -0.196009  -0.949995   0.041209
    14  C   -0.378554  -0.008677  -0.514663  -0.012224  -0.327629   0.009247
    15  C    5.327941  -0.176817  -1.431863  -0.123067  -1.951794   0.074030
    16  C   -6.319922   0.063590  -0.176953   0.087757  -0.371798   0.059598
    17  C   -1.572221   0.013952  -1.584318   0.052723  -0.011759   0.016695
    18  C    0.049001  -0.024370  -1.526142   0.008019   0.368028   0.020214
    19  H   -0.000870   0.000000  -0.007025  -0.000007   0.000343   0.000002
    20  H   -0.002306   0.000004   0.006859   0.000001  -0.001282   0.000000
    21  O   -0.111982  -0.000222  -0.098042   0.002780  -0.000585  -0.000911
    22  H    0.006629   0.000000   0.039592   0.000119   0.004758   0.000013
    23  O    0.012211   0.001390   0.158242   0.000087  -0.031359  -0.002586
    24  H   -0.096601   0.002015  -0.027531  -0.000054  -0.001049   0.000524
    25  O    0.567204   0.006271  -0.410138   0.010650   0.242078  -0.039197
    26  H   -0.027003   0.000009   0.052773  -0.000200   0.000643  -0.009046
    27  C    0.948368   0.009680  -2.062108   0.021532   1.386054  -0.034091
    28  H   -0.005735   0.000000   0.003153  -0.000006   0.022515  -0.000013
    29  H   -0.007549   0.000001  -0.002659   0.000007   0.020476   0.002670
    30  H   -0.004693   0.000015   0.019617   0.000001   0.018242   0.000402
    31  O    0.323199   0.001034  -0.192973   0.005597  -0.150421   0.003229
    32  H    0.005167   0.000001  -0.026246  -0.000156   0.044841  -0.000161
    33  H    0.064351   0.004947  -0.037230   0.003411   0.012219  -0.000055
    34  C   -6.269174  -0.175014   1.137798  -0.020543  -0.508230   0.000428
    35  C   -0.205293  -0.038009  -0.373642  -0.021835   0.070619  -0.002234
    36  H    0.011119  -0.000123  -0.014235  -0.000004   0.000056   0.000000
    37  H   -0.068052  -0.000038  -0.005363   0.000972  -0.008689   0.000008
    38  C    0.072364   0.072865   0.205752   0.008025   0.084543   0.000117
    39  H    0.095102   0.001878  -0.010001   0.000008   0.001698   0.000000
    40  H   -0.002106   0.000338  -0.007209   0.000005   0.000012   0.000000
    41  H    0.017472  -0.000416   0.009002  -0.000013   0.002385   0.000000
    42  C   -0.099594   0.000329  -0.213172  -0.000681  -0.051085   0.000520
    43  H    0.000033   0.000000   0.000684   0.000000  -0.000148   0.000000
    44  H   -0.000278   0.000000  -0.000625   0.000000   0.000105   0.000000
    45  C   -0.002465   0.000004  -0.002880   0.000016   0.000026   0.000011
    46  H    0.000018   0.000000   0.000012   0.000000  -0.000006   0.000000
    47  H   -0.000112   0.000000  -0.000012   0.000000   0.000028   0.000000
    48  H    0.000037   0.000000  -0.000114   0.000000  -0.000024   0.000000
             13         14         15         16         17         18
     1  C   -0.571517   0.011655   0.919026  -0.995407  -0.202957  -0.017194
     2  C   -0.187356   0.007896   0.162776   0.069036   0.020215  -0.010365
     3  H   -0.018033  -0.000153   0.006238  -0.002278   0.000064   0.000699
     4  H    0.003526  -0.000002  -0.002545   0.000871   0.000046  -0.000100
     5  C    0.691159   0.010845  -0.537180   0.569423   0.082594  -0.283227
     6  H    0.033693   0.000231  -0.017671   0.011867   0.000869  -0.001796
     7  C   -4.958535  -0.378554   5.327941  -6.319922  -1.572221   0.049001
     8  H    0.137613  -0.008677  -0.176817   0.063590   0.013952  -0.024370
     9  C    4.190506  -0.514663  -1.431863  -0.176953  -1.584318  -1.526142
    10  H   -0.196009  -0.012224  -0.123067   0.087757   0.052723   0.008019
    11  C   -0.949995  -0.327629  -1.951794  -0.371798  -0.011759   0.368028
    12  H    0.041209   0.009247   0.074030   0.059598   0.016695   0.020214
    13  C   25.670502  -2.678639 -15.000700   2.573770  -3.725706   1.573076
    14  C   -2.678639  10.981752   3.595115  -0.449641   0.727673  -2.826972
    15  C  -15.000700   3.595115  37.389274  -6.115546  -2.769694 -11.089971
    16  C    2.573770  -0.449641  -6.115546  13.915736   2.299320  -0.256334
    17  C   -3.725706   0.727673  -2.769694   2.299320  13.381774  -1.266297
    18  C    1.573076  -2.826972 -11.089971  -0.256334  -1.266297  19.738790
    19  H    0.076020   0.053097  -0.065310  -0.044276   0.263724   0.062199
    20  H    0.052029   0.063393   0.106563  -0.003342   0.036572   0.083620
    21  O   -0.081466   0.027213  -0.015006   0.275282   0.009075  -0.016391
    22  H    0.132802   0.005783  -0.030406   0.059366  -0.227324   0.017752
    23  O   -0.396250   0.146935   0.847723  -0.077001   0.001173  -0.609903
    24  H   -0.039618  -0.003418   0.017312   0.023143  -0.004798   0.165561
    25  O   -0.159500  -0.016097   0.199685  -0.215742  -0.050146  -0.029741
    26  H   -0.023505   0.001747   0.019683  -0.001197  -0.000904  -0.010081
    27  C   -0.497062  -0.013503   0.135483  -0.253918  -0.017759   0.074596
    28  H   -0.000169  -0.000014  -0.001395   0.000341   0.000019  -0.000042
    29  H   -0.000230   0.000001  -0.001539   0.002447   0.000283  -0.000024
    30  H   -0.001759   0.000055   0.006826  -0.000651  -0.000123   0.000675
    31  O   -0.063025  -0.000204   0.027267  -0.048595  -0.004166   0.004168
    32  H   -0.000319   0.000016   0.000007  -0.002207  -0.000148  -0.000010
    33  H   -0.012343  -0.000183  -0.006431   0.006225   0.001417   0.000038
    34  C    0.113263   0.279854  -0.167572   1.428291   0.449260  -0.276261
    35  C    0.129858   0.045342   0.598734  -0.793534  -0.461283  -0.261089
    36  H    0.007970  -0.001065   0.001088  -0.005840  -0.006126   0.003398
    37  H    0.007489   0.000655  -0.004724   0.028131   0.002903   0.004153
    38  C    0.613842  -0.120692  -1.037563   0.336605   0.159897   0.181556
    39  H    0.059883  -0.010494  -0.073885   0.006756   0.001658   0.025930
    40  H   -0.000127   0.000160   0.005539   0.000498   0.000698  -0.000559
    41  H   -0.023201   0.000845   0.016839  -0.004132  -0.000244  -0.006227
    42  C   -0.922201  -2.260052  -1.252839  -0.094478   0.566368   1.599510
    43  H   -0.005243  -0.212657  -0.011691   0.055339   0.167055  -0.134201
    44  H    0.007892  -0.245906   0.026940  -0.023103  -0.107044   0.195572
    45  C    0.018315  -0.080588  -0.017860   0.002896   0.043007   0.051354
    46  H    0.001823   0.029031   0.001491   0.003498   0.005979   0.006686
    47  H   -0.000941  -0.041702  -0.002661  -0.004015  -0.018846   0.023764
    48  H   -0.004719  -0.023982  -0.002861   0.002369   0.022663  -0.032277
             19         20         21         22         23         24
     1  C   -0.000180  -0.000080  -0.013495   0.000063   0.018053   0.005734
     2  C    0.000019   0.000021   0.001530   0.000062  -0.001427  -0.008150
     3  H    0.000000   0.000000  -0.000006   0.000000   0.000058  -0.000072
     4  H    0.000000   0.000000   0.000002   0.000000   0.000008   0.000001
     5  C   -0.000089   0.000079   0.019999  -0.001141   0.035010  -0.000356
     6  H    0.000000   0.000000   0.000006   0.000000   0.000108  -0.000013
     7  C   -0.000870  -0.002306  -0.111982   0.006629   0.012211  -0.096601
     8  H    0.000000   0.000004  -0.000222   0.000000   0.001390   0.002015
     9  C   -0.007025   0.006859  -0.098042   0.039592   0.158242  -0.027531
    10  H   -0.000007   0.000001   0.002780   0.000119   0.000087  -0.000054
    11  C    0.000343  -0.001282  -0.000585   0.004758  -0.031359  -0.001049
    12  H    0.000002   0.000000  -0.000911   0.000013  -0.002586   0.000524
    13  C    0.076020   0.052029  -0.081466   0.132802  -0.396250  -0.039618
    14  C    0.053097   0.063393   0.027213   0.005783   0.146935  -0.003418
    15  C   -0.065310   0.106563  -0.015006  -0.030406   0.847723   0.017312
    16  C   -0.044276  -0.003342   0.275282   0.059366  -0.077001   0.023143
    17  C    0.263724   0.036572   0.009075  -0.227324   0.001173  -0.004798
    18  C    0.062199   0.083620  -0.016391   0.017752  -0.609903   0.165561
    19  H    0.523172  -0.000140  -0.018703   0.008533   0.000143   0.000000
    20  H   -0.000140   0.518785   0.000100  -0.000001  -0.006776   0.000091
    21  O   -0.018703   0.000100   8.319909   0.203305  -0.001730  -0.000114
    22  H    0.008533  -0.000001   0.203305   0.365333   0.000046   0.000000
    23  O    0.000143  -0.006776  -0.001730   0.000046   8.350348   0.187807
    24  H    0.000000   0.000091  -0.000114   0.000000   0.187807   0.313358
    25  O    0.000003  -0.000025  -0.001908  -0.000014  -0.004227   0.012610
    26  H    0.000000   0.000000  -0.000047   0.000000   0.002821   0.000374
    27  C   -0.000005  -0.000013   0.001546   0.000134  -0.003501  -0.001992
    28  H    0.000000   0.000000   0.000002   0.000000   0.000002   0.000000
    29  H    0.000000   0.000000   0.000018   0.000000  -0.000002  -0.000002
    30  H    0.000000   0.000000   0.000002   0.000000  -0.000098   0.000038
    31  O    0.000001   0.000000  -0.001075   0.000007   0.000314  -0.000148
    32  H    0.000000   0.000000   0.000028   0.000000  -0.000001   0.000000
    33  H    0.000000   0.000000  -0.000198   0.000000   0.000030  -0.000005
    34  C   -0.001102   0.000115   0.064129  -0.002789  -0.061180   0.001560
    35  C    0.000748   0.000442  -0.043533   0.001628  -0.010108  -0.007932
    36  H    0.000000   0.000000   0.000422   0.000000  -0.000019   0.000000
    37  H    0.000000   0.000000   0.002232  -0.000061  -0.000079   0.000002
    38  C    0.000055   0.001002  -0.001613   0.000043   0.017953   0.004297
    39  H    0.000000  -0.000013   0.000027   0.000000   0.001644  -0.000007
    40  H    0.000000   0.000000  -0.000015   0.000000  -0.000215   0.000000
    41  H    0.000000   0.000000  -0.000013   0.000000   0.000321   0.000000
    42  C   -0.022118  -0.026362  -0.001078   0.000222  -0.035285   0.003496
    43  H    0.002195   0.000094  -0.000028   0.000002   0.000035   0.000000
    44  H    0.000078   0.001819   0.000038   0.000000   0.000016   0.000000
    45  C    0.007833   0.004839  -0.000074   0.000121   0.000302  -0.000049
    46  H   -0.000028  -0.000025  -0.000001   0.000000   0.000000   0.000000
    47  H    0.000175   0.000007   0.000033   0.000000   0.000006   0.000000
    48  H    0.000010   0.000173   0.000001   0.000000   0.000000   0.000000
             25         26         27         28         29         30
     1  C    0.029784  -0.019506  -2.884382  -0.080735  -0.144195  -0.142784
     2  C   -0.051619   0.011101   0.404484  -0.008968   0.022074   0.037081
     3  H    0.006184   0.000186   0.030763   0.000277   0.000055   0.001239
     4  H   -0.000781  -0.000014  -0.053184   0.002043  -0.000050   0.000364
     5  C   -0.156696   0.014568  -0.722344   0.011456  -0.012816   0.005324
     6  H   -0.000217   0.000000  -0.005623  -0.000001   0.000002  -0.000003
     7  C    0.567204  -0.027003   0.948368  -0.005735  -0.007549  -0.004693
     8  H    0.006271   0.000009   0.009680   0.000000   0.000001   0.000015
     9  C   -0.410138   0.052773  -2.062108   0.003153  -0.002659   0.019617
    10  H    0.010650  -0.000200   0.021532  -0.000006   0.000007   0.000001
    11  C    0.242078   0.000643   1.386054   0.022515   0.020476   0.018242
[...]
    15  C    0.210722  -0.000963   0.059124  -0.002180  -0.000870   0.005853
    16  C   -0.189333   0.003593  -0.162331   0.000632   0.001391  -0.000108
    17  C   -0.043263  -0.000152  -0.013404   0.000032   0.000225  -0.000081
    18  C    0.022945  -0.015203   0.034510  -0.000076  -0.000006   0.000643
    19  H    0.000001   0.000000  -0.000003   0.000000   0.000000   0.000000
    20  H   -0.000052   0.000000  -0.000016   0.000000   0.000000   0.000000
    21  O   -0.002340  -0.000041   0.003539   0.000003   0.000015   0.000003
    22  H   -0.000003   0.000000   0.000153   0.000000   0.000000   0.000000
    23  O   -0.015566   0.004176  -0.000633   0.000004   0.000008  -0.000111
    24  H    0.022482  -0.000310  -0.001843   0.000000  -0.000001   0.000038
    25  O    8.496587   0.238255   0.003852  -0.000989  -0.002372   0.006867
    26  H    0.238255   0.308522   0.001144  -0.000037   0.000347  -0.000115
    27  C    0.003852   0.001144   8.201009   0.454137   0.542899   0.447862
    28  H   -0.000989  -0.000037   0.454137   0.530940  -0.028511  -0.025515
    29  H   -0.002372   0.000347   0.542899  -0.028511   0.537535  -0.027329
    30  H    0.006867  -0.000115   0.447862  -0.025515  -0.027329   0.529319
    31  O    0.022358  -0.000133  -0.201258  -0.011970  -0.000102   0.009090
    32  H   -0.000884  -0.000004   0.002920   0.003441  -0.000389   0.000063
    33  H    0.000638   0.000003   0.000148   0.000001   0.000002   0.000001
    34  C   -0.018650  -0.002459  -0.151558   0.000463  -0.000675   0.000055
    35  C   -0.004110  -0.000084  -0.001955  -0.000009  -0.000108  -0.000151
    36  H   -0.000005   0.000000  -0.000064   0.000000   0.000000   0.000000
    37  H   -0.000078   0.000000  -0.000407   0.000000   0.000000   0.000000
    38  C    0.001417  -0.000084   0.003660  -0.000007   0.000008   0.000040
    39  H    0.000047   0.000000  -0.000003   0.000000   0.000000   0.000000
    40  H   -0.000012   0.000000  -0.000007   0.000000   0.000000   0.000000
    41  H    0.000056   0.000000   0.000216   0.000000   0.000000   0.000000
    42  C   -0.006647   0.000076  -0.001061   0.000000  -0.000001   0.000000
    43  H    0.000000   0.000000   0.000000   0.000000   0.000000   0.000000
    44  H   -0.000001   0.000000  -0.000001   0.000000   0.000000   0.000000
    45  C   -0.000048  -0.000002  -0.000028   0.000000   0.000000   0.000000
    46  H    0.000000   0.000000   0.000000   0.000000   0.000000   0.000000
    47  H    0.000000   0.000000   0.000000   0.000000   0.000000   0.000000
    48  H    0.000000   0.000000   0.000000   0.000000   0.000000   0.000000
             31         32         33         34         35         36
     1  C    0.346291   0.018358  -0.084929  -0.054821   0.222481  -0.000619
     2  C    0.008035  -0.046362  -0.008885  -0.484732  -0.053117  -0.000990
     3  H    0.009504   0.000072   0.005003  -0.044174  -0.007669   0.000000
     4  H   -0.017337   0.004557  -0.004702  -0.013153  -0.001527   0.000000
     5  C   -0.032875   0.004651   0.504752   1.059405   0.067365   0.012937
     6  H   -0.001808   0.000013  -0.032466   0.049419  -0.022609  -0.000008
     7  C    0.265156  -0.006317  -0.106173  -5.482459  -1.049845  -0.053837
     8  H    0.001332  -0.000001   0.005399  -0.169170  -0.022229  -0.000132
     9  C   -0.151717  -0.019956   0.045582   0.927496  -0.535783  -0.014295
    10  H    0.007284  -0.000133   0.003628  -0.035662  -0.000655   0.000015
    11  C   -0.225896   0.058066   0.010041  -0.514390  -0.008701  -0.001443
    12  H    0.005098  -0.000181  -0.000057  -0.002224  -0.003763   0.000000
    13  C   -0.030655  -0.002987  -0.002300  -0.160345   0.095761   0.011998
    14  C    0.000394  -0.000011  -0.000018   0.310423   0.040077  -0.000426
    15  C    0.015078  -0.000490  -0.012856  -0.078576   0.545718  -0.002949
    16  C   -0.031285  -0.001697   0.017532   1.206584  -0.804664  -0.000907
    17  C   -0.001058  -0.000101   0.002275   0.401526  -0.504575  -0.005465
    18  C    0.003626  -0.000068  -0.000261  -0.206596  -0.218269   0.002703
    19  H    0.000001   0.000000   0.000000  -0.000572   0.000479   0.000000
    20  H    0.000000   0.000000   0.000000   0.000648   0.000325   0.000000
    21  O   -0.001643   0.000047  -0.000105   0.062798  -0.032004   0.000388
    22  H    0.000001   0.000000   0.000000  -0.001905   0.001111   0.000000
    23  O    0.000345   0.000000   0.000026  -0.061977  -0.018296  -0.000016
    24  H   -0.000170   0.000000  -0.000007  -0.002371  -0.006298   0.000000
    25  O    0.022358  -0.000884   0.000638  -0.018650  -0.004110  -0.000005
    26  H   -0.000133  -0.000004   0.000003  -0.002459  -0.000084   0.000000
    27  C   -0.201258   0.002920   0.000148  -0.151558  -0.001955  -0.000064
    28  H   -0.011970   0.003441   0.000001   0.000463  -0.000009   0.000000
    29  H   -0.000102  -0.000389   0.000002  -0.000675  -0.000108   0.000000
    30  H    0.009090   0.000063   0.000001   0.000055  -0.000151   0.000000
    31  O    8.428476   0.239335   0.011752  -0.053079   0.000777  -0.000004
    32  H    0.239335   0.336414  -0.000244  -0.000962   0.000054   0.000000
    33  H    0.011752  -0.000244   0.559382  -0.013298  -0.086828  -0.000042
    34  C   -0.053079  -0.000962  -0.013298  11.141396  -0.546395  -0.168592
    35  C    0.000777   0.000054  -0.086828  -0.546395   9.737331   0.620770
    36  H   -0.000004   0.000000  -0.000042  -0.168592   0.620770   0.535973
    37  H   -0.000315   0.000004   0.000101  -0.101886   0.541087  -0.034716
    38  C    0.003445  -0.000138   0.029568  -0.972198  -1.386311  -0.049319
    39  H   -0.000001   0.000000  -0.000014  -0.262928  -0.066931   0.000148
    40  H    0.000001   0.000000   0.000006  -0.080053   0.020959   0.003297
    41  H    0.000010   0.000000   0.000063  -0.062843   0.004010   0.000135
    42  C    0.000067   0.000000   0.000003   0.024146  -0.030375  -0.000085
    43  H    0.000000   0.000000   0.000000  -0.000011   0.000015   0.000000
    44  H    0.000000   0.000000   0.000000   0.000010  -0.000055   0.000000
    45  C    0.000000   0.000000   0.000000  -0.002238  -0.002387   0.000012
    46  H    0.000000   0.000000   0.000000  -0.000015  -0.000008   0.000000
    47  H    0.000000   0.000000   0.000000   0.000089  -0.000050   0.000000
    48  H    0.000000   0.000000   0.000000   0.000053   0.000013   0.000000
             37         38         39         40         41         42
     1  C    0.002393  -0.121472  -0.001868   0.000522   0.001890  -0.002925
     2  C    0.000420  -0.074602  -0.003021  -0.001491   0.011055   0.001066
     3  H   -0.000001   0.006365   0.000000   0.000000   0.000009  -0.000007
     4  H    0.000003  -0.001327   0.000000   0.000000   0.000001   0.000000
     5  C   -0.022060  -0.096435  -0.010303   0.003878   0.009945   0.003594
     6  H    0.000083  -0.009866   0.000004  -0.000067   0.000917   0.000016
     7  C   -0.063409   0.094074   0.120934  -0.070815   0.031287  -0.084681
     8  H   -0.000044   0.061898   0.001692   0.000408  -0.000413   0.000194
     9  C   -0.014322   0.205008  -0.021764  -0.006349  -0.000631  -0.173468
    10  H    0.000671   0.002847   0.000009   0.000005  -0.000015  -0.000883
    11  C   -0.007903   0.064024   0.002465  -0.001109   0.003687  -0.082358
    12  H    0.000007   0.000445   0.000000   0.000000   0.000000   0.000554
    13  C    0.000018   0.773956   0.049059   0.005040  -0.025056  -0.654434
    14  C    0.001842  -0.134902  -0.009270   0.000271   0.000420  -1.773361
    15  C   -0.001406  -1.309609  -0.073043   0.002777   0.014470  -1.020397
    16  C    0.017582   0.415669   0.003912   0.000696  -0.004865  -0.079021
    17  C    0.003351   0.182587   0.001439   0.000705  -0.000351   0.493964
    18  C    0.002177   0.221942   0.029033  -0.001420  -0.006315   1.057938
    19  H    0.000000   0.000084   0.000000   0.000000   0.000000  -0.021419
    20  H    0.000000   0.000897  -0.000010   0.000000   0.000000  -0.015492
    21  O    0.003659  -0.001749   0.000045  -0.000016  -0.000022   0.003232
    22  H   -0.000059   0.000077   0.000000   0.000000   0.000000  -0.000570
    23  O   -0.000087   0.033416   0.001506  -0.000114   0.000407  -0.025474
    24  H    0.000002   0.001137  -0.000003   0.000000   0.000000   0.001644
    25  O   -0.000078   0.001417   0.000047  -0.000012   0.000056  -0.006647
    26  H    0.000000  -0.000084   0.000000   0.000000   0.000000   0.000076
    27  C   -0.000407   0.003660  -0.000003  -0.000007   0.000216  -0.001061
    28  H    0.000000  -0.000007   0.000000   0.000000   0.000000   0.000000
    29  H    0.000000   0.000008   0.000000   0.000000   0.000000  -0.000001
    30  H    0.000000   0.000040   0.000000   0.000000   0.000000   0.000000
    31  O   -0.000315   0.003445  -0.000001   0.000001   0.000010   0.000067
    32  H    0.000004  -0.000138   0.000000   0.000000   0.000000   0.000000
    33  H    0.000101   0.029568  -0.000014   0.000006   0.000063   0.000003
    34  C   -0.101886  -0.972198  -0.262928  -0.080053  -0.062843   0.024146
    35  C    0.541087  -1.386311  -0.066931   0.020959   0.004010  -0.030375
    36  H   -0.034716  -0.049319   0.000148   0.003297   0.000135  -0.000085
    37  H    0.542778  -0.014221  -0.000188   0.000183  -0.000190   0.000198
    38  C   -0.014221   7.251933   0.586159   0.479916   0.370143   0.018126
    39  H   -0.000188   0.586159   0.538822  -0.027462  -0.028885  -0.000206
    40  H    0.000183   0.479916  -0.027462   0.542283  -0.027118   0.000075
    41  H   -0.000190   0.370143  -0.028885  -0.027118   0.536922  -0.000003
    42  C    0.000198   0.018126  -0.000206   0.000075  -0.000003   7.328705
    43  H    0.000000  -0.000016   0.000000   0.000000   0.000000   0.487817
    44  H    0.000000   0.000035   0.000000   0.000000   0.000000   0.489295
    45  C    0.000003   0.002924   0.000095   0.000009  -0.000006   0.213131
    46  H    0.000000   0.000005   0.000000   0.000000   0.000000  -0.062242
    47  H    0.000000  -0.000030   0.000000   0.000000   0.000000  -0.047907
    48  H    0.000000  -0.000144   0.000000   0.000000   0.000000  -0.054234
             43         44         45         46         47         48
     1  C    0.000005  -0.000004  -0.000192   0.000000  -0.000001   0.000000
     2  C    0.000000   0.000000  -0.000077   0.000000   0.000000  -0.000001
     3  H    0.000000   0.000000   0.000000   0.000000   0.000000   0.000000
     4  H    0.000000   0.000000   0.000000   0.000000   0.000000   0.000000
     5  C   -0.000004  -0.000002  -0.000218  -0.000001  -0.000002  -0.000001
     6  H    0.000000   0.000000   0.000000   0.000000   0.000000   0.000000
     7  C    0.000001  -0.000304  -0.001323   0.000011  -0.000213   0.000095
     8  H    0.000000   0.000000   0.000006   0.000000   0.000000   0.000000
     9  C   -0.000249  -0.001145  -0.009156  -0.000062  -0.000369  -0.000186
    10  H    0.000000   0.000000   0.000021   0.000000   0.000000   0.000000
    11  C   -0.000136   0.000073  -0.001699   0.000000   0.000021  -0.000060
    12  H    0.000000   0.000000   0.000012   0.000000   0.000000   0.000000
    13  C   -0.007711  -0.004285  -0.002227   0.000673  -0.000249  -0.013265
    14  C   -0.162531  -0.166072   0.019045  -0.020649   0.025470   0.068480
    15  C   -0.014684   0.017555  -0.016115  -0.004081   0.006677  -0.003533
    16  C    0.032765  -0.018591  -0.005947   0.002514  -0.027247   0.011712
    17  C    0.093464  -0.070242   0.013437   0.002685  -0.069886   0.058752
    18  C   -0.088316   0.094366  -0.006627   0.015369   0.051376  -0.128514
    19  H    0.002459   0.000111   0.004425  -0.000034   0.000199   0.000014
    20  H    0.000116   0.002310   0.003019  -0.000034   0.000011   0.000246
    21  O   -0.000002   0.000023   0.000170  -0.000003   0.000055   0.000000
    22  H    0.000000   0.000000   0.000087   0.000000  -0.000001   0.000000
    23  O    0.000026  -0.000007   0.000193   0.000000   0.000008  -0.000025
    24  H    0.000000   0.000000  -0.000048   0.000000   0.000000   0.000000
    25  O    0.000000  -0.000001  -0.000048   0.000000   0.000000   0.000000
    26  H    0.000000   0.000000  -0.000002   0.000000   0.000000   0.000000
    27  C    0.000000  -0.000001  -0.000028   0.000000   0.000000   0.000000
    28  H    0.000000   0.000000   0.000000   0.000000   0.000000   0.000000
    29  H    0.000000   0.000000   0.000000   0.000000   0.000000   0.000000
    30  H    0.000000   0.000000   0.000000   0.000000   0.000000   0.000000
    31  O    0.000000   0.000000   0.000000   0.000000   0.000000   0.000000
    32  H    0.000000   0.000000   0.000000   0.000000   0.000000   0.000000
    33  H    0.000000   0.000000   0.000000   0.000000   0.000000   0.000000
    34  C   -0.000011   0.000010  -0.002238  -0.000015   0.000089   0.000053
    35  C    0.000015  -0.000055  -0.002387  -0.000008  -0.000050   0.000013
    36  H    0.000000   0.000000   0.000012   0.000000   0.000000   0.000000
    37  H    0.000000   0.000000   0.000003   0.000000   0.000000   0.000000
    38  C   -0.000016   0.000035   0.002924   0.000005  -0.000030  -0.000144
    39  H    0.000000   0.000000   0.000095   0.000000   0.000000   0.000000
    40  H    0.000000   0.000000   0.000009   0.000000   0.000000   0.000000
    41  H    0.000000   0.000000  -0.000006   0.000000   0.000000   0.000000
    42  C    0.487817   0.489295   0.213131  -0.062242  -0.047907  -0.054234
    43  H    0.567368  -0.033811  -0.023970  -0.003364  -0.005031   0.004899
    44  H   -0.033811   0.565328  -0.022488  -0.003303   0.004855  -0.005098
    45  C   -0.023970  -0.022488   5.182877   0.425172   0.418238   0.416673
    46  H   -0.003364  -0.003303   0.425172   0.549325  -0.027123  -0.027086
    47  H   -0.005031   0.004855   0.418238  -0.027123   0.541921  -0.028555
    48  H    0.004899  -0.005098   0.416673  -0.027086  -0.028555   0.542073
 Mulliken atomic charges:
              1
     1  C    0.306336
     2  C   -0.320662
     3  H    0.162381
     4  H    0.156014
     5  C   -0.534851
     6  H    0.150952
     7  C    0.020967
     8  H    0.145409
     9  C   -0.130832
    10  H    0.170163
    11  C   -0.312998
    12  H    0.156771
    13  C    0.285019
    14  C   -0.031912
    15  C   -1.305437
    16  C    0.653229
    17  C   -0.178768
    18  C    0.354131
    19  H    0.147685
    20  H    0.146199
    21  O   -0.595502
    22  H    0.447835
    23  O   -0.626907
    24  H    0.472768
    25  O   -0.666917
    26  H    0.446016
    27  C   -0.379167
    28  H    0.164822
    29  H    0.163391
    30  H    0.169739
    31  O   -0.616147
    32  H    0.412929
    33  H    0.157282
    34  C    0.566453
    35  C   -0.482576
    36  H    0.145539
    37  H    0.144730
    38  C   -0.639375
    39  H    0.170530
    40  H    0.155004
    41  H    0.171066
    42  C    0.013410
    43  H    0.150903
    44  H    0.151447
    45  C   -0.604754
    46  H    0.152250
    47  H    0.157744
    48  H    0.157690
 Sum of Mulliken atomic charges =   0.00000
 Mulliken charges with hydrogens summed into heavy atoms:
              1
     1  C    0.306336
     2  C   -0.002267
     5  C   -0.226617
     7  C    0.166376
     9  C    0.039331
    11  C   -0.156227
    13  C    0.285019
    14  C   -0.031912
    15  C   -1.305437
    16  C    0.653229
    17  C   -0.031083
    18  C    0.500330
    21  O   -0.147667
    23  O   -0.154139
    25  O   -0.220901
    27  C    0.118784
    31  O   -0.203218
    34  C    0.566453
    35  C   -0.192307
    38  C   -0.142775
    42  C    0.315760
    45  C   -0.137069
 Sum of Mulliken charges with hydrogens summed into heavy atoms =   0.00000
 Electronic spatial extent (au):  <R**2>=           7153.8172
 Charge=              0.0000 electrons
 Dipole moment (field-independent basis, Debye):
    X=             -2.9408    Y=             -2.3802    Z=              1.1229  Tot=              3.9464
 Quadrupole moment (field-independent basis, Debye-Ang):
   XX=           -104.9429   YY=           -130.0861   ZZ=           -136.3723
   XY=              1.9905   XZ=             12.4057   YZ=              1.1967
 Traceless Quadrupole moment (field-independent basis, Debye-Ang):
   XX=             18.8575   YY=             -6.2857   ZZ=            -12.5719
   XY=              1.9905   XZ=             12.4057   YZ=              1.1967
 Octapole moment (field-independent basis, Debye-Ang**2):
  XXX=            -71.8127  YYY=            -33.8161  ZZZ=             43.9565  XYY=            -21.7924
  XXY=            -31.2968  XXZ=             22.0479  XZZ=             15.9736  YZZ=            -10.3711
  YYZ=            -20.4970  XYZ=            -14.9742
 Hexadecapole moment (field-independent basis, Debye-Ang**3):
 XXXX=          -5770.4744 YYYY=          -1958.5911 ZZZZ=          -1171.3384 XXXY=            -31.6812
 XXXZ=            -77.1597 YYYX=            109.5694 YYYZ=             20.6219 ZZZX=            119.0678
 ZZZY=             -3.0802 XXYY=          -1421.1431 XXZZ=          -1201.2715 YYZZ=           -531.1781
 XXYZ=              5.8165 YYXZ=             55.1895 ZZXY=            -15.9580
 N-N= 1.980937820937D+03 E-N=-6.295485718483D+03  KE= 9.931626771474D+02

 Test job not archived.
 1\1\GINC-COMPUTE-10-6\SP\RB3LYP\6-31+G(d,p)\C18H26O4\LPASSAGLIA.IQUIR\
 23-Dec-2022\0\\# B3LYP/6-31+G** geom=allcheck test scrf=(pcm,solvent=w
 ater,smd,dovacuum)\\comment\\0,1\C,0,-1.727115618,0.945378682,-2.79665
 0507\C,0,-2.299190326,2.118378018,-1.982042777\H,0,-1.622134435,2.9804
 08549,-2.031589063\H,0,-3.258149392,2.438994575,-2.408316708\C,0,-2.53
 3218115,1.751485423,-0.515817212\H,0,-2.889932403,2.642375687,0.016866
 252\C,0,-1.260732844,1.206009311,0.165525799\H,0,-0.527987545,2.022510
 881,0.153254425\C,0,-0.675563067,0.01212701,-0.653780169\H,0,-1.468425
 05,-0.745552815,-0.68502897\C,0,-0.427425766,0.407452314,-2.136398186\
 H,0,-0.07557106,-0.481494071,-2.676922332\C,0,0.562687735,-0.638021473
 ,-0.023718139\C,0,2.762772432,-1.901589865,1.276262844\C,0,1.726603613
 ,0.070633421,0.314760324\C,0,0.553487424,-2.011426662,0.280005765\C,0,
 1.628989687,-2.637434182,0.921110384\C,0,2.799180847,-0.539505751,0.96
 9466855\H,0,1.590018527,-3.697824743,1.153546017\H,0,3.668865108,0.060
 47621,1.22698265\O,0,-0.538871438,-2.765382029,-0.059947286\H,0,-0.410
 785862,-3.669967565,0.267177303\O,0,1.907298446,1.392782562,0.01416956
 4\H,0,1.383222973,1.573603869,-0.796159536\O,0,0.605634128,1.40754226,
 -2.219104323\H,0,0.985588209,1.333411961,-3.115576528\C,0,-1.479530312
 ,1.389616777,-4.243120392\H,0,-2.419469427,1.677722703,-4.728160261\H,
 0,-1.066788612,0.564653655,-4.834805017\H,0,-0.792516448,2.239365625,-
 4.304062416\O,0,-2.693895408,-0.110291635,-2.84354853\H,0,-3.530404789
 ,0.257684334,-3.177551042\H,0,-3.341860837,1.01124383,-0.45638193\C,0,
 -1.571582256,0.901323767,1.632523489\C,0,-2.232261119,-0.195108427,2.0
 42638138\H,0,-2.426579063,-0.380983081,3.09421809\H,0,-2.590627586,-0.
 942722636,1.341824776\C,0,-1.079768751,1.921613618,2.623435956\H,0,0.0
 10667112,2.005234747,2.573079695\H,0,-1.34596569,1.659629623,3.6528806
 08\H,0,-1.515951728,2.902024691,2.406419315\C,0,3.913648649,-2.5552420
 11,1.994826638\H,0,4.005829338,-3.599194405,1.671239733\H,0,4.85318800
 2,-2.066059382,1.710148001\C,0,3.741896168,-2.498578898,3.505069142\H,
 0,4.590815744,-2.979926535,4.000784508\H,0,2.82810456,-3.013450755,3.8
 20663065\H,0,3.683806247,-1.463927183,3.859801986\\Version=EM64L-G09Re
 vC.01\State=1-A\HF=-1002.5564044\RMSD=6.334e-09\Dipole=-0.5394028,-0.1
 381666,-1.4493739\Quadrupole=-5.3070198,2.126125,3.1808947,-9.6138295,
 4.0635438,-10.5164391\PG=C01 [X(C18H26O4)]\\@


 REALITY IS FOR PEOPLE WHO CAN'T FACE SCIENCE FICTION.
 Job cpu time:  0 days  1 hours 23 minutes  5.2 seconds.
 File lengths (MBytes):  RWF=    242 Int=      0 D2E=      0 Chk=     19 Scr=      1
 Normal termination of Gaussian 09 at Fri Dec 23 14:57:55 2022.
