 Entering Gaussian System, Link 0=g09
 Input=/home/lpassaglia.iquir/Link1/01_RRSS_THC_006.gjc
 Output=/home/lpassaglia.iquir/Link1/01_RRSS_THC_006.log
 Initial command:
 /share/apps/Gaussian09/EM64T.SSE4.2-enabled/g09/l1.exe /tmp/Gau-4255.inp -scrdir=/tmp/
 Entering Link 1 = /share/apps/Gaussian09/EM64T.SSE4.2-enabled/g09/l1.exe PID=      4257.
  
 Copyright (c) 1988,1990,1992,1993,1995,1998,2003,2009,2011,
            Gaussian, Inc.  All Rights Reserved.
  
 This is part of the Gaussian(R) 09 program.  It is based on
 the Gaussian(R) 03 system (copyright 2003, Gaussian, Inc.),
 the Gaussian(R) 98 system (copyright 1998, Gaussian, Inc.),
 the Gaussian(R) 94 system (copyright 1995, Gaussian, Inc.),
 the Gaussian 92(TM) system (copyright 1992, Gaussian, Inc.),
 the Gaussian 90(TM) system (copyright 1990, Gaussian, Inc.),
 the Gaussian 88(TM) system (copyright 1988, Gaussian, Inc.),
 the Gaussian 86(TM) system (copyright 1986, Carnegie Mellon
 University), and the Gaussian 82(TM) system (copyright 1983,
 Carnegie Mellon University). Gaussian is a federally registered
 trademark of Gaussian, Inc.
  
 This software contains proprietary and confidential information,
 including trade secrets, belonging to Gaussian, Inc.
  
 This software is provided under written license and may be
 used, copied, transmitted, or stored only in accord with that
 written license.
  
 The following legend is applicable only to US Government
 contracts under FAR:
  
                    RESTRICTED RIGHTS LEGEND
  
 Use, reproduction and disclosure by the US Government is
 subject to restrictions as set forth in subparagraphs (a)
 and (c) of the Commercial Computer Software - Restricted
 Rights clause in FAR 52.227-19.
  
 Gaussian, Inc.
 340 Quinnipiac St., Bldg. 40, Wallingford CT 06492
  
  
 ---------------------------------------------------------------
 Warning -- This program may not be used in any manner that
 competes with the business of Gaussian, Inc. or will provide
 assistance to any competitor of Gaussian, Inc.  The licensee
 of this program is prohibited from giving any competitor of
 Gaussian, Inc. access to this program.  By using this program,
 the user acknowledges that Gaussian, Inc. is engaged in the
 business of creating and licensing software in the field of
 computational chemistry and represents and warrants to the
 licensee that it is not a competitor of Gaussian, Inc. and that
 it will not use this program in any manner prohibited above.
 ---------------------------------------------------------------
  

 Cite this work as:
 Gaussian 09, Revision C.01,
 M. J. Frisch, G. W. Trucks, H. B. Schlegel, G. E. Scuseria, 
 M. A. Robb, J. R. Cheeseman, G. Scalmani, V. Barone, B. Mennucci, 
 G. A. Petersson, H. Nakatsuji, M. Caricato, X. Li, H. P. Hratchian, 
 A. F. Izmaylov, J. Bloino, G. Zheng, J. L. Sonnenberg, M. Hada, 
 M. Ehara, K. Toyota, R. Fukuda, J. Hasegawa, M. Ishida, T. Nakajima, 
 Y. Honda, O. Kitao, H. Nakai, T. Vreven, J. A. Montgomery, Jr., 
 J. E. Peralta, F. Ogliaro, M. Bearpark, J. J. Heyd, E. Brothers, 
 K. N. Kudin, V. N. Staroverov, T. Keith, R. Kobayashi, J. Normand, 
 K. Raghavachari, A. Rendell, J. C. Burant, S. S. Iyengar, J. Tomasi, 
 M. Cossi, N. Rega, J. M. Millam, M. Klene, J. E. Knox, J. B. Cross, 
 V. Bakken, C. Adamo, J. Jaramillo, R. Gomperts, R. E. Stratmann, 
 O. Yazyev, A. J. Austin, R. Cammi, C. Pomelli, J. W. Ochterski, 
 R. L. Martin, K. Morokuma, V. G. Zakrzewski, G. A. Voth, 
 P. Salvador, J. J. Dannenberg, S. Dapprich, A. D. Daniels, 
 O. Farkas, J. B. Foresman, J. V. Ortiz, J. Cioslowski, 
 and D. J. Fox, Gaussian, Inc., Wallingford CT, 2010.
 
 ******************************************
 Gaussian 09:  EM64L-G09RevC.01 23-Sep-2011
                13-Oct-2021 
 ******************************************
 %chk=01_RRSS_THC_006_optB_NMR
 %nprocshared=4
 Will use up to    4 processors via shared memory.
 ------------------------------------------------
 # mPW1PW91/6-31+G** scrf=(PCM,solvent=water) nmr
 ------------------------------------------------
 1/38=1/1;
 2/12=2,17=6,18=5,40=1/2;
 3/5=1,6=6,7=111,11=2,16=1,25=1,30=1,70=2201,72=1,74=-7/1,2,8,3;
 4//1;
 5/5=2,38=5,53=1/2;
 8/6=1,10=90,11=11/1;
 10/13=100,45=16/2;
 6/7=2,8=2,9=2,10=2,28=1/1;
 99/9=1/99;
 -------
 comment
 -------
 Charge =  0 Multiplicity = 1
 Symbolic Z-Matrix:
 6                    -1.79772   0.69199  -2.69948 
 6                    -2.55214   1.80562  -1.95289 
 1                    -1.98471   2.74371  -1.99725 
 1                    -3.51938   1.99284  -2.43611 
 6                    -2.81643   1.45124  -0.48874 
 1                    -3.30789   2.30447  -0.00382 
 6                    -1.52434   1.08682   0.27198 
 1                    -0.89797   1.98759   0.26923 
 6                    -0.75402  -0.04595  -0.47805 
 1                    -1.44473  -0.89719  -0.52297 
 6                    -0.47847   0.33791  -1.9588 
 1                     0.00828  -0.51417  -2.452 
 6                     0.5201   -0.51964   0.23263 
 6                     2.7838   -1.46344   1.68567 
 6                     1.56736   0.33759   0.60649 
 6                     0.66769  -1.87629   0.57344 
 6                     1.77732  -2.34662   1.28554 
 6                     2.67116  -0.11696   1.33203 
 1                     1.86471  -3.3999    1.5364 
 1                     3.44918   0.59176   1.60598 
 8                    -0.29929  -2.77064   0.19621 
 1                    -0.07824  -3.64371   0.55762 
 8                     1.59988   1.66342   0.27148 
 1                     1.10131   1.75585  -0.56928 
 8                     0.42655   1.45644  -2.02316 
 1                     0.85961   1.40667  -2.89694 
 6                    -1.53054   1.12527  -4.14579 
 1                    -2.47182   1.28108  -4.68567 
 1                    -0.98867   0.34284  -4.6891 
 1                    -0.95111   2.0521   -4.20065 
 8                    -2.62333  -0.47681  -2.75927 
 1                    -3.47992  -0.22493  -3.14594 
 1                    -3.52972   0.61775  -0.44488 
 6                    -1.87311   0.78487   1.73102 
 6                    -2.40879  -0.37637   2.14506 
 1                    -2.63466  -0.55651   3.19133 
 1                    -2.62966  -1.18352   1.45355 
 6                    -1.57142   1.88767   2.70964 
 1                    -0.49965   2.11104   2.71166 
 1                    -1.85763   1.622     3.73275 
 1                    -2.11741   2.79659   2.43702 
 6                     3.98577  -1.95658   2.44742 
 1                     4.34677  -1.16779   3.11867 
 1                     3.69477  -2.79392   3.09337 
 6                     5.10689  -2.39153   1.51605 
 1                     5.96536  -2.74433   2.09627 
 1                     5.4423   -1.56248   0.8837 
 1                     4.78394  -3.20587   0.8586 
 
                          Input orientation:                          
 ---------------------------------------------------------------------
 Center     Atomic      Atomic             Coordinates (Angstroms)
 Number     Number       Type             X           Y           Z
 ---------------------------------------------------------------------
      1          6           0       -1.797718    0.691995   -2.699478
      2          6           0       -2.552136    1.805623   -1.952885
      3          1           0       -1.984708    2.743713   -1.997254
      4          1           0       -3.519375    1.992844   -2.436107
      5          6           0       -2.816429    1.451245   -0.488739
      6          1           0       -3.307894    2.304468   -0.003816
      7          6           0       -1.524339    1.086822    0.271982
      8          1           0       -0.897974    1.987590    0.269231
      9          6           0       -0.754018   -0.045951   -0.478049
     10          1           0       -1.444728   -0.897193   -0.522968
     11          6           0       -0.478465    0.337906   -1.958804
     12          1           0        0.008278   -0.514169   -2.452004
     13          6           0        0.520099   -0.519637    0.232633
     14          6           0        2.783802   -1.463445    1.685669
     15          6           0        1.567356    0.337590    0.606492
     16          6           0        0.667690   -1.876286    0.573435
     17          6           0        1.777319   -2.346618    1.285545
     18          6           0        2.671155   -0.116959    1.332030
     19          1           0        1.864712   -3.399904    1.536401
     20          1           0        3.449182    0.591761    1.605977
     21          8           0       -0.299290   -2.770644    0.196207
     22          1           0       -0.078244   -3.643707    0.557619
     23          8           0        1.599878    1.663419    0.271476
     24          1           0        1.101313    1.755852   -0.569285
     25          8           0        0.426554    1.456436   -2.023160
     26          1           0        0.859609    1.406674   -2.896945
     27          6           0       -1.530544    1.125267   -4.145786
     28          1           0       -2.471818    1.281079   -4.685674
     29          1           0       -0.988669    0.342837   -4.689095
     30          1           0       -0.951108    2.052101   -4.200650
     31          8           0       -2.623326   -0.476806   -2.759265
     32          1           0       -3.479916   -0.224928   -3.145944
     33          1           0       -3.529715    0.617752   -0.444882
     34          6           0       -1.873108    0.784873    1.731020
     35          6           0       -2.408785   -0.376369    2.145055
     36          1           0       -2.634656   -0.556512    3.191326
     37          1           0       -2.629659   -1.183520    1.453549
     38          6           0       -1.571422    1.887671    2.709642
     39          1           0       -0.499652    2.111044    2.711659
     40          1           0       -1.857635    1.622000    3.732752
     41          1           0       -2.117412    2.796585    2.437020
     42          6           0        3.985765   -1.956580    2.447418
     43          1           0        4.346766   -1.167787    3.118674
     44          1           0        3.694774   -2.793921    3.093367
     45          6           0        5.106888   -2.391531    1.516046
     46          1           0        5.965363   -2.744329    2.096266
     47          1           0        5.442297   -1.562475    0.883703
     48          1           0        4.783941   -3.205872    0.858599
 ---------------------------------------------------------------------
                    Distance matrix (angstroms):
                    1          2          3          4          5
     1  C    0.000000
     2  C    1.538413   0.000000
     3  H    2.176610   1.097249   0.000000
     4  H    2.173862   1.097318   1.763972   0.000000
     5  C    2.549823   1.529431   2.153567   2.140025   0.000000
     6  H    3.485297   2.149159   2.432601   2.461274   1.097578
     7  C    3.010016   2.554030   2.847219   3.483502   1.543047
     8  H    3.361746   2.776178   2.624817   3.767045   2.131350
     9  C    2.562932   2.972658   3.406583   3.954476   2.548578
    10  H    2.717961   3.252111   3.965008   4.039378   2.719907
    11  C    1.553835   2.540539   2.838689   3.494821   2.977698
    12  H    2.185794   3.490884   3.846113   4.327783   3.961847
    13  C    3.929071   4.429667   4.679306   5.454547   3.941721
    14  C    6.698191   7.238654   7.348659   8.286436   6.677279
    15  C    4.730620   5.067124   5.018574   6.154032   4.653743
    16  C    4.835935   5.505091   5.915070   6.446629   4.933534
    17  C    6.155848   6.817090   7.130294   7.793369   6.218871
    18  C    6.072750   6.462953   6.398800   7.548032   5.990663
    19  H    6.935395   7.666888   8.065283   8.593658   7.039028
    20  H    6.788000   7.082004   6.865955   8.176935   6.662163
    21  O    4.756064   5.534992   6.169282   6.323674   4.962810
    22  H    5.688899   6.489835   7.138705   7.250826   5.878014
    23  O    4.616697   4.712454   4.377606   5.800542   4.486280
    24  H    3.751519   3.906983   3.540973   4.989183   3.930391
    25  O    2.447277   2.999910   2.733485   4.003576   3.587675
    26  H    2.758831   3.562360   3.269137   4.442012   4.394849
    27  C    1.533269   2.513036   2.727971   2.762453   3.890213
    28  H    2.178625   2.783834   3.099061   2.581577   4.214496
    29  H    2.176017   3.474337   3.741966   3.768681   4.712989
    30  H    2.195485   2.770647   2.530141   3.116588   4.197467
    31  O    1.432235   2.421734   3.370495   2.646981   2.984955
    32  H    1.967198   2.531265   3.516812   2.328936   3.210999
    33  H    2.844034   2.154245   3.052313   2.419909   1.097912
    34  C    4.432112   3.882546   4.213019   4.640510   2.502245
    35  C    4.998430   4.644863   5.203218   5.275758   3.231596
    36  H    6.079540   5.661219   6.183468   6.240989   4.196070
    37  H    4.632204   4.532635   5.267557   5.100030   3.278620
    38  C    5.544315   4.765258   4.801924   5.503118   3.459790
    39  H    5.742741   5.105286   4.977903   5.969271   4.005663
    40  H    6.499390   5.730839   5.840150   6.399509   4.332369
    41  H    5.560137   4.521312   4.436574   5.134089   3.295244
    42  C    8.182552   8.732754   8.803091   9.786414   8.155006
    43  H    8.663969   9.064035   9.031064  10.135155   8.437068
    44  H    8.710690   9.254423   9.425302  10.272884   8.558544
    45  C    8.657503   9.397352   9.434232  10.452496   9.031336
    46  H    9.750534  10.471173  10.491861  11.530112  10.070003
    47  H    8.386873   9.126953   9.055583  10.196716   8.897902
    48  H    8.436321   9.318666   9.453469  10.335705   9.014969
                    6          7          8          9         10
     6  H    0.000000
     7  C    2.177106   0.000000
     8  H    2.445952   1.097144   0.000000
     9  C    3.503091   1.561767   2.171276   0.000000
    10  H    3.740526   2.138831   3.041133   1.097137   0.000000
    11  C    3.961693   2.575099   2.803852   1.554320   2.126207
    12  H    4.993529   3.511721   3.805944   2.167215   2.445223
    13  C    4.762878   2.600382   2.880704   1.533891   2.138697
    14  C    7.359368   5.202159   5.241318   4.382595   4.804081
    15  C    5.292367   3.198723   2.985649   2.590774   3.445725
    16  C    5.798033   3.698091   4.180117   2.544995   2.573525
    17  C    7.011023   4.869987   5.193789   3.848506   3.969022
    18  C    6.587626   4.491655   4.277540   3.874692   4.581515
    19  H    7.852896   5.763258   6.185729   4.707946   4.632166
    20  H    7.154220   5.173059   4.757414   4.734631   5.540735
    21  O    5.903260   4.048029   4.796306   2.843475   2.310641
    22  H    6.791659   4.954864   5.697949   3.804356   3.252427
    23  O    4.957112   3.176980   2.518801   3.004091   4.056785
    24  H    4.479044   2.837143   2.180357   2.587870   3.677379
    25  O    4.329319   3.034844   2.700288   2.457292   3.360334
    26  H    5.152117   3.978393   3.667592   3.250380   4.031568
    27  C    4.658905   4.417939   4.542699   3.927727   4.150002
    28  H    4.864786   5.051119   5.246640   4.734549   4.809148
    29  H    5.583784   5.045071   5.224791   4.235461   4.370616
    30  H    4.819911   4.611376   4.470662   4.277665   4.739972
    31  O    3.974496   3.583456   4.268709   2.980586   2.562585
    32  H    4.037376   4.150565   4.819241   3.818405   3.387319
    33  H    1.757485   2.180700   3.051635   2.854137   2.578435
    34  C    2.716143   1.530230   2.129376   2.612014   2.844876
    35  C    3.551469   2.536055   3.374844   3.118992   2.884270
    36  H    4.341358   3.529295   4.245840   4.154730   3.915095
    37  H    3.840570   2.787882   3.802273   2.922869   2.322211
    38  C    3.248370   2.566274   2.533598   3.816860   4.268640
    39  H    3.911194   2.837436   2.477772   3.858960   4.517241
    40  H    4.065828   3.517731   3.612559   4.661639   4.962658
    41  H    2.759911   2.821776   2.615495   4.293773   4.781008
    42  C    8.795598   6.660036   6.644688   5.888497   6.279789
    43  H    8.966623   6.903391   6.751520   6.341367   6.846618
    44  H    9.199102   7.089395   7.206381   6.332306   6.564293
    45  C    9.755559   7.590771   7.535888   6.620300   7.022414
    46  H   10.765407   8.608216   8.534314   7.684948   8.073521
    47  H    9.607642   7.478436   7.292433   6.522924   7.060626
    48  H    9.827787   7.652826   7.720334   6.514654   6.784913
                   11         12         13         14         15
    11  C    0.000000
    12  H    1.098270   0.000000
    13  C    2.556346   2.732996   0.000000
    14  C    5.212431   5.071982   2.850691   0.000000
    15  C    3.281178   3.537035   1.404050   2.426539   0.000000
    16  C    3.553667   3.382820   1.406566   2.425992   2.389924
    17  C    4.777136   4.522903   2.455013   1.397535   2.776719
    18  C    4.577838   4.644093   2.449054   1.396701   1.396922
    19  H    5.628336   5.261292   3.435657   2.148694   3.862902
    20  H    5.310228   5.434161   3.420644   2.161701   2.145889
    21  O    3.786721   3.492750   2.395780   3.665068   3.648811
    22  H    4.727134   4.342732   3.197412   3.770590   4.308261
    23  O    3.324252   3.833070   2.435809   3.630275   1.367888
    24  H    2.537131   3.145211   2.481679   4.275449   1.900294
    25  O    1.440247   2.059647   3.000369   5.276148   3.077063
    26  H    1.952644   2.147644   3.690555   5.739377   3.730672
    27  C    2.551411   2.815070   5.106995   7.702005   5.727265
    28  H    3.506972   3.789865   6.031906   8.703331   6.723996
    29  H    2.777557   2.594791   5.219545   7.624422   5.880181
    30  H    2.861420   3.250219   5.332192   7.807520   5.691293
    31  O    2.430004   2.649745   4.339863   7.068800   5.436302
    32  H    3.276399   3.568292   5.244212   8.007033   6.314440
    33  H    3.417660   4.222225   4.260713   6.980769   5.211911
    34  C    3.969837   4.767055   3.110362   5.171442   3.647111
    35  C    4.591077   5.195589   3.500893   5.325010   4.322802
    36  H    5.654465   6.231699   4.325240   5.696422   5.013750
    37  H    4.311209   4.760262   3.442725   5.425662   4.543811
    38  C    5.038920   5.908204   4.037966   5.589855   4.083861
    39  H    4.995768   5.814908   3.755788   4.960917   3.442295
    40  H    5.995399   6.804120   4.742474   5.937462   4.811837
    41  H    5.296652   6.275525   4.776308   6.537147   4.793226
    42  C    6.678983   6.473429   4.356710   1.506040   3.808008
    43  H    7.164548   7.090990   4.836601   2.140974   4.037615
    44  H    7.262830   7.038370   4.840943   2.140478   4.529549
    45  C    7.121838   6.727981   5.117594   2.507357   4.561104
    46  H    8.213811   7.819670   6.170355   3.454212   5.573160
    47  H    6.837158   6.461768   5.073405   2.778588   4.324611
    48  H    6.941832   6.404085   5.078193   2.778606   4.792295
                   16         17         18         19         20
    16  C    0.000000
    17  C    1.399853   0.000000
    18  C    2.772106   2.402599   0.000000
    19  H    2.163695   1.086268   3.386716   0.000000
    20  H    3.859287   3.395861   1.087500   4.295204   0.000000
    21  O    1.370119   2.383015   4.141942   2.622020   5.229174
    22  H    1.918448   2.378115   4.538376   2.189186   5.610791
    23  O    3.672828   4.140075   2.332843   5.225650   2.519775
    24  H    3.832266   4.552762   3.096260   5.621256   3.405784
    25  O    4.231724   5.218747   4.332563   6.190543   4.801518
    26  H    4.781025   5.694086   4.846378   6.615737   5.257972
    27  C    6.009376   7.245364   7.014547   8.018241   7.626603
    28  H    6.890841   8.177457   8.038498   8.912425   8.667080
    29  H    5.946617   7.111975   7.061138   7.804275   7.706128
    30  H    6.390979   7.542637   6.959609   8.400414   7.430482
    31  O    4.888376   6.262776   6.700725   6.865839   7.554636
    32  H    5.810628   7.195706   7.609178   7.782665   8.441572
    33  H    4.987525   6.320323   6.492150   7.011910   7.274043
    34  C    3.857127   4.830146   4.650035   5.614405   5.327260
    35  C    3.766224   4.705753   5.151126   5.270200   5.961850
    36  H    4.415953   5.128548   5.639310   5.573864   6.391005
    37  H    3.482390   4.560973   5.408415   5.011845   6.334601
    38  C    4.872820   5.583129   4.890381   6.414200   5.301313
    39  H    4.672632   5.204724   4.113562   6.110810   4.373105
    40  H    5.347574   5.911991   5.412706   6.625658   5.809205
    41  H    5.750259   6.553424   5.713154   7.420573   6.044737
    42  C    3.811546   2.525730   2.521209   2.722499   2.736784
    43  H    4.529439   3.369283   2.665335   3.694121   2.487955
    44  H    4.044175   2.673001   3.363960   2.478001   3.706141
    45  C    4.567326   3.337840   3.337713   3.395429   3.414104
    46  H    5.580130   4.284292   4.282398   4.190295   4.207261
    47  H    4.794958   3.769407   3.157490   4.074467   3.022404
    48  H    4.335048   3.156006   3.772185   3.003159   4.094163
                   21         22         23         24         25
    21  O    0.000000
    22  H    0.970421   0.000000
    23  O    4.824253   5.573469   0.000000
    24  H    4.799670   5.640612   0.981830   0.000000
    25  O    4.829146   5.738179   2.585515   1.630553   0.000000
    26  H    5.325469   6.190309   3.263864   2.366082   0.976480
    27  C    5.962132   6.853780   5.440713   4.485049   2.906105
    28  H    6.705900   7.581215   6.426370   5.471502   3.939580
    29  H    5.833968   6.652023   5.749068   4.830887   3.217168
    30  H    6.558665   7.472966   5.163188   4.181747   2.644661
    31  O    4.404277   5.244847   5.621513   4.863508   3.685247
    32  H    5.269443   6.080772   6.406943   5.616967   4.398652
    33  H    4.725238   5.574737   5.283873   4.770447   4.341246
    34  C    4.180223   4.920440   3.868300   3.883475   4.453460
    35  C    3.739056   4.315886   4.872414   4.922885   5.363986
    36  H    4.396255   4.796084   5.602222   5.783311   6.372898
    37  H    3.087150   3.655807   5.233674   5.162549   5.328913
    38  C    5.443857   6.120206   4.006505   4.232286   5.155316
    39  H    5.495319   6.159109   3.250060   3.667948   4.868766
    40  H    5.850719   6.401200   4.892498   5.223103   6.194792
    41  H    6.270635   7.011970   4.448808   4.525614   5.306691
    42  C    4.908395   4.788936   4.850935   5.585939   6.656030
    43  H    5.718024   5.680660   4.864941   5.716789   6.978042
    44  H    4.934230   4.624697   5.676225   6.390735   7.411184
    45  C    5.577854   5.419605   5.503697   6.131396   7.017004
    46  H    6.546510   6.300913   6.466495   7.142533   8.080501
    47  H    5.907465   5.908827   5.054246   5.653903   6.536158
    48  H    5.144649   4.891128   5.847475   6.341869   7.002033
                   26         27         28         29         30
    26  H    0.000000
    27  C    2.711388   0.000000
    28  H    3.783350   1.096245   0.000000
    29  H    2.785621   1.095906   1.755005   0.000000
    30  H    2.322696   1.094429   1.772649   1.778081   0.000000
    31  O    3.961980   2.383957   2.612310   2.658602   3.356973
    32  H    4.642801   2.573473   2.378042   2.984960   3.562602
    33  H    5.089320   4.236856   4.420799   4.954376   4.776229
    34  C    5.410400   5.896615   6.463639   6.495807   6.135198
    35  C    6.267648   6.526937   7.029223   7.017094   6.949119
    36  H    7.289103   7.607934   8.090141   8.100564   8.017512
    37  H    6.149056   6.155575   6.617343   6.538708   6.727313
    38  C    6.129852   6.897812   7.474581   7.580727   6.940025
    39  H    5.813791   7.004216   7.700573   7.624753   6.927287
    40  H    7.168169   7.900955   8.447683   8.562644   7.996601
    41  H    6.264638   6.816968   7.290758   7.620792   6.780353
    42  C    7.046030   9.132238  10.152035   8.997896   9.199948
    43  H    7.414565   9.621499  10.648844   9.576539   9.592061
    44  H    7.846463   9.750349  10.730608   9.609402   9.913164
    45  C    7.206956   9.406365  10.458785   9.117914   9.440645
    46  H    8.260248  10.494075  11.549227  10.194620  10.511634
    47  H    6.641549   9.007787  10.086475   8.720299   8.932605
    48  H    7.126013   9.147423  10.174366   8.757469   9.280790
                   31         32         33         34         35
    31  O    0.000000
    32  H    0.972990   0.000000
    33  H    2.715873   2.829899   0.000000
    34  C    4.724121   5.233193   2.739859   0.000000
    35  C    4.910038   5.400457   2.992079   1.344195   0.000000
    36  H    5.951136   6.401985   3.924543   2.124092   1.085427
    37  H    4.271684   4.774639   2.767440   2.126954   1.085569
    38  C    6.050305   6.511015   3.924108   1.504951   2.479075
    39  H    6.413889   6.974974   4.623306   2.146337   3.186385
    40  H    6.865679   7.304752   4.610530   2.169781   2.611134
    41  H    6.162177   6.492724   3.879082   2.145951   3.199653
    42  C    8.542796   9.487924   8.454291   6.508087   6.593843
    43  H    9.143840  10.069328   8.827573   6.665231   6.871081
    44  H    8.918560   9.849107   8.737961   6.757594   6.633045
    45  C    9.038842  10.008072   9.353712   7.671773   7.806527
    46  H   10.123410  11.092404  10.388336   8.604087   8.702642
    47  H    8.916511   9.880940   9.328212   7.729369   8.039736
    48  H    8.683567   9.654725   9.243162   7.810472   7.835583
                   36         37         38         39         40
    36  H    0.000000
    37  H    1.847439   0.000000
    38  C    2.708601   3.482793   0.000000
    39  H    3.450243   4.119942   1.094802   0.000000
    40  H    2.375462   3.696177   1.095104   1.768025   0.000000
    41  H    3.475598   4.131689   1.094784   1.778353   1.768065
    42  C    6.807611   6.734184   6.762349   6.060888   6.971631
    43  H    7.008509   7.172406   6.672937   5.865507   6.830417
    44  H    6.713962   6.729105   7.056725   6.465106   7.123090
    45  C    8.130520   7.830540   8.020976   7.289441   8.338272
    46  H    8.941254   8.759202   8.867626   8.108624   9.107261
    47  H    8.460157   8.100915   8.026819   7.221006   8.458544
    48  H    8.215613   7.707486   8.352316   7.721385   8.699404
                   41         42         43         44         45
    41  H    0.000000
    42  C    7.735726   0.000000
    43  H    7.613574   1.096860   0.000000
    44  H    8.091110   1.096843   1.752154   0.000000
    45  C    8.941770   1.521036   2.154935   2.154976   0.000000
    46  H    9.805565   2.159320   2.480052   2.480371   1.094578
    47  H    8.863600   2.173018   2.520131   3.074558   1.095304
    48  H    9.281680   2.173053   3.074549   2.519955   1.095301
                   46         47         48
    46  H    0.000000
    47  H    1.772198   0.000000
    48  H    1.772174   1.770542   0.000000
 Stoichiometry    C18H26O4
 Framework group  C1[X(C18H26O4)]
 Deg. of freedom   138
 Full point group                 C1      NOp   1
 Largest Abelian subgroup         C1      NOp   1
 Largest concise Abelian subgroup C1      NOp   1
                         Standard orientation:                         
 ---------------------------------------------------------------------
 Center     Atomic      Atomic             Coordinates (Angstroms)
 Number     Number       Type             X           Y           Z
 ---------------------------------------------------------------------
      1          6           0       -3.040315   -1.281247    0.217233
      2          6           0       -3.671545   -0.066159   -0.484068
      3          1           0       -3.626912   -0.191399   -1.573233
      4          1           0       -4.732020    0.014142   -0.213788
      5          6           0       -2.986660    1.247626   -0.104514
      6          1           0       -3.448582    2.062747   -0.676253
      7          6           0       -1.466407    1.217092   -0.366988
      8          1           0       -1.340796    1.092382   -1.449759
      9          6           0       -0.817276   -0.012209    0.344746
     10          1           0       -1.035870    0.111708    1.412721
     11          6           0       -1.513565   -1.339875   -0.065612
     12          1           0       -1.059938   -2.159641    0.507453
     13          6           0        0.706379   -0.098386    0.190242
     14          6           0        3.550742   -0.107867    0.000644
     15          6           0        1.363656   -0.107855   -1.050424
     16          6           0        1.524195   -0.139066    1.333898
     17          6           0        2.921389   -0.145330    1.247887
     18          6           0        2.757081   -0.096760   -1.148595
     19          1           0        3.528496   -0.175809    2.148148
     20          1           0        3.215330   -0.093109   -2.134826
     21          8           0        0.941153   -0.177783    2.573168
     22          1           0        1.636569   -0.141765    3.249050
     23          8           0        0.698689   -0.153637   -2.244928
     24          1           0       -0.148835   -0.621078   -2.080030
     25          8           0       -1.291377   -1.607420   -1.463241
     26          1           0       -1.387221   -2.572794   -1.574508
     27          6           0       -3.744733   -2.565771   -0.235212
     28          1           0       -4.802022   -2.552541    0.054128
     29          1           0       -3.301774   -3.441202    0.253069
     30          1           0       -3.691874   -2.707905   -1.319085
     31          8           0       -3.245535   -1.167727    1.630136
     32          1           0       -4.197266   -1.044478    1.790533
     33          1           0       -3.184089    1.461925    0.954027
     34          6           0       -0.869289    2.576743    0.002341
     35          6           0       -0.613351    2.961024    1.264752
     36          1           0       -0.180848    3.931589    1.486324
     37          1           0       -0.820199    2.315412    2.112608
     38          6           0       -0.569451    3.487921   -1.157285
     39          1           0        0.164409    3.024532   -1.824601
     40          1           0       -0.161513    4.450629   -0.831659
     41          1           0       -1.482168    3.689260   -1.727339
     42          6           0        5.052894   -0.119740   -0.106862
     43          1           0        5.363805    0.438442   -0.998416
     44          1           0        5.487956    0.410446    0.749110
     45          6           0        5.604831   -1.535747   -0.168819
     46          1           0        6.696425   -1.513295   -0.246414
     47          1           0        5.213957   -2.076932   -1.037167
     48          1           0        5.340094   -2.105085    0.728652
 ---------------------------------------------------------------------
 Rotational constants (GHZ):      0.4449258      0.1885473      0.1712903
 Standard basis: 6-31+G(d,p) (6D, 7F)
 There are   548 symmetry adapted basis functions of A   symmetry.
 Integral buffers will be    131072 words long.
 Raffenetti 2 integral format.
 Two-electron integral symmetry is turned on.
   548 basis functions,   886 primitive gaussians,   548 cartesian basis functions
    83 alpha electrons       83 beta electrons
       nuclear repulsion energy      1979.0509877363 Hartrees.
 NAtoms=   48 NActive=   48 NUniq=   48 SFac= 1.00D+00 NAtFMM=   60 NAOKFM=F Big=F
 ------------------------------------------------------------------------------
 Polarizable Continuum Model (PCM)
 =================================
 Model                : PCM.
 Atomic radii         : UFF (Universal Force Field).
 Polarization charges : Total charges.
 Charge compensation  : None.
 Solution method      : Matrix inversion.
 Cavity type          : Scaled VdW (van der Waals Surface) (Alpha=1.100).
 Cavity algorithm     : GePol (No added spheres)
                        Default sphere list used, NSphG=   48.
                        Lebedev-Laikov grids with approx.  5.0 points / Ang**2.
                        Smoothing algorithm: Karplus/York (Gamma=1.0000).
                        Polarization charges: spherical gaussians, with
                                              point-specific exponents (IZeta= 3).
                        Self-potential: point-specific (ISelfS= 7).
                        Self-field    : sphere-specific E.n sum rule (ISelfD= 2).
 Solvent              : Water, Eps=  78.355300 Eps(inf)=   1.777849
 ------------------------------------------------------------------------------
 One-electron integrals computed using PRISM.
 NBasis=   548 RedAO= T  NBF=   548
 NBsUse=   546 1.00D-06 NBFU=   546
 Harris functional with IExCor=  908 diagonalized for initial guess.
 ExpMin= 4.38D-02 ExpMax= 5.48D+03 ExpMxC= 8.25D+02 IAcc=2 IRadAn=         4 AccDes= 0.00D+00
 HarFok:  IExCor=  908 AccDes= 0.00D+00 IRadAn=         4 IDoV= 1
 ScaDFX=  1.000000  1.000000  1.000000  1.000000
 FoFCou: FMM=F IPFlag=           0 FMFlag=      100000 FMFlg1=           0
         NFxFlg=           0 DoJE=T BraDBF=F KetDBF=T FulRan=T
         Omega=  0.000000  0.000000  1.000000  0.000000  0.000000 ICntrl=     500 IOpCl=  0
         NMat0=    1 NMatS0=    1 NMatT0=    0 NMatD0=    1 NMtDS0=    0 NMtDT0=    0
         I1Cent=           4 NGrid=           0.
 Petite list used in FoFCou.
 Initial guess orbital symmetries:
       Occupied  (A) (A) (A) (A) (A) (A) (A) (A) (A) (A) (A) (A)
                 (A) (A) (A) (A) (A) (A) (A) (A) (A) (A) (A) (A)
                 (A) (A) (A) (A) (A) (A) (A) (A) (A) (A) (A) (A)
                 (A) (A) (A) (A) (A) (A) (A) (A) (A) (A) (A) (A)
                 (A) (A) (A) (A) (A) (A) (A) (A) (A) (A) (A) (A)
                 (A) (A) (A) (A) (A) (A) (A) (A) (A) (A) (A) (A)
                 (A) (A) (A) (A) (A) (A) (A) (A) (A) (A) (A)
       Virtual   (A) (A) (A) (A) (A) (A) (A) (A) (A) (A) (A) (A)
                 (A) (A) (A) (A) (A) (A) (A) (A) (A) (A) (A) (A)
                 (A) (A) (A) (A) (A) (A) (A) (A) (A) (A) (A) (A)
                 (A) (A) (A) (A) (A) (A) (A) (A) (A) (A) (A) (A)
                 (A) (A) (A) (A) (A) (A) (A) (A) (A) (A) (A) (A)
                 (A) (A) (A) (A) (A) (A) (A) (A) (A) (A) (A) (A)
                 (A) (A) (A) (A) (A) (A) (A) (A) (A) (A) (A) (A)
                 (A) (A) (A) (A) (A) (A) (A) (A) (A) (A) (A) (A)
                 (A) (A) (A) (A) (A) (A) (A) (A) (A) (A) (A) (A)
                 (A) (A) (A) (A) (A) (A) (A) (A) (A) (A) (A) (A)
                 (A) (A) (A) (A) (A) (A) (A) (A) (A) (A) (A) (A)
                 (A) (A) (A) (A) (A) (A) (A) (A) (A) (A) (A) (A)
                 (A) (A) (A) (A) (A) (A) (A) (A) (A) (A) (A) (A)
                 (A) (A) (A) (A) (A) (A) (A) (A) (A) (A) (A) (A)
                 (A) (A) (A) (A) (A) (A) (A) (A) (A) (A) (A) (A)
                 (A) (A) (A) (A) (A) (A) (A) (A) (A) (A) (A) (A)
                 (A) (A) (A) (A) (A) (A) (A) (A) (A) (A) (A) (A)
                 (A) (A) (A) (A) (A) (A) (A) (A) (A) (A) (A) (A)
                 (A) (A) (A) (A) (A) (A) (A) (A) (A) (A) (A) (A)
                 (A) (A) (A) (A) (A) (A) (A) (A) (A) (A) (A) (A)
                 (A) (A) (A) (A) (A) (A) (A) (A) (A) (A) (A) (A)
                 (A) (A) (A) (A) (A) (A) (A) (A) (A) (A) (A) (A)
                 (A) (A) (A) (A) (A) (A) (A) (A) (A) (A) (A) (A)
                 (A) (A) (A) (A) (A) (A) (A) (A) (A) (A) (A) (A)
                 (A) (A) (A) (A) (A) (A) (A) (A) (A) (A) (A) (A)
                 (A) (A) (A) (A) (A) (A) (A) (A) (A) (A) (A) (A)
                 (A) (A) (A) (A) (A) (A) (A) (A) (A) (A) (A) (A)
                 (A) (A) (A) (A) (A) (A) (A) (A) (A) (A) (A) (A)
                 (A) (A) (A) (A) (A) (A) (A) (A) (A) (A) (A) (A)
                 (A) (A) (A) (A) (A) (A) (A) (A) (A) (A) (A) (A)
                 (A) (A) (A) (A) (A) (A) (A) (A) (A) (A) (A) (A)
                 (A) (A) (A) (A) (A) (A) (A) (A) (A) (A) (A) (A)
                 (A) (A) (A) (A) (A) (A) (A) (A) (A) (A) (A) (A)
                 (A) (A) (A) (A) (A) (A) (A) (A) (A) (A) (A) (A)
                 (A) (A) (A) (A) (A) (A) (A) (A) (A) (A) (A) (A)
                 (A) (A) (A) (A) (A) (A) (A) (A) (A) (A) (A) (A)
                 (A) (A) (A) (A) (A) (A) (A) (A) (A) (A) (A) (A)
                 (A) (A) (A) (A) (A) (A) (A) (A) (A) (A) (A) (A)
                 (A) (A) (A) (A) (A) (A) (A)
 The electronic state of the initial guess is 1-A.
 Requested convergence on RMS density matrix=1.00D-08 within 128 cycles.
 Requested convergence on MAX density matrix=1.00D-06.
 Requested convergence on             energy=1.00D-06.
 No special actions if energy rises.
 CoulSu:  requested number of processors reduced to:   2 ShMem   1 Linda.
 CoulSu:  requested number of processors reduced to:   2 ShMem   1 Linda.
 Error on total polarization charges =  0.01930
 SCF Done:  E(RmPW1PW91) =  -1002.31452115     A.U. after   14 cycles
             Convg  =    0.4940D-08             -V/T =  2.0094
 Range of M.O.s used for correlation:     1   546
 NBasis=   548 NAE=    83 NBE=    83 NFC=     0 NFV=     0
 NROrb=    546 NOA=    83 NOB=    83 NVA=   463 NVB=   463

 **** Warning!!: The largest alpha MO coefficient is  0.13669515D+03

 NEqPCM:  Using equilibrium solvation (IEInf=0, Eps=  78.3553, EpsInf=   1.7778)
          Differentiating once with respect to magnetic field using GIAOs.
          Electric field/nuclear overlap derivatives assumed to be zero.
 FoFCou: FMM=F IPFlag=           0 FMFlag=    10101102 FMFlg1=           0
         NFxFlg=    40000000 DoJE=F BraDBF=F KetDBF=T FulRan=T
         Omega=  0.000000  0.000000  1.000000  0.000000  0.000000 ICntrl=    6100 IOpCl=  0
         NMat0=    1 NMatS0=    1 NMatT0=    0 NMatD0=    1 NMtDS0=    0 NMtDT0=    0
         I1Cent=           7 NGrid=        3087.
 Symmetry not used in FoFCou.
          There are     3 degrees of freedom in the 1st order CPHF.  IDoFFX=0.
      3 vectors produced by pass  0 Test12= 1.28D-12 3.33D-08 XBig12= 7.74D+02 3.61D+00.
 AX will form     3 AO Fock derivatives at one time.
      3 vectors produced by pass  1 Test12= 1.28D-12 3.33D-08 XBig12= 1.87D+00 4.51D-01.
      3 vectors produced by pass  2 Test12= 1.28D-12 3.33D-08 XBig12= 8.14D-03 3.97D-02.
      3 vectors produced by pass  3 Test12= 1.28D-12 3.33D-08 XBig12= 4.04D-05 1.86D-03.
      3 vectors produced by pass  4 Test12= 1.28D-12 3.33D-08 XBig12= 1.30D-07 1.22D-04.
      3 vectors produced by pass  5 Test12= 1.28D-12 3.33D-08 XBig12= 4.16D-10 5.80D-06.
      3 vectors produced by pass  6 Test12= 1.28D-12 3.33D-08 XBig12= 2.06D-12 2.03D-07.
 Inverted reduced A of dimension    21 with in-core refinement.
 Calculating GIAO nuclear magnetic shielding tensors.
 SCF GIAO Magnetic shielding tensor (ppm):
      1  C    Isotropic =   122.2512   Anisotropy =    49.4490
   XX=   106.0360   YX=     0.6069   ZX=   -15.8183
   XY=     3.5180   YY=   108.7349   ZY=     4.8154
   XZ=    -6.9970   YZ=     6.5926   ZZ=   151.9826
   Eigenvalues:   101.6884   109.8479   155.2172
      2  C    Isotropic =   158.1419   Anisotropy =    23.1672
   XX=   154.3862   YX=    -4.4516   ZX=     3.4269
   XY=     3.9529   YY=   169.7584   ZY=   -11.6208
   XZ=    -1.7032   YZ=    -7.2244   ZZ=   150.2810
   Eigenvalues:   146.4063   154.4326   173.5867
      3  H    Isotropic =    29.3795   Anisotropy =     6.2627
   XX=    27.7840   YX=     0.7250   ZX=     2.9685
   XY=     0.0366   YY=    28.1310   ZY=    -0.3536
   XZ=     2.5565   YZ=    -0.4440   ZZ=    32.2235
   Eigenvalues:    26.3131    28.2707    33.5546
      4  H    Isotropic =    30.2631   Anisotropy =     8.8500
   XX=    36.1038   YX=     0.6209   ZX=     0.2154
   XY=     0.5787   YY=    29.4446   ZY=    -0.1128
   XZ=     0.3288   YZ=    -0.3670   ZZ=    25.2410
   Eigenvalues:    25.2187    29.4076    36.1631
      5  C    Isotropic =   162.7485   Anisotropy =    28.7041
   XX=   180.1853   YX=    10.2033   ZX=    -0.1579
   XY=     3.2253   YY=   155.3098   ZY=     8.6994
   XZ=    -2.6830   YZ=     4.7691   ZZ=   152.7504
   Eigenvalues:   146.2902   160.0707   181.8846
      6  H    Isotropic =    29.8352   Anisotropy =     8.7289
   XX=    31.5561   YX=    -2.0321   ZX=     2.3845
   XY=    -2.7783   YY=    32.5646   ZY=    -2.7913
   XZ=     1.6898   YZ=    -2.7007   ZZ=    25.3848
   Eigenvalues:    24.2449    29.6062    35.6544
      7  C    Isotropic =   155.8250   Anisotropy =    28.9838
   XX=   160.4254   YX=    16.8309   ZX=     2.8738
   XY=     7.7830   YY=   164.1238   ZY=     3.0848
   XZ=     0.2493   YZ=     4.0180   ZZ=   142.9259
   Eigenvalues:   142.3295   149.9980   175.1476
      8  H    Isotropic =    28.4560   Anisotropy =     4.5113
   XX=    27.0067   YX=    -0.5396   ZX=    -2.5437
   XY=    -1.7638   YY=    28.9220   ZY=    -1.6411
   XZ=    -2.7901   YZ=    -1.6982   ZZ=    29.4392
   Eigenvalues:    24.4855    29.4189    31.4635
      9  C    Isotropic =   154.1920   Anisotropy =    19.7351
   XX=   155.0044   YX=     1.4179   ZX=     3.5902
   XY=    -4.7265   YY=   167.1160   ZY=     4.9337
   XZ=     0.1248   YZ=    -3.3532   ZZ=   140.4556
   Eigenvalues:   140.1856   155.0418   167.3488
     10  H    Isotropic =    27.2716   Anisotropy =     6.9712
   XX=    29.2848   YX=     1.0275   ZX=     1.9107
   XY=     1.0526   YY=    22.5479   ZY=     0.5619
   XZ=     2.3363   YZ=     0.6018   ZZ=    29.9822
   Eigenvalues:    22.3813    27.5145    31.9191
     11  C    Isotropic =   114.9383   Anisotropy =    35.1173
   XX=   114.8689   YX=    10.5030   ZX=   -11.4524
   XY=    13.1981   YY=    94.6431   ZY=     5.6624
   XZ=    -5.4481   YZ=     3.8143   ZZ=   135.3028
   Eigenvalues:    87.8531   118.6119   138.3498
     12  H    Isotropic =    27.4030   Anisotropy =     3.6083
   XX=    26.2733   YX=    -0.2738   ZX=     0.2938
   XY=     2.0076   YY=    28.0307   ZY=    -0.9817
   XZ=     1.5180   YZ=    -2.6976   ZZ=    27.9050
   Eigenvalues:    24.9442    27.4562    29.8086
     13  C    Isotropic =    86.0535   Anisotropy =   121.4124
   XX=    43.5363   YX=     4.6215   ZX=     1.2742
   XY=    -0.4656   YY=   166.9468   ZY=     2.8177
   XZ=    -0.3675   YZ=    -0.3134   ZZ=    47.6773
   Eigenvalues:    43.4570    47.7084   166.9951
     14  C    Isotropic =    49.8135   Anisotropy =   189.8574
   XX=   -32.2747   YX=    -3.7200   ZX=     4.5365
   XY=    -3.2813   YY=   176.2552   ZY=     2.2074
   XZ=     4.7304   YZ=     4.9183   ZZ=     5.4598
   Eigenvalues:   -32.9082     5.9635   176.3851
     15  C    Isotropic =    41.9272   Anisotropy =   130.9990
   XX=    15.3905   YX=    -7.2379   ZX=   -31.4252
   XY=    -3.4555   YY=   128.9980   ZY=     0.2898
   XZ=   -30.4459   YZ=    -5.6545   ZZ=   -18.6068
   Eigenvalues:   -37.0589    33.5807   129.2599
     16  C    Isotropic =    44.7958   Anisotropy =   125.5621
   XX=    31.8502   YX=    -0.4840   ZX=    29.1819
   XY=     1.6478   YY=   128.3832   ZY=     3.3709
   XZ=    21.5888   YZ=     4.6443   ZZ=   -25.8460
   Eigenvalues:   -35.5015    41.3850   128.5039
     17  C    Isotropic =    92.0506   Anisotropy =    95.5888
   XX=    75.3977   YX=     2.7862   ZX=   -32.7864
   XY=     7.0720   YY=   155.4609   ZY=     1.6204
   XZ=   -34.9343   YZ=     4.8006   ZZ=    45.2933
   Eigenvalues:    23.0717    97.3037   155.7765
     18  C    Isotropic =    87.4251   Anisotropy =   108.5678
   XX=    76.3838   YX=    -0.3947   ZX=    28.2273
   XY=    11.5428   YY=   159.4266   ZY=    -2.6601
   XZ=    30.1313   YZ=     0.2676   ZZ=    26.4651
   Eigenvalues:    12.9466    89.5252   159.8036
     19  H    Isotropic =    25.3561   Anisotropy =     7.1115
   XX=    28.7320   YX=    -0.6864   ZX=    -2.3138
   XY=    -0.9357   YY=    21.3729   ZY=     0.4316
   XZ=    -2.2223   YZ=     0.3431   ZZ=    25.9633
   Eigenvalues:    21.2796    24.6915    30.0970
     20  H    Isotropic =    24.9830   Anisotropy =     7.6943
   XX=    29.3416   YX=    -0.7530   ZX=     1.8459
   XY=    -1.1832   YY=    21.1744   ZY=    -1.2529
   XZ=     1.8611   YZ=    -0.2388   ZZ=    24.4330
   Eigenvalues:    20.9699    23.8666    30.1125
     21  O    Isotropic =   227.8217   Anisotropy =    49.7393
   XX=   196.5436   YX=    -3.0634   ZX=   -19.2670
   XY=     3.3137   YY=   238.8803   ZY=    -5.3309
   XZ=   -36.6341   YZ=    -3.0547   ZZ=   248.0412
   Eigenvalues:   184.2441   238.2398   260.9812
     22  H    Isotropic =    26.6899   Anisotropy =    15.4447
   XX=    29.4637   YX=    -0.1765   ZX=     4.8937
   XY=     0.0206   YY=    17.9946   ZY=     0.4757
   XZ=     6.5760   YZ=     0.1218   ZZ=    32.6114
   Eigenvalues:    17.9843    25.0990    36.9864
     23  O    Isotropic =   219.3569   Anisotropy =    74.2204
   XX=   182.1267   YX=    -7.0242   ZX=    17.7243
   XY=    -8.5013   YY=   263.0387   ZY=   -42.6867
   XZ=    26.7028   YZ=    14.6388   ZZ=   212.9053
   Eigenvalues:   170.4909   218.7427   268.8372
     24  H    Isotropic =    21.5679   Anisotropy =    28.3910
   XX=    31.1079   YX=    11.7465   ZX=    -6.7119
   XY=    15.2004   YY=    16.7184   ZY=    -0.4902
   XZ=    -4.7200   YZ=    -2.0098   ZZ=    16.8772
   Eigenvalues:     8.1861    16.0223    40.4952
     25  O    Isotropic =   288.7072   Anisotropy =    47.6113
   XX=   280.5051   YX=    16.8569   ZX=     6.3799
   XY=    22.2836   YY=   302.3084   ZY=    17.9461
   XZ=    -7.2567   YZ=    18.1233   ZZ=   283.3080
   Eigenvalues:   263.1656   282.5079   320.4480
     26  H    Isotropic =    28.5811   Anisotropy =    19.1901
   XX=    22.0109   YX=     2.3684   ZX=    -2.8966
   XY=     2.7455   YY=    39.2334   ZY=     5.5478
   XZ=    -2.0815   YZ=     6.0378   ZZ=    24.4990
   Eigenvalues:    18.9925    25.3763    41.3745
     27  C    Isotropic =   166.8801   Anisotropy =    46.2190
   XX=   158.2514   YX=    18.5544   ZX=     6.5618
   XY=    14.9744   YY=   186.6512   ZY=    10.7539
   XZ=     5.0662   YZ=     9.6756   ZZ=   155.7378
   Eigenvalues:   150.1034   152.8443   197.6928
     28  H    Isotropic =    30.5103   Anisotropy =     9.3889
   XX=    35.0416   YX=     2.7956   ZX=    -0.9253
   XY=     4.0376   YY=    29.8390   ZY=    -0.3437
   XZ=    -0.4112   YZ=     0.3562   ZZ=    26.6504
   Eigenvalues:    26.5579    28.2034    36.7696
     29  H    Isotropic =    30.4285   Anisotropy =     9.3294
   XX=    28.2423   YX=     0.9034   ZX=     0.0597
   XY=     0.0958   YY=    36.1826   ZY=    -2.7185
   XZ=     0.0481   YZ=    -1.4182   ZZ=    26.8605
   Eigenvalues:    26.4087    28.2286    36.6480
     30  H    Isotropic =    30.1382   Anisotropy =     8.8397
   XX=    28.3281   YX=     2.8630   ZX=     1.2694
   XY=     3.1351   YY=    29.4701   ZY=     4.4007
   XZ=     0.7504   YZ=     3.2283   ZZ=    32.6163
   Eigenvalues:    25.3341    29.0491    36.0313
     31  O    Isotropic =   261.9584   Anisotropy =    97.6125
   XX=   305.9912   YX=    -8.7938   ZX=   -41.3052
   XY=    -4.2095   YY=   210.3708   ZY=    -4.1929
   XZ=   -27.7366   YZ=     3.0294   ZZ=   269.5133
   Eigenvalues:   209.7524   249.0894   327.0335
     32  H    Isotropic =    30.6891   Anisotropy =    17.6569
   XX=    38.9788   YX=    -0.9906   ZX=    -5.6297
   XY=    -1.0127   YY=    22.8626   ZY=     0.0734
   XZ=    -7.2865   YZ=     0.6485   ZZ=    30.2259
   Eigenvalues:    22.8002    26.8067    42.4604
     33  H    Isotropic =    29.7490   Anisotropy =     6.0477
   XX=    29.1938   YX=     0.4259   ZX=    -2.9681
   XY=    -0.0531   YY=    30.0221   ZY=     3.7484
   XZ=    -2.2987   YZ=     2.2603   ZZ=    30.0310
   Eigenvalues:    25.7242    29.7419    33.7808
     34  C    Isotropic =    42.4878   Anisotropy =   185.6905
   XX=   135.2644   YX=   -78.5420   ZX=     4.5518
   XY=   -73.4567   YY=   -25.7890   ZY=    45.7965
   XZ=     7.4201   YZ=    42.2305   ZZ=    17.9878
   Eigenvalues:   -75.8892    37.0710   166.2814
     35  C    Isotropic =    91.5085   Anisotropy =   114.6302
   XX=   141.9999   YX=   -57.8002   ZX=    -0.2094
   XY=   -60.5450   YY=    26.1597   ZY=    32.0611
   XZ=     8.7487   YZ=    27.9034   ZZ=   106.3660
   Eigenvalues:    -6.3575   112.9544   167.9287
     36  H    Isotropic =    26.4798   Anisotropy =     5.1813
   XX=    25.0906   YX=    -0.6438   ZX=     0.7792
   XY=    -1.1668   YY=    26.4380   ZY=     1.5199
   XZ=     1.5021   YZ=     3.7385   ZZ=    27.9107
   Eigenvalues:    23.3123    26.1930    29.9339
     37  H    Isotropic =    26.4266   Anisotropy =     7.3407
   XX=    25.0762   YX=    -0.8234   ZX=     2.4705
   XY=    -1.7534   YY=    25.3993   ZY=     6.0336
   XZ=     0.6755   YZ=     1.5403   ZZ=    28.8044
   Eigenvalues:    21.7934    26.1659    31.3204
     38  C    Isotropic =   169.8878   Anisotropy =    40.3566
   XX=   150.2034   YX=     9.3593   ZX=    -5.5123
   XY=     9.6816   YY=   180.5697   ZY=   -13.2268
   XZ=    -7.9980   YZ=   -15.0995   ZZ=   178.8902
   Eigenvalues:   147.2003   165.6709   196.7922
     39  H    Isotropic =    29.9847   Anisotropy =     5.9859
   XX=    29.1312   YX=    -0.4657   ZX=    -4.7202
   XY=    -1.6739   YY=    30.8009   ZY=    -2.0369
   XZ=    -4.0295   YZ=    -0.0545   ZZ=    30.0220
   Eigenvalues:    24.8064    31.1725    33.9753
     40  H    Isotropic =    30.0603   Anisotropy =     9.0708
   XX=    26.9228   YX=     2.7935   ZX=     0.6129
   XY=     2.3931   YY=    35.3716   ZY=     0.7672
   XZ=    -0.0952   YZ=    -1.2632   ZZ=    27.8865
   Eigenvalues:    26.1331    27.9403    36.1076
     41  H    Isotropic =    29.6710   Anisotropy =     8.2196
   XX=    29.5637   YX=    -0.8729   ZX=     2.6366
   XY=    -1.8583   YY=    30.2589   ZY=    -4.3354
   XZ=     3.4475   YZ=    -3.0358   ZZ=    29.1904
   Eigenvalues:    25.3575    28.5049    35.1507
     42  C    Isotropic =   164.5336   Anisotropy =    27.2054
   XX=   182.5000   YX=     5.7396   ZX=    -1.3550
   XY=    -8.5151   YY=   152.5902   ZY=     0.0131
   XZ=    -1.8756   YZ=    -0.5099   ZZ=   158.5106
   Eigenvalues:   152.5083   158.4220   182.6705
     43  H    Isotropic =    29.1024   Anisotropy =     7.2745
   XX=    30.1842   YX=     0.7926   ZX=    -2.5088
   XY=     1.9737   YY=    28.0512   ZY=    -4.3338
   XZ=    -0.9611   YZ=    -3.7758   ZZ=    29.0718
   Eigenvalues:    24.4724    28.8828    33.9521
     44  H    Isotropic =    29.2331   Anisotropy =     7.1601
   XX=    30.7005   YX=     1.3123   ZX=     2.3160
   XY=     2.0482   YY=    28.0703   ZY=     3.9958
   XZ=     0.9420   YZ=     3.6712   ZZ=    28.9285
   Eigenvalues:    24.6368    29.0560    34.0065
     45  C    Isotropic =   178.5684   Anisotropy =    31.4920
   XX=   180.4591   YX=    -6.8731   ZX=    -1.1507
   XY=   -20.1867   YY=   189.7950   ZY=     1.7515
   XZ=    -1.2359   YZ=     1.5889   ZZ=   165.4511
   Eigenvalues:   165.3276   170.8145   199.5631
     46  H    Isotropic =    30.2466   Anisotropy =    12.0416
   XX=    37.1720   YX=    -2.1460   ZX=    -0.8574
   XY=    -4.5208   YY=    27.5075   ZY=     0.4089
   XZ=    -0.7975   YZ=     0.2335   ZZ=    26.0604
   Eigenvalues:    25.9886    26.4769    38.2744
     47  H    Isotropic =    30.5502   Anisotropy =     7.4389
   XX=    29.0456   YX=    -1.2464   ZX=     1.1555
   XY=    -2.1611   YY=    31.1472   ZY=     5.0144
   XZ=     1.1259   YZ=     3.3501   ZZ=    31.4580
   Eigenvalues:    25.8409    30.3004    35.5095
     48  H    Isotropic =    30.6505   Anisotropy =     7.3319
   XX=    28.8169   YX=    -1.6559   ZX=    -0.7164
   XY=    -2.5093   YY=    31.6596   ZY=    -4.4699
   XZ=    -0.6175   YZ=    -3.1338   ZZ=    31.4750
   Eigenvalues:    26.2451    30.1679    35.5385
 End of Minotr Frequency-dependent properties file   721 does not exist.
 End of Minotr Frequency-dependent properties file   722 does not exist.

 **********************************************************************

            Population analysis using the SCF density.

 **********************************************************************

 Orbital symmetries:
       Occupied  (A) (A) (A) (A) (A) (A) (A) (A) (A) (A) (A) (A)
                 (A) (A) (A) (A) (A) (A) (A) (A) (A) (A) (A) (A)
                 (A) (A) (A) (A) (A) (A) (A) (A) (A) (A) (A) (A)
                 (A) (A) (A) (A) (A) (A) (A) (A) (A) (A) (A) (A)
                 (A) (A) (A) (A) (A) (A) (A) (A) (A) (A) (A) (A)
                 (A) (A) (A) (A) (A) (A) (A) (A) (A) (A) (A) (A)
                 (A) (A) (A) (A) (A) (A) (A) (A) (A) (A) (A)
       Virtual   (A) (A) (A) (A) (A) (A) (A) (A) (A) (A) (A) (A)
                 (A) (A) (A) (A) (A) (A) (A) (A) (A) (A) (A) (A)
                 (A) (A) (A) (A) (A) (A) (A) (A) (A) (A) (A) (A)
                 (A) (A) (A) (A) (A) (A) (A) (A) (A) (A) (A) (A)
                 (A) (A) (A) (A) (A) (A) (A) (A) (A) (A) (A) (A)
                 (A) (A) (A) (A) (A) (A) (A) (A) (A) (A) (A) (A)
                 (A) (A) (A) (A) (A) (A) (A) (A) (A) (A) (A) (A)
                 (A) (A) (A) (A) (A) (A) (A) (A) (A) (A) (A) (A)
                 (A) (A) (A) (A) (A) (A) (A) (A) (A) (A) (A) (A)
                 (A) (A) (A) (A) (A) (A) (A) (A) (A) (A) (A) (A)
                 (A) (A) (A) (A) (A) (A) (A) (A) (A) (A) (A) (A)
                 (A) (A) (A) (A) (A) (A) (A) (A) (A) (A) (A) (A)
                 (A) (A) (A) (A) (A) (A) (A) (A) (A) (A) (A) (A)
                 (A) (A) (A) (A) (A) (A) (A) (A) (A) (A) (A) (A)
                 (A) (A) (A) (A) (A) (A) (A) (A) (A) (A) (A) (A)
                 (A) (A) (A) (A) (A) (A) (A) (A) (A) (A) (A) (A)
                 (A) (A) (A) (A) (A) (A) (A) (A) (A) (A) (A) (A)
                 (A) (A) (A) (A) (A) (A) (A) (A) (A) (A) (A) (A)
                 (A) (A) (A) (A) (A) (A) (A) (A) (A) (A) (A) (A)
                 (A) (A) (A) (A) (A) (A) (A) (A) (A) (A) (A) (A)
                 (A) (A) (A) (A) (A) (A) (A) (A) (A) (A) (A) (A)
                 (A) (A) (A) (A) (A) (A) (A) (A) (A) (A) (A) (A)
                 (A) (A) (A) (A) (A) (A) (A) (A) (A) (A) (A) (A)
                 (A) (A) (A) (A) (A) (A) (A) (A) (A) (A) (A) (A)
                 (A) (A) (A) (A) (A) (A) (A) (A) (A) (A) (A) (A)
                 (A) (A) (A) (A) (A) (A) (A) (A) (A) (A) (A) (A)
                 (A) (A) (A) (A) (A) (A) (A) (A) (A) (A) (A) (A)
                 (A) (A) (A) (A) (A) (A) (A) (A) (A) (A) (A) (A)
                 (A) (A) (A) (A) (A) (A) (A) (A) (A) (A) (A) (A)
                 (A) (A) (A) (A) (A) (A) (A) (A) (A) (A) (A) (A)
                 (A) (A) (A) (A) (A) (A) (A) (A) (A) (A) (A) (A)
                 (A) (A) (A) (A) (A) (A) (A) (A) (A) (A) (A) (A)
                 (A) (A) (A) (A) (A) (A) (A) (A) (A) (A) (A) (A)
                 (A) (A) (A) (A) (A) (A) (A) (A) (A) (A) (A) (A)
                 (A) (A) (A) (A) (A) (A) (A) (A) (A) (A) (A) (A)
                 (A) (A) (A) (A) (A) (A) (A) (A) (A) (A) (A) (A)
                 (A) (A) (A) (A) (A) (A) (A) (A) (A) (A) (A) (A)
                 (A) (A) (A) (A) (A) (A) (A) (A) (A) (A) (A) (A)
                 (A) (A) (A) (A) (A) (A) (A)
 The electronic state is 1-A.
 Alpha  occ. eigenvalues --  -19.28215 -19.28180 -19.25675 -19.25398 -10.31969
 Alpha  occ. eigenvalues --  -10.31776 -10.31462 -10.31288 -10.26868 -10.26418
 Alpha  occ. eigenvalues --  -10.26335 -10.25949 -10.25929 -10.24848 -10.24527
 Alpha  occ. eigenvalues --  -10.24438 -10.24413 -10.23976 -10.23933 -10.23899
 Alpha  occ. eigenvalues --  -10.23664 -10.23368  -1.09756  -1.09246  -1.07271
 Alpha  occ. eigenvalues --   -1.06078  -0.88529  -0.86643  -0.82130  -0.81840
 Alpha  occ. eigenvalues --   -0.78449  -0.77209  -0.75742  -0.73930  -0.70907
 Alpha  occ. eigenvalues --   -0.70221  -0.67020  -0.64429  -0.63300  -0.62587
 Alpha  occ. eigenvalues --   -0.60893  -0.59856  -0.56576  -0.55136  -0.53474
 Alpha  occ. eigenvalues --   -0.52355  -0.51159  -0.50412  -0.49603  -0.49175
 Alpha  occ. eigenvalues --   -0.47664  -0.46571  -0.46207  -0.45189  -0.44647
 Alpha  occ. eigenvalues --   -0.43856  -0.43272  -0.43164  -0.42370  -0.42120
 Alpha  occ. eigenvalues --   -0.41472  -0.41206  -0.40687  -0.39657  -0.39241
 Alpha  occ. eigenvalues --   -0.39182  -0.38179  -0.37934  -0.37722  -0.36818
 Alpha  occ. eigenvalues --   -0.36202  -0.35741  -0.35473  -0.34795  -0.34364
 Alpha  occ. eigenvalues --   -0.33443  -0.32355  -0.31281  -0.30231  -0.29070
 Alpha  occ. eigenvalues --   -0.25707  -0.23982  -0.23004
 Alpha virt. eigenvalues --   -0.00549   0.00034   0.00245   0.00866   0.01242
 Alpha virt. eigenvalues --    0.01782   0.01846   0.02545   0.03260   0.03524
 Alpha virt. eigenvalues --    0.03915   0.04286   0.04322   0.04811   0.05199
 Alpha virt. eigenvalues --    0.05536   0.06380   0.06437   0.06892   0.07174
 Alpha virt. eigenvalues --    0.07477   0.07676   0.08545   0.08949   0.09005
 Alpha virt. eigenvalues --    0.09690   0.09786   0.10091   0.10626   0.10866
 Alpha virt. eigenvalues --    0.11239   0.11610   0.11841   0.12661   0.12775
 Alpha virt. eigenvalues --    0.13198   0.13740   0.13911   0.14572   0.14743
 Alpha virt. eigenvalues --    0.14984   0.15265   0.15652   0.16083   0.16155
 Alpha virt. eigenvalues --    0.16469   0.17084   0.17467   0.17616   0.17987
 Alpha virt. eigenvalues --    0.18352   0.18536   0.18750   0.19040   0.19207
 Alpha virt. eigenvalues --    0.19642   0.19809   0.20080   0.20445   0.20858
 Alpha virt. eigenvalues --    0.21101   0.21674   0.21893   0.22137   0.22456
 Alpha virt. eigenvalues --    0.22479   0.22882   0.22972   0.23185   0.23570
 Alpha virt. eigenvalues --    0.23883   0.24147   0.24411   0.24595   0.25066
 Alpha virt. eigenvalues --    0.25398   0.25719   0.26282   0.26586   0.26811
 Alpha virt. eigenvalues --    0.27114   0.27357   0.27700   0.27839   0.28115
 Alpha virt. eigenvalues --    0.28346   0.28627   0.28949   0.29345   0.29685
 Alpha virt. eigenvalues --    0.30152   0.30526   0.30737   0.31045   0.31291
 Alpha virt. eigenvalues --    0.31461   0.32070   0.32458   0.32686   0.32847
 Alpha virt. eigenvalues --    0.33606   0.33879   0.34232   0.34823   0.35123
 Alpha virt. eigenvalues --    0.35769   0.36025   0.36223   0.36561   0.36877
 Alpha virt. eigenvalues --    0.37111   0.37703   0.38815   0.38955   0.39308
 Alpha virt. eigenvalues --    0.40182   0.40715   0.41211   0.41787   0.42104
 Alpha virt. eigenvalues --    0.43132   0.43965   0.44445   0.44878   0.45813
 Alpha virt. eigenvalues --    0.46426   0.46760   0.47351   0.47639   0.48467
 Alpha virt. eigenvalues --    0.49290   0.49580   0.50608   0.51591   0.53384
 Alpha virt. eigenvalues --    0.53680   0.57267   0.60682   0.63140   0.65507
 Alpha virt. eigenvalues --    0.68181   0.68546   0.69590   0.69973   0.70785
 Alpha virt. eigenvalues --    0.71512   0.72749   0.72992   0.73331   0.73873
 Alpha virt. eigenvalues --    0.74734   0.75117   0.75721   0.76281   0.76532
 Alpha virt. eigenvalues --    0.77726   0.78496   0.79215   0.79386   0.80069
 Alpha virt. eigenvalues --    0.80587   0.81176   0.82122   0.82858   0.83381
 Alpha virt. eigenvalues --    0.84014   0.84789   0.85121   0.86227   0.87889
 Alpha virt. eigenvalues --    0.88417   0.88729   0.89363   0.89874   0.90857
 Alpha virt. eigenvalues --    0.92045   0.92353   0.93480   0.94184   0.94799
 Alpha virt. eigenvalues --    0.95155   0.96127   0.97256   0.97869   0.98925
 Alpha virt. eigenvalues --    1.00175   1.01277   1.01555   1.02274   1.03087
 Alpha virt. eigenvalues --    1.04113   1.04776   1.05748   1.05822   1.08218
 Alpha virt. eigenvalues --    1.08538   1.09597   1.10604   1.10757   1.11062
 Alpha virt. eigenvalues --    1.12587   1.13500   1.13966   1.14229   1.14938
 Alpha virt. eigenvalues --    1.15416   1.16433   1.16776   1.17195   1.18102
 Alpha virt. eigenvalues --    1.18866   1.19884   1.20085   1.20877   1.21266
 Alpha virt. eigenvalues --    1.23096   1.24225   1.25083   1.25449   1.26704
 Alpha virt. eigenvalues --    1.27696   1.28414   1.28978   1.29871   1.30539
 Alpha virt. eigenvalues --    1.31105   1.32478   1.32805   1.33472   1.34645
 Alpha virt. eigenvalues --    1.35171   1.35759   1.37594   1.37928   1.38918
 Alpha virt. eigenvalues --    1.39647   1.40939   1.41235   1.41737   1.43200
 Alpha virt. eigenvalues --    1.43754   1.45561   1.46740   1.48559   1.49195
 Alpha virt. eigenvalues --    1.50259   1.50538   1.53826   1.54042   1.54704
 Alpha virt. eigenvalues --    1.56108   1.56648   1.58283   1.58533   1.60219
 Alpha virt. eigenvalues --    1.60945   1.61939   1.62280   1.64265   1.65459
 Alpha virt. eigenvalues --    1.66415   1.67916   1.70204   1.71039   1.71675
 Alpha virt. eigenvalues --    1.72972   1.75410   1.76874   1.78307   1.80013
 Alpha virt. eigenvalues --    1.80719   1.81308   1.82774   1.83790   1.84731
 Alpha virt. eigenvalues --    1.84929   1.85650   1.86091   1.87432   1.87804
 Alpha virt. eigenvalues --    1.88868   1.89784   1.90409   1.90843   1.92209
 Alpha virt. eigenvalues --    1.92680   1.92989   1.93239   1.95270   1.95558
 Alpha virt. eigenvalues --    1.96027   1.96826   1.97553   1.98074   1.99232
 Alpha virt. eigenvalues --    2.00551   2.01879   2.02527   2.04656   2.04968
 Alpha virt. eigenvalues --    2.06134   2.06582   2.06872   2.07239   2.08219
 Alpha virt. eigenvalues --    2.09034   2.10199   2.11153   2.11795   2.12471
 Alpha virt. eigenvalues --    2.13342   2.13676   2.14174   2.14977   2.15331
 Alpha virt. eigenvalues --    2.16056   2.17128   2.17209   2.18633   2.19581
 Alpha virt. eigenvalues --    2.20219   2.21089   2.24215   2.24702   2.25710
 Alpha virt. eigenvalues --    2.26306   2.27033   2.28676   2.29045   2.30019
 Alpha virt. eigenvalues --    2.30909   2.32075   2.33449   2.34101   2.34558
 Alpha virt. eigenvalues --    2.35059   2.35910   2.38296   2.39574   2.40751
 Alpha virt. eigenvalues --    2.41033   2.42761   2.42978   2.44468   2.47508
 Alpha virt. eigenvalues --    2.47806   2.48435   2.48985   2.50850   2.52116
 Alpha virt. eigenvalues --    2.52683   2.54023   2.54744   2.55087   2.56381
 Alpha virt. eigenvalues --    2.56579   2.57113   2.57614   2.59155   2.59490
 Alpha virt. eigenvalues --    2.60612   2.61171   2.61699   2.63439   2.64998
 Alpha virt. eigenvalues --    2.65453   2.67095   2.68254   2.68688   2.70587
 Alpha virt. eigenvalues --    2.71333   2.71678   2.71744   2.72948   2.73687
 Alpha virt. eigenvalues --    2.74629   2.75859   2.76285   2.76817   2.77382
 Alpha virt. eigenvalues --    2.77890   2.79678   2.81758   2.82382   2.82456
 Alpha virt. eigenvalues --    2.83391   2.85382   2.85890   2.86522   2.88123
 Alpha virt. eigenvalues --    2.88438   2.88741   2.89112   2.89797   2.90466
 Alpha virt. eigenvalues --    2.91391   2.91617   2.93429   2.94315   2.95361
 Alpha virt. eigenvalues --    2.96237   2.97277   2.98833   3.02868   3.07385
 Alpha virt. eigenvalues --    3.07895   3.09393   3.10364   3.11017   3.12142
 Alpha virt. eigenvalues --    3.18953   3.21120   3.25517   3.27636   3.29408
 Alpha virt. eigenvalues --    3.30249   3.31259   3.36268   3.37628   3.39358
 Alpha virt. eigenvalues --    3.39857   3.43474   3.45449   3.47149   3.48144
 Alpha virt. eigenvalues --    3.49105   3.49749   3.51046   3.51589   3.52511
 Alpha virt. eigenvalues --    3.53642   3.54607   3.56536   3.58926   3.59630
 Alpha virt. eigenvalues --    3.59899   3.60975   3.62023   3.67927   3.71909
 Alpha virt. eigenvalues --    3.80722   4.35223   4.36503   4.39413   4.46418
 Alpha virt. eigenvalues --    4.48410   4.50780   4.52541   4.53696   4.55734
 Alpha virt. eigenvalues --    4.57354   4.60198   4.63232   4.66502   4.70902
 Alpha virt. eigenvalues --    4.73490   4.74508   4.79104   4.84033   4.90849
 Alpha virt. eigenvalues --    4.94694   5.00514   5.03829
          Condensed to atoms (all electrons):
              1          2          3          4          5          6
     1  C   12.552041  -1.583857  -0.142870   0.039525  -0.715051   0.023089
     2  C   -1.583857   7.197971   0.470696   0.311625   0.167147  -0.017989
     3  H   -0.142870   0.470696   0.520460  -0.025001  -0.095862  -0.004817
     4  H    0.039525   0.311625  -0.025001   0.537695  -0.032538  -0.002587
     5  C   -0.715051   0.167147  -0.095862  -0.032538   8.790611   0.414800
     6  H    0.023089  -0.017989  -0.004817  -0.002587   0.414800   0.544164
     7  C    2.748661  -0.613006   0.095054   0.036271  -5.412494  -0.267098
     8  H   -0.079678   0.017848   0.003536  -0.000046  -0.022307  -0.005469
     9  C   -1.458465   0.445444  -0.065775   0.017237   2.548894   0.166828
    10  H   -0.080019   0.016913   0.000094  -0.000050  -0.062882  -0.000046
    11  C   -1.754937   0.195951   0.064287   0.014018  -0.187972  -0.024216
    12  H   -0.036105   0.031042  -0.000089  -0.000104  -0.032967   0.000010
    13  C   -0.598320  -0.178472  -0.018258   0.003428   0.662758   0.033309
    14  C    0.011914   0.003064  -0.000152  -0.000005   0.024827   0.000210
    15  C    0.929920   0.130481   0.006396  -0.002497  -0.499696  -0.017823
    16  C   -0.964528   0.065052  -0.002501   0.000783   0.604009   0.011895
    17  C   -0.175635   0.017028   0.000034   0.000037   0.087340   0.000858
    18  C   -0.040134  -0.011040   0.000782  -0.000098  -0.267263  -0.001736
    19  H   -0.000183   0.000020   0.000000   0.000000  -0.000076   0.000000
    20  H   -0.000127   0.000037   0.000000   0.000000   0.000075   0.000000
    21  O   -0.013587   0.001807  -0.000005   0.000002   0.019304   0.000006
    22  H    0.000045   0.000057   0.000000   0.000000  -0.001020   0.000000
    23  O    0.021466  -0.000808   0.000064   0.000009   0.030030   0.000105
    24  H    0.003753  -0.007888  -0.000072   0.000001   0.000610  -0.000013
    25  O    0.030464  -0.053350   0.006197  -0.000770  -0.155784  -0.000222
    26  H   -0.020436   0.011583   0.000187  -0.000014   0.014281   0.000000
    27  C   -2.844008   0.380014   0.031317  -0.053269  -0.708238  -0.005605
    28  H   -0.079934  -0.009520   0.000278   0.002046   0.011487  -0.000001
    29  H   -0.143496   0.022110   0.000056  -0.000051  -0.012723   0.000002
    30  H   -0.143633   0.037590   0.001240   0.000363   0.005350  -0.000003
    31  O    0.419332   0.019334   0.011947  -0.015863  -0.082474  -0.001714
    32  H    0.076525  -0.076714   0.000048   0.004767   0.009602  -0.000014
    33  H   -0.058045  -0.008317   0.004525  -0.004253   0.409172  -0.027779
    34  C   -0.064727  -0.529962  -0.043914  -0.000183   1.052624   0.039671
    35  C    0.181908  -0.071272  -0.006440   0.000796  -0.018228  -0.023768
    36  H   -0.000458   0.001190   0.000000   0.000000   0.010547  -0.000007
    37  H   -0.002093   0.001760  -0.000001   0.000002  -0.011574   0.000066
    38  C   -0.093702  -0.031437   0.006295  -0.001607  -0.067926  -0.003858
    39  H   -0.001163  -0.005117   0.000001   0.000000  -0.014189   0.000011
    40  H    0.000066   0.001127   0.000000   0.000000   0.005412  -0.000061
    41  H    0.001896   0.010089   0.000009   0.000001   0.014830   0.000817
    42  C   -0.002130   0.000178  -0.000003   0.000000   0.005179   0.000010
    43  H   -0.000005   0.000000   0.000000   0.000000   0.000010   0.000000
    44  H    0.000009  -0.000001   0.000000   0.000000  -0.000001   0.000000
    45  C   -0.000134  -0.000077   0.000000   0.000000  -0.000068   0.000000
    46  H    0.000000   0.000000   0.000000   0.000000   0.000000   0.000000
    47  H    0.000004  -0.000001   0.000000   0.000000   0.000000   0.000000
    48  H   -0.000010   0.000000   0.000000   0.000000   0.000001   0.000000
              7          8          9         10         11         12
     1  C    2.748661  -0.079678  -1.458465  -0.080019  -1.754937  -0.036105
     2  C   -0.613006   0.017848   0.445444   0.016913   0.195951   0.031042
     3  H    0.095054   0.003536  -0.065775   0.000094   0.064287  -0.000089
     4  H    0.036271  -0.000046   0.017237  -0.000050   0.014018  -0.000104
     5  C   -5.412494  -0.022307   2.548894  -0.062882  -0.187972  -0.032967
     6  H   -0.267098  -0.005469   0.166828  -0.000046  -0.024216   0.000010
     7  C   29.911984   0.387832  -8.339278   0.089910   0.135403   0.006588
     8  H    0.387832   0.560439   0.040979   0.004952   0.036822  -0.000150
     9  C   -8.339278   0.040979  17.068308   0.356570  -2.033333  -0.025729
    10  H    0.089910   0.004952   0.356570   0.517077   0.144068  -0.003860
    11  C    0.135403   0.036822  -2.033333   0.144068  11.477194   0.193878
    12  H    0.006588  -0.000150  -0.025729  -0.003860   0.193878   0.559397
    13  C   -4.759762   0.135208   3.892883  -0.191786  -1.046097   0.042420
    14  C   -0.415913  -0.008371  -0.468896  -0.013153  -0.252658   0.009168
    15  C    5.184854  -0.174684  -1.058402  -0.126556  -1.775982   0.065377
    16  C   -6.314615   0.063342  -0.102614   0.084483  -0.385003   0.062530
    17  C   -1.486812   0.013648  -1.494864   0.049217  -0.122503   0.017619
    18  C    0.016732  -0.022890  -1.604319   0.007924   0.545223   0.018476
    19  H   -0.000880   0.000000  -0.006098  -0.000006   0.000422   0.000002
    20  H   -0.001769   0.000004   0.006128   0.000001  -0.001769   0.000000
    21  O   -0.112506  -0.000219  -0.104189   0.002894  -0.004084  -0.000825
    22  H    0.006316   0.000000   0.040480   0.000112   0.004858   0.000013
    23  O    0.015068   0.001404   0.152085   0.000117  -0.035182  -0.002548
    24  H   -0.100659   0.002015  -0.026613  -0.000051  -0.000653   0.000522
    25  O    0.580526   0.006343  -0.419813   0.010763   0.250754  -0.039256
    26  H   -0.028714   0.000011   0.053683  -0.000199  -0.000204  -0.009072
    27  C    0.950831   0.009803  -2.090289   0.021582   1.369469  -0.034486
    28  H   -0.005388   0.000000   0.002726  -0.000006   0.022183  -0.000014
    29  H   -0.007595   0.000001  -0.002853   0.000007   0.020536   0.002671
    30  H   -0.005115   0.000015   0.020052   0.000001   0.018675   0.000403
    31  O    0.323821   0.001034  -0.192979   0.005687  -0.149697   0.003273
    32  H    0.005876   0.000001  -0.027520  -0.000159   0.044382  -0.000162
    33  H    0.063751   0.004948  -0.037817   0.003422   0.013295  -0.000055
    34  C   -6.376047  -0.175519   1.255849  -0.021536  -0.529589   0.000680
    35  C   -0.270635  -0.039002  -0.358217  -0.021412   0.067751  -0.002116
    36  H    0.011589  -0.000123  -0.014427  -0.000003   0.000146   0.000000
    37  H   -0.068556  -0.000038  -0.004225   0.000996  -0.008499   0.000007
    38  C    0.118847   0.073380   0.159462   0.007997   0.083966   0.000133
    39  H    0.095930   0.001897  -0.010722   0.000008   0.001900   0.000000
    40  H   -0.001975   0.000336  -0.007179   0.000005   0.000022   0.000000
    41  H    0.016159  -0.000435   0.009148  -0.000013   0.002052   0.000000
    42  C   -0.116171   0.000266  -0.162271  -0.000753  -0.023393   0.000511
    43  H   -0.000215   0.000000  -0.000172   0.000000  -0.000015   0.000000
    44  H   -0.000246   0.000000   0.002208   0.000000   0.000085   0.000000
    45  C   -0.002627   0.000006  -0.004062   0.000011   0.000467   0.000024
    46  H    0.000006   0.000000   0.000147   0.000000   0.000014   0.000000
    47  H   -0.000060   0.000000   0.000459   0.000000  -0.000095   0.000000
    48  H   -0.000012   0.000000  -0.000501   0.000000  -0.000141   0.000000
             13         14         15         16         17         18
     1  C   -0.598320   0.011914   0.929920  -0.964528  -0.175635  -0.040134
     2  C   -0.178472   0.003064   0.130481   0.065052   0.017028  -0.011040
     3  H   -0.018258  -0.000152   0.006396  -0.002501   0.000034   0.000782
     4  H    0.003428  -0.000005  -0.002497   0.000783   0.000037  -0.000098
     5  C    0.662758   0.024827  -0.499696   0.604009   0.087340  -0.267263
     6  H    0.033309   0.000210  -0.017823   0.011895   0.000858  -0.001736
     7  C   -4.759762  -0.415913   5.184854  -6.314615  -1.486812   0.016732
     8  H    0.135208  -0.008371  -0.174684   0.063342   0.013648  -0.022890
     9  C    3.892883  -0.468896  -1.058402  -0.102614  -1.494864  -1.604319
    10  H   -0.191786  -0.013153  -0.126556   0.084483   0.049217   0.007924
    11  C   -1.046097  -0.252658  -1.775982  -0.385003  -0.122503   0.545223
    12  H    0.042420   0.009168   0.065377   0.062530   0.017619   0.018476
    13  C   25.253075  -2.308442 -15.070950   2.555080  -3.606707   1.917123
    14  C   -2.308442  11.287773   3.285106  -0.485877   0.392197  -2.523817
    15  C  -15.070950   3.285106  37.555168  -6.351254  -2.598215 -11.256620
    16  C    2.555080  -0.485877  -6.351254  13.869382   2.366110  -0.141689
    17  C   -3.606707   0.392197  -2.598215   2.366110  13.183655  -1.379977
    18  C    1.917123  -2.523817 -11.256620  -0.141689  -1.379977  19.408626
    19  H    0.076435   0.057296  -0.062603  -0.045398   0.258656   0.060438
    20  H    0.051296   0.070424   0.090852  -0.002653   0.036258   0.096029
    21  O   -0.087046   0.028254  -0.019900   0.275405   0.015123  -0.004534
    22  H    0.133760   0.005791  -0.031497   0.061964  -0.230471   0.017102
    23  O   -0.457066   0.160832   0.874905  -0.091670  -0.000877  -0.568692
    24  H   -0.027491  -0.007228   0.019269   0.028956  -0.002809   0.151420
    25  O   -0.156942  -0.016543   0.191513  -0.221147  -0.049858  -0.028586
    26  H   -0.026506   0.002020   0.023137  -0.000493  -0.000627  -0.009214
    27  C   -0.478915  -0.010743   0.137819  -0.265451  -0.026789   0.081329
    28  H   -0.000161  -0.000014  -0.001392   0.000313   0.000015  -0.000039
    29  H   -0.000313   0.000000  -0.001584   0.002449   0.000278  -0.000024
    30  H   -0.001726   0.000051   0.006731  -0.000576  -0.000116   0.000652
    31  O   -0.062368  -0.000062   0.028026  -0.047646  -0.004118   0.004187
    32  H   -0.000043   0.000019   0.000160  -0.002436  -0.000193   0.000001
    33  H   -0.012212  -0.000198  -0.006180   0.005969   0.001318   0.000080
    34  C    0.166944   0.239448  -0.215154   1.439203   0.439551  -0.328384
    35  C    0.109061   0.045688   0.580549  -0.783484  -0.451811  -0.256016
    36  H    0.008233  -0.001082   0.000894  -0.006039  -0.005694   0.003312
    37  H    0.008344   0.000299  -0.006597   0.027888   0.003023   0.004081
    38  C    0.563275  -0.093035  -0.993494   0.325464   0.142754   0.221847
    39  H    0.057090  -0.009319  -0.070718   0.007172   0.001900   0.025227
    40  H   -0.000264   0.000074   0.005531   0.000175   0.000627  -0.000737
    41  H   -0.023027   0.000779   0.016484  -0.004028  -0.000259  -0.006097
    42  C   -0.941633  -2.732587  -1.258716  -0.059075   0.789744   1.381267
    43  H    0.011170  -0.283684   0.022523  -0.028338  -0.108904   0.216325
    44  H   -0.008837  -0.250469  -0.000098   0.049684   0.180895  -0.149537
    45  C    0.026792  -0.001683  -0.018110   0.002556   0.013410   0.049142
    46  H    0.001629   0.010009   0.003157   0.001551   0.007911   0.005919
    47  H   -0.009702  -0.022388   0.012833   0.002964   0.027603  -0.054730
    48  H   -0.000855  -0.049529  -0.007568  -0.010936  -0.020163   0.036638
             19         20         21         22         23         24
     1  C   -0.000183  -0.000127  -0.013587   0.000045   0.021466   0.003753
     2  C    0.000020   0.000037   0.001807   0.000057  -0.000808  -0.007888
     3  H    0.000000   0.000000  -0.000005   0.000000   0.000064  -0.000072
     4  H    0.000000   0.000000   0.000002   0.000000   0.000009   0.000001
     5  C   -0.000076   0.000075   0.019304  -0.001020   0.030030   0.000610
     6  H    0.000000   0.000000   0.000006   0.000000   0.000105  -0.000013
     7  C   -0.000880  -0.001769  -0.112506   0.006316   0.015068  -0.100659
     8  H    0.000000   0.000004  -0.000219   0.000000   0.001404   0.002015
     9  C   -0.006098   0.006128  -0.104189   0.040480   0.152085  -0.026613
    10  H   -0.000006   0.000001   0.002894   0.000112   0.000117  -0.000051
    11  C    0.000422  -0.001769  -0.004084   0.004858  -0.035182  -0.000653
    12  H    0.000002   0.000000  -0.000825   0.000013  -0.002548   0.000522
    13  C    0.076435   0.051296  -0.087046   0.133760  -0.457066  -0.027491
    14  C    0.057296   0.070424   0.028254   0.005791   0.160832  -0.007228
    15  C   -0.062603   0.090852  -0.019900  -0.031497   0.874905   0.019269
    16  C   -0.045398  -0.002653   0.275405   0.061964  -0.091670   0.028956
    17  C    0.258656   0.036258   0.015123  -0.230471  -0.000877  -0.002809
    18  C    0.060438   0.096029  -0.004534   0.017102  -0.568692   0.151420
    19  H    0.522583  -0.000140  -0.018164   0.008436   0.000139   0.000000
    20  H   -0.000140   0.518506   0.000096  -0.000001  -0.006864   0.000110
    21  O   -0.018164   0.000096   8.317923   0.203703  -0.001778  -0.000120
    22  H    0.008436  -0.000001   0.203703   0.365291   0.000046   0.000000
    23  O    0.000139  -0.006864  -0.001778   0.000046   8.354378   0.187626
    24  H    0.000000   0.000110  -0.000120   0.000000   0.187626   0.313354
    25  O    0.000004  -0.000030  -0.001858  -0.000013  -0.004394   0.012436
    26  H    0.000000   0.000000  -0.000050   0.000000   0.002788   0.000385
    27  C   -0.000005  -0.000016   0.001716   0.000137  -0.003842  -0.002001
    28  H    0.000000   0.000000   0.000002   0.000000   0.000002   0.000000
    29  H    0.000000   0.000000   0.000019   0.000000  -0.000001  -0.000002
    30  H    0.000000   0.000000   0.000002   0.000000  -0.000098   0.000038
    31  O    0.000001   0.000000  -0.000995   0.000006   0.000319  -0.000152
    32  H    0.000000   0.000000   0.000027   0.000000   0.000000   0.000000
    33  H    0.000000   0.000000  -0.000189   0.000000   0.000029  -0.000004
    34  C   -0.001221  -0.000047   0.064552  -0.002627  -0.060013   0.002043
    35  C    0.000854   0.000371  -0.043568   0.001794  -0.008511  -0.008335
    36  H    0.000000   0.000000   0.000414   0.000000  -0.000018   0.000000
    37  H    0.000000   0.000000   0.002298  -0.000063  -0.000075   0.000002
    38  C    0.000071   0.000964  -0.001056   0.000044   0.015124   0.004534
    39  H    0.000000  -0.000011   0.000028   0.000000   0.001476  -0.000007
    40  H    0.000000   0.000000  -0.000013   0.000000  -0.000206   0.000000
    41  H    0.000000   0.000000  -0.000013   0.000000   0.000316   0.000001
    42  C   -0.022578  -0.028611   0.000985   0.000137  -0.032790   0.003061
    43  H    0.000078   0.001662   0.000042   0.000000   0.000070   0.000000
    44  H    0.002094   0.000100   0.000036   0.000000   0.000028   0.000000
    45  C    0.007837   0.005157   0.000150   0.000064   0.000885   0.000011
    46  H   -0.000030  -0.000026   0.000000   0.000000   0.000000   0.000000
    47  H    0.000010   0.000183   0.000004   0.000000  -0.000022   0.000000
    48  H    0.000163   0.000005   0.000022   0.000001   0.000006   0.000000
             25         26         27         28         29         30
     1  C    0.030464  -0.020436  -2.844008  -0.079934  -0.143496  -0.143633
     2  C   -0.053350   0.011583   0.380014  -0.009520   0.022110   0.037590
     3  H    0.006197   0.000187   0.031317   0.000278   0.000056   0.001240
     4  H   -0.000770  -0.000014  -0.053269   0.002046  -0.000051   0.000363
     5  C   -0.155784   0.014281  -0.708238   0.011487  -0.012723   0.005350
     6  H   -0.000222   0.000000  -0.005605  -0.000001   0.000002  -0.000003
     7  C    0.580526  -0.028714   0.950831  -0.005388  -0.007595  -0.005115
     8  H    0.006343   0.000011   0.009803   0.000000   0.000001   0.000015
     9  C   -0.419813   0.053683  -2.090289   0.002726  -0.002853   0.020052
    10  H    0.010763  -0.000199   0.021582  -0.000006   0.000007   0.000001
    11  C    0.250754  -0.000204   1.369469   0.022183   0.020536   0.018675
[...]
    15  C    0.203891   0.001971   0.074065  -0.002171  -0.000861   0.005754
    16  C   -0.196875   0.004190  -0.170623   0.000606   0.001423  -0.000029
    17  C   -0.044536   0.000100  -0.020943   0.000028   0.000227  -0.000074
    18  C    0.024031  -0.014416   0.044680  -0.000075   0.000002   0.000616
    19  H    0.000001   0.000000  -0.000003   0.000000   0.000000   0.000000
    20  H   -0.000070   0.000000  -0.000020   0.000000   0.000000   0.000000
    21  O   -0.002292  -0.000044   0.003713   0.000003   0.000015   0.000003
    22  H   -0.000002   0.000000   0.000156   0.000000   0.000000   0.000000
    23  O   -0.015623   0.004151  -0.000996   0.000004   0.000008  -0.000112
    24  H    0.022384  -0.000289  -0.001819   0.000000  -0.000001   0.000038
    25  O    8.496983   0.238225   0.004207  -0.000977  -0.002347   0.006750
    26  H    0.238225   0.308360   0.001097  -0.000037   0.000346  -0.000110
    27  C    0.004207   0.001097   8.197582   0.454924   0.542654   0.447275
    28  H   -0.000977  -0.000037   0.454924   0.530984  -0.028534  -0.025583
    29  H   -0.002347   0.000346   0.542654  -0.028534   0.537660  -0.027304
    30  H    0.006750  -0.000110   0.447275  -0.025583  -0.027304   0.529430
    31  O    0.022273  -0.000141  -0.202842  -0.012090  -0.000039   0.009096
    32  H   -0.000881  -0.000004   0.003524   0.003442  -0.000390   0.000063
    33  H    0.000637   0.000003   0.000104   0.000001   0.000002   0.000001
    34  C   -0.021152  -0.002442  -0.148623   0.000497  -0.000683   0.000024
    35  C   -0.004207  -0.000123  -0.001754  -0.000008  -0.000108  -0.000154
    36  H   -0.000005   0.000000  -0.000064   0.000000   0.000000   0.000000
    37  H   -0.000076   0.000000  -0.000408   0.000000   0.000000   0.000000
    38  C    0.001684  -0.000076   0.004147  -0.000007   0.000009   0.000042
    39  H    0.000048   0.000000   0.000002   0.000000   0.000000   0.000000
    40  H   -0.000012   0.000000  -0.000007   0.000000   0.000000   0.000000
    41  H    0.000054   0.000000   0.000204   0.000000   0.000000   0.000000
    42  C   -0.007173   0.000116  -0.000215   0.000000  -0.000001   0.000000
    43  H   -0.000001   0.000000   0.000000   0.000000   0.000000   0.000000
    44  H    0.000000   0.000000   0.000000   0.000000   0.000000   0.000000
    45  C   -0.000085  -0.000003  -0.000093   0.000000   0.000000   0.000000
    46  H    0.000000   0.000000   0.000000   0.000000   0.000000   0.000000
    47  H    0.000001   0.000000   0.000000   0.000000   0.000000   0.000000
    48  H    0.000000   0.000000  -0.000001   0.000000   0.000000   0.000000
             31         32         33         34         35         36
     1  C    0.345536   0.018809  -0.086611  -0.054869   0.223515  -0.000683
     2  C    0.008329  -0.046192  -0.008170  -0.479418  -0.043232  -0.000969
     3  H    0.009520   0.000071   0.005004  -0.044676  -0.007689   0.000000
     4  H   -0.017342   0.004553  -0.004706  -0.013155  -0.001469   0.000000
     5  C   -0.033247   0.004058   0.505531   1.110182   0.056484   0.013030
     6  H   -0.001818   0.000013  -0.032455   0.051553  -0.022601  -0.000007
     7  C    0.264258  -0.005751  -0.107353  -5.577833  -1.093319  -0.052864
     8  H    0.001328  -0.000001   0.005404  -0.169394  -0.023380  -0.000132
     9  C   -0.149475  -0.021144   0.046518   1.005658  -0.523862  -0.014641
    10  H    0.007291  -0.000134   0.003643  -0.036311  -0.000054   0.000016
    11  C   -0.226994   0.057968   0.011093  -0.555338  -0.019003  -0.001341
    12  H    0.005140  -0.000182  -0.000057  -0.001837  -0.003655   0.000000
    13  C   -0.029725  -0.002784  -0.002214  -0.112100   0.082544   0.012397
    14  C    0.000525  -0.000007  -0.000026   0.268312   0.039563  -0.000514
    15  C    0.015776  -0.000362  -0.012695  -0.098115   0.513421  -0.003256
    16  C   -0.030438  -0.001796   0.017662   1.218822  -0.786340  -0.000988
    17  C   -0.001092  -0.000124   0.002249   0.380734  -0.482111  -0.005130
    18  C    0.003734  -0.000058  -0.000218  -0.221612  -0.205102   0.002721
    19  H    0.000002   0.000000   0.000000  -0.000785   0.000541   0.000000
    20  H    0.000000   0.000000   0.000000   0.000246   0.000274   0.000000
    21  O   -0.001561   0.000048  -0.000099   0.062495  -0.032390   0.000380
    22  H    0.000001   0.000000   0.000000  -0.001885   0.001283   0.000000
    23  O    0.000352   0.000000   0.000025  -0.062789  -0.016486  -0.000015
    24  H   -0.000173   0.000000  -0.000007  -0.001636  -0.006668   0.000000
    25  O    0.022273  -0.000881   0.000637  -0.021152  -0.004207  -0.000005
    26  H   -0.000141  -0.000004   0.000003  -0.002442  -0.000123   0.000000
    27  C   -0.202842   0.003524   0.000104  -0.148623  -0.001754  -0.000064
    28  H   -0.012090   0.003442   0.000001   0.000497  -0.000008   0.000000
    29  H   -0.000039  -0.000390   0.000002  -0.000683  -0.000108   0.000000
    30  H    0.009096   0.000063   0.000001   0.000024  -0.000154   0.000000
    31  O    8.427755   0.239324   0.011747  -0.052778   0.000601  -0.000005
    32  H    0.239324   0.336290  -0.000245  -0.000997   0.000077   0.000000
    33  H    0.011747  -0.000245   0.559426  -0.013967  -0.087241  -0.000042
    34  C   -0.052778  -0.000997  -0.013967  11.156497  -0.550434  -0.168826
    35  C    0.000601   0.000077  -0.087241  -0.550434   9.763273   0.619676
    36  H   -0.000005   0.000000  -0.000042  -0.168826   0.619676   0.535972
    37  H   -0.000326   0.000004   0.000104  -0.101340   0.541290  -0.034703
    38  C    0.003387  -0.000140   0.029714  -0.961612  -1.391917  -0.048910
    39  H   -0.000001   0.000000  -0.000014  -0.262571  -0.067901   0.000150
    40  H    0.000000   0.000000   0.000006  -0.080100   0.020226   0.003291
    41  H    0.000010   0.000000   0.000063  -0.061198   0.004735   0.000135
    42  C    0.000121   0.000000   0.000003   0.030703  -0.017837  -0.000140
    43  H    0.000000   0.000000   0.000000   0.000192   0.000047   0.000000
    44  H    0.000000   0.000000   0.000000   0.000019   0.000123   0.000000
    45  C    0.000002   0.000000   0.000000  -0.001536  -0.000136   0.000001
    46  H    0.000000   0.000000   0.000000   0.000003   0.000002   0.000000
    47  H    0.000000   0.000000   0.000000   0.000007   0.000002   0.000000
    48  H    0.000000   0.000000   0.000000   0.000020  -0.000001   0.000000
             37         38         39         40         41         42
     1  C    0.002341  -0.123065  -0.001930   0.000504   0.001934  -0.003383
     2  C    0.000339  -0.078052  -0.003126  -0.001470   0.011223  -0.000005
     3  H   -0.000001   0.006393   0.000000   0.000000   0.000009  -0.000007
     4  H    0.000003  -0.001349   0.000000   0.000000   0.000001   0.000000
     5  C   -0.020945  -0.092820  -0.010763   0.004525   0.009767   0.007536
     6  H    0.000082  -0.009983   0.000005  -0.000067   0.000930   0.000013
     7  C   -0.064944   0.125623   0.121261  -0.070060   0.029515  -0.106136
     8  H   -0.000044   0.062581   0.001719   0.000408  -0.000435   0.000100
     9  C   -0.013133   0.157391  -0.022373  -0.006410  -0.000155  -0.117400
    10  H    0.000693   0.002760   0.000009   0.000005  -0.000015  -0.000985
    11  C   -0.007771   0.067311   0.002722  -0.001071   0.003273  -0.054858
    12  H    0.000007   0.000449   0.000000   0.000000   0.000000   0.000589
    13  C    0.001197   0.711640   0.046265   0.004821  -0.024396  -0.780046
    14  C    0.001438  -0.100091  -0.007957   0.000129   0.000334  -2.509701
    15  C   -0.002931  -1.248607  -0.068991   0.003034   0.013776  -1.096457
    16  C    0.017302   0.395418   0.003968   0.000323  -0.004474  -0.110620
    17  C    0.002830   0.160622   0.001684   0.000619  -0.000302   0.755792
    18  C    0.002149   0.254488   0.027475  -0.001607  -0.006382   0.939275
    19  H    0.000000   0.000107   0.000000   0.000000   0.000000  -0.022341
    20  H    0.000000   0.000853  -0.000009   0.000000   0.000000  -0.016994
    21  O    0.003635  -0.001031   0.000047  -0.000015  -0.000022   0.005509
    22  H   -0.000061   0.000069   0.000000   0.000000   0.000000  -0.000567
    23  O   -0.000083   0.030239   0.001312  -0.000107   0.000401  -0.022665
    24  H    0.000002   0.001368  -0.000003   0.000000   0.000000   0.001093
    25  O   -0.000076   0.001684   0.000048  -0.000012   0.000054  -0.007173
    26  H    0.000000  -0.000076   0.000000   0.000000   0.000000   0.000116
    27  C   -0.000408   0.004147   0.000002  -0.000007   0.000204  -0.000215
    28  H    0.000000  -0.000007   0.000000   0.000000   0.000000   0.000000
    29  H    0.000000   0.000009   0.000000   0.000000   0.000000  -0.000001
    30  H    0.000000   0.000042   0.000000   0.000000   0.000000   0.000000
    31  O   -0.000326   0.003387  -0.000001   0.000000   0.000010   0.000121
    32  H    0.000004  -0.000140   0.000000   0.000000   0.000000   0.000000
    33  H    0.000104   0.029714  -0.000014   0.000006   0.000063   0.000003
    34  C   -0.101340  -0.961612  -0.262571  -0.080100  -0.061198   0.030703
    35  C    0.541290  -1.391917  -0.067901   0.020226   0.004735  -0.017837
    36  H   -0.034703  -0.048910   0.000150   0.003291   0.000135  -0.000140
    37  H    0.542956  -0.014229  -0.000188   0.000184  -0.000190   0.000100
    38  C   -0.014229   7.238992   0.586313   0.480204   0.369270   0.019070
    39  H   -0.000188   0.586313   0.538546  -0.027456  -0.028856  -0.000113
    40  H    0.000184   0.480204  -0.027456   0.542101  -0.027103   0.000021
    41  H   -0.000190   0.369270  -0.028856  -0.027103   0.536737  -0.000007
    42  C    0.000100   0.019070  -0.000113   0.000021  -0.000007   8.077578
    43  H    0.000000  -0.000059   0.000000   0.000000   0.000000   0.528164
    44  H    0.000000   0.000005   0.000000   0.000000   0.000000   0.528987
    45  C    0.000001   0.000939   0.000015   0.000001  -0.000001   0.154636
    46  H    0.000000  -0.000001   0.000000   0.000000   0.000000  -0.041836
    47  H    0.000000  -0.000005   0.000000   0.000000   0.000000  -0.046511
    48  H    0.000000  -0.000001   0.000000   0.000000   0.000000  -0.039236
             43         44         45         46         47         48
     1  C   -0.000004   0.000003   0.000045   0.000000   0.000004  -0.000013
     2  C    0.000000  -0.000001  -0.000147   0.000000   0.000000   0.000001
     3  H    0.000000   0.000000   0.000000   0.000000   0.000000   0.000000
     4  H    0.000000   0.000000   0.000000   0.000000   0.000000   0.000000
     5  C    0.000005  -0.000002  -0.000095   0.000000  -0.000002   0.000001
     6  H    0.000000   0.000000   0.000000   0.000000   0.000000   0.000000
     7  C   -0.000277  -0.000244  -0.001588   0.000009  -0.000072  -0.000044
     8  H    0.000000   0.000000   0.000006   0.000000   0.000000   0.000000
     9  C   -0.000356   0.001301  -0.004907   0.000171   0.000224  -0.001003
    10  H    0.000000   0.000000   0.000015   0.000000   0.000000   0.000000
    11  C   -0.000041   0.000045   0.002101   0.000002  -0.000136  -0.000140
    12  H    0.000000   0.000000   0.000023   0.000000   0.000000   0.000000
    13  C   -0.004831  -0.010219   0.014104   0.000707  -0.018914   0.000520
    14  C   -0.210515  -0.205323   0.080430  -0.044614   0.069462   0.018114
    15  C    0.022286  -0.008517  -0.038791   0.003874  -0.000014  -0.004314
    16  C   -0.023427   0.025242  -0.009626   0.000191   0.012800  -0.032747
    17  C   -0.066795   0.103423   0.005995   0.003604   0.062525  -0.071930
    18  C    0.098105  -0.092524  -0.007412   0.013998  -0.139710   0.068753
    19  H    0.000108   0.002376   0.004259  -0.000036   0.000014   0.000191
    20  H    0.002184   0.000118   0.003408  -0.000033   0.000246   0.000007
    21  O    0.000033   0.000042   0.000524  -0.000001   0.000002   0.000045
    22  H    0.000000  -0.000002   0.000034   0.000000   0.000000   0.000000
    23  O    0.000021   0.000027   0.001048  -0.000001  -0.000030   0.000011
    24  H    0.000000   0.000000  -0.000009   0.000000   0.000000   0.000000
    25  O   -0.000001   0.000000  -0.000085   0.000000   0.000001   0.000000
    26  H    0.000000   0.000000  -0.000003   0.000000   0.000000   0.000000
    27  C    0.000000   0.000000  -0.000093   0.000000   0.000000  -0.000001
    28  H    0.000000   0.000000   0.000000   0.000000   0.000000   0.000000
    29  H    0.000000   0.000000   0.000000   0.000000   0.000000   0.000000
    30  H    0.000000   0.000000   0.000000   0.000000   0.000000   0.000000
    31  O    0.000000   0.000000   0.000002   0.000000   0.000000   0.000000
    32  H    0.000000   0.000000   0.000000   0.000000   0.000000   0.000000
    33  H    0.000000   0.000000   0.000000   0.000000   0.000000   0.000000
    34  C    0.000192   0.000019  -0.001536   0.000003   0.000007   0.000020
    35  C    0.000047   0.000123  -0.000136   0.000002   0.000002  -0.000001
    36  H    0.000000   0.000000   0.000001   0.000000   0.000000   0.000000
    37  H    0.000000   0.000000   0.000001   0.000000   0.000000   0.000000
    38  C   -0.000059   0.000005   0.000939  -0.000001  -0.000005  -0.000001
    39  H    0.000000   0.000000   0.000015   0.000000   0.000000   0.000000
    40  H    0.000000   0.000000   0.000001   0.000000   0.000000   0.000000
    41  H    0.000000   0.000000  -0.000001   0.000000   0.000000   0.000000
    42  C    0.528164   0.528987   0.154636  -0.041836  -0.046511  -0.039236
    43  H    0.565375  -0.033685  -0.024632  -0.003307  -0.005030   0.004871
    44  H   -0.033685   0.567073  -0.025964  -0.003332   0.004920  -0.005020
    45  C   -0.024632  -0.025964   5.184343   0.422785   0.415740   0.417896
    46  H   -0.003307  -0.003332   0.422785   0.549904  -0.026843  -0.027044
    47  H   -0.005030   0.004920   0.415740  -0.026843   0.542501  -0.028504
    48  H    0.004871  -0.005020   0.417896  -0.027044  -0.028504   0.541914
 Mulliken atomic charges:
              1
     1  C    0.296508
     2  C   -0.318467
     3  H    0.162317
     4  H    0.156056
     5  C   -0.536282
     6  H    0.150927
     7  C    0.000824
     8  H    0.145038
     9  C   -0.153441
    10  H    0.170107
    11  C   -0.310783
    12  H    0.156890
    13  C    0.263161
    14  C    0.044209
    15  C   -1.261990
    16  C    0.683526
    17  C   -0.163301
    18  C    0.308668
    19  H    0.147799
    20  H    0.146062
    21  O   -0.594962
    22  H    0.447420
    23  O   -0.629508
    24  H    0.473021
    25  O   -0.667567
    26  H    0.446202
    27  C   -0.379778
    28  H    0.164830
    29  H    0.163237
    30  H    0.169643
    31  O   -0.616021
    32  H    0.412948
    33  H    0.157182
    34  C    0.574048
    35  C   -0.478500
    36  H    0.145464
    37  H    0.144717
    38  C   -0.639134
    39  H    0.170710
    40  H    0.155082
    41  H    0.171163
    42  C   -0.054174
    43  H    0.151569
    44  H    0.151129
    45  C   -0.593325
    46  H    0.151799
    47  H    0.157324
    48  H    0.157652
 Sum of Mulliken atomic charges =   0.00000
 Mulliken charges with hydrogens summed into heavy atoms:
              1
     1  C    0.296508
     2  C   -0.000094
     5  C   -0.228172
     7  C    0.145862
     9  C    0.016667
    11  C   -0.153893
    13  C    0.263161
    14  C    0.044209
    15  C   -1.261990
    16  C    0.683526
    17  C   -0.015502
    18  C    0.454731
    21  O   -0.147542
    23  O   -0.156487
    25  O   -0.221365
    27  C    0.117931
    31  O   -0.203073
    34  C    0.574048
    35  C   -0.188320
    38  C   -0.142180
    42  C    0.248524
    45  C   -0.126549
 Sum of Mulliken charges with hydrogens summed into heavy atoms =   0.00000
 Electronic spatial extent (au):  <R**2>=           7193.6694
 Charge=              0.0000 electrons
 Dipole moment (field-independent basis, Debye):
    X=             -2.5338    Y=             -2.9151    Z=              1.1701  Tot=              4.0357
 Quadrupole moment (field-independent basis, Debye-Ang):
   XX=           -106.3492   YY=           -129.4654   ZZ=           -136.3957
   XY=              5.6171   XZ=             12.0612   YZ=              3.1398
 Traceless Quadrupole moment (field-independent basis, Debye-Ang):
   XX=             17.7209   YY=             -5.3953   ZZ=            -12.3256
   XY=              5.6171   XZ=             12.0612   YZ=              3.1398
 Octapole moment (field-independent basis, Debye-Ang**2):
  XXX=            -56.4657  YYY=            -40.9117  ZZZ=             44.7624  XYY=            -24.4075
  XXY=            -25.8944  XXZ=             26.1158  XZZ=             17.9057  YZZ=             -5.4570
  YYZ=            -22.4483  XYZ=             -4.8874
 Hexadecapole moment (field-independent basis, Debye-Ang**3):
 XXXX=          -5678.3608 YYYY=          -2082.5454 ZZZZ=          -1170.8359 XXXY=            122.8366
 XXXZ=            -72.7118 YYYX=            103.2259 YYYZ=             33.5784 ZZZX=            119.3304
 ZZZY=             24.4446 XXYY=          -1464.1121 XXZZ=          -1181.2013 YYZZ=           -564.5215
 XXYZ=            -17.2815 YYXZ=             42.6103 ZZXY=              4.7659
 N-N= 1.979064077402D+03 E-N=-6.291723633215D+03  KE= 9.931626993389D+02

 Test job not archived.
 1\1\GINC-COMPUTE-10-7\SP\RB3LYP\6-31+G(d,p)\C18H26O4\LPASSAGLIA.IQUIR\
 13-Oct-2021\0\\# B3LYP/6-31+G** geom=allcheck test scrf=(pcm,solvent=w
 ater,smd,dovacuum)\\comment\\0,1\C,0,-1.797718013,0.691994824,-2.69947
 7907\C,0,-2.552135848,1.805622551,-1.952885039\H,0,-1.984708425,2.7437
 12985,-1.99725354\H,0,-3.519375363,1.992844272,-2.436106593\C,0,-2.816
 428637,1.451244532,-0.488738794\H,0,-3.307893611,2.30446816,-0.0038162
 72\C,0,-1.524339491,1.086822098,0.271981687\H,0,-0.897973769,1.9875898
 48,0.269230976\C,0,-0.754017792,-0.045951275,-0.478049142\H,0,-1.44472
 8024,-0.897192775,-0.522968015\C,0,-0.478465416,0.337905527,-1.9588040
 41\H,0,0.00827833,-0.514168785,-2.452004099\C,0,0.520099095,-0.5196368
 96,0.232632741\C,0,2.783802443,-1.463444764,1.685669308\C,0,1.56735619
 9,0.337589508,0.606491876\C,0,0.667689884,-1.876286322,0.573435116\C,0
 ,1.777318797,-2.346618343,1.285544873\C,0,2.671155312,-0.116959401,1.3
 32029643\H,0,1.864711741,-3.399904444,1.53640117\H,0,3.4491818,0.59176
 0749,1.605977094\O,0,-0.299289601,-2.770644482,0.196206579\H,0,-0.0782
 44334,-3.643706638,0.557618508\O,0,1.599878275,1.6634188,0.271476247\H
 ,0,1.101312841,1.755851957,-0.569284829\O,0,0.426553983,1.456436162,-2
 .023159974\H,0,0.859609139,1.406674039,-2.896944569\C,0,-1.530543577,1
 .125267419,-4.145785902\H,0,-2.471817975,1.28107854,-4.685674283\H,0,-
 0.988668517,0.34283721,-4.689095354\H,0,-0.951107982,2.052100531,-4.20
 0649602\O,0,-2.623326021,-0.47680558,-2.759265134\H,0,-3.479915593,-0.
 224928367,-3.14594445\H,0,-3.529715149,0.617752047,-0.444882085\C,0,-1
 .873108186,0.78487348,1.731019727\C,0,-2.408785235,-0.376368706,2.1450
 55468\H,0,-2.634655854,-0.556512415,3.191325828\H,0,-2.629659272,-1.18
 3520043,1.453548994\C,0,-1.571422219,1.887671204,2.70964158\H,0,-0.499
 652143,2.111043818,2.711659135\H,0,-1.857634927,1.6219996,3.732751682\
 H,0,-2.117411851,2.796585491,2.437020473\C,0,3.985765246,-1.956580366,
 2.447417503\H,0,4.34676649,-1.167787354,3.118673551\H,0,3.694774384,-2
 .793920725,3.093366543\C,0,5.106887783,-2.391530535,1.516046141\H,0,5.
 965363039,-2.744329306,2.096265709\H,0,5.442297434,-1.56247539,0.88370
 2782\H,0,4.783940613,-3.205872441,0.858598683\\Version=EM64L-G09RevC.0
 1\State=1-A\HF=-1002.5563098\RMSD=6.783e-09\Dipole=-0.4190618,-0.24679
 01,-1.5114702\Quadrupole=-2.9613994,-0.6904728,3.6518722,-9.6143305,5.
 2924202,-10.4109621\PG=C01 [X(C18H26O4)]\\@


 IF YOU GIVE A BOY AND A PIG EVERYTHING THEY WANT,
 YOU'LL GET A BAD BOY AND A GOOD PIG.
 Job cpu time:  0 days  1 hours  2 minutes 32.7 seconds.
 File lengths (MBytes):  RWF=    241 Int=      0 D2E=      0 Chk=     19 Scr=      1
 Normal termination of Gaussian 09 at Wed Oct 13 02:12:09 2021.
