 Entering Gaussian System, Link 0=g09
 Input=/home/lpassaglia.iquir/Link1/02_RSSS_THC_009.gjc
 Output=/home/lpassaglia.iquir/Link1/02_RSSS_THC_009.log
 Initial command:
 /share/apps/Gaussian09/EM64T.SSE4.2-enabled/g09/l1.exe /tmp/Gau-3816.inp -scrdir=/tmp/
 Entering Link 1 = /share/apps/Gaussian09/EM64T.SSE4.2-enabled/g09/l1.exe PID=      3817.
  
 Copyright (c) 1988,1990,1992,1993,1995,1998,2003,2009,2011,
            Gaussian, Inc.  All Rights Reserved.
  
 This is part of the Gaussian(R) 09 program.  It is based on
 the Gaussian(R) 03 system (copyright 2003, Gaussian, Inc.),
 the Gaussian(R) 98 system (copyright 1998, Gaussian, Inc.),
 the Gaussian(R) 94 system (copyright 1995, Gaussian, Inc.),
 the Gaussian 92(TM) system (copyright 1992, Gaussian, Inc.),
 the Gaussian 90(TM) system (copyright 1990, Gaussian, Inc.),
 the Gaussian 88(TM) system (copyright 1988, Gaussian, Inc.),
 the Gaussian 86(TM) system (copyright 1986, Carnegie Mellon
 University), and the Gaussian 82(TM) system (copyright 1983,
 Carnegie Mellon University). Gaussian is a federally registered
 trademark of Gaussian, Inc.
  
 This software contains proprietary and confidential information,
 including trade secrets, belonging to Gaussian, Inc.
  
 This software is provided under written license and may be
 used, copied, transmitted, or stored only in accord with that
 written license.
  
 The following legend is applicable only to US Government
 contracts under FAR:
  
                    RESTRICTED RIGHTS LEGEND
  
 Use, reproduction and disclosure by the US Government is
 subject to restrictions as set forth in subparagraphs (a)
 and (c) of the Commercial Computer Software - Restricted
 Rights clause in FAR 52.227-19.
  
 Gaussian, Inc.
 340 Quinnipiac St., Bldg. 40, Wallingford CT 06492
  
  
 ---------------------------------------------------------------
 Warning -- This program may not be used in any manner that
 competes with the business of Gaussian, Inc. or will provide
 assistance to any competitor of Gaussian, Inc.  The licensee
 of this program is prohibited from giving any competitor of
 Gaussian, Inc. access to this program.  By using this program,
 the user acknowledges that Gaussian, Inc. is engaged in the
 business of creating and licensing software in the field of
 computational chemistry and represents and warrants to the
 licensee that it is not a competitor of Gaussian, Inc. and that
 it will not use this program in any manner prohibited above.
 ---------------------------------------------------------------
  

 Cite this work as:
 Gaussian 09, Revision C.01,
 M. J. Frisch, G. W. Trucks, H. B. Schlegel, G. E. Scuseria, 
 M. A. Robb, J. R. Cheeseman, G. Scalmani, V. Barone, B. Mennucci, 
 G. A. Petersson, H. Nakatsuji, M. Caricato, X. Li, H. P. Hratchian, 
 A. F. Izmaylov, J. Bloino, G. Zheng, J. L. Sonnenberg, M. Hada, 
 M. Ehara, K. Toyota, R. Fukuda, J. Hasegawa, M. Ishida, T. Nakajima, 
 Y. Honda, O. Kitao, H. Nakai, T. Vreven, J. A. Montgomery, Jr., 
 J. E. Peralta, F. Ogliaro, M. Bearpark, J. J. Heyd, E. Brothers, 
 K. N. Kudin, V. N. Staroverov, T. Keith, R. Kobayashi, J. Normand, 
 K. Raghavachari, A. Rendell, J. C. Burant, S. S. Iyengar, J. Tomasi, 
 M. Cossi, N. Rega, J. M. Millam, M. Klene, J. E. Knox, J. B. Cross, 
 V. Bakken, C. Adamo, J. Jaramillo, R. Gomperts, R. E. Stratmann, 
 O. Yazyev, A. J. Austin, R. Cammi, C. Pomelli, J. W. Ochterski, 
 R. L. Martin, K. Morokuma, V. G. Zakrzewski, G. A. Voth, 
 P. Salvador, J. J. Dannenberg, S. Dapprich, A. D. Daniels, 
 O. Farkas, J. B. Foresman, J. V. Ortiz, J. Cioslowski, 
 and D. J. Fox, Gaussian, Inc., Wallingford CT, 2010.
 
 ******************************************
 Gaussian 09:  EM64L-G09RevC.01 23-Sep-2011
                23-Dec-2022 
 ******************************************
 %chk=02_RSSS_THC_009_optB_NMR
 %nprocshared=4
 Will use up to    4 processors via shared memory.
 ------------------------------------------------
 # mPW1PW91/6-31+G** scrf=(PCM,solvent=water) nmr
 ------------------------------------------------
 1/38=1/1;
 2/12=2,17=6,18=5,40=1/2;
 3/5=1,6=6,7=111,11=2,16=1,25=1,30=1,70=2201,72=1,74=-7/1,2,8,3;
 4//1;
 5/5=2,38=5,53=1/2;
 8/6=1,10=90,11=11/1;
 10/13=100,45=16/2;
 6/7=2,8=2,9=2,10=2,28=1/1;
 99/9=1/99;
 -------
 comment
 -------
 Charge =  0 Multiplicity = 1
 Symbolic Z-Matrix:
 6                     1.72073   2.44823  -1.68954 
 6                     0.98257   3.46982  -0.82053 
 1                     1.53837   4.41642  -0.79974 
 1                     0.02467   3.7282   -1.2852 
 6                     0.76308   2.98095   0.60787 
 1                     1.73269   2.98015   1.1232 
 6                     0.15465   1.56416   0.73162 
 1                     0.38214   1.28298   1.76902 
 6                     0.88813   0.52022  -0.18858 
 1                     1.92713   0.45014   0.1646 
 6                     1.00157   1.07588  -1.62864 
 1                     0.01      1.19049  -2.07657 
 6                     0.35347  -0.90772   0.01699 
 6                    -0.74023  -3.47906   0.62435 
 6                     0.56492  -1.53929   1.26105 
 6                    -0.36669  -1.64926  -0.92967 
 6                    -0.92905  -2.89432  -0.629 
 6                     0.02562  -2.7943    1.56904 
 1                    -1.4989   -3.41243  -1.39719 
 1                     0.19139  -3.24254   2.54441 
 8                    -0.52831  -1.25128  -2.22592 
 1                     0.3583   -0.93561  -2.50834 
 8                     1.33223  -0.90724   2.20701 
 1                     1.42487  -1.49407   2.97504 
 8                     1.69203   0.1534   -2.49758 
 1                     1.91046   0.68909  -3.29048 
 6                     3.21191   2.37201  -1.32913 
 1                     3.68737   3.35182  -1.45706 
 1                     3.74694   1.68956  -1.99874 
 1                     3.38556   2.04942  -0.29949 
 8                     1.6639    2.87873  -3.06378 
 1                     2.01607   3.78604  -3.10413 
 1                     0.14435   3.70918   1.14764 
 6                    -1.37877   1.57641   0.65596 
 6                    -2.11212   1.97633  -0.39641 
 1                    -3.19828   1.9474   -0.36691 
 1                    -1.68354   2.32846  -1.32464 
 6                    -2.08118   1.09918   1.90494 
 1                    -1.81553   0.06145   2.12553 
 1                    -3.17156   1.14625   1.81242 
 1                    -1.79677   1.7222    2.75939 
 6                    -1.35769  -4.81354   0.94854 
 1                    -1.41398  -5.42603   0.04039 
 1                    -0.70956  -5.36137   1.64342 
 6                    -2.74546  -4.66087   1.55214 
 1                    -3.17019  -5.64407   1.77797 
 1                    -3.42445  -4.14809   0.86239 
 1                    -2.71288  -4.08344   2.48233 
 
                          Input orientation:                          
 ---------------------------------------------------------------------
 Center     Atomic      Atomic             Coordinates (Angstroms)
 Number     Number       Type             X           Y           Z
 ---------------------------------------------------------------------
      1          6           0        1.720729    2.448234   -1.689543
      2          6           0        0.982570    3.469816   -0.820533
      3          1           0        1.538374    4.416422   -0.799739
      4          1           0        0.024671    3.728201   -1.285202
      5          6           0        0.763085    2.980952    0.607873
      6          1           0        1.732692    2.980145    1.123202
      7          6           0        0.154649    1.564157    0.731622
      8          1           0        0.382137    1.282982    1.769021
      9          6           0        0.888134    0.520217   -0.188581
     10          1           0        1.927126    0.450137    0.164600
     11          6           0        1.001570    1.075877   -1.628640
     12          1           0        0.009996    1.190489   -2.076566
     13          6           0        0.353471   -0.907720    0.016987
     14          6           0       -0.740228   -3.479059    0.624347
     15          6           0        0.564918   -1.539294    1.261054
     16          6           0       -0.366691   -1.649264   -0.929673
     17          6           0       -0.929045   -2.894324   -0.629003
     18          6           0        0.025621   -2.794303    1.569036
     19          1           0       -1.498905   -3.412430   -1.397189
     20          1           0        0.191394   -3.242544    2.544411
     21          8           0       -0.528310   -1.251284   -2.225921
     22          1           0        0.358304   -0.935611   -2.508340
     23          8           0        1.332232   -0.907242    2.207013
     24          1           0        1.424868   -1.494066    2.975042
     25          8           0        1.692030    0.153402   -2.497579
     26          1           0        1.910465    0.689089   -3.290479
     27          6           0        3.211909    2.372012   -1.329129
     28          1           0        3.687374    3.351823   -1.457062
     29          1           0        3.746935    1.689561   -1.998741
     30          1           0        3.385563    2.049419   -0.299493
     31          8           0        1.663903    2.878732   -3.063780
     32          1           0        2.016074    3.786038   -3.104126
     33          1           0        0.144350    3.709176    1.147637
     34          6           0       -1.378770    1.576408    0.655959
     35          6           0       -2.112119    1.976332   -0.396409
     36          1           0       -3.198278    1.947400   -0.366914
     37          1           0       -1.683537    2.328455   -1.324642
     38          6           0       -2.081182    1.099179    1.904944
     39          1           0       -1.815535    0.061445    2.125530
     40          1           0       -3.171565    1.146251    1.812417
     41          1           0       -1.796773    1.722205    2.759389
     42          6           0       -1.357685   -4.813542    0.948544
     43          1           0       -1.413978   -5.426034    0.040394
     44          1           0       -0.709556   -5.361369    1.643422
     45          6           0       -2.745460   -4.660868    1.552143
     46          1           0       -3.170190   -5.644073    1.777974
     47          1           0       -3.424452   -4.148090    0.862391
     48          1           0       -2.712882   -4.083439    2.482333
 ---------------------------------------------------------------------
                    Distance matrix (angstroms):
                    1          2          3          4          5
     1  C    0.000000
     2  C    1.530910   0.000000
     3  H    2.167664   1.097913   0.000000
     4  H    2.162965   1.095559   1.732229   0.000000
     5  C    2.545386   1.525617   2.154767   2.165034   0.000000
     6  H    2.862622   2.140226   2.407977   3.045871   1.098045
     7  C    3.015997   2.593487   3.520679   2.961007   1.546873
     8  H    3.887327   3.442173   4.213533   3.928760   2.092005
     9  C    2.581347   3.018015   3.997091   3.498472   2.589438
    10  H    2.733650   3.313779   4.100304   4.057951   2.820728
    11  C    1.550569   2.526725   3.483458   2.847298   2.947572
    12  H    2.158314   2.778282   3.791157   2.658281   3.313475
    13  C    4.005505   4.501113   5.515208   4.826548   3.954579
    14  C    6.822258   7.303600   8.340184   7.495068   6.632644
    15  C    5.093359   5.440461   6.376915   5.875525   4.571492
    16  C    4.660925   5.295035   6.359143   5.403397   5.007928
    17  C    6.057143   6.647799   7.717792   6.722946   6.237951
    18  C    6.401244   6.772369   7.739126   7.119672   5.900954
    19  H    6.693198   7.338634   8.418606   7.302221   7.071930
    20  H    7.256045   7.550138   8.465072   7.955188   6.542851
    21  O    4.362604   5.152344   6.199037   5.097648   5.254513
    22  H    3.738589   4.758801   5.740744   4.833066   5.021364
    23  O    5.156869   5.333567   6.117553   5.949169   4.242550
    24  H    6.114542   6.264355   7.013967   6.883481   5.105608
    25  O    2.433106   3.783440   4.591254   4.126637   4.301373
    26  H    2.386124   3.833283   4.498360   4.100434   4.665433
    27  C    1.536009   2.536492   2.694547   3.464053   3.181120
    28  H    2.176743   2.781197   2.486694   3.685999   3.599024
    29  H    2.185566   3.492734   3.708249   4.303538   4.167192
    30  H    2.205213   2.839610   3.043856   3.884009   2.927193
    31  O    1.441210   2.417799   2.739731   2.563595   3.781925
    32  H    1.969262   2.526444   2.436345   2.697687   3.999635
    33  H    3.482031   2.152580   2.497153   2.435856   1.097492
    34  C    3.983511   3.367633   4.323710   3.219933   2.561757
    35  C    4.072544   3.462293   4.409401   2.902563   3.206967
    36  H    5.118282   4.472473   5.359037   3.794985   4.208424
    37  H    3.425862   2.943630   3.875028   2.208805   3.185330
    38  C    5.403222   4.736530   5.605408   4.639332   3.648741
    39  H    5.723347   5.303364   6.226695   5.335218   4.180440
    40  H    6.155763   5.439505   6.300865   5.145642   4.505387
    41  H    5.717774   4.857441   5.572199   4.868305   3.573001
    42  C    8.316822   8.787516   9.830355   8.936549   8.085039
    43  H    8.650039   9.253150  10.310003   9.360926   8.702819
    44  H    8.832036   9.323315  10.326056   9.577903   8.534363
    45  C    8.999706   9.253962  10.309208   9.279043   8.461615
    46  H   10.071256  10.347010  11.403014  10.364830   9.551483
    47  H    8.746242   8.960277  10.037090   8.862537   8.271849
    48  H    8.928842   9.034210  10.054492   9.094517   8.093303
                    6          7          8          9         10
     6  H    0.000000
     7  C    2.156056   0.000000
     8  H    2.263061   1.098639   0.000000
     9  C    2.912954   1.573081   2.161030   0.000000
    10  H    2.712501   2.168923   2.377980   1.099615   0.000000
    11  C    3.425407   2.554707   3.459869   1.547707   2.112798
    12  H    4.050811   2.836631   3.864659   2.187436   3.040779
    13  C    4.271001   2.580776   2.805284   1.538547   2.083736
    14  C    6.934372   5.123118   5.024642   4.393931   4.771240
    15  C    4.669907   3.174906   2.873445   2.539192   2.648709
    16  C    5.482074   3.654828   4.054844   2.613513   3.296440
    17  C    6.683147   4.785785   4.991954   3.892968   4.469109
    18  C    6.037972   4.440054   4.097725   3.849570   4.014294
    19  H    7.593458   5.659725   5.967420   4.756511   5.394098
    20  H    6.566376   5.137307   4.595432   4.702453   4.723574
    21  O    5.850961   4.140072   4.817778   3.048816   3.826041
    22  H    5.514544   4.097276   4.818563   2.789523   3.395013
    23  O    4.055465   3.109870   2.427262   2.823780   2.523455
    24  H    4.852075   3.999890   3.202151   3.788658   3.454095
    25  O    4.593712   3.844673   4.603874   2.472301   2.688963
    26  H    4.976055   4.475033   5.318556   3.270389   3.463372
    27  C    2.927770   3.774409   4.334989   3.182754   2.752362
    28  H    3.258327   4.523962   5.060861   4.178849   3.761389
    29  H    3.933104   4.513881   5.067860   3.580054   3.086733
    30  H    2.371138   3.426001   3.726493   2.930515   2.213623
    31  O    4.188775   4.290808   5.248363   3.798839   4.048432
    32  H    4.312780   4.807766   5.716870   4.520866   4.671265
    33  H    1.747831   2.185014   2.515766   3.536687   3.842654
    34  C    3.445285   1.535334   2.103758   2.639629   3.526878
    35  C    4.254342   2.565264   3.375075   3.341403   4.354251
    36  H    5.253710   3.549053   4.221734   4.332137   5.366011
    37  H    4.252912   2.862045   3.864036   3.342731   4.333914
    38  C    4.323746   2.567456   2.473903   3.678978   4.417758
    39  H    4.702487   2.843017   2.539490   3.588231   4.243093
    40  H    5.281090   3.522280   3.556595   4.569142   5.403381
    41  H    4.088599   2.818664   2.433391   4.164616   4.713651
    42  C    8.385851   6.558144   6.392790   5.897944   6.253868
    43  H    9.040899   7.197302   7.157170   6.380443   6.760754
    44  H    8.707242   7.038547   6.734611   6.364111   6.550772
    45  C    8.866956   6.916272   6.719989   6.563289   7.062628
    46  H    9.942038   8.006746   7.784806   7.637788   8.107096
    47  H    8.802039   6.742168   6.693926   6.441741   7.090133
    48  H    8.456038   6.571382   6.235899   6.426099   6.888750
                   11         12         13         14         15
    11  C    0.000000
    12  H    1.094072   0.000000
    13  C    2.657589   2.983860   0.000000
    14  C    5.371895   5.446324   2.859519   0.000000
    15  C    3.921749   4.347340   1.411133   2.423116   0.000000
    16  C    3.128432   3.085685   1.401673   2.429538   2.383122
    17  C    4.526482   4.434290   2.451275   1.395870   2.764118
    18  C    5.114284   5.400854   2.464861   1.395656   1.400265
    19  H    5.143038   4.891338   3.421222   2.160239   3.851526
    20  H    6.059662   6.406100   3.444640   2.147209   2.165083
    21  O    2.848325   2.504862   2.434381   3.623799   3.665664
    22  H    2.287739   2.197282   2.525486   4.182060   3.823016
    23  O    4.330627   4.949529   2.398788   3.662535   1.372261
    24  H    5.289393   5.892999   3.200278   3.762128   1.918154
    25  O    1.443173   2.020406   3.039862   5.371878   4.273514
    26  H    1.933236   2.310144   3.989155   6.302816   5.243342
    27  C    2.579781   3.493838   4.554046   7.326014   5.386458
    28  H    3.524615   4.310251   5.606374   8.402195   6.407879
    29  H    2.837360   3.770921   4.724894   7.330066   5.583637
    30  H    2.897903   3.910270   4.247165   6.959864   4.823921
    31  O    2.397623   2.561282   5.054263   7.733281   6.279404
    32  H    3.248268   3.437601   5.876815   8.618604   7.037031
    33  H    3.921328   4.093572   4.757923   7.261339   5.266515
    34  C    3.337057   3.089385   3.095131   5.095732   3.721782
    35  C    3.467603   2.818483   3.816777   5.717107   4.719463
    36  H    4.471044   3.713333   4.573184   6.039127   5.382282
    37  H    2.978451   2.174492   4.052432   6.198033   5.167287
    38  C    4.689363   4.498198   3.676895   4.939468   3.791830
    39  H    4.801973   4.718571   3.176448   3.993120   2.996038
    40  H    5.409333   5.024786   4.457381   5.358769   4.634378
    41  H    5.244356   5.189759   4.365870   5.720825   4.296506
    42  C    6.847862   6.860775   4.364780   1.505723   3.809824
    43  H    7.134101   7.091375   4.851762   2.141414   4.529105
    44  H    7.421084   7.568548   4.859045   2.140689   4.047067
    45  C    7.554327   7.416093   5.103548   2.505680   4.559337
    46  H    8.611988   8.466540   6.160382   3.452949   5.573818
    47  H    7.285928   6.995236   5.048506   2.776567   4.783285
    48  H    7.570720   7.484112   5.056248   2.776463   4.325294
                   16         17         18         19         20
    16  C    0.000000
    17  C    1.398863   0.000000
    18  C    2.776431   2.398493   0.000000
    19  H    2.146912   1.087788   3.391865   0.000000
    20  H    3.862546   3.383371   1.086166   4.292107   0.000000
    21  O    1.365565   2.326008   4.133938   2.509861   5.219115
    22  H    1.878060   3.004285   4.493374   3.289150   5.556986
    23  O    3.643588   4.135802   2.382277   5.223176   2.620874
    24  H    4.298903   4.526673   2.371784   5.598657   2.182675
    25  O    3.153770   4.432859   5.291809   4.909998   6.261471
    26  H    4.028242   5.290285   6.269094   5.659576   7.242850
    27  C    5.397833   6.735872   6.726262   7.460306   7.459964
    28  H    6.459447   7.810977   7.767920   8.523860   8.468727
    29  H    5.404867   6.689767   6.832441   7.342412   7.589978
    30  H    5.306298   6.570009   6.184033   7.409100   6.804070
    31  O    5.401895   6.780833   7.505350   7.235993   8.431495
    32  H    6.320468   7.708903   8.312715   8.190644   9.199803
    33  H    5.769685   6.922055   6.518199   7.739102   7.090811
    34  C    3.734099   4.673417   4.680720   5.396142   5.408693
    35  C    4.059043   5.017673   5.584967   5.515101   6.418041
    36  H    4.612003   5.353540   6.051873   5.716389   6.848445
    37  H    4.208603   5.322649   6.126765   5.744312   7.037114
    38  C    4.304471   4.867892   4.439668   5.621187   4.942072
    39  H    3.789451   4.136410   3.443085   4.957581   3.888389
    40  H    4.816771   5.226440   5.080275   5.820733   5.577350
    41  H    5.198184   5.791933   5.013671   6.612892   5.352359
    42  C    3.810830   2.521069   2.525049   2.735968   2.722953
    43  H    4.037553   2.663233   3.366779   2.475572   3.689845
    44  H    4.529691   3.361311   2.671301   3.696857   2.472431
    45  C    4.570308   3.343268   3.341143   3.436722   3.409011
    46  H    5.581170   4.286886   4.286963   4.225528   4.201788
    47  H    4.336534   3.165950   3.772942   3.058534   4.089444
    48  H    4.803291   3.778423   3.161547   4.120034   3.024199
                   21         22         23         24         25
    21  O    0.000000
    22  H    0.982595   0.000000
    23  O    4.819843   4.814966   0.000000
    24  H    5.560922   5.613992   0.970985   0.000000
    25  O    2.641373   1.721886   4.836073   5.721460   0.000000
    26  H    3.293319   2.379200   5.753697   6.652722   0.981511
    27  C    5.284103   4.524817   5.176001   6.055243   2.932156
    28  H    6.289017   5.529013   6.091944   6.945871   3.910751
    29  H    5.194026   4.316717   5.501140   6.345549   2.613668
    30  H    5.470299   4.791004   4.386409   5.207993   3.360732
    31  O    4.750246   4.069683   6.498066   7.459616   2.783667
    32  H    5.711370   5.039557   7.120584   8.073742   3.697154
    33  H    6.036517   5.914897   4.883100   5.661525   5.322260
    34  C    4.126058   4.397779   3.990466   4.760918   4.625966
    35  C    4.033989   4.363789   5.191951   5.993381   4.712699
    36  H    4.562478   5.054377   5.941347   6.662269   5.627901
    37  H    3.867995   4.027951   5.660140   6.539200   4.183431
    38  C    5.000013   5.437696   3.970940   4.490258   5.874847
    39  H    4.723910   5.214638   3.294455   3.693440   5.803844
    40  H    5.389169   5.955087   4.965554   5.426801   6.573916
    41  H    5.941712   6.281506   4.124292   4.557398   6.501431
    42  C    4.843013   5.471107   4.906992   4.782072   6.771046
    43  H    4.832094   5.459022   5.714490   5.668472   6.871586
    44  H    5.647785   6.161557   4.932117   4.613568   7.302617
    45  C    5.551107   6.324430   5.580872   5.426316   7.698621
    46  H    6.504406   7.279586   6.549309   6.306353   8.690929
    47  H    5.129990   5.999257   5.910765   5.918026   7.481352
    48  H    5.912792   6.651903   5.150435   4.905975   7.883755
                   26         27         28         29         30
    26  H    0.000000
    27  C    2.893593   0.000000
    28  H    3.689035   1.096569   0.000000
    29  H    2.458080   1.095615   1.749308   0.000000
    30  H    3.601723   1.092874   1.768421   1.774128   0.000000
    31  O    2.215113   2.379517   2.626745   2.624397   3.360530
    32  H    3.104348   2.565171   2.386337   2.934787   3.571738
    33  H    5.651280   4.163207   4.411936   5.192028   3.918475
    34  C    5.213518   5.064375   5.769123   5.773482   4.882162
    35  C    5.119942   5.419575   6.054013   6.080972   5.499022
    36  H    6.019122   6.495895   7.111472   7.139000   6.584977
    37  H    4.412357   4.895642   5.469141   5.509322   5.179245
    38  C    6.564589   6.332151   7.046540   7.039478   5.970578
    39  H    6.603799   6.522927   7.344628   7.113469   6.073236
    40  H    7.216340   7.219455   7.911958   7.917433   6.947791
    41  H    7.170205   6.498086   7.107038   7.305721   6.026644
    42  C    7.676527   8.814827   9.895087   8.776901   8.435416
    43  H    7.716305   9.169730  10.262405   9.023569   8.890080
    44  H    8.235043   9.166195  10.240397   9.101719   8.687043
    45  C    8.587820   9.656779  10.707002   9.751304   9.276096
    46  H    9.571374  10.707142  11.765109  10.765333  10.319089
    47  H    8.312999   9.558021  10.592763   9.679517   9.280916
    48  H    8.802142   9.555273  10.571908   9.753809   9.085237
                   31         32         33         34         35
    31  O    0.000000
    32  H    0.974092   0.000000
    33  H    4.553539   4.646154   0.000000
    34  C    4.978992   5.526813   2.666523   0.000000
    35  C    4.710364   5.258207   3.237048   1.343584   0.000000
    36  H    5.637488   6.169472   4.070735   2.120027   1.086945
    37  H    3.812186   4.356401   3.370419   2.140383   1.081336
    38  C    6.471529   7.006960   3.512633   1.510329   2.463043
    39  H    6.853651   7.476838   4.254805   2.155345   3.180398
    40  H    7.082410   7.619216   4.243325   2.176360   2.586575
    41  H    6.871909   7.292326   3.211504   2.149512   3.181680
    42  C    9.186938  10.087574   8.656355   6.396680   6.962791
    43  H    9.385009  10.320636   9.333084   7.029535   7.448035
    44  H    9.782144  10.660363   9.124131   7.039580   7.744027
    45  C    9.879008  10.756545   8.864100   6.447837   6.946250
    46  H   10.929284  11.817750   9.943177   7.523526   7.994875
    47  H    9.522731  10.405910   8.634486   6.082541   6.388688
    48  H    9.919044  10.747102   8.406548   6.095028   6.735644
                   36         37         38         39         40
    36  H    0.000000
    37  H    1.832180   0.000000
    38  C    2.669967   3.478428   0.000000
    39  H    3.417759   4.130429   1.093671   0.000000
    40  H    2.322076   3.667829   1.095314   1.764557   0.000000
    41  H    3.433468   4.130335   1.095046   1.777710   1.765936
    42  C    7.129414   7.502112   6.033110   5.035913   6.289322
    43  H    7.597181   7.878331   6.819100   5.884002   7.030229
    44  H    7.978301   8.300087   6.609723   5.555406   6.959826
    45  C    6.896160   7.632445   5.808948   4.847038   5.828545
    46  H    7.888713   8.683177   6.831801   5.874421   6.790412
    47  H    6.222326   7.054044   5.515897   4.680205   5.384845
    48  H    6.687663   7.527616   5.252805   4.255891   5.292338
                   41         42         43         44         45
    41  H    0.000000
    42  C    6.796171   0.000000
    43  H    7.657466   1.096838   0.000000
    44  H    7.252892   1.096833   1.752168   0.000000
    45  C    6.565140   1.521039   2.154928   2.154980   0.000000
    46  H    7.557215   2.159377   2.480122   2.480473   1.094572
    47  H    6.380306   2.172964   2.520085   3.074527   1.095321
    48  H    5.884005   2.173042   3.074537   2.519958   1.095325
                   46         47         48
    46  H    0.000000
    47  H    1.772260   0.000000
    48  H    1.772239   1.770515   0.000000
 Stoichiometry    C18H26O4
 Framework group  C1[X(C18H26O4)]
 Deg. of freedom   138
 Full point group                 C1      NOp   1
 Largest Abelian subgroup         C1      NOp   1
 Largest concise Abelian subgroup C1      NOp   1
                         Standard orientation:                         
 ---------------------------------------------------------------------
 Center     Atomic      Atomic             Coordinates (Angstroms)
 Number     Number       Type             X           Y           Z
 ---------------------------------------------------------------------
      1          6           0        3.296288   -0.621171    0.078517
      2          6           0        3.601466    0.863283   -0.138162
      3          1           0        4.621607    1.089939    0.198516
      4          1           0        3.614311    1.086207   -1.210725
      5          6           0        2.616390    1.779694    0.581090
      6          1           0        2.812705    1.715728    1.659547
      7          6           0        1.122787    1.452519    0.346736
      8          1           0        0.618720    1.977002    1.170048
      9          6           0        0.813796   -0.078666    0.532689
     10          1           0        1.031516   -0.328504    1.581180
     11          6           0        1.819784   -0.922158   -0.287008
     12          1           0        1.690374   -0.742213   -1.358393
     13          6           0       -0.688741   -0.384648    0.406651
     14          6           0       -3.524189   -0.700164    0.212915
     15          6           0       -1.570073    0.127479    1.382498
     16          6           0       -1.283736   -1.119732   -0.627911
     17          6           0       -2.671411   -1.252605   -0.744182
     18          6           0       -2.959966   -0.015460    1.290266
     19          1           0       -3.076688   -1.814578   -1.582763
     20          1           0       -3.610555    0.409172    2.049330
     21          8           0       -0.566903   -1.808354   -1.564244
     22          1           0        0.138454   -2.268434   -1.057991
     23          8           0       -1.051085    0.786493    2.468524
     24          1           0       -1.779165    1.023058    3.065808
     25          8           0        1.581676   -2.335871   -0.121267
     26          1           0        2.392912   -2.758693   -0.476908
     27          6           0        3.678997   -1.076088    1.494817
     28          1           0        4.747060   -0.906235    1.676081
     29          1           0        3.521098   -2.152866    1.621264
     30          1           0        3.121327   -0.553055    2.275723
     31          8           0        4.107367   -1.399527   -0.823369
     32          1           0        5.036466   -1.144048   -0.680674
     33          1           0        2.825393    2.821370    0.305920
     34          6           0        0.573105    2.105919   -0.929261
     35          6           0        0.991218    1.860870   -2.182398
     36          1           0        0.541543    2.366622   -3.032961
     37          1           0        1.770221    1.151158   -2.424782
     38          6           0       -0.526059    3.116855   -0.703562
     39          1           0       -1.392083    2.647081   -0.228765
     40          1           0       -0.870880    3.571724   -1.638390
     41          1           0       -0.168503    3.925229   -0.057178
     42          6           0       -5.017801   -0.834402    0.077616
     43          1           0       -5.261099   -1.781940   -0.418399
     44          1           0       -5.475543   -0.887523    1.072951
     45          6           0       -5.619437    0.323763   -0.703569
     46          1           0       -6.703970    0.201376   -0.786622
     47          1           0       -5.205378    0.377569   -1.716183
     48          1           0       -5.422793    1.281209   -0.209237
 ---------------------------------------------------------------------
 Rotational constants (GHZ):      0.4966210      0.1852893      0.1695742
 Standard basis: 6-31+G(d,p) (6D, 7F)
 There are   548 symmetry adapted basis functions of A   symmetry.
 Integral buffers will be    131072 words long.
 Raffenetti 2 integral format.
 Two-electron integral symmetry is turned on.
   548 basis functions,   886 primitive gaussians,   548 cartesian basis functions
    83 alpha electrons       83 beta electrons
       nuclear repulsion energy      1984.2927793090 Hartrees.
 NAtoms=   48 NActive=   48 NUniq=   48 SFac= 1.00D+00 NAtFMM=   60 NAOKFM=F Big=F
 ------------------------------------------------------------------------------
 Polarizable Continuum Model (PCM)
 =================================
 Model                : PCM.
 Atomic radii         : UFF (Universal Force Field).
 Polarization charges : Total charges.
 Charge compensation  : None.
 Solution method      : Matrix inversion.
 Cavity type          : Scaled VdW (van der Waals Surface) (Alpha=1.100).
 Cavity algorithm     : GePol (No added spheres)
                        Default sphere list used, NSphG=   48.
                        Lebedev-Laikov grids with approx.  5.0 points / Ang**2.
                        Smoothing algorithm: Karplus/York (Gamma=1.0000).
                        Polarization charges: spherical gaussians, with
                                              point-specific exponents (IZeta= 3).
                        Self-potential: point-specific (ISelfS= 7).
                        Self-field    : sphere-specific E.n sum rule (ISelfD= 2).
 Solvent              : Water, Eps=  78.355300 Eps(inf)=   1.777849
 ------------------------------------------------------------------------------
 One-electron integrals computed using PRISM.
 NBasis=   548 RedAO= T  NBF=   548
 NBsUse=   545 1.00D-06 NBFU=   545
 Harris functional with IExCor=  908 diagonalized for initial guess.
 ExpMin= 4.38D-02 ExpMax= 5.48D+03 ExpMxC= 8.25D+02 IAcc=2 IRadAn=         4 AccDes= 0.00D+00
 HarFok:  IExCor=  908 AccDes= 0.00D+00 IRadAn=         4 IDoV= 1
 ScaDFX=  1.000000  1.000000  1.000000  1.000000
 FoFCou: FMM=F IPFlag=           0 FMFlag=      100000 FMFlg1=           0
         NFxFlg=           0 DoJE=T BraDBF=F KetDBF=T FulRan=T
         Omega=  0.000000  0.000000  1.000000  0.000000  0.000000 ICntrl=     500 IOpCl=  0
         NMat0=    1 NMatS0=    1 NMatT0=    0 NMatD0=    1 NMtDS0=    0 NMtDT0=    0
         I1Cent=           4 NGrid=           0.
 Petite list used in FoFCou.
 Initial guess orbital symmetries:
       Occupied  (A) (A) (A) (A) (A) (A) (A) (A) (A) (A) (A) (A)
                 (A) (A) (A) (A) (A) (A) (A) (A) (A) (A) (A) (A)
                 (A) (A) (A) (A) (A) (A) (A) (A) (A) (A) (A) (A)
                 (A) (A) (A) (A) (A) (A) (A) (A) (A) (A) (A) (A)
                 (A) (A) (A) (A) (A) (A) (A) (A) (A) (A) (A) (A)
                 (A) (A) (A) (A) (A) (A) (A) (A) (A) (A) (A) (A)
                 (A) (A) (A) (A) (A) (A) (A) (A) (A) (A) (A)
       Virtual   (A) (A) (A) (A) (A) (A) (A) (A) (A) (A) (A) (A)
                 (A) (A) (A) (A) (A) (A) (A) (A) (A) (A) (A) (A)
                 (A) (A) (A) (A) (A) (A) (A) (A) (A) (A) (A) (A)
                 (A) (A) (A) (A) (A) (A) (A) (A) (A) (A) (A) (A)
                 (A) (A) (A) (A) (A) (A) (A) (A) (A) (A) (A) (A)
                 (A) (A) (A) (A) (A) (A) (A) (A) (A) (A) (A) (A)
                 (A) (A) (A) (A) (A) (A) (A) (A) (A) (A) (A) (A)
                 (A) (A) (A) (A) (A) (A) (A) (A) (A) (A) (A) (A)
                 (A) (A) (A) (A) (A) (A) (A) (A) (A) (A) (A) (A)
                 (A) (A) (A) (A) (A) (A) (A) (A) (A) (A) (A) (A)
                 (A) (A) (A) (A) (A) (A) (A) (A) (A) (A) (A) (A)
                 (A) (A) (A) (A) (A) (A) (A) (A) (A) (A) (A) (A)
                 (A) (A) (A) (A) (A) (A) (A) (A) (A) (A) (A) (A)
                 (A) (A) (A) (A) (A) (A) (A) (A) (A) (A) (A) (A)
                 (A) (A) (A) (A) (A) (A) (A) (A) (A) (A) (A) (A)
                 (A) (A) (A) (A) (A) (A) (A) (A) (A) (A) (A) (A)
                 (A) (A) (A) (A) (A) (A) (A) (A) (A) (A) (A) (A)
                 (A) (A) (A) (A) (A) (A) (A) (A) (A) (A) (A) (A)
                 (A) (A) (A) (A) (A) (A) (A) (A) (A) (A) (A) (A)
                 (A) (A) (A) (A) (A) (A) (A) (A) (A) (A) (A) (A)
                 (A) (A) (A) (A) (A) (A) (A) (A) (A) (A) (A) (A)
                 (A) (A) (A) (A) (A) (A) (A) (A) (A) (A) (A) (A)
                 (A) (A) (A) (A) (A) (A) (A) (A) (A) (A) (A) (A)
                 (A) (A) (A) (A) (A) (A) (A) (A) (A) (A) (A) (A)
                 (A) (A) (A) (A) (A) (A) (A) (A) (A) (A) (A) (A)
                 (A) (A) (A) (A) (A) (A) (A) (A) (A) (A) (A) (A)
                 (A) (A) (A) (A) (A) (A) (A) (A) (A) (A) (A) (A)
                 (A) (A) (A) (A) (A) (A) (A) (A) (A) (A) (A) (A)
                 (A) (A) (A) (A) (A) (A) (A) (A) (A) (A) (A) (A)
                 (A) (A) (A) (A) (A) (A) (A) (A) (A) (A) (A) (A)
                 (A) (A) (A) (A) (A) (A) (A) (A) (A) (A) (A) (A)
                 (A) (A) (A) (A) (A) (A) (A) (A) (A) (A) (A) (A)
                 (A) (A) (A) (A) (A) (A) (A) (A) (A) (A) (A) (A)
                 (A) (A) (A) (A) (A) (A) (A) (A) (A) (A) (A) (A)
                 (A) (A) (A) (A) (A) (A) (A) (A) (A) (A) (A) (A)
                 (A) (A) (A) (A) (A) (A) (A) (A) (A) (A) (A) (A)
                 (A) (A) (A) (A) (A) (A) (A) (A) (A) (A) (A) (A)
                 (A) (A) (A) (A) (A) (A) (A) (A) (A) (A) (A) (A)
                 (A) (A) (A) (A) (A) (A)
 The electronic state of the initial guess is 1-A.
 Requested convergence on RMS density matrix=1.00D-08 within 128 cycles.
 Requested convergence on MAX density matrix=1.00D-06.
 Requested convergence on             energy=1.00D-06.
 No special actions if energy rises.
 CoulSu:  requested number of processors reduced to:   2 ShMem   1 Linda.
 CoulSu:  requested number of processors reduced to:   2 ShMem   1 Linda.
 Error on total polarization charges =  0.01901
 SCF Done:  E(RmPW1PW91) =  -1002.30149502     A.U. after   14 cycles
             Convg  =    0.4850D-08             -V/T =  2.0094
 Range of M.O.s used for correlation:     1   545
 NBasis=   548 NAE=    83 NBE=    83 NFC=     0 NFV=     0
 NROrb=    545 NOA=    83 NOB=    83 NVA=   462 NVB=   462

 **** Warning!!: The largest alpha MO coefficient is  0.10113921D+03

 NEqPCM:  Using equilibrium solvation (IEInf=0, Eps=  78.3553, EpsInf=   1.7778)
          Differentiating once with respect to magnetic field using GIAOs.
          Electric field/nuclear overlap derivatives assumed to be zero.
 FoFCou: FMM=F IPFlag=           0 FMFlag=    10101102 FMFlg1=           0
         NFxFlg=    40000000 DoJE=F BraDBF=F KetDBF=T FulRan=T
         Omega=  0.000000  0.000000  1.000000  0.000000  0.000000 ICntrl=    6100 IOpCl=  0
         NMat0=    1 NMatS0=    1 NMatT0=    0 NMatD0=    1 NMtDS0=    0 NMtDT0=    0
         I1Cent=           7 NGrid=        3003.
 Symmetry not used in FoFCou.
          There are     3 degrees of freedom in the 1st order CPHF.  IDoFFX=0.
      3 vectors produced by pass  0 Test12= 1.28D-12 3.33D-08 XBig12= 6.60D+02 3.92D+00.
 AX will form     3 AO Fock derivatives at one time.
      3 vectors produced by pass  1 Test12= 1.28D-12 3.33D-08 XBig12= 1.44D+00 2.86D-01.
      3 vectors produced by pass  2 Test12= 1.28D-12 3.33D-08 XBig12= 5.44D-03 2.97D-02.
      3 vectors produced by pass  3 Test12= 1.28D-12 3.33D-08 XBig12= 2.96D-05 1.76D-03.
      3 vectors produced by pass  4 Test12= 1.28D-12 3.33D-08 XBig12= 9.95D-08 7.08D-05.
      3 vectors produced by pass  5 Test12= 1.28D-12 3.33D-08 XBig12= 3.08D-10 5.53D-06.
      3 vectors produced by pass  6 Test12= 1.28D-12 3.33D-08 XBig12= 1.47D-12 2.58D-07.
 Inverted reduced A of dimension    21 with in-core refinement.
 Calculating GIAO nuclear magnetic shielding tensors.
 SCF GIAO Magnetic shielding tensor (ppm):
      1  C    Isotropic =   120.4962   Anisotropy =    44.4491
   XX=   120.2143   YX=    -8.4986   ZX=   -13.6573
   XY=   -15.2533   YY=   116.1132   ZY=    15.4867
   XZ=   -22.3998   YZ=    10.8545   ZZ=   125.1611
   Eigenvalues:   104.4618   106.8978   150.1290
      2  C    Isotropic =   158.4800   Anisotropy =    33.4602
   XX=   152.1800   YX=     3.8557   ZX=    -4.2757
   XY=    -1.2081   YY=   180.6926   ZY=    -1.9565
   XZ=    -3.2913   YZ=     0.0787   ZZ=   142.5674
   Eigenvalues:   141.2516   153.4016   180.7868
      3  H    Isotropic =    30.0719   Anisotropy =     8.9706
   XX=    35.2764   YX=     1.5738   ZX=     0.8056
   XY=     2.8572   YY=    29.2745   ZY=     0.4934
   XZ=     0.3465   YZ=     0.4599   ZZ=    25.6649
   Eigenvalues:    25.5932    28.5703    36.0523
      4  H    Isotropic =    29.4516   Anisotropy =     6.0468
   XX=    28.7366   YX=    -1.0214   ZX=    -2.2697
   XY=     0.4626   YY=    28.3989   ZY=    -3.1615
   XZ=    -1.6123   YZ=    -2.5250   ZZ=    31.2193
   Eigenvalues:    25.9820    28.8900    33.4828
      5  C    Isotropic =   166.1144   Anisotropy =    21.3672
   XX=   179.4159   YX=     3.1001   ZX=     6.6038
   XY=     2.9457   YY=   159.7565   ZY=    -0.1788
   XZ=    -0.1742   YZ=     0.7105   ZZ=   159.1708
   Eigenvalues:   158.6161   159.3679   180.3592
      6  H    Isotropic =    29.5737   Anisotropy =     8.0455
   XX=    29.2088   YX=    -0.4650   ZX=     3.0734
   XY=    -0.2206   YY=    26.9967   ZY=     3.8085
   XZ=     2.3030   YZ=     2.5760   ZZ=    32.5156
   Eigenvalues:    24.9755    28.8083    34.9374
      7  C    Isotropic =   151.5446   Anisotropy =    22.1369
   XX=   153.1988   YX=    -2.6456   ZX=    10.8566
   XY=     0.1558   YY=   156.0877   ZY=    -8.4566
   XZ=     8.6426   YZ=   -13.2141   ZZ=   145.3472
   Eigenvalues:   135.1349   153.1963   166.3025
      8  H    Isotropic =    28.0119   Anisotropy =     7.0173
   XX=    29.7895   YX=    -1.8484   ZX=    -2.4187
   XY=    -1.0622   YY=    27.9496   ZY=     1.8013
   XZ=    -3.9748   YZ=     1.7765   ZZ=    26.2966
   Eigenvalues:    24.1976    27.1480    32.6901
      9  C    Isotropic =   152.5359   Anisotropy =    24.0280
   XX=   150.1514   YX=    -2.5093   ZX=    -3.5216
   XY=     2.8743   YY=   168.5339   ZY=    -0.7460
   XZ=     0.4980   YZ=     2.2661   ZZ=   138.9225
   Eigenvalues:   138.7022   150.3510   168.5546
     10  H    Isotropic =    28.1331   Anisotropy =     5.3533
   XX=    31.2039   YX=    -0.9245   ZX=    -0.8998
   XY=    -2.8288   YY=    23.3184   ZY=    -0.9850
   XZ=    -0.1438   YZ=    -0.3547   ZZ=    29.8771
   Eigenvalues:    22.8108    29.8865    31.7020
     11  C    Isotropic =   119.7017   Anisotropy =    40.9633
   XX=   115.6528   YX=     7.7507   ZX=    -2.2959
   XY=    14.8125   YY=   142.2206   ZY=    -5.6155
   XZ=    -3.8535   YZ=    -3.7052   ZZ=   101.2317
   Eigenvalues:   100.4407   111.6538   147.0106
     12  H    Isotropic =    26.4106   Anisotropy =     2.6256
   XX=    25.4575   YX=     1.5980   ZX=     0.7643
   XY=     0.5737   YY=    27.3768   ZY=    -1.7895
   XZ=     1.0207   YZ=    -0.3574   ZZ=    26.3974
   Eigenvalues:    24.2121    26.8587    28.1610
     13  C    Isotropic =    88.6987   Anisotropy =   115.8968
   XX=    44.5040   YX=    -9.7662   ZX=     8.9115
   XY=    -6.0151   YY=   135.8095   ZY=   -47.7333
   XZ=     4.8574   YZ=   -48.6364   ZZ=    85.7826
   Eigenvalues:    43.3859    56.7468   165.9632
     14  C    Isotropic =    51.1349   Anisotropy =   189.5922
   XX=   -29.2272   YX=   -15.7719   ZX=     1.1688
   XY=   -17.4529   YY=   128.3430   ZY=   -78.8300
   XZ=     2.7669   YZ=   -74.4300   ZZ=    54.2888
   Eigenvalues:   -31.6793     7.5542   177.5297
     15  C    Isotropic =    42.9778   Anisotropy =   125.2761
   XX=    32.7932   YX=   -17.0457   ZX=   -20.3606
   XY=   -16.0484   YY=    84.4096   ZY=   -73.0800
   XZ=    -8.1679   YZ=   -64.7667   ZZ=    11.7304
   Eigenvalues:   -36.1265    38.5647   126.4951
     16  C    Isotropic =    42.0740   Anisotropy =   123.8784
   XX=    17.5063   YX=    25.1124   ZX=    29.3178
   XY=    15.4390   YY=    81.5807   ZY=   -56.6778
   XZ=    21.5715   YZ=   -72.7846   ZZ=    27.1352
   Eigenvalues:   -35.6486    37.2111   124.6597
     17  C    Isotropic =    83.3779   Anisotropy =   108.2100
   XX=    77.0495   YX=   -13.9452   ZX=   -21.8664
   XY=   -17.7661   YY=   110.0116   ZY=   -73.0631
   XZ=   -23.0017   YZ=   -56.6571   ZZ=    63.0725
   Eigenvalues:     6.8203    87.7954   155.5179
     18  C    Isotropic =    90.2048   Anisotropy =    97.8982
   XX=    69.1010   YX=    17.8166   ZX=    31.6729
   XY=    22.1538   YY=   127.6272   ZY=   -45.6615
   XZ=    29.2848   YZ=   -49.5495   ZZ=    73.8863
   Eigenvalues:    19.4143    95.7299   155.4703
     19  H    Isotropic =    24.7733   Anisotropy =     7.5750
   XX=    29.3431   YX=    -0.7351   ZX=    -1.4820
   XY=    -0.3908   YY=    22.3900   ZY=     1.8529
   XZ=    -1.6845   YZ=     1.8268   ZZ=    22.5869
   Eigenvalues:    20.5889    23.9077    29.8233
     20  H    Isotropic =    25.1060   Anisotropy =     7.0469
   XX=    28.2237   YX=     1.7846   ZX=     1.8714
   XY=     1.5953   YY=    21.8085   ZY=     1.3991
   XZ=     1.9265   YZ=     1.9790   ZZ=    25.2856
   Eigenvalues:    21.0035    24.5105    29.8039
     21  O    Isotropic =   237.8128   Anisotropy =    57.6726
   XX=   210.3715   YX=   -10.9620   ZX=   -25.8707
   XY=   -12.5614   YY=   261.4776   ZY=   -39.0945
   XZ=   -20.9757   YZ=    -5.8282   ZZ=   241.5893
   Eigenvalues:   191.2675   245.9096   276.2611
     22  H    Isotropic =    23.0583   Anisotropy =    26.2301
   XX=    31.9884   YX=    -5.3950   ZX=    11.4086
   XY=    -9.5651   YY=    18.6428   ZY=    -0.5261
   XZ=    11.3746   YZ=    -0.0525   ZZ=    18.5438
   Eigenvalues:    10.2805    18.3494    40.5451
     23  O    Isotropic =   223.7247   Anisotropy =    42.3381
   XX=   190.3285   YX=     1.7125   ZX=    15.5891
   XY=    26.7181   YY=   236.2394   ZY=    -7.8629
   XZ=    26.6056   YZ=     0.5806   ZZ=   244.6061
   Eigenvalues:   179.3315   239.8924   251.9500
     24  H    Isotropic =    26.4405   Anisotropy =    15.2112
   XX=    29.6777   YX=    -0.8896   ZX=    -4.9279
   XY=    -1.6268   YY=    19.8030   ZY=     4.3680
   XZ=    -6.4666   YZ=     5.1725   ZZ=    29.8407
   Eigenvalues:    17.8036    24.9365    36.5812
     25  O    Isotropic =   294.5529   Anisotropy =    63.3626
   XX=   303.8235   YX=   -30.9598   ZX=     7.6099
   XY=   -32.6958   YY=   305.7114   ZY=    11.1013
   XZ=     3.8016   YZ=    -9.4981   ZZ=   274.1238
   Eigenvalues:   268.7590   278.1050   336.7946
     26  H    Isotropic =    27.6876   Anisotropy =    17.9955
   XX=    33.7013   YX=    -3.7826   ZX=    -5.2550
   XY=    -6.3615   YY=    31.2436   ZY=     4.7703
   XZ=    -3.7069   YZ=     5.0016   ZZ=    18.1181
   Eigenvalues:    16.0390    27.3393    39.6846
     27  C    Isotropic =   174.4660   Anisotropy =    32.2666
   XX=   170.5275   YX=    -1.1114   ZX=    10.0171
   XY=    -0.2614   YY=   161.1127   ZY=    -9.8047
   XZ=     2.2228   YZ=    -9.4350   ZZ=   191.7577
   Eigenvalues:   158.2484   169.1725   195.9771
     28  H    Isotropic =    30.8700   Anisotropy =     9.8490
   XX=    35.4100   YX=    -0.2045   ZX=     3.4683
   XY=    -0.4385   YY=    27.4198   ZY=    -0.7265
   XZ=     4.3314   YZ=    -0.4743   ZZ=    29.7802
   Eigenvalues:    27.1516    28.0224    37.4360
     29  H    Isotropic =    29.9771   Anisotropy =     7.8850
   XX=    28.1750   YX=     0.3161   ZX=     2.2146
   XY=    -0.3098   YY=    33.0181   ZY=    -2.8715
   XZ=     2.4269   YZ=    -4.2584   ZZ=    28.7384
   Eigenvalues:    25.2547    29.4429    35.2338
     30  H    Isotropic =    29.8007   Anisotropy =     7.7123
   XX=    28.5787   YX=    -2.6213   ZX=    -0.3321
   XY=    -2.7194   YY=    26.3070   ZY=     0.8031
   XZ=    -1.0757   YZ=     1.8400   ZZ=    34.5165
   Eigenvalues:    24.4886    29.9713    34.9422
     31  O    Isotropic =   247.3306   Anisotropy =    67.8686
   XX=   262.6364   YX=   -20.9896   ZX=   -22.0247
   XY=   -11.9028   YY=   218.9572   ZY=    15.8924
   XZ=   -22.0722   YZ=    24.0585   ZZ=   260.3981
   Eigenvalues:   209.6982   239.7173   292.5763
     32  H    Isotropic =    29.9642   Anisotropy =    16.8196
   XX=    40.9202   YX=     0.3931   ZX=    -1.5202
   XY=    -0.5360   YY=    24.0892   ZY=     2.1009
   XZ=    -2.5163   YZ=     2.2826   ZZ=    24.8831
   Eigenvalues:    22.1744    26.5410    41.1772
     33  H    Isotropic =    29.9885   Anisotropy =     9.5867
   XX=    29.4714   YX=     1.9561   ZX=     0.2742
   XY=     2.1005   YY=    35.7584   ZY=     0.7391
   XZ=     0.1788   YZ=     0.2195   ZZ=    24.7355
   Eigenvalues:    24.7103    28.8754    36.3796
     34  C    Isotropic =    41.7437   Anisotropy =   181.5181
   XX=    48.9576   YX=   113.7786   ZX=   -13.7506
   XY=   110.5774   YY=    50.5720   ZY=    26.9870
   XZ=   -11.1514   YZ=    27.0567   ZZ=    25.7016
   Eigenvalues:   -70.5294    33.0048   162.7558
     35  C    Isotropic =    86.3992   Anisotropy =   112.0923
   XX=    84.6397   YX=    73.4336   ZX=   -21.9922
   XY=    76.6918   YY=    87.3707   ZY=    21.6671
   XZ=   -29.6754   YZ=    33.9549   ZZ=    87.1874
   Eigenvalues:    -4.7175   102.7877   161.1275
     36  H    Isotropic =    26.2654   Anisotropy =     5.1746
   XX=    24.5382   YX=     0.2648   ZX=    -1.9859
   XY=     0.5752   YY=    25.1137   ZY=    -0.4281
   XZ=    -0.8951   YZ=    -1.1005   ZZ=    29.1443
   Eigenvalues:    24.0834    24.9977    29.7151
     37  H    Isotropic =    26.1736   Anisotropy =     6.2173
   XX=    24.5798   YX=     0.2046   ZX=     0.2600
   XY=     0.8293   YY=    23.9429   ZY=    -1.6526
   XZ=    -2.7184   YZ=     0.6716   ZZ=    29.9981
   Eigenvalues:    23.6482    24.5540    30.3185
     38  C    Isotropic =   166.2244   Anisotropy =    44.6108
   XX=   169.1034   YX=   -27.4792   ZX=     0.3443
   XY=   -25.9025   YY=   169.3177   ZY=    -3.4095
   XZ=    -2.6140   YZ=    -3.0836   ZZ=   160.2520
   Eigenvalues:   141.9936   160.7146   195.9649
     39  H    Isotropic =    30.3977   Anisotropy =     6.5380
   XX=    32.9002   YX=    -0.1217   ZX=    -2.8602
   XY=     0.6206   YY=    31.6488   ZY=    -1.7726
   XZ=    -2.8192   YZ=    -4.2707   ZZ=    26.6442
   Eigenvalues:    24.4813    31.9556    34.7564
     40  H    Isotropic =    30.1653   Anisotropy =     8.6696
   XX=    28.7196   YX=    -3.1141   ZX=     2.8357
   XY=    -2.4306   YY=    30.7874   ZY=    -4.4547
   XZ=     0.5116   YZ=    -2.9103   ZZ=    30.9889
   Eigenvalues:    26.5194    28.0315    35.9450
     41  H    Isotropic =    29.7993   Anisotropy =     8.2777
   XX=    27.2475   YX=    -1.1446   ZX=     0.2711
   XY=    -0.3048   YY=    34.5453   ZY=     3.0247
   XZ=     0.6762   YZ=     1.7237   ZZ=    27.6052
   Eigenvalues:    26.3537    27.7264    35.3178
     42  C    Isotropic =   163.6531   Anisotropy =    30.0374
   XX=   183.3199   YX=     7.4682   ZX=    -0.8996
   XY=    -3.6097   YY=   151.8554   ZY=     2.0509
   XZ=     5.6551   YZ=     4.5424   ZZ=   155.7839
   Eigenvalues:   149.9743   157.3069   183.6780
     43  H    Isotropic =    29.1237   Anisotropy =     7.4020
   XX=    29.7663   YX=     1.9505   ZX=     1.4831
   XY=     1.9563   YY=    32.2175   ZY=     2.8580
   XZ=    -0.1446   YZ=     2.2439   ZZ=    25.3873
   Eigenvalues:    24.5397    28.7731    34.0584
     44  H    Isotropic =    29.2353   Anisotropy =     7.4336
   XX=    30.5452   YX=     0.4835   ZX=    -2.7996
   XY=     2.0555   YY=    25.2862   ZY=    -1.7940
   XZ=    -2.0853   YZ=    -1.3038   ZZ=    31.8745
   Eigenvalues:    24.8352    28.6796    34.1910
     45  C    Isotropic =   177.2148   Anisotropy =    30.1659
   XX=   181.7573   YX=    -5.2555   ZX=     5.5154
   XY=   -16.8132   YY=   177.9230   ZY=    -9.8733
   XZ=    12.7160   YZ=    -7.6616   ZZ=   171.9642
   Eigenvalues:   165.5026   168.8165   197.3254
     46  H    Isotropic =    30.2590   Anisotropy =    12.1142
   XX=    37.4369   YX=    -0.6639   ZX=     2.0259
   XY=    -2.6888   YY=    26.6533   ZY=    -0.8898
   XZ=     3.2956   YZ=    -0.5294   ZZ=    26.6867
   Eigenvalues:    25.8775    26.5643    38.3351
     47  H    Isotropic =    30.5917   Anisotropy =     7.1086
   XX=    29.5263   YX=    -1.1165   ZX=    -0.2807
   XY=    -1.9162   YY=    27.4461   ZY=    -2.7806
   XZ=     0.0753   YZ=    -1.2432   ZZ=    34.8028
   Eigenvalues:    26.2487    30.1958    35.3308
     48  H    Isotropic =    30.5963   Anisotropy =     7.0451
   XX=    29.1865   YX=    -1.1840   ZX=     1.1766
   XY=    -2.0680   YY=    34.5485   ZY=     2.4302
   XZ=     1.9024   YZ=     1.3117   ZZ=    28.0539
   Eigenvalues:    26.2466    30.2493    35.2930
 End of Minotr Frequency-dependent properties file   721 does not exist.
 End of Minotr Frequency-dependent properties file   722 does not exist.

 **********************************************************************

            Population analysis using the SCF density.

 **********************************************************************

 Orbital symmetries:
       Occupied  (A) (A) (A) (A) (A) (A) (A) (A) (A) (A) (A) (A)
                 (A) (A) (A) (A) (A) (A) (A) (A) (A) (A) (A) (A)
                 (A) (A) (A) (A) (A) (A) (A) (A) (A) (A) (A) (A)
                 (A) (A) (A) (A) (A) (A) (A) (A) (A) (A) (A) (A)
                 (A) (A) (A) (A) (A) (A) (A) (A) (A) (A) (A) (A)
                 (A) (A) (A) (A) (A) (A) (A) (A) (A) (A) (A) (A)
                 (A) (A) (A) (A) (A) (A) (A) (A) (A) (A) (A)
       Virtual   (A) (A) (A) (A) (A) (A) (A) (A) (A) (A) (A) (A)
                 (A) (A) (A) (A) (A) (A) (A) (A) (A) (A) (A) (A)
                 (A) (A) (A) (A) (A) (A) (A) (A) (A) (A) (A) (A)
                 (A) (A) (A) (A) (A) (A) (A) (A) (A) (A) (A) (A)
                 (A) (A) (A) (A) (A) (A) (A) (A) (A) (A) (A) (A)
                 (A) (A) (A) (A) (A) (A) (A) (A) (A) (A) (A) (A)
                 (A) (A) (A) (A) (A) (A) (A) (A) (A) (A) (A) (A)
                 (A) (A) (A) (A) (A) (A) (A) (A) (A) (A) (A) (A)
                 (A) (A) (A) (A) (A) (A) (A) (A) (A) (A) (A) (A)
                 (A) (A) (A) (A) (A) (A) (A) (A) (A) (A) (A) (A)
                 (A) (A) (A) (A) (A) (A) (A) (A) (A) (A) (A) (A)
                 (A) (A) (A) (A) (A) (A) (A) (A) (A) (A) (A) (A)
                 (A) (A) (A) (A) (A) (A) (A) (A) (A) (A) (A) (A)
                 (A) (A) (A) (A) (A) (A) (A) (A) (A) (A) (A) (A)
                 (A) (A) (A) (A) (A) (A) (A) (A) (A) (A) (A) (A)
                 (A) (A) (A) (A) (A) (A) (A) (A) (A) (A) (A) (A)
                 (A) (A) (A) (A) (A) (A) (A) (A) (A) (A) (A) (A)
                 (A) (A) (A) (A) (A) (A) (A) (A) (A) (A) (A) (A)
                 (A) (A) (A) (A) (A) (A) (A) (A) (A) (A) (A) (A)
                 (A) (A) (A) (A) (A) (A) (A) (A) (A) (A) (A) (A)
                 (A) (A) (A) (A) (A) (A) (A) (A) (A) (A) (A) (A)
                 (A) (A) (A) (A) (A) (A) (A) (A) (A) (A) (A) (A)
                 (A) (A) (A) (A) (A) (A) (A) (A) (A) (A) (A) (A)
                 (A) (A) (A) (A) (A) (A) (A) (A) (A) (A) (A) (A)
                 (A) (A) (A) (A) (A) (A) (A) (A) (A) (A) (A) (A)
                 (A) (A) (A) (A) (A) (A) (A) (A) (A) (A) (A) (A)
                 (A) (A) (A) (A) (A) (A) (A) (A) (A) (A) (A) (A)
                 (A) (A) (A) (A) (A) (A) (A) (A) (A) (A) (A) (A)
                 (A) (A) (A) (A) (A) (A) (A) (A) (A) (A) (A) (A)
                 (A) (A) (A) (A) (A) (A) (A) (A) (A) (A) (A) (A)
                 (A) (A) (A) (A) (A) (A) (A) (A) (A) (A) (A) (A)
                 (A) (A) (A) (A) (A) (A) (A) (A) (A) (A) (A) (A)
                 (A) (A) (A) (A) (A) (A) (A) (A) (A) (A) (A) (A)
                 (A) (A) (A) (A) (A) (A) (A) (A) (A) (A) (A) (A)
                 (A) (A) (A) (A) (A) (A) (A) (A) (A) (A) (A) (A)
                 (A) (A) (A) (A) (A) (A) (A) (A) (A) (A) (A) (A)
                 (A) (A) (A) (A) (A) (A) (A) (A) (A) (A) (A) (A)
                 (A) (A) (A) (A) (A) (A) (A) (A) (A) (A) (A) (A)
                 (A) (A) (A) (A) (A) (A)
 The electronic state is 1-A.
 Alpha  occ. eigenvalues --  -19.28401 -19.27337 -19.26012 -19.25772 -10.32271
 Alpha  occ. eigenvalues --  -10.31951 -10.31434 -10.31365 -10.27842 -10.26609
 Alpha  occ. eigenvalues --  -10.26603 -10.26494 -10.26426 -10.25016 -10.24898
 Alpha  occ. eigenvalues --  -10.24829 -10.24767 -10.24128 -10.24032 -10.23904
 Alpha  occ. eigenvalues --  -10.23692 -10.23621  -1.09927  -1.09131  -1.07616
 Alpha  occ. eigenvalues --   -1.05623  -0.88797  -0.87104  -0.82197  -0.82131
 Alpha  occ. eigenvalues --   -0.78467  -0.76825  -0.75787  -0.74091  -0.71698
 Alpha  occ. eigenvalues --   -0.70387  -0.67158  -0.64874  -0.63721  -0.63298
 Alpha  occ. eigenvalues --   -0.60948  -0.59292  -0.56024  -0.54208  -0.53544
 Alpha  occ. eigenvalues --   -0.52986  -0.51954  -0.50806  -0.49699  -0.48440
 Alpha  occ. eigenvalues --   -0.47772  -0.46941  -0.46019  -0.45097  -0.44918
 Alpha  occ. eigenvalues --   -0.44279  -0.44126  -0.43485  -0.42598  -0.42403
 Alpha  occ. eigenvalues --   -0.41936  -0.40943  -0.40630  -0.40441  -0.39583
 Alpha  occ. eigenvalues --   -0.38850  -0.38818  -0.38311  -0.37581  -0.37151
 Alpha  occ. eigenvalues --   -0.36373  -0.35801  -0.34921  -0.34713  -0.33455
 Alpha  occ. eigenvalues --   -0.32670  -0.32465  -0.31621  -0.30522  -0.29853
 Alpha  occ. eigenvalues --   -0.26155  -0.24327  -0.23348
 Alpha virt. eigenvalues --   -0.00559  -0.00007   0.00288   0.00468   0.01079
 Alpha virt. eigenvalues --    0.01632   0.01749   0.02728   0.02907   0.03147
 Alpha virt. eigenvalues --    0.04246   0.04309   0.04590   0.04909   0.05185
 Alpha virt. eigenvalues --    0.05865   0.06171   0.06779   0.07188   0.07363
 Alpha virt. eigenvalues --    0.07832   0.08078   0.08394   0.09114   0.09527
 Alpha virt. eigenvalues --    0.09826   0.10119   0.10429   0.10811   0.10917
 Alpha virt. eigenvalues --    0.11159   0.11789   0.12432   0.12761   0.12878
 Alpha virt. eigenvalues --    0.13075   0.13602   0.13751   0.14168   0.14468
 Alpha virt. eigenvalues --    0.15028   0.15128   0.15323   0.15764   0.16002
 Alpha virt. eigenvalues --    0.16563   0.16735   0.17114   0.17346   0.17979
 Alpha virt. eigenvalues --    0.18186   0.18487   0.18640   0.18749   0.19259
 Alpha virt. eigenvalues --    0.19771   0.20206   0.20294   0.20583   0.20819
 Alpha virt. eigenvalues --    0.21045   0.21311   0.21632   0.21806   0.22048
 Alpha virt. eigenvalues --    0.22380   0.22621   0.23052   0.23258   0.23600
 Alpha virt. eigenvalues --    0.24009   0.24225   0.24612   0.24941   0.25308
 Alpha virt. eigenvalues --    0.25591   0.25895   0.26174   0.26222   0.26919
 Alpha virt. eigenvalues --    0.26981   0.27133   0.27442   0.27802   0.28208
 Alpha virt. eigenvalues --    0.28736   0.28938   0.29236   0.29374   0.29501
 Alpha virt. eigenvalues --    0.30147   0.30383   0.31090   0.31371   0.31594
 Alpha virt. eigenvalues --    0.31893   0.32322   0.32738   0.33041   0.33532
 Alpha virt. eigenvalues --    0.33870   0.34400   0.34790   0.35148   0.35736
 Alpha virt. eigenvalues --    0.35832   0.36312   0.36552   0.36897   0.37018
 Alpha virt. eigenvalues --    0.37635   0.38005   0.38778   0.39263   0.39960
 Alpha virt. eigenvalues --    0.40708   0.41239   0.41653   0.41941   0.42553
 Alpha virt. eigenvalues --    0.42916   0.43212   0.43781   0.44711   0.45214
 Alpha virt. eigenvalues --    0.46187   0.46856   0.47029   0.47554   0.48302
 Alpha virt. eigenvalues --    0.48814   0.49443   0.50304   0.51327   0.53277
 Alpha virt. eigenvalues --    0.54126   0.60493   0.63432   0.65625   0.67392
 Alpha virt. eigenvalues --    0.68400   0.68662   0.69298   0.70403   0.70705
 Alpha virt. eigenvalues --    0.71877   0.72284   0.73169   0.73488   0.73721
 Alpha virt. eigenvalues --    0.74020   0.75153   0.75866   0.76748   0.77145
 Alpha virt. eigenvalues --    0.77355   0.78026   0.78556   0.79425   0.79775
 Alpha virt. eigenvalues --    0.80548   0.81158   0.82984   0.84018   0.84582
 Alpha virt. eigenvalues --    0.85045   0.86035   0.86982   0.87360   0.88404
 Alpha virt. eigenvalues --    0.88497   0.89486   0.89894   0.90177   0.91509
 Alpha virt. eigenvalues --    0.92695   0.93822   0.94090   0.94544   0.95678
 Alpha virt. eigenvalues --    0.95972   0.96657   0.98734   0.98984   1.00150
 Alpha virt. eigenvalues --    1.00698   1.01694   1.02209   1.02898   1.04687
 Alpha virt. eigenvalues --    1.05304   1.06182   1.06625   1.08180   1.08191
 Alpha virt. eigenvalues --    1.09832   1.10182   1.10595   1.11792   1.12431
 Alpha virt. eigenvalues --    1.12600   1.13865   1.13945   1.14882   1.15290
 Alpha virt. eigenvalues --    1.15602   1.16266   1.17367   1.18139   1.18679
 Alpha virt. eigenvalues --    1.19203   1.19939   1.21098   1.21121   1.22261
 Alpha virt. eigenvalues --    1.23415   1.23900   1.24300   1.25800   1.26369
 Alpha virt. eigenvalues --    1.28897   1.29689   1.30210   1.30814   1.31939
 Alpha virt. eigenvalues --    1.32316   1.33307   1.33487   1.34468   1.35010
 Alpha virt. eigenvalues --    1.35950   1.36044   1.37499   1.38410   1.38827
 Alpha virt. eigenvalues --    1.39363   1.40602   1.41247   1.42047   1.43105
 Alpha virt. eigenvalues --    1.44701   1.45769   1.46418   1.48731   1.49078
 Alpha virt. eigenvalues --    1.50093   1.50199   1.52625   1.53406   1.54609
 Alpha virt. eigenvalues --    1.56425   1.57087   1.58385   1.59779   1.60275
 Alpha virt. eigenvalues --    1.60967   1.61704   1.62700   1.64819   1.66208
 Alpha virt. eigenvalues --    1.67523   1.69383   1.70094   1.72086   1.73446
 Alpha virt. eigenvalues --    1.76078   1.76539   1.77388   1.78832   1.79595
 Alpha virt. eigenvalues --    1.81316   1.81732   1.82465   1.83283   1.84636
 Alpha virt. eigenvalues --    1.85127   1.85890   1.86491   1.87423   1.89060
 Alpha virt. eigenvalues --    1.89572   1.90247   1.91261   1.92163   1.92697
 Alpha virt. eigenvalues --    1.93714   1.94202   1.95118   1.95911   1.96560
 Alpha virt. eigenvalues --    1.97552   1.98176   1.98367   1.98742   1.99368
 Alpha virt. eigenvalues --    2.01704   2.03338   2.04320   2.05453   2.06398
 Alpha virt. eigenvalues --    2.06722   2.06800   2.07571   2.08240   2.09162
 Alpha virt. eigenvalues --    2.09453   2.12026   2.12752   2.13297   2.13578
 Alpha virt. eigenvalues --    2.14201   2.14606   2.15368   2.15706   2.16253
 Alpha virt. eigenvalues --    2.17891   2.18812   2.19160   2.19612   2.19800
 Alpha virt. eigenvalues --    2.20981   2.23427   2.24373   2.25500   2.26137
 Alpha virt. eigenvalues --    2.27013   2.28237   2.28748   2.30130   2.30460
 Alpha virt. eigenvalues --    2.31422   2.32679   2.33683   2.34199   2.35732
 Alpha virt. eigenvalues --    2.36711   2.37276   2.38289   2.39714   2.40387
 Alpha virt. eigenvalues --    2.41085   2.41578   2.42964   2.45404   2.47507
 Alpha virt. eigenvalues --    2.49293   2.49490   2.50514   2.51722   2.52589
 Alpha virt. eigenvalues --    2.53087   2.54201   2.55915   2.56553   2.56949
 Alpha virt. eigenvalues --    2.57967   2.59110   2.59437   2.60088   2.60511
 Alpha virt. eigenvalues --    2.61153   2.61740   2.62466   2.63880   2.64502
 Alpha virt. eigenvalues --    2.65759   2.66570   2.68389   2.68630   2.68797
 Alpha virt. eigenvalues --    2.70709   2.71296   2.71593   2.72477   2.74150
 Alpha virt. eigenvalues --    2.75202   2.75444   2.77868   2.78458   2.79772
 Alpha virt. eigenvalues --    2.80558   2.81734   2.81919   2.82874   2.83469
 Alpha virt. eigenvalues --    2.84414   2.85634   2.86435   2.87343   2.88308
 Alpha virt. eigenvalues --    2.88929   2.89253   2.90309   2.91258   2.91525
 Alpha virt. eigenvalues --    2.92629   2.93096   2.95211   2.95766   2.96308
 Alpha virt. eigenvalues --    2.97964   2.99874   3.02106   3.05349   3.07946
 Alpha virt. eigenvalues --    3.08030   3.09815   3.10128   3.15786   3.18321
 Alpha virt. eigenvalues --    3.20213   3.27080   3.29157   3.29434   3.31205
 Alpha virt. eigenvalues --    3.32315   3.35680   3.37118   3.38832   3.40940
 Alpha virt. eigenvalues --    3.42406   3.45304   3.46119   3.47459   3.50158
 Alpha virt. eigenvalues --    3.50974   3.51496   3.51906   3.52959   3.54983
 Alpha virt. eigenvalues --    3.55651   3.55863   3.57627   3.58727   3.59774
 Alpha virt. eigenvalues --    3.61414   3.62059   3.67614   3.70470   3.76895
 Alpha virt. eigenvalues --    4.36372   4.37456   4.40834   4.46129   4.48394
 Alpha virt. eigenvalues --    4.49436   4.52487   4.52834   4.55044   4.57184
 Alpha virt. eigenvalues --    4.60832   4.64806   4.70017   4.71365   4.73470
 Alpha virt. eigenvalues --    4.75182   4.78394   4.80440   4.86383   4.94794
 Alpha virt. eigenvalues --    4.98773   5.00885
          Condensed to atoms (all electrons):
              1          2          3          4          5          6
     1  C   13.454391  -2.237806  -0.065863   0.009845   0.341056   0.059851
     2  C   -2.237806   7.381369   0.416046   0.351970  -0.017686  -0.091252
     3  H   -0.065863   0.416046   0.533606  -0.030381  -0.077515  -0.005499
     4  H    0.009845   0.351970  -0.030381   0.524379  -0.064974   0.004636
     5  C    0.341056  -0.017686  -0.077515  -0.064974   7.298301   0.391729
     6  H    0.059851  -0.091252  -0.005499   0.004636   0.391729   0.537283
     7  C    1.156878  -0.860528   0.063186   0.081955  -1.596362   0.021073
     8  H   -0.013127   0.030856  -0.000155  -0.000122   0.011134  -0.009038
     9  C   -1.518619   1.086334  -0.018547  -0.018136   0.244823  -0.021420
    10  H    0.036447  -0.015269  -0.000053   0.000058  -0.069284   0.001503
    11  C   -3.009660  -0.356597   0.022272  -0.029581   0.487214  -0.024891
    12  H    0.091762  -0.047782  -0.000119   0.001169  -0.041498  -0.000015
    13  C   -0.475920   0.164491  -0.002211  -0.004510   0.020506  -0.020527
    14  C   -0.087587   0.006228  -0.000007  -0.000050   0.002181  -0.000156
    15  C   -0.383268   0.230335  -0.001339   0.003421  -0.413222   0.022613
    16  C   -0.334201  -0.165391  -0.000395   0.005628  -0.021707  -0.003659
    17  C    0.077365  -0.047198  -0.000028   0.000379  -0.010583  -0.000260
    18  C   -0.017360   0.043390  -0.000087   0.000344  -0.082400   0.005235
    19  H   -0.000318   0.000002   0.000000   0.000000   0.000004   0.000000
    20  H   -0.000042   0.000027   0.000000   0.000000   0.000017   0.000000
    21  O   -0.007194   0.011298  -0.000001  -0.000072   0.016416  -0.000022
    22  H    0.038617  -0.005329   0.000001  -0.000001  -0.005919   0.000000
    23  O   -0.007034   0.005931   0.000000  -0.000013  -0.006437  -0.000245
    24  H    0.000970  -0.000269   0.000000   0.000000   0.000373  -0.000002
    25  O    0.208081  -0.016800  -0.000448  -0.000032   0.038646  -0.000207
    26  H   -0.062462   0.030438  -0.000016  -0.000005  -0.002885   0.000001
    27  C   -0.374169   0.140462  -0.004745   0.008327   0.055288  -0.006402
    28  H   -0.075968  -0.028340   0.003142   0.000076   0.024101   0.000106
    29  H   -0.078956   0.038992   0.000078  -0.000137  -0.004296  -0.000036
    30  H   -0.166352   0.032127   0.000340  -0.000051  -0.024647  -0.000297
    31  O    0.013179  -0.008123  -0.006241  -0.008209   0.012083  -0.000903
    32  H    0.117749  -0.071320   0.003731  -0.000795   0.008302   0.000000
    33  H    0.003572  -0.005757  -0.001211  -0.004848   0.452564  -0.026992
    34  C   -0.561602   0.196043  -0.007404   0.029929  -0.485572  -0.010901
    35  C   -0.229410   0.170352   0.006065  -0.056439  -0.028341  -0.011225
    36  H   -0.001642  -0.000873  -0.000002   0.000119   0.006633   0.000004
    37  H   -0.033686   0.003002   0.000112   0.000917  -0.025191  -0.000045
    38  C    0.210974  -0.126167  -0.001820   0.012306  -0.016901   0.013260
    39  H    0.003270  -0.002956   0.000000   0.000001   0.011639   0.000016
    40  H    0.000420  -0.000456   0.000000   0.000000  -0.004057   0.000003
    41  H   -0.001590   0.003154   0.000000  -0.000004   0.005061  -0.000076
    42  C   -0.011207   0.001978   0.000000  -0.000003   0.003889  -0.000009
    43  H    0.000002   0.000000   0.000000   0.000000   0.000001   0.000000
    44  H   -0.000012   0.000000   0.000000   0.000000  -0.000018   0.000000
    45  C   -0.000210  -0.000039   0.000000   0.000000   0.000099   0.000000
    46  H    0.000000   0.000000   0.000000   0.000000  -0.000001   0.000000
    47  H   -0.000007   0.000001   0.000000   0.000000  -0.000016   0.000000
    48  H    0.000002   0.000000   0.000000   0.000000  -0.000001   0.000000
              7          8          9         10         11         12
     1  C    1.156878  -0.013127  -1.518619   0.036447  -3.009660   0.091762
     2  C   -0.860528   0.030856   1.086334  -0.015269  -0.356597  -0.047782
     3  H    0.063186  -0.000155  -0.018547  -0.000053   0.022272  -0.000119
     4  H    0.081955  -0.000122  -0.018136   0.000058  -0.029581   0.001169
     5  C   -1.596362   0.011134   0.244823  -0.069284   0.487214  -0.041498
     6  H    0.021073  -0.009038  -0.021420   0.001503  -0.024891  -0.000015
     7  C   14.054830   0.187493  -1.624542   0.208283  -1.890741   0.146011
     8  H    0.187493   0.556656   0.029294  -0.007630  -0.003377  -0.000151
     9  C   -1.624542   0.029294  15.432258   0.321013  -4.587180  -0.010587
    10  H    0.208283  -0.007630   0.321013   0.546983  -0.355305   0.004601
    11  C   -1.890741  -0.003377  -4.587180  -0.355305  20.538033   0.099236
    12  H    0.146011  -0.000151  -0.010587   0.004601   0.099236   0.557622
    13  C   -0.969819   0.000428   3.927714  -0.184404  -1.256374   0.020432
    14  C   -0.136312  -0.000535  -0.523106  -0.001614  -0.158948   0.003308
    15  C    0.085108   0.044783  -1.005990   0.274506  -2.749591   0.055532
    16  C   -0.419403  -0.026468  -3.449396  -0.082668   2.008279   0.022599
    17  C   -0.198755  -0.002847  -1.514118  -0.013554   0.305431   0.012401
    18  C    0.469748   0.014509  -1.391597   0.108636  -0.786227   0.010302
    19  H    0.000796   0.000000   0.005317   0.000002  -0.001494   0.000003
    20  H    0.000109   0.000005  -0.009165  -0.000002  -0.000717   0.000000
    21  O   -0.000262  -0.000099  -0.032356  -0.001910   0.049044  -0.014749
    22  H    0.000741   0.000002  -0.057979   0.000146   0.023408   0.000477
    23  O   -0.096969  -0.006381   0.077219   0.011240  -0.025386  -0.000095
    24  H   -0.006540   0.000186   0.046168   0.000042   0.000013   0.000000
    25  O    0.022637  -0.000596  -0.129170  -0.006013   0.086070  -0.069088
    26  H   -0.015199   0.000004   0.030933  -0.000192   0.011276  -0.004104
    27  C   -0.372131   0.000306   0.335472   0.002092  -0.992881   0.005532
    28  H   -0.016996   0.000001  -0.015405  -0.000030   0.054070  -0.000092
    29  H   -0.004751   0.000001   0.012889  -0.000040  -0.075186   0.000011
    30  H    0.032292  -0.000086  -0.008793  -0.001100   0.126384  -0.000188
    31  O    0.006145   0.000122   0.000725  -0.000167   0.150535  -0.006597
    32  H    0.000963   0.000000  -0.001761  -0.000002  -0.010384  -0.000148
    33  H   -0.216768  -0.001490   0.050577  -0.000087   0.035368  -0.000026
    34  C   -2.291569  -0.020238  -0.299482   0.026577  -0.771544  -0.014659
    35  C   -0.831857  -0.011444   0.344471   0.012717  -0.898588  -0.011722
    36  H    0.014323  -0.000134  -0.013472   0.000003   0.010174   0.000141
    37  H    0.002503  -0.000086   0.018069  -0.000034  -0.006437   0.002023
    38  C    1.023066   0.046870  -0.112504   0.001794   0.127270   0.005201
    39  H    0.149582  -0.001052   0.073398  -0.000044   0.023965  -0.000010
    40  H    0.010518   0.000485  -0.011314   0.000002  -0.004180   0.000001
    41  H   -0.086984   0.001717  -0.020426   0.000008  -0.011912   0.000001
    42  C   -0.070320  -0.000124  -0.075434  -0.001244  -0.013425   0.000191
    43  H   -0.000055   0.000000   0.000504   0.000000   0.000055   0.000000
    44  H   -0.000364   0.000000  -0.000095   0.000000  -0.000384   0.000000
    45  C   -0.000772  -0.000011  -0.000197   0.000009  -0.001410   0.000002
    46  H   -0.000063   0.000000   0.000104   0.000000   0.000007   0.000000
    47  H   -0.000367   0.000000  -0.000421   0.000000  -0.000266   0.000000
    48  H    0.000102   0.000000   0.000064   0.000000   0.000027   0.000000
             13         14         15         16         17         18
     1  C   -0.475920  -0.087587  -0.383268  -0.334201   0.077365  -0.017360
     2  C    0.164491   0.006228   0.230335  -0.165391  -0.047198   0.043390
     3  H   -0.002211  -0.000007  -0.001339  -0.000395  -0.000028  -0.000087
     4  H   -0.004510  -0.000050   0.003421   0.005628   0.000379   0.000344
     5  C    0.020506   0.002181  -0.413222  -0.021707  -0.010583  -0.082400
     6  H   -0.020527  -0.000156   0.022613  -0.003659  -0.000260   0.005235
     7  C   -0.969819  -0.136312   0.085108  -0.419403  -0.198755   0.469748
     8  H    0.000428  -0.000535   0.044783  -0.026468  -0.002847   0.014509
     9  C    3.927714  -0.523106  -1.005990  -3.449396  -1.514118  -1.391597
    10  H   -0.184404  -0.001614   0.274506  -0.082668  -0.013554   0.108636
    11  C   -1.256374  -0.158948  -2.749591   2.008279   0.305431  -0.786227
    12  H    0.020432   0.003308   0.055532   0.022599   0.012401   0.010302
    13  C   17.549668  -1.456410  -0.711969  -3.395260  -4.909646  -2.570385
    14  C   -1.456410   9.364427  -0.978890  -0.572823   1.470882   0.422027
    15  C   -0.711969  -0.978890  11.689462  -1.610510  -0.564080   0.559782
    16  C   -3.395260  -0.572823  -1.610510  13.521435   3.334094  -2.444543
    17  C   -4.909646   1.470882  -0.564080   3.334094  10.651885  -2.158248
    18  C   -2.570385   0.422027   0.559782  -2.444543  -2.158248  13.985742
    19  H    0.096948  -0.002373  -0.011455  -0.035892   0.265027   0.030430
    20  H    0.060104   0.051534  -0.054122  -0.007325  -0.001722   0.295060
    21  O   -0.273714   0.131446  -0.022910   0.197179   0.047456  -0.026564
    22  H   -0.203805  -0.005972  -0.022877   0.161076   0.098226  -0.017960
    23  O   -0.151669   0.039210   0.210754   0.023134  -0.007859  -0.041550
    24  H    0.141685   0.005211   0.048300  -0.004275  -0.004104  -0.222172
    25  O   -0.077129  -0.006155  -0.155129   0.092070   0.032280  -0.036965
    26  H    0.020106   0.000790   0.007654  -0.010815  -0.003561   0.000636
    27  C    0.151505   0.011122   0.182984   0.035867   0.006196   0.033518
    28  H   -0.000792  -0.000016  -0.001253  -0.001066  -0.000073  -0.000058
    29  H    0.000678   0.000073  -0.005526   0.007452   0.000818  -0.000886
    30  H   -0.013244  -0.000033   0.013545  -0.008704  -0.001152   0.002547
    31  O    0.018881  -0.000659   0.017512  -0.020639  -0.004455   0.002268
    32  H   -0.000596  -0.000022   0.000163  -0.002514  -0.000151   0.000022
    33  H    0.011312   0.000264  -0.011658   0.003211   0.000164  -0.001668
    34  C    0.409890   0.051152   0.730048   0.214721   0.227055  -0.159975
    35  C    0.838271  -0.104890   0.283470  -0.981040  -0.391771   0.182037
    36  H   -0.000400  -0.000064  -0.000809   0.001428  -0.000076   0.000814
    37  H   -0.003473  -0.000273   0.000136   0.009333  -0.000622  -0.000792
    38  C   -0.327232   0.037841  -0.170955   0.259849   0.103081   0.029703
    39  H   -0.022063   0.002518  -0.052356   0.013041  -0.005767  -0.009114
    40  H   -0.000408   0.000626   0.005731   0.002295   0.000551   0.005023
    41  H   -0.001712  -0.000663   0.025562  -0.005171  -0.000269   0.007682
    42  C   -0.950969  -1.266320   0.314768   0.036506   0.140897  -0.131443
    43  H    0.003407  -0.197210  -0.020022   0.043839   0.135247  -0.088386
    44  H   -0.011832  -0.234420   0.061781  -0.034504  -0.097864   0.139566
    45  C    0.003316  -0.064337   0.007517   0.011408   0.033326   0.013211
    46  H    0.002166   0.026158   0.002243   0.001683   0.007993   0.006980
    47  H   -0.007217  -0.035272   0.003834  -0.015163  -0.013070   0.017082
    48  H   -0.000422  -0.028550   0.001276   0.000713   0.011849  -0.016485
             19         20         21         22         23         24
     1  C   -0.000318  -0.000042  -0.007194   0.038617  -0.007034   0.000970
     2  C    0.000002   0.000027   0.011298  -0.005329   0.005931  -0.000269
     3  H    0.000000   0.000000  -0.000001   0.000001   0.000000   0.000000
     4  H    0.000000   0.000000  -0.000072  -0.000001  -0.000013   0.000000
     5  C    0.000004   0.000017   0.016416  -0.005919  -0.006437   0.000373
     6  H    0.000000   0.000000  -0.000022   0.000000  -0.000245  -0.000002
     7  C    0.000796   0.000109  -0.000262   0.000741  -0.096969  -0.006540
     8  H    0.000000   0.000005  -0.000099   0.000002  -0.006381   0.000186
     9  C    0.005317  -0.009165  -0.032356  -0.057979   0.077219   0.046168
    10  H    0.000002  -0.000002  -0.001910   0.000146   0.011240   0.000042
    11  C   -0.001494  -0.000717   0.049044   0.023408  -0.025386   0.000013
    12  H    0.000003   0.000000  -0.014749   0.000477  -0.000095   0.000000
    13  C    0.096948   0.060104  -0.273714  -0.203805  -0.151669   0.141685
    14  C   -0.002373   0.051534   0.131446  -0.005972   0.039210   0.005211
    15  C   -0.011455  -0.054122  -0.022910  -0.022877   0.210754   0.048300
    16  C   -0.035892  -0.007325   0.197179   0.161076   0.023134  -0.004275
    17  C    0.265027  -0.001722   0.047456   0.098226  -0.007859  -0.004104
    18  C    0.030430   0.295060  -0.026564  -0.017960  -0.041550  -0.222172
    19  H    0.514002  -0.000137  -0.006692   0.000149   0.000118   0.000000
    20  H   -0.000137   0.519343   0.000089   0.000000  -0.017465   0.008200
    21  O   -0.006692   0.000089   8.308691   0.210607  -0.002028   0.000031
    22  H    0.000149   0.000000   0.210607   0.329643  -0.000205   0.000000
    23  O    0.000118  -0.017465  -0.002028  -0.000205   8.311036   0.204258
    24  H    0.000000   0.008200   0.000031   0.000000   0.204258   0.361815
    25  O   -0.000054   0.000001  -0.021930   0.035845  -0.001299  -0.000024
    26  H    0.000000   0.000000   0.003874  -0.002969  -0.000017   0.000000
    27  C    0.000001   0.000022  -0.005018  -0.003890   0.001547  -0.000313
    28  H    0.000000   0.000000   0.000008   0.000000   0.000005   0.000000
    29  H    0.000000   0.000000  -0.000048   0.000002   0.000001   0.000000
    30  H    0.000000   0.000000   0.000056  -0.000005  -0.000065   0.000001
    31  O    0.000000   0.000000   0.001125  -0.001145   0.000162   0.000000
    32  H    0.000000   0.000000   0.000020   0.000001   0.000000   0.000000
    33  H    0.000000   0.000000   0.000009   0.000000  -0.000013   0.000000
    34  C   -0.001433   0.000736  -0.050718   0.010662   0.032528   0.003499
    35  C    0.000787   0.000192   0.015452  -0.006808  -0.000895   0.000465
    36  H    0.000000   0.000000  -0.000073  -0.000001  -0.000007   0.000000
    37  H    0.000000   0.000000   0.000343  -0.000005   0.000007   0.000000
    38  C    0.000061  -0.000047  -0.008704   0.000811  -0.010966  -0.000973
    39  H    0.000000  -0.000029   0.000142  -0.000003  -0.000413  -0.000069
    40  H    0.000000   0.000000  -0.000096   0.000000  -0.000034   0.000001
    41  H    0.000000   0.000000  -0.000027   0.000000   0.000012   0.000007
    42  C   -0.029685  -0.019427   0.003275  -0.003084  -0.002850   0.000989
    43  H    0.001938   0.000068  -0.000021   0.000000   0.000043   0.000000
    44  H    0.000074   0.002359   0.000033   0.000000  -0.000116   0.000006
    45  C    0.004983   0.006226   0.000219  -0.000076  -0.000063   0.000156
    46  H   -0.000026  -0.000028   0.000001   0.000000  -0.000002   0.000000
    47  H    0.000145   0.000014   0.000001   0.000000  -0.000003   0.000000
    48  H    0.000006   0.000212   0.000003   0.000000   0.000027   0.000000
             25         26         27         28         29         30
     1  C    0.208081  -0.062462  -0.374169  -0.075968  -0.078956  -0.166352
     2  C   -0.016800   0.030438   0.140462  -0.028340   0.038992   0.032127
     3  H   -0.000448  -0.000016  -0.004745   0.003142   0.000078   0.000340
     4  H   -0.000032  -0.000005   0.008327   0.000076  -0.000137  -0.000051
     5  C    0.038646  -0.002885   0.055288   0.024101  -0.004296  -0.024647
     6  H   -0.000207   0.000001  -0.006402   0.000106  -0.000036  -0.000297
     7  C    0.022637  -0.015199  -0.372131  -0.016996  -0.004751   0.032292
     8  H   -0.000596   0.000004   0.000306   0.000001   0.000001  -0.000086
     9  C   -0.129170   0.030933   0.335472  -0.015405   0.012889  -0.008793
    10  H   -0.006013  -0.000192   0.002092  -0.000030  -0.000040  -0.001100
    11  C    0.086070   0.011276  -0.992881   0.054070  -0.075186   0.126384
[...]
    16  C    0.131984  -0.024214   0.091833  -0.001636   0.007270  -0.001002
    17  C    0.040908  -0.005851   0.011214  -0.000092   0.000629  -0.000558
    18  C   -0.042575   0.001139   0.023600   0.000001  -0.000963   0.001470
    19  H   -0.000032   0.000000   0.000012   0.000000   0.000000   0.000000
    20  H   -0.000002   0.000000   0.000009   0.000000   0.000000   0.000000
    21  O   -0.028536   0.003683  -0.006290   0.000003  -0.000027   0.000029
    22  H    0.038122  -0.002463  -0.003054   0.000000   0.000002  -0.000005
    23  O   -0.001418  -0.000013   0.001519  -0.000003   0.000012   0.000034
    24  H   -0.000021   0.000000  -0.000233   0.000000   0.000000   0.000001
    25  O    8.513086   0.229261  -0.015367  -0.001816   0.010871  -0.005472
    26  H    0.229261   0.328317  -0.014451   0.000051   0.000101   0.000192
    27  C   -0.015367  -0.014451   6.026873   0.441530   0.457744   0.381535
    28  H   -0.001816   0.000051   0.441530   0.532008  -0.028869  -0.026217
    29  H    0.010871   0.000101   0.457744  -0.028869   0.537495  -0.026271
    30  H   -0.005472   0.000192   0.381535  -0.026217  -0.026271   0.527216
    31  O   -0.026895   0.024552  -0.131838  -0.012877   0.004507   0.007711
    32  H    0.001003  -0.000675  -0.021138   0.003396  -0.000570   0.000060
    33  H    0.000056   0.000000  -0.001183  -0.000019   0.000002   0.000035
    34  C   -0.028623   0.000376   0.048665   0.000749   0.000939   0.002522
    35  C   -0.002074   0.002310  -0.034632   0.000276   0.000142   0.000619
    36  H   -0.000005   0.000000  -0.000048   0.000000   0.000000   0.000000
    37  H    0.000189  -0.000001  -0.001566   0.000000   0.000000  -0.000002
    38  C    0.000471  -0.000078  -0.008825   0.000043  -0.000119  -0.001030
    39  H    0.000040   0.000000  -0.000362   0.000000   0.000000   0.000000
    40  H   -0.000003   0.000000   0.000016   0.000000   0.000000   0.000000
    41  H   -0.000004   0.000000   0.000477   0.000000   0.000000   0.000000
    42  C   -0.000707   0.000073   0.001470   0.000000  -0.000002  -0.000002
    43  H    0.000001   0.000000   0.000000   0.000000   0.000000   0.000000
    44  H    0.000000   0.000000   0.000000   0.000000   0.000000   0.000000
    45  C    0.000053   0.000000  -0.000006   0.000000   0.000000   0.000000
    46  H    0.000000   0.000000   0.000000   0.000000   0.000000   0.000000
    47  H    0.000000   0.000000   0.000000   0.000000   0.000000   0.000000
    48  H    0.000000   0.000000   0.000000   0.000000   0.000000   0.000000
             31         32         33         34         35         36
     1  C    0.027006   0.037583   0.002269  -0.678846  -0.121235   0.000870
     2  C   -0.016512  -0.049962  -0.035588   0.228170   0.072160  -0.002913
     3  H   -0.006677   0.003902  -0.000861  -0.004392   0.008187  -0.000002
     4  H    0.000709  -0.001175  -0.005369   0.008973  -0.038437   0.000132
     5  C   -0.002994   0.008060   0.525316  -0.660959  -0.062119   0.008284
     6  H   -0.000211  -0.000008  -0.031827  -0.023957   0.004495   0.000005
     7  C    0.022074  -0.000170  -0.206420  -1.916487  -1.204943  -0.010141
     8  H    0.000092   0.000000  -0.001991  -0.056079  -0.027167  -0.000144
     9  C   -0.012926  -0.005585   0.042541  -0.976733   0.088514  -0.010721
    10  H   -0.000164  -0.000002  -0.000069   0.036011   0.017672   0.000004
    11  C    0.114508   0.031959   0.050414  -0.659144  -1.163040   0.010218
    12  H   -0.001184  -0.000103  -0.000013  -0.024970   0.000937   0.000146
    13  C    0.015566  -0.000509   0.005944   0.064256   0.820333   0.001765
    14  C   -0.000475  -0.000009   0.000162   0.126009  -0.101169  -0.000187
    15  C    0.016209  -0.000063  -0.014659   0.911352   0.412722  -0.000872
    16  C   -0.011622  -0.000592   0.001664   0.634769  -1.075778  -0.002340
    17  C   -0.001825  -0.000054   0.000012   0.422309  -0.405271  -0.001421
    18  C    0.001852   0.000002  -0.001858  -0.100452   0.244625   0.000824
    19  H    0.000000   0.000000   0.000000  -0.000627   0.000660   0.000000
    20  H    0.000000   0.000000   0.000000  -0.000082   0.000084   0.000000
    21  O    0.000032   0.000001   0.000016  -0.078855   0.028726   0.000053
    22  H   -0.000815   0.000001   0.000000   0.012775  -0.008839  -0.000001
    23  O    0.000153   0.000001  -0.000006   0.000449  -0.005501  -0.000010
    24  H    0.000000   0.000000   0.000000   0.001504   0.000377   0.000000
    25  O   -0.026895   0.001003   0.000056  -0.028623  -0.002074  -0.000005
    26  H    0.024552  -0.000675   0.000000   0.000376   0.002310   0.000000
    27  C   -0.131838  -0.021138  -0.001183   0.048665  -0.034632  -0.000048
    28  H   -0.012877   0.003396  -0.000019   0.000749   0.000276   0.000000
    29  H    0.004507  -0.000570   0.000002   0.000939   0.000142   0.000000
    30  H    0.007711   0.000060   0.000035   0.002522   0.000619   0.000000
    31  O    8.339157   0.246011  -0.000389   0.010457   0.010561  -0.000020
    32  H    0.246011   0.334901  -0.000011  -0.000861   0.000460   0.000000
    33  H   -0.000389  -0.000011   0.564426  -0.020662  -0.008078  -0.000039
    34  C    0.010457  -0.000861  -0.020662  11.176941  -0.401188  -0.171029
    35  C    0.010561   0.000460  -0.008078  -0.401188   9.940368   0.569954
    36  H   -0.000020   0.000000  -0.000039  -0.171029   0.569954   0.540781
    37  H    0.001076   0.000006   0.000201  -0.142842   0.570040  -0.036612
    38  C   -0.001765  -0.000058  -0.017451  -1.596847  -1.521273  -0.044251
    39  H   -0.000005   0.000000  -0.000013  -0.324827  -0.079627   0.000209
    40  H    0.000000   0.000000  -0.000055  -0.132420  -0.018633   0.003267
    41  H    0.000002   0.000000   0.000383   0.019009   0.031797   0.000206
    42  C   -0.000018   0.000000   0.000011   0.034964  -0.015054   0.000041
    43  H    0.000000   0.000000   0.000000   0.000068   0.000062   0.000000
    44  H    0.000000   0.000000   0.000000   0.000225   0.000007   0.000000
    45  C    0.000000   0.000000   0.000000   0.002571   0.002677   0.000001
    46  H    0.000000   0.000000   0.000000   0.000040   0.000021   0.000000
    47  H    0.000000   0.000000   0.000000   0.000414   0.000095   0.000000
    48  H    0.000000   0.000000   0.000000  -0.000284  -0.000055   0.000000
             37         38         39         40         41         42
     1  C   -0.016641   0.208411   0.004111   0.000605  -0.002482  -0.014912
     2  C    0.002922  -0.099940  -0.003193  -0.000893   0.003136   0.001693
     3  H    0.000137  -0.003566   0.000000   0.000000   0.000000   0.000000
     4  H    0.000790   0.008127   0.000001   0.000001  -0.000003  -0.000003
     5  C   -0.032471  -0.004562   0.019097  -0.010235   0.007971   0.002145
     6  H   -0.000047   0.003319   0.000016   0.000003  -0.000082   0.000000
     7  C    0.005764   1.088316   0.139750   0.000242  -0.085025  -0.088385
     8  H   -0.000099   0.069599  -0.000809   0.000592   0.001823   0.000062
     9  C    0.019978   0.046027   0.075283  -0.008189  -0.031648  -0.077441
    10  H   -0.000036   0.000926  -0.000047   0.000002   0.000006  -0.001373
    11  C   -0.037269   0.199437   0.024569  -0.004121  -0.013121  -0.028556
    12  H    0.001958   0.002696  -0.000011   0.000000   0.000001   0.000051
    13  C    0.002713  -0.309718  -0.014601   0.006177  -0.009703  -1.016295
    14  C   -0.000904   0.012871  -0.001275  -0.000028   0.000942  -1.082057
    15  C   -0.001639  -0.213859  -0.059061   0.003362   0.030265   0.252238
    16  C   -0.003732   0.211886   0.000259  -0.000703   0.000887   0.000330
    17  C   -0.001016   0.062883  -0.008942   0.000228   0.000417   0.077311
    18  C   -0.000967   0.054754  -0.005202   0.004816   0.009755  -0.081311
    19  H    0.000000  -0.000027   0.000000   0.000000   0.000000  -0.045681
    20  H    0.000000  -0.000002  -0.000020   0.000000   0.000000  -0.029290
    21  O    0.000373  -0.009423   0.000276  -0.000096  -0.000044   0.002605
    22  H    0.000001   0.000859  -0.000003   0.000000   0.000000  -0.002466
    23  O    0.000027  -0.001232  -0.000596   0.000081  -0.000114   0.002750
    24  H    0.000000  -0.000587  -0.000072   0.000001   0.000007   0.000017
    25  O    0.000189   0.000471   0.000040  -0.000003  -0.000004  -0.000707
    26  H   -0.000001  -0.000078   0.000000   0.000000   0.000000   0.000073
    27  C   -0.001566  -0.008825  -0.000362   0.000016   0.000477   0.001470
    28  H    0.000000   0.000043   0.000000   0.000000   0.000000   0.000000
    29  H    0.000000  -0.000119   0.000000   0.000000   0.000000  -0.000002
    30  H   -0.000002  -0.001030   0.000000   0.000000   0.000000  -0.000002
    31  O    0.001076  -0.001765  -0.000005   0.000000   0.000002  -0.000018
    32  H    0.000006  -0.000058   0.000000   0.000000   0.000000   0.000000
    33  H    0.000201  -0.017451  -0.000013  -0.000055   0.000383   0.000011
    34  C   -0.142842  -1.596847  -0.324827  -0.132420   0.019009   0.034964
    35  C    0.570040  -1.521273  -0.079627  -0.018633   0.031797  -0.015054
    36  H   -0.036612  -0.044251   0.000209   0.003267   0.000206   0.000041
    37  H    0.544932  -0.021207  -0.000205   0.000195  -0.000188  -0.000063
    38  C   -0.021207   7.142778   0.581402   0.510651   0.383720  -0.006124
    39  H   -0.000205   0.581402   0.539461  -0.026757  -0.028982  -0.002960
    40  H    0.000195   0.510651  -0.026757   0.545073  -0.027039   0.000307
    41  H   -0.000188   0.383720  -0.028982  -0.027039   0.538176   0.000330
    42  C   -0.000063  -0.006124  -0.002960   0.000307   0.000330   7.089963
    43  H    0.000000  -0.000059   0.000000   0.000000   0.000000   0.476328
    44  H    0.000000  -0.000038   0.000000   0.000000   0.000000   0.516316
    45  C    0.000005  -0.002642  -0.000400   0.000013   0.000001   0.222479
    46  H    0.000000   0.000006   0.000000   0.000000   0.000000  -0.076811
    47  H    0.000000  -0.000376  -0.000002   0.000000   0.000000  -0.027947
    48  H    0.000000   0.000067   0.000000   0.000000   0.000000  -0.056407
             43         44         45         46         47         48
     1  C   -0.000004  -0.000013  -0.000411   0.000000  -0.000011   0.000000
     2  C    0.000000   0.000000   0.000007   0.000000   0.000001   0.000000
     3  H    0.000000   0.000000   0.000000   0.000000   0.000000   0.000000
     4  H    0.000000   0.000000   0.000000   0.000000   0.000000   0.000000
     5  C   -0.000002  -0.000019  -0.000196  -0.000002  -0.000014   0.000006
     6  H    0.000000   0.000000   0.000000   0.000000   0.000000   0.000000
     7  C   -0.000082  -0.000311  -0.002560  -0.000090  -0.000199   0.000180
     8  H    0.000000   0.000000  -0.000015   0.000000   0.000000   0.000000
     9  C   -0.000134  -0.000822  -0.002300   0.000005  -0.000586  -0.000087
    10  H    0.000000   0.000000   0.000002   0.000000   0.000000   0.000000
    11  C   -0.000158  -0.000386  -0.002572   0.000006  -0.000315   0.000015
    12  H    0.000000   0.000000   0.000003   0.000000   0.000000   0.000000
    13  C   -0.005457  -0.016482  -0.004457   0.000289  -0.009763   0.000990
    14  C   -0.150733  -0.176302   0.003050  -0.001814   0.020156   0.027040
    15  C   -0.016046   0.043354   0.002932   0.000815   0.013580  -0.018853
    16  C    0.021693  -0.029184  -0.001148   0.001739  -0.038469   0.006441
    17  C    0.077678  -0.075358   0.016722   0.006596  -0.062797   0.038864
    18  C   -0.064383   0.077572  -0.030564   0.004887   0.043013  -0.061858
    19  H    0.002308   0.000105   0.002905  -0.000032   0.000170   0.000010
    20  H    0.000105   0.002592   0.003294  -0.000032   0.000017   0.000216
    21  O   -0.000032   0.000018   0.000225  -0.000002   0.000009   0.000007
    22  H    0.000000   0.000000  -0.000068   0.000000   0.000000   0.000000
    23  O    0.000023  -0.000081  -0.000237  -0.000005  -0.000001   0.000053
    24  H    0.000000   0.000003   0.000131   0.000000   0.000000  -0.000001
    25  O    0.000001   0.000000   0.000053   0.000000   0.000000   0.000000
    26  H    0.000000   0.000000   0.000000   0.000000   0.000000   0.000000
    27  C    0.000000   0.000000  -0.000006   0.000000   0.000000   0.000000
    28  H    0.000000   0.000000   0.000000   0.000000   0.000000   0.000000
    29  H    0.000000   0.000000   0.000000   0.000000   0.000000   0.000000
    30  H    0.000000   0.000000   0.000000   0.000000   0.000000   0.000000
    31  O    0.000000   0.000000   0.000000   0.000000   0.000000   0.000000
    32  H    0.000000   0.000000   0.000000   0.000000   0.000000   0.000000
    33  H    0.000000   0.000000   0.000000   0.000000   0.000000   0.000000
    34  C    0.000068   0.000225   0.002571   0.000040   0.000414  -0.000284
    35  C    0.000062   0.000007   0.002677   0.000021   0.000095  -0.000055
    36  H    0.000000   0.000000   0.000001   0.000000   0.000000   0.000000
    37  H    0.000000   0.000000   0.000005   0.000000   0.000000   0.000000
    38  C   -0.000059  -0.000038  -0.002642   0.000006  -0.000376   0.000067
    39  H    0.000000   0.000000  -0.000400   0.000000  -0.000002   0.000000
    40  H    0.000000   0.000000   0.000013   0.000000   0.000000   0.000000
    41  H    0.000000   0.000000   0.000001   0.000000   0.000000   0.000000
    42  C    0.476328   0.516316   0.222479  -0.076811  -0.027947  -0.056407
    43  H    0.565153  -0.033518  -0.021132  -0.003329  -0.005032   0.004834
    44  H   -0.033518   0.567611  -0.022772  -0.003422   0.004892  -0.004943
    45  C   -0.021132  -0.022772   5.179120   0.423709   0.419218   0.419864
    46  H   -0.003329  -0.003422   0.423709   0.549355  -0.027190  -0.027059
    47  H   -0.005032   0.004892   0.419218  -0.027190   0.541866  -0.028648
    48  H    0.004834  -0.004943   0.419864  -0.027059  -0.028648   0.541408
 Mulliken atomic charges:
              1
     1  C    0.218467
     2  C   -0.325783
     3  H    0.157807
     4  H    0.162942
     5  C   -0.412387
     6  H    0.160475
     7  C   -0.015583
     8  H    0.150583
     9  C    0.469113
    10  H    0.165603
    11  C   -0.057209
    12  H    0.165649
    13  C    0.399133
    14  C   -0.076841
    15  C    0.309061
    16  C   -0.257393
    17  C   -0.922127
    18  C   -0.064512
    19  H    0.147917
    20  H    0.151441
    21  O   -0.602851
    22  H    0.444143
    23  O   -0.614801
    24  H    0.447362
    25  O   -0.670355
    26  H    0.431895
    27  C   -0.336340
    28  H    0.165775
    29  H    0.162259
    30  H    0.172114
    31  O   -0.613028
    32  H    0.414198
    33  H    0.153106
    34  C    0.256651
    35  C   -0.534771
    36  H    0.143997
    37  H    0.146200
    38  C   -0.724187
    39  H    0.173497
    40  H    0.153539
    41  H    0.169122
    42  C   -0.027616
    43  H    0.151847
    44  H    0.150954
    45  C   -0.607500
    46  H    0.152318
    47  H    0.157916
    48  H    0.158199
 Sum of Mulliken atomic charges =   0.00000
 Mulliken charges with hydrogens summed into heavy atoms:
              1
     1  C    0.218467
     2  C   -0.005034
     5  C   -0.098805
     7  C    0.135001
     9  C    0.634716
    11  C    0.108440
    13  C    0.399133
    14  C   -0.076841
    15  C    0.309061
    16  C   -0.257393
    17  C   -0.774210
    18  C    0.086929
    21  O   -0.158708
    23  O   -0.167439
    25  O   -0.238460
    27  C    0.163809
    31  O   -0.198830
    34  C    0.256651
    35  C   -0.244574
    38  C   -0.228029
    42  C    0.275185
    45  C   -0.139068
 Sum of Mulliken charges with hydrogens summed into heavy atoms =   0.00000
 Electronic spatial extent (au):  <R**2>=           7121.1467
 Charge=              0.0000 electrons
 Dipole moment (field-independent basis, Debye):
    X=              2.0700    Y=              3.1979    Z=              4.4417  Tot=              5.8515
 Quadrupole moment (field-independent basis, Debye-Ang):
   XX=           -101.3276   YY=           -138.0823   ZZ=           -135.0937
   XY=             -3.4320   XZ=             -4.3065   YZ=              1.9694
 Traceless Quadrupole moment (field-independent basis, Debye-Ang):
   XX=             23.5069   YY=            -13.2478   ZZ=            -10.2592
   XY=             -3.4320   XZ=             -4.3065   YZ=              1.9694
 Octapole moment (field-independent basis, Debye-Ang**2):
  XXX=             80.6865  YYY=             -9.3906  ZZZ=             37.6762  XYY=             10.4104
  XXY=            -11.7969  XXZ=             35.5407  XZZ=            -18.0094  YZZ=             15.3091
  YYZ=              5.8464  XYZ=             -9.6008
 Hexadecapole moment (field-independent basis, Debye-Ang**3):
 XXXX=          -5653.8626 YYYY=          -1858.2172 ZZZZ=          -1111.1246 XXXY=            -44.9656
 XXXZ=            -46.3642 YYYX=            -84.7425 YYYZ=             51.0239 ZZZX=            -96.8291
 ZZZY=             39.6985 XXYY=          -1424.9778 XXZZ=          -1254.2668 YYZZ=           -518.1535
 XXYZ=             45.0177 YYXZ=             -0.5338 ZZXY=            -46.1706
 N-N= 1.984305693981D+03 E-N=-6.301657596159D+03  KE= 9.931456429647D+02

 Test job not archived.
 1\1\GINC-COMPUTE-6-31\SP\RB3LYP\6-31+G(d,p)\C18H26O4\LPASSAGLIA.IQUIR\
 23-Dec-2022\0\\# B3LYP/6-31+G** geom=allcheck test scrf=(pcm,solvent=w
 ater,smd,dovacuum)\\comment\\0,1\C,0,1.720729206,2.448234414,-1.689542
 952\C,0,0.982569958,3.469815679,-0.820533334\H,0,1.538373996,4.4164218
 75,-0.799739381\H,0,0.024671059,3.728201169,-1.285202007\C,0,0.7630847
 74,2.98095161,0.607873305\H,0,1.732691595,2.980145221,1.123202095\C,0,
 0.154648983,1.564156638,0.731621659\H,0,0.382136571,1.282982404,1.7690
 21315\C,0,0.888133551,0.520217292,-0.188581317\H,0,1.927126046,0.45013
 7009,0.16460024\C,0,1.001570421,1.075876762,-1.628640433\H,0,0.0099956
 47,1.190488588,-2.07656642\C,0,0.353471307,-0.907719694,0.016987169\C,
 0,-0.740228382,-3.479059081,0.624346614\C,0,0.564917696,-1.539294248,1
 .261053718\C,0,-0.366691086,-1.649264039,-0.929672839\C,0,-0.929045395
 ,-2.894323693,-0.629003352\C,0,0.025620582,-2.794302891,1.569036299\H,
 0,-1.498904503,-3.412429844,-1.397188597\H,0,0.191394237,-3.242543532,
 2.544411162\O,0,-0.52831025,-1.25128384,-2.225920847\H,0,0.358303651,-
 0.93561141,-2.508340075\O,0,1.332232321,-0.907242385,2.207012629\H,0,1
 .424867864,-1.494066364,2.975041598\O,0,1.692029933,0.153401851,-2.497
 57931\H,0,1.910464731,0.689088519,-3.290478558\C,0,3.211908502,2.37201
 2071,-1.329129167\H,0,3.687373955,3.351823129,-1.457062376\H,0,3.74693
 5155,1.689561479,-1.998740771\H,0,3.385563399,2.049419125,-0.299492728
 \O,0,1.663902915,2.878732164,-3.06377996\H,0,2.016073559,3.786038088,-
 3.104125752\H,0,0.1443501,3.709176482,1.147637329\C,0,-1.378770178,1.5
 7640803,0.655959028\C,0,-2.112118807,1.97633171,-0.396409319\H,0,-3.19
 8278081,1.947399542,-0.366914184\H,0,-1.683537463,2.32845541,-1.324641
 651\C,0,-2.081181618,1.09917896,1.90494388\H,0,-1.815534979,0.06144533
 ,2.125529743\H,0,-3.171564564,1.146251474,1.81241701\H,0,-1.796772743,
 1.722204729,2.759389153\C,0,-1.357685234,-4.813541837,0.948544398\H,0,
 -1.413977982,-5.426034439,0.040393598\H,0,-0.709556164,-5.361369465,1.
 643422271\C,0,-2.74546039,-4.660867654,1.552143381\H,0,-3.170190186,-5
 .644072991,1.777973935\H,0,-3.424452025,-4.148089983,0.862391199\H,0,-
 2.712881683,-4.083439365,2.482332602\\Version=EM64L-G09RevC.01\State=1
 -A\HF=-1002.5422106\RMSD=4.286e-09\Dipole=1.1360538,1.0965852,1.675333
 4\Quadrupole=-6.5787169,8.7942419,-2.215525,7.8933607,-2.9569748,-10.7
 427843\PG=C01 [X(C18H26O4)]\\@


 THE WHOLE OF SCIENCE IS NOTHING MORE THAN A REFINEMENT OF EVEYDAY THINKING.
                                                              -- A. EINSTEIN
 Job cpu time:  0 days  0 hours 31 minutes 17.4 seconds.
 File lengths (MBytes):  RWF=    240 Int=      0 D2E=      0 Chk=     19 Scr=      1
 Normal termination of Gaussian 09 at Fri Dec 23 14:10:21 2022.
