 Entering Gaussian System, Link 0=g09
 Input=/home/lpassaglia.iquir/Link1/03_RSRS_THC_007.gjc
 Output=/home/lpassaglia.iquir/Link1/03_RSRS_THC_007.log
 Initial command:
 /share/apps/Gaussian09/EM64T.SSE4.2-enabled/g09/l1.exe /tmp/Gau-28596.inp -scrdir=/tmp/
 Entering Link 1 = /share/apps/Gaussian09/EM64T.SSE4.2-enabled/g09/l1.exe PID=     28601.
  
 Copyright (c) 1988,1990,1992,1993,1995,1998,2003,2009,2011,
            Gaussian, Inc.  All Rights Reserved.
  
 This is part of the Gaussian(R) 09 program.  It is based on
 the Gaussian(R) 03 system (copyright 2003, Gaussian, Inc.),
 the Gaussian(R) 98 system (copyright 1998, Gaussian, Inc.),
 the Gaussian(R) 94 system (copyright 1995, Gaussian, Inc.),
 the Gaussian 92(TM) system (copyright 1992, Gaussian, Inc.),
 the Gaussian 90(TM) system (copyright 1990, Gaussian, Inc.),
 the Gaussian 88(TM) system (copyright 1988, Gaussian, Inc.),
 the Gaussian 86(TM) system (copyright 1986, Carnegie Mellon
 University), and the Gaussian 82(TM) system (copyright 1983,
 Carnegie Mellon University). Gaussian is a federally registered
 trademark of Gaussian, Inc.
  
 This software contains proprietary and confidential information,
 including trade secrets, belonging to Gaussian, Inc.
  
 This software is provided under written license and may be
 used, copied, transmitted, or stored only in accord with that
 written license.
  
 The following legend is applicable only to US Government
 contracts under FAR:
  
                    RESTRICTED RIGHTS LEGEND
  
 Use, reproduction and disclosure by the US Government is
 subject to restrictions as set forth in subparagraphs (a)
 and (c) of the Commercial Computer Software - Restricted
 Rights clause in FAR 52.227-19.
  
 Gaussian, Inc.
 340 Quinnipiac St., Bldg. 40, Wallingford CT 06492
  
  
 ---------------------------------------------------------------
 Warning -- This program may not be used in any manner that
 competes with the business of Gaussian, Inc. or will provide
 assistance to any competitor of Gaussian, Inc.  The licensee
 of this program is prohibited from giving any competitor of
 Gaussian, Inc. access to this program.  By using this program,
 the user acknowledges that Gaussian, Inc. is engaged in the
 business of creating and licensing software in the field of
 computational chemistry and represents and warrants to the
 licensee that it is not a competitor of Gaussian, Inc. and that
 it will not use this program in any manner prohibited above.
 ---------------------------------------------------------------
  

 Cite this work as:
 Gaussian 09, Revision C.01,
 M. J. Frisch, G. W. Trucks, H. B. Schlegel, G. E. Scuseria, 
 M. A. Robb, J. R. Cheeseman, G. Scalmani, V. Barone, B. Mennucci, 
 G. A. Petersson, H. Nakatsuji, M. Caricato, X. Li, H. P. Hratchian, 
 A. F. Izmaylov, J. Bloino, G. Zheng, J. L. Sonnenberg, M. Hada, 
 M. Ehara, K. Toyota, R. Fukuda, J. Hasegawa, M. Ishida, T. Nakajima, 
 Y. Honda, O. Kitao, H. Nakai, T. Vreven, J. A. Montgomery, Jr., 
 J. E. Peralta, F. Ogliaro, M. Bearpark, J. J. Heyd, E. Brothers, 
 K. N. Kudin, V. N. Staroverov, T. Keith, R. Kobayashi, J. Normand, 
 K. Raghavachari, A. Rendell, J. C. Burant, S. S. Iyengar, J. Tomasi, 
 M. Cossi, N. Rega, J. M. Millam, M. Klene, J. E. Knox, J. B. Cross, 
 V. Bakken, C. Adamo, J. Jaramillo, R. Gomperts, R. E. Stratmann, 
 O. Yazyev, A. J. Austin, R. Cammi, C. Pomelli, J. W. Ochterski, 
 R. L. Martin, K. Morokuma, V. G. Zakrzewski, G. A. Voth, 
 P. Salvador, J. J. Dannenberg, S. Dapprich, A. D. Daniels, 
 O. Farkas, J. B. Foresman, J. V. Ortiz, J. Cioslowski, 
 and D. J. Fox, Gaussian, Inc., Wallingford CT, 2010.
 
 ******************************************
 Gaussian 09:  EM64L-G09RevC.01 23-Sep-2011
                23-Dec-2022 
 ******************************************
 %chk=03_RSRS_THC_007_optB_NMR
 %nprocshared=4
 Will use up to    4 processors via shared memory.
 ------------------------------------------------
 # mPW1PW91/6-31+G** scrf=(PCM,solvent=water) nmr
 ------------------------------------------------
 1/38=1/1;
 2/12=2,17=6,18=5,40=1/2;
 3/5=1,6=6,7=111,11=2,16=1,25=1,30=1,70=2201,72=1,74=-7/1,2,8,3;
 4//1;
 5/5=2,38=5,53=1/2;
 8/6=1,10=90,11=11/1;
 10/13=100,45=16/2;
 6/7=2,8=2,9=2,10=2,28=1/1;
 99/9=1/99;
 -------
 comment
 -------
 Charge =  0 Multiplicity = 1
 Symbolic Z-Matrix:
 6                     1.9962    2.19126  -1.73768 
 6                     1.20038   3.35493  -1.1277 
 1                     1.81861   4.26271  -1.12595 
 1                     0.35955   3.60901  -1.78154 
 6                     0.70111   3.08795   0.29436 
 1                     1.57001   3.1274    0.96529 
 6                    -0.00762   1.72654   0.52221 
 1                     0.09386   1.56205   1.6071 
 6                     0.79079   0.57045  -0.15873 
 1                     1.76458   0.58337   0.3485 
 6                     1.19787   0.86702  -1.62066 
 1                     1.79541   0.04055  -2.02485 
 6                     0.25165  -0.83174   0.13471 
 6                    -0.65974  -3.44613   0.84298 
 6                     0.70344  -1.49759   1.29538 
 6                    -0.69761  -1.51429  -0.64029 
 6                    -1.14116  -2.79715  -0.2958 
 6                     0.26443  -2.77906   1.64689 
 1                    -1.88219  -3.28074  -0.92945 
 1                     0.6333   -3.26346   2.54642 
 8                    -1.29715  -1.00916  -1.75776 
 1                    -0.94328  -0.11357  -1.94723 
 8                     1.60082  -0.86548   2.11962 
 1                     1.77087  -1.43329   2.88926 
 8                     0.05165   0.97888  -2.48191 
 1                     0.34653   1.5387   -3.23297 
 6                     3.40424   2.0988   -1.13961 
 1                     3.98232   2.999    -1.37899 
 1                     3.95466   1.25675  -1.57455 
 1                     3.40149   1.9796   -0.05319 
 8                     2.1394    2.4762   -3.1457 
 1                     2.80436   1.86372  -3.50963 
 1                     0.05251   3.91417   0.6119 
 6                    -1.52183   1.76128   0.29011 
 6                    -2.13983   2.35701  -0.74333 
 1                    -3.22267   2.35158  -0.83233 
 1                    -1.6064    2.84668  -1.54626 
 6                    -2.35727   1.11025   1.36847 
 1                    -2.10176   0.05473   1.48686 
 1                    -3.42939   1.16285   1.14991 
 1                    -2.19316   1.61459   2.32663 
 6                    -1.16209  -4.81656   1.21326 
 1                    -1.39427  -5.38328   0.30331 
 1                    -0.36782  -5.37512   1.72337 
 6                    -2.39365  -4.74618   2.10322 
 1                    -2.73585  -5.75466   2.35614 
 1                    -3.21631  -4.22421   1.60273 
 1                    -2.179    -4.21636   3.03752 
 
                          Input orientation:                          
 ---------------------------------------------------------------------
 Center     Atomic      Atomic             Coordinates (Angstroms)
 Number     Number       Type             X           Y           Z
 ---------------------------------------------------------------------
      1          6           0        1.996198    2.191259   -1.737678
      2          6           0        1.200381    3.354931   -1.127700
      3          1           0        1.818607    4.262713   -1.125948
      4          1           0        0.359554    3.609012   -1.781543
      5          6           0        0.701112    3.087945    0.294355
      6          1           0        1.570009    3.127398    0.965288
      7          6           0       -0.007615    1.726541    0.522211
      8          1           0        0.093864    1.562052    1.607101
      9          6           0        0.790787    0.570449   -0.158727
     10          1           0        1.764585    0.583366    0.348495
     11          6           0        1.197873    0.867020   -1.620662
     12          1           0        1.795408    0.040551   -2.024853
     13          6           0        0.251651   -0.831736    0.134705
     14          6           0       -0.659737   -3.446134    0.842977
     15          6           0        0.703441   -1.497590    1.295380
     16          6           0       -0.697611   -1.514294   -0.640289
     17          6           0       -1.141160   -2.797150   -0.295799
     18          6           0        0.264427   -2.779058    1.646891
     19          1           0       -1.882188   -3.280735   -0.929450
     20          1           0        0.633300   -3.263463    2.546421
     21          8           0       -1.297152   -1.009161   -1.757756
     22          1           0       -0.943282   -0.113572   -1.947232
     23          8           0        1.600815   -0.865481    2.119621
     24          1           0        1.770871   -1.433294    2.889255
     25          8           0        0.051650    0.978879   -2.481908
     26          1           0        0.346535    1.538702   -3.232974
     27          6           0        3.404241    2.098804   -1.139609
     28          1           0        3.982322    2.999004   -1.378986
     29          1           0        3.954657    1.256750   -1.574554
     30          1           0        3.401486    1.979596   -0.053194
     31          8           0        2.139403    2.476196   -3.145695
     32          1           0        2.804360    1.863724   -3.509628
     33          1           0        0.052505    3.914174    0.611898
     34          6           0       -1.521827    1.761284    0.290111
     35          6           0       -2.139828    2.357007   -0.743335
     36          1           0       -3.222667    2.351585   -0.832334
     37          1           0       -1.606403    2.846682   -1.546262
     38          6           0       -2.357267    1.110246    1.368466
     39          1           0       -2.101757    0.054726    1.486856
     40          1           0       -3.429386    1.162852    1.149913
     41          1           0       -2.193160    1.614592    2.326631
     42          6           0       -1.162094   -4.816563    1.213262
     43          1           0       -1.394274   -5.383278    0.303309
     44          1           0       -0.367820   -5.375116    1.723369
     45          6           0       -2.393652   -4.746182    2.103216
     46          1           0       -2.735846   -5.754659    2.356140
     47          1           0       -3.216313   -4.224215    1.602730
     48          1           0       -2.179001   -4.216359    3.037516
 ---------------------------------------------------------------------
                    Distance matrix (angstroms):
                    1          2          3          4          5
     1  C    0.000000
     2  C    1.536077   0.000000
     3  H    2.167182   1.098305   0.000000
     4  H    2.165769   1.095015   1.727994   0.000000
     5  C    2.571080   1.530618   2.155489   2.167377   0.000000
     6  H    2.892061   2.137521   2.392490   3.040104   1.098494
     7  C    3.055868   2.614023   3.533225   2.997631   1.551655
     8  H    3.899016   3.452236   4.211634   3.967813   2.102475
     9  C    2.563811   2.976578   3.952815   3.471651   2.559514
    10  H    2.644065   3.190463   3.964151   3.957993   2.721548
    11  C    1.550685   2.536281   3.487231   2.871791   2.974319
    12  H    2.179066   3.484833   4.316853   3.854192   3.982816
    13  C    3.960778   4.474588   5.477044   4.837757   3.948595
    14  C    6.744922   7.321072   8.333377   7.596193   6.696797
    15  C    4.947552   5.446580   6.347245   5.971859   4.693527
    16  C    4.710838   5.248743   6.319892   5.354282   4.900061
    17  C    6.066816   6.634982   7.700067   6.745257   6.194885
    18  C    6.257666   6.797072   7.725972   7.250562   6.036702
    19  H    6.755578   7.319400   8.404648   7.295210   6.980776
    20  H    7.068591   7.591040   8.457812   8.126323   6.739198
    21  O    4.592303   5.067538   6.156280   4.906400   4.999050
    22  H    3.741217   4.159019   5.239695   3.947464   4.240101
    23  O    4.937483   5.340161   6.072852   6.064726   4.446419
    24  H    5.881893   6.276025   6.969120   7.016625   5.321607
    25  O    2.409359   2.966326   3.967913   2.739146   3.546491
    26  H    2.320157   2.908594   3.745236   2.528440   3.868841
    27  C    1.532586   2.536730   2.682709   3.458747   3.215830
    28  H    2.173891   2.815853   2.518463   3.695756   3.684335
    29  H    2.176115   3.491143   3.714804   4.301249   4.175123
    30  H    2.203888   2.809088   2.978075   3.859474   2.939600
    31  O    1.443679   2.392957   2.715499   2.512379   3.778474
    32  H    1.974895   3.235742   3.522611   3.465456   4.515823
    33  H    3.502412   2.157909   2.502140   2.432275   1.097350
    34  C    4.083296   3.458369   4.406911   3.353423   2.588727
    35  C    4.257101   3.507220   4.409911   2.981997   3.111593
    36  H    5.299237   4.545030   5.399358   3.913366   4.148216
    37  H    3.666736   2.882975   3.729946   2.121672   2.961537
    38  C    5.456133   4.891454   5.796385   4.852578   3.797196
    39  H    5.635213   5.350829   6.316894   5.419726   4.298669
    40  H    6.231594   5.606022   6.506159   5.378959   4.636699
    41  H    5.865311   5.145610   5.918371   5.231745   3.831152
    42  C    8.233615   8.822399   9.838178   9.070534   8.172954
    43  H    8.546024   9.226935  10.266963   9.395946   8.726531
    44  H    8.649708   9.316737  10.285272   9.670990   8.649168
    45  C    9.063737   9.433130  10.456138   9.616692   8.615283
    46  H   10.113812  10.517398  11.541912  10.694871   9.708517
    47  H    8.915542   9.187268  10.238361   9.252004   8.397961
    48  H    9.016226   9.278668  10.257191   9.534360   8.317021
                    6          7          8          9         10
     6  H    0.000000
     7  C    2.155833   0.000000
     8  H    2.245270   1.101972   0.000000
     9  C    2.899756   1.561305   2.141758   0.000000
    10  H    2.624955   2.116062   2.309377   1.098054   0.000000
    11  C    3.454697   2.604589   3.481431   1.546262   2.068623
    12  H    4.303530   3.546969   4.289675   2.184601   2.434826
    13  C    4.254725   2.600416   2.814795   1.530651   2.082592
    14  C    6.942482   5.223478   5.121887   4.386385   4.728501
    15  C    4.717035   3.390931   3.135310   2.529594   2.520515
    16  C    5.409740   3.511483   3.891157   2.606413   3.382349
    17  C    6.636344   4.734749   4.914159   3.884834   4.504039
    18  C    6.087311   4.651810   4.344642   3.841420   3.904126
    19  H    7.521428   5.540231   5.813043   4.750835   5.464740
    20  H    6.649851   5.422946   4.945596   4.694839   4.572612
    21  O    5.722474   3.787508   4.457390   3.067825   4.043102
    22  H    5.030238   3.218639   4.064071   2.583337   3.617821
    23  O    4.156503   3.443450   2.902843   2.812279   2.294094
    24  H    4.953979   4.330181   3.664474   3.777002   3.243828
    25  O    4.336440   3.096327   4.130601   2.471904   3.331930
    26  H    4.652553   3.776522   4.846722   3.253593   3.968684
    27  C    2.975400   3.813265   4.334872   3.182474   2.683184
    28  H    3.366208   4.599273   5.108978   4.191993   3.706461
    29  H    3.954322   4.507408   5.012171   3.533503   2.991317
    30  H    2.389365   3.466569   3.724418   2.968599   2.188666
    31  O    4.201007   4.315693   5.254423   3.791123   3.991574
    32  H    4.810963   4.917494   5.798165   4.117714   4.195898
    33  H    1.745485   2.190296   2.554333   3.509903   3.754314
    34  C    3.446967   1.532290   2.093946   2.639645   3.491618
    35  C    4.156416   2.558403   3.338545   3.481675   4.425193
    36  H    5.177169   3.544296   4.192086   4.442298   5.421590
    37  H    4.059098   2.844190   3.805900   3.585109   4.480654
    38  C    4.433391   2.572321   2.503821   3.540332   4.278739
    39  H    4.816141   2.847971   2.665941   3.367600   4.064963
    40  H    5.374708   3.524241   3.575147   4.457953   5.287288
    41  H    4.278233   2.836383   2.398116   4.021341   4.543148
    42  C    8.404309   6.680014   6.513008   5.892029   6.202621
    43  H    9.036415   7.247087   7.221637   6.358839   6.751391
    44  H    8.753435   7.211523   6.953487   6.343059   6.476183
    45  C    8.888125   7.077351   6.799095   6.597242   6.983843
    46  H    9.968240   8.171591   7.880519   7.666074   8.028393
    47  H    8.795534   6.846514   6.666197   6.492179   7.035289
    48  H    8.501763   6.808799   6.371973   6.476816   6.769052
                   11         12         13         14         15
    11  C    0.000000
    12  H    1.097028   0.000000
    13  C    2.619623   2.794237   0.000000
    14  C    5.303163   5.138984   2.857858   0.000000
    15  C    3.786707   3.818667   1.412318   2.420691   0.000000
    16  C    3.197601   3.248031   1.402712   2.435881   2.389569
    17  C    4.544500   4.434592   2.447061   1.396338   2.761025
    18  C    4.984186   4.876043   2.465549   1.394757   1.399447
    19  H    5.212334   5.074994   3.418083   2.159454   3.849020
    20  H    5.894422   5.758780   3.446060   2.146401   2.165255
    21  O    3.124740   3.276761   2.451873   3.620628   3.682741
    22  H    2.377552   2.744122   2.505611   4.355644   3.891239
    23  O    4.141695   4.246813   2.400266   3.660559   1.372668
    24  H    5.095010   5.130426   3.202725   3.761201   1.919369
    25  O    1.438084   2.032253   3.188258   5.580472   4.563511
    26  H    1.943060   2.408993   4.119374   6.517250   5.463739
    27  C    2.572307   2.758334   4.488961   7.154922   5.114445
    28  H    3.515241   3.735262   5.557314   8.247765   6.174355
    29  H    2.784578   2.518783   4.582095   7.018134   5.137443
    30  H    2.924156   3.197940   4.226152   6.836315   4.603143
    31  O    2.408662   2.703144   5.026634   7.669334   6.129936
    32  H    2.672529   2.558614   5.202211   7.690236   6.228997
    33  H    3.947320   4.999512   4.773996   7.398298   5.493456
    34  C    3.442024   4.395910   3.145334   5.307170   4.072179
    35  C    3.758991   4.742820   4.081447   6.195441   5.205618
    36  H    4.729331   5.651908   4.810362   6.556586   5.895561
    37  H    3.433447   4.435734   4.450704   6.797365   5.681814
    38  C    4.651137   5.468416   3.478493   4.890638   4.021702
    39  H    4.604786   5.245969   2.855285   3.840576   3.211773
    40  H    5.401401   6.215881   4.308023   5.385900   4.917253
    41  H    5.257289   6.109148   4.094650   5.492136   4.374866
    42  C    6.775226   6.543986   4.363577   1.505839   3.808221
    43  H    7.034708   6.709123   4.842936   2.140867   4.525835
    44  H    7.252462   6.932400   4.852824   2.140392   4.045489
    45  C    7.633765   7.583007   5.118159   2.506948   4.560475
    46  H    8.668088   8.562115   6.172122   3.453864   5.574634
    47  H    7.469670   7.514315   5.068607   2.778257   4.784706
    48  H    7.677412   7.716527   5.078391   2.778023   4.328419
                   16         17         18         19         20
    16  C    0.000000
    17  C    1.400403   0.000000
    18  C    2.785020   2.397926   0.000000
    19  H    2.146427   1.088343   3.390748   0.000000
    20  H    3.871180   3.382953   1.086218   4.290648   0.000000
    21  O    1.365043   2.314856   4.142788   2.487652   5.228238
    22  H    1.931445   3.157211   4.634770   3.456638   5.709671
    23  O    3.649771   4.133284   2.381425   5.221264   2.620794
    24  H    4.307859   4.525992   2.371481   5.598249   2.181999
    25  O    3.188866   4.523302   5.586979   4.928911   6.604534
    26  H    4.139208   5.444249   6.516354   5.787953   7.519603
    27  C    5.488989   6.733725   6.435569   7.545194   7.072400
    28  H    6.543494   7.811451   7.507641   8.604051   8.114386
    29  H    5.495011   6.636013   6.346909   7.421165   6.960329
    30  H    5.417984   6.596348   5.947791   7.507072   6.473834
    31  O    5.499975   6.833168   7.355414   7.363912   8.222665
    32  H    5.648710   6.900694   7.388936   7.422029   8.226620
    33  H    5.621291   6.876818   6.776096   7.608253   7.456419
    34  C    3.503482   4.611672   5.064213   5.199918   5.914693
    35  C    4.132503   5.269057   6.154087   5.646694   7.078306
    36  H    4.621451   5.579428   6.680560   5.790453   7.603502
    37  H    4.545855   5.799392   6.733883   6.164556   7.687665
    38  C    3.698346   4.417742   4.698669   4.978638   5.427744
    39  H    2.993024   3.497686   3.695236   4.124567   4.428724
    40  H    4.223095   4.796633   5.424933   5.144224   6.168300
    41  H    4.563903   5.239019   5.079955   5.887529   5.642040
    42  C    3.815282   2.521058   2.524762   2.732859   2.722659
    43  H    4.042864   2.666656   3.367263   2.485647   3.692725
    44  H    4.538897   3.364670   2.673033   3.703672   2.477647
    45  C    4.566013   3.335077   3.338143   3.406786   3.399607
    46  H    5.577964   4.280498   4.284726   4.200492   4.194450
    47  H    4.326506   3.153916   3.769083   3.013632   4.078372
    48  H    4.798116   3.768589   3.157533   4.086601   3.009689
                   21         22         23         24         25
    21  O    0.000000
    22  H    0.981430   0.000000
    23  O    4.842821   4.855625   0.000000
    24  H    5.584565   5.700869   0.971425   0.000000
    25  O    2.509175   1.571374   5.193808   6.133815   0.000000
    26  H    3.371880   2.459018   6.000299   6.952926   0.982069
    27  C    5.669625   4.944474   4.760453   5.601371   3.780988
    28  H    6.639405   5.854281   5.731149   6.538628   4.554946
    29  H    5.722711   5.099655   4.867378   5.650739   4.016711
    30  H    5.823693   5.181288   4.007244   4.792154   4.256934
    31  O    5.087632   4.200733   6.259428   7.200039   2.653543
    32  H    5.305179   4.516149   6.370677   7.272148   3.068644
    33  H    5.628149   4.874780   5.245531   6.060904   4.264692
    34  C    3.452477   2.975820   4.471900   5.272830   3.282084
    35  C    3.615278   2.997474   5.707308   6.546423   3.118405
    36  H    3.982289   3.537738   6.506116   7.287727   3.914916
    37  H    3.874001   3.060001   6.124141   7.028370   2.667070
    38  C    3.922881   3.806697   4.487109   5.081724   4.543734
    39  H    3.508098   3.628133   3.867326   4.379289   4.608938
    40  H    4.209347   4.171604   5.509755   6.066957   5.034042
    41  H    4.936510   4.776469   4.537385   5.031868   5.344656
    42  C    4.831305   5.670514   4.905732   4.780978   6.979584
    43  H    4.836355   5.747880   5.716646   5.683980   7.094023
    44  H    5.660694   6.441142   4.936532   4.633708   7.631091
    45  C    5.484045   6.322245   5.569190   5.379250   7.731700
    46  H    6.443116   7.318071   6.539621   6.266491   8.747421
    47  H    5.031165   5.887808   5.895167   5.858019   7.378077
    48  H    5.835959   6.573247   5.133997   4.834141   7.901287
                   26         27         28         29         30
    26  H    0.000000
    27  C    3.747727   0.000000
    28  H    4.334594   1.096284   0.000000
    29  H    3.981004   1.095988   1.753414   0.000000
    30  H    4.431491   1.092938   1.770391   1.772862   0.000000
    31  O    2.025065   2.401379   2.605944   2.692709   3.376837
    32  H    2.494611   2.456036   2.686278   2.331547   3.509547
    33  H    4.529057   4.194935   4.499402   5.202813   3.924361
    34  C    3.994051   5.140444   5.883323   5.807186   4.940094
    35  C    3.612468   5.564208   6.188452   6.248539   5.596865
    36  H    4.377563   6.638843   7.254644   7.298187   6.680183
    37  H    2.893056   5.082444   5.593302   5.783949   5.297173
    38  C    5.354192   6.361027   7.162841   6.965861   5.995009
    39  H    5.520246   6.433707   7.341515   6.891824   6.030138
    40  H    5.797287   7.267488   8.043644   7.871190   6.983936
    41  H    6.112693   6.601528   7.333810   7.289921   6.090719
    42  C    7.901542   8.614507   9.709163   8.416543   8.283596
    43  H    7.965520   9.004961  10.099532   8.730831   8.794221
    44  H    8.536774   8.847857   9.933490   8.575649   8.453144
    45  C    8.688113   9.538622  10.619166   9.479568   9.136182
    46  H    9.691872  10.563987  11.649531  10.458157  10.163191
    47  H    8.324009   9.556816  10.624776   9.568643   9.220880
    48  H    8.877956   9.407564  10.465603   9.425915   8.892929
                   31         32         33         34         35
    31  O    0.000000
    32  H    0.974544   0.000000
    33  H    4.532376   5.363210   0.000000
    34  C    5.071535   5.758854   2.686449   0.000000
    35  C    4.908907   5.686889   3.011271   1.343437   0.000000
    36  H    5.841144   6.612940   3.905669   2.121603   1.086504
    37  H    4.089805   4.927052   2.923897   2.134832   1.081211
    38  C    6.516404   7.141844   3.773780   1.511510   2.461991
    39  H    6.731381   7.232380   4.505745   2.163529   3.205573
    40  H    7.154616   7.814227   4.470213   2.176273   2.583283
    41  H    7.032767   7.687600   3.642993   2.149330   3.158910
    42  C    9.115082   9.092012   8.835308   6.652044   7.499623
    43  H    9.281909   9.202503   9.414404   7.145712   7.846229
    44  H    9.572725   9.478808   9.364986   7.369814   8.307248
    45  C   10.013112  10.110104   9.121923   6.811354   7.656538
    46  H   11.035634  11.096886  10.212914   7.888708   8.704086
    47  H    9.804424   9.972347   8.826114   6.357707   7.069322
    48  H   10.083204  10.230660   8.773187   6.611529   7.583238
                   36         37         38         39         40
    36  H    0.000000
    37  H    1.834973   0.000000
    38  C    2.670836   3.474860   0.000000
    39  H    3.451180   4.152132   1.092439   0.000000
    40  H    2.320587   3.664411   1.095433   1.761838   0.000000
    41  H    3.403249   4.106291   1.095160   1.773910   1.765500
    42  C    7.733872   8.157065   6.048107   4.968630   6.395157
    43  H    8.028749   8.437899   6.650396   5.610098   6.907259
    44  H    8.624598   8.934346   6.792921   5.704880   7.242035
    45  C    7.725479   8.461089   5.902451   4.849105   6.074391
    46  H    8.724366   9.512489   6.945915   5.908188   7.056057
    47  H    7.012183   7.906044   5.408263   4.423234   5.410262
    48  H    7.694340   8.439516   5.584821   4.544522   5.836302
                   41         42         43         44         45
    41  H    0.000000
    42  C    6.607757   0.000000
    43  H    7.328181   1.096853   0.000000
    44  H    7.249263   1.096841   1.752211   0.000000
    45  C    6.367854   1.521088   2.155066   2.154956   0.000000
    46  H    7.389265   2.159373   2.480293   2.480323   1.094574
    47  H    5.971812   2.173104   2.520267   3.074580   1.095312
    48  H    5.874142   2.173074   3.074635   2.519936   1.095310
                   46         47         48
    46  H    0.000000
    47  H    1.772212   0.000000
    48  H    1.772207   1.770505   0.000000
 Stoichiometry    C18H26O4
 Framework group  C1[X(C18H26O4)]
 Deg. of freedom   138
 Full point group                 C1      NOp   1
 Largest Abelian subgroup         C1      NOp   1
 Largest concise Abelian subgroup C1      NOp   1
                         Standard orientation:                         
 ---------------------------------------------------------------------
 Center     Atomic      Atomic             Coordinates (Angstroms)
 Number     Number       Type             X           Y           Z
 ---------------------------------------------------------------------
      1          6           0       -3.193590   -0.962642    0.291452
      2          6           0       -3.665285    0.292345   -0.458245
      3          1           0       -4.656613    0.109767   -0.894372
      4          1           0       -3.836022    1.105333    0.255168
      5          6           0       -2.710510    0.751500   -1.562950
      6          1           0       -2.792922    0.036489   -2.392803
      7          6           0       -1.212165    0.846572   -1.171089
      8          1           0       -0.688374    0.776231   -2.138062
      9          6           0       -0.775299   -0.413488   -0.359258
     10          1           0       -0.935726   -1.248114   -1.054518
     11          6           0       -1.737957   -0.780158    0.793899
     12          1           0       -1.403189   -1.698354    1.292212
     13          6           0        0.722919   -0.483539   -0.053763
     14          6           0        3.545425   -0.685788    0.346124
     15          6           0        1.578330   -1.073255   -1.010398
     16          6           0        1.340874    0.028381    1.096745
     17          6           0        2.723366   -0.074428    1.294921
     18          6           0        2.960747   -1.179013   -0.820165
     19          1           0        3.152765    0.343284    2.203560
     20          1           0        3.590123   -1.639867   -1.576055
     21          8           0        0.691413    0.688717    2.099492
     22          1           0       -0.269689    0.724666    1.904056
     23          8           0        1.040786   -1.555060   -2.177928
     24          1           0        1.761459   -1.881260   -2.741747
     25          8           0       -1.759501    0.233154    1.814105
     26          1           0       -2.631254    0.136442    2.255866
     27          6           0       -3.383357   -2.226855   -0.553873
     28          1           0       -4.447295   -2.396210   -0.756837
     29          1           0       -3.030501   -3.111398   -0.011410
     30          1           0       -2.860505   -2.183840   -1.512669
     31          8           0       -4.031798   -1.090660    1.459882
     32          1           0       -3.887499   -1.977656    1.836912
     33          1           0       -3.060473    1.708673   -1.969797
     34          6           0       -0.793967    2.213304   -0.618758
     35          6           0       -1.481450    2.934972    0.282010
     36          1           0       -1.126843    3.906149    0.616016
     37          1           0       -2.398265    2.588746    0.738732
     38          6           0        0.473977    2.788862   -1.206731
     39          1           0        1.327326    2.128595   -1.035651
     40          1           0        0.725261    3.763704   -0.774862
     41          1           0        0.357315    2.929238   -2.286574
     42          6           0        5.033303   -0.769586    0.562336
     43          1           0        5.245866   -0.870225    1.633678
     44          1           0        5.424048   -1.678852    0.089458
     45          6           0        5.755044    0.448950    0.007387
     46          1           0        6.832622    0.360771    0.178101
     47          1           0        5.409234    1.369523    0.489745
     48          1           0        5.589521    0.552155   -1.070414
 ---------------------------------------------------------------------
 Rotational constants (GHZ):      0.5050214      0.1803693      0.1726994
 Standard basis: 6-31+G(d,p) (6D, 7F)
 There are   548 symmetry adapted basis functions of A   symmetry.
 Integral buffers will be    131072 words long.
 Raffenetti 2 integral format.
 Two-electron integral symmetry is turned on.
   548 basis functions,   886 primitive gaussians,   548 cartesian basis functions
    83 alpha electrons       83 beta electrons
       nuclear repulsion energy      1991.2116101996 Hartrees.
 NAtoms=   48 NActive=   48 NUniq=   48 SFac= 1.00D+00 NAtFMM=   60 NAOKFM=F Big=F
 ------------------------------------------------------------------------------
 Polarizable Continuum Model (PCM)
 =================================
 Model                : PCM.
 Atomic radii         : UFF (Universal Force Field).
 Polarization charges : Total charges.
 Charge compensation  : None.
 Solution method      : Matrix inversion.
 Cavity type          : Scaled VdW (van der Waals Surface) (Alpha=1.100).
 Cavity algorithm     : GePol (No added spheres)
                        Default sphere list used, NSphG=   48.
                        Lebedev-Laikov grids with approx.  5.0 points / Ang**2.
                        Smoothing algorithm: Karplus/York (Gamma=1.0000).
                        Polarization charges: spherical gaussians, with
                                              point-specific exponents (IZeta= 3).
                        Self-potential: point-specific (ISelfS= 7).
                        Self-field    : sphere-specific E.n sum rule (ISelfD= 2).
 Solvent              : Water, Eps=  78.355300 Eps(inf)=   1.777849
 ------------------------------------------------------------------------------
 One-electron integrals computed using PRISM.
 NBasis=   548 RedAO= T  NBF=   548
 NBsUse=   546 1.00D-06 NBFU=   546
 Harris functional with IExCor=  908 diagonalized for initial guess.
 ExpMin= 4.38D-02 ExpMax= 5.48D+03 ExpMxC= 8.25D+02 IAcc=2 IRadAn=         4 AccDes= 0.00D+00
 HarFok:  IExCor=  908 AccDes= 0.00D+00 IRadAn=         4 IDoV= 1
 ScaDFX=  1.000000  1.000000  1.000000  1.000000
 FoFCou: FMM=F IPFlag=           0 FMFlag=      100000 FMFlg1=           0
         NFxFlg=           0 DoJE=T BraDBF=F KetDBF=T FulRan=T
         Omega=  0.000000  0.000000  1.000000  0.000000  0.000000 ICntrl=     500 IOpCl=  0
         NMat0=    1 NMatS0=    1 NMatT0=    0 NMatD0=    1 NMtDS0=    0 NMtDT0=    0
         I1Cent=           4 NGrid=           0.
 Petite list used in FoFCou.
 Initial guess orbital symmetries:
       Occupied  (A) (A) (A) (A) (A) (A) (A) (A) (A) (A) (A) (A)
                 (A) (A) (A) (A) (A) (A) (A) (A) (A) (A) (A) (A)
                 (A) (A) (A) (A) (A) (A) (A) (A) (A) (A) (A) (A)
                 (A) (A) (A) (A) (A) (A) (A) (A) (A) (A) (A) (A)
                 (A) (A) (A) (A) (A) (A) (A) (A) (A) (A) (A) (A)
                 (A) (A) (A) (A) (A) (A) (A) (A) (A) (A) (A) (A)
                 (A) (A) (A) (A) (A) (A) (A) (A) (A) (A) (A)
       Virtual   (A) (A) (A) (A) (A) (A) (A) (A) (A) (A) (A) (A)
                 (A) (A) (A) (A) (A) (A) (A) (A) (A) (A) (A) (A)
                 (A) (A) (A) (A) (A) (A) (A) (A) (A) (A) (A) (A)
                 (A) (A) (A) (A) (A) (A) (A) (A) (A) (A) (A) (A)
                 (A) (A) (A) (A) (A) (A) (A) (A) (A) (A) (A) (A)
                 (A) (A) (A) (A) (A) (A) (A) (A) (A) (A) (A) (A)
                 (A) (A) (A) (A) (A) (A) (A) (A) (A) (A) (A) (A)
                 (A) (A) (A) (A) (A) (A) (A) (A) (A) (A) (A) (A)
                 (A) (A) (A) (A) (A) (A) (A) (A) (A) (A) (A) (A)
                 (A) (A) (A) (A) (A) (A) (A) (A) (A) (A) (A) (A)
                 (A) (A) (A) (A) (A) (A) (A) (A) (A) (A) (A) (A)
                 (A) (A) (A) (A) (A) (A) (A) (A) (A) (A) (A) (A)
                 (A) (A) (A) (A) (A) (A) (A) (A) (A) (A) (A) (A)
                 (A) (A) (A) (A) (A) (A) (A) (A) (A) (A) (A) (A)
                 (A) (A) (A) (A) (A) (A) (A) (A) (A) (A) (A) (A)
                 (A) (A) (A) (A) (A) (A) (A) (A) (A) (A) (A) (A)
                 (A) (A) (A) (A) (A) (A) (A) (A) (A) (A) (A) (A)
                 (A) (A) (A) (A) (A) (A) (A) (A) (A) (A) (A) (A)
                 (A) (A) (A) (A) (A) (A) (A) (A) (A) (A) (A) (A)
                 (A) (A) (A) (A) (A) (A) (A) (A) (A) (A) (A) (A)
                 (A) (A) (A) (A) (A) (A) (A) (A) (A) (A) (A) (A)
                 (A) (A) (A) (A) (A) (A) (A) (A) (A) (A) (A) (A)
                 (A) (A) (A) (A) (A) (A) (A) (A) (A) (A) (A) (A)
                 (A) (A) (A) (A) (A) (A) (A) (A) (A) (A) (A) (A)
                 (A) (A) (A) (A) (A) (A) (A) (A) (A) (A) (A) (A)
                 (A) (A) (A) (A) (A) (A) (A) (A) (A) (A) (A) (A)
                 (A) (A) (A) (A) (A) (A) (A) (A) (A) (A) (A) (A)
                 (A) (A) (A) (A) (A) (A) (A) (A) (A) (A) (A) (A)
                 (A) (A) (A) (A) (A) (A) (A) (A) (A) (A) (A) (A)
                 (A) (A) (A) (A) (A) (A) (A) (A) (A) (A) (A) (A)
                 (A) (A) (A) (A) (A) (A) (A) (A) (A) (A) (A) (A)
                 (A) (A) (A) (A) (A) (A) (A) (A) (A) (A) (A) (A)
                 (A) (A) (A) (A) (A) (A) (A) (A) (A) (A) (A) (A)
                 (A) (A) (A) (A) (A) (A) (A) (A) (A) (A) (A) (A)
                 (A) (A) (A) (A) (A) (A) (A) (A) (A) (A) (A) (A)
                 (A) (A) (A) (A) (A) (A) (A) (A) (A) (A) (A) (A)
                 (A) (A) (A) (A) (A) (A) (A) (A) (A) (A) (A) (A)
                 (A) (A) (A) (A) (A) (A) (A) (A) (A) (A) (A) (A)
                 (A) (A) (A) (A) (A) (A) (A)
 The electronic state of the initial guess is 1-A.
 Requested convergence on RMS density matrix=1.00D-08 within 128 cycles.
 Requested convergence on MAX density matrix=1.00D-06.
 Requested convergence on             energy=1.00D-06.
 No special actions if energy rises.
 CoulSu:  requested number of processors reduced to:   3 ShMem   1 Linda.
 CoulSu:  requested number of processors reduced to:   3 ShMem   1 Linda.
 Error on total polarization charges =  0.01929
 SCF Done:  E(RmPW1PW91) =  -1002.30587501     A.U. after   14 cycles
             Convg  =    0.5672D-08             -V/T =  2.0093
 Range of M.O.s used for correlation:     1   546
 NBasis=   548 NAE=    83 NBE=    83 NFC=     0 NFV=     0
 NROrb=    546 NOA=    83 NOB=    83 NVA=   463 NVB=   463

 **** Warning!!: The largest alpha MO coefficient is  0.15591283D+03

 NEqPCM:  Using equilibrium solvation (IEInf=0, Eps=  78.3553, EpsInf=   1.7778)
          Differentiating once with respect to magnetic field using GIAOs.
          Electric field/nuclear overlap derivatives assumed to be zero.
 FoFCou: FMM=F IPFlag=           0 FMFlag=    10101102 FMFlg1=           0
         NFxFlg=    40000000 DoJE=F BraDBF=F KetDBF=T FulRan=T
         Omega=  0.000000  0.000000  1.000000  0.000000  0.000000 ICntrl=    6100 IOpCl=  0
         NMat0=    1 NMatS0=    1 NMatT0=    0 NMatD0=    1 NMtDS0=    0 NMtDT0=    0
         I1Cent=           7 NGrid=        2970.
 Symmetry not used in FoFCou.
          There are     3 degrees of freedom in the 1st order CPHF.  IDoFFX=0.
      3 vectors produced by pass  0 Test12= 1.28D-12 3.33D-08 XBig12= 6.47D+02 3.04D+00.
 AX will form     3 AO Fock derivatives at one time.
      3 vectors produced by pass  1 Test12= 1.28D-12 3.33D-08 XBig12= 1.47D+00 2.89D-01.
      3 vectors produced by pass  2 Test12= 1.28D-12 3.33D-08 XBig12= 5.69D-03 2.73D-02.
      3 vectors produced by pass  3 Test12= 1.28D-12 3.33D-08 XBig12= 2.85D-05 1.58D-03.
      3 vectors produced by pass  4 Test12= 1.28D-12 3.33D-08 XBig12= 9.20D-08 5.26D-05.
      3 vectors produced by pass  5 Test12= 1.28D-12 3.33D-08 XBig12= 2.75D-10 3.00D-06.
      3 vectors produced by pass  6 Test12= 1.28D-12 3.33D-08 XBig12= 1.18D-12 2.12D-07.
 Inverted reduced A of dimension    21 with in-core refinement.
 Calculating GIAO nuclear magnetic shielding tensors.
 SCF GIAO Magnetic shielding tensor (ppm):
      1  C    Isotropic =   120.4790   Anisotropy =    48.5814
   XX=   123.6931   YX=     7.3534   ZX=   -16.9462
   XY=     2.7062   YY=   102.2562   ZY=     1.9294
   XZ=   -27.1836   YZ=    -6.0427   ZZ=   135.4875
   Eigenvalues:   100.6110   107.9594   152.8666
      2  C    Isotropic =   165.1784   Anisotropy =    21.2962
   XX=   163.1178   YX=    -3.4101   ZX=    -1.3707
   XY=     2.7128   YY=   172.5208   ZY=   -10.4114
   XZ=    -2.4869   YZ=   -12.6339   ZZ=   159.8967
   Eigenvalues:   152.7446   163.4148   179.3759
      3  H    Isotropic =    30.0256   Anisotropy =     9.5101
   XX=    35.6681   YX=     0.6261   ZX=     2.4309
   XY=     0.2964   YY=    26.9761   ZY=    -1.3097
   XZ=     2.5597   YZ=    -1.5121   ZZ=    27.4325
   Eigenvalues:    25.3678    28.3434    36.3656
      4  H    Isotropic =    29.3273   Anisotropy =     6.7185
   XX=    28.5072   YX=    -1.9885   ZX=    -2.0846
   XY=    -2.4282   YY=    31.7003   ZY=     1.8255
   XZ=    -1.2504   YZ=     1.8955   ZZ=    27.7744
   Eigenvalues:    26.4320    27.7436    33.8063
      5  C    Isotropic =   163.1092   Anisotropy =    26.1048
   XX=   178.2818   YX=     3.5614   ZX=     8.8052
   XY=    -1.7136   YY=   156.0150   ZY=     0.1253
   XZ=     6.1800   YZ=    -0.8288   ZZ=   155.0308
   Eigenvalues:   152.7162   156.0990   180.5124
      6  H    Isotropic =    29.4585   Anisotropy =     8.4461
   XX=    28.5416   YX=     2.3154   ZX=     1.5464
   XY=     1.6663   YY=    26.1603   ZY=     2.2246
   XZ=     1.5197   YZ=     2.7746   ZZ=    33.6736
   Eigenvalues:    24.7654    28.5209    35.0892
      7  C    Isotropic =   154.9525   Anisotropy =    17.8315
   XX=   150.3368   YX=     6.4912   ZX=     5.1072
   XY=     3.8251   YY=   160.3479   ZY=     5.5362
   XZ=     7.4795   YZ=     4.6870   ZZ=   154.1730
   Eigenvalues:   145.5641   152.4533   166.8402
      8  H    Isotropic =    28.8077   Anisotropy =     5.8387
   XX=    29.8742   YX=     1.5472   ZX=    -2.0000
   XY=    -0.8338   YY=    26.2468   ZY=    -0.8207
   XZ=    -2.9429   YZ=    -1.0184   ZZ=    30.3021
   Eigenvalues:    26.0357    27.6872    32.7002
      9  C    Isotropic =   155.6025   Anisotropy =    18.9636
   XX=   156.2945   YX=     1.7680   ZX=    -0.8140
   XY=     0.0177   YY=   156.4262   ZY=   -14.9977
   XZ=     1.3325   YZ=   -10.8340   ZZ=   154.0868
   Eigenvalues:   142.2429   156.3197   168.2449
     10  H    Isotropic =    28.1515   Anisotropy =     7.8608
   XX=    31.7220   YX=    -0.5022   ZX=    -2.2525
   XY=     0.7980   YY=    27.3168   ZY=     5.1286
   XZ=    -3.3610   YZ=     4.2584   ZZ=    25.4157
   Eigenvalues:    21.0819    29.9805    33.3921
     11  C    Isotropic =   117.6692   Anisotropy =    35.9630
   XX=   107.1549   YX=     6.3839   ZX=     0.3424
   XY=     7.9035   YY=   131.2520   ZY=    13.6275
   XZ=    -2.0947   YZ=    17.7735   ZZ=   114.6007
   Eigenvalues:   101.2744   110.0887   141.6446
     12  H    Isotropic =    27.6414   Anisotropy =     4.7214
   XX=    26.0635   YX=    -0.2697   ZX=     0.7948
   XY=     0.4084   YY=    30.7135   ZY=    -1.9135
   XZ=    -0.3821   YZ=     0.7329   ZZ=    26.1472
   Eigenvalues:    25.8541    26.2811    30.7890
     13  C    Isotropic =    90.0866   Anisotropy =   114.5705
   XX=    53.3665   YX=    11.6221   ZX=    -7.6728
   XY=    19.9974   YY=   139.3800   ZY=   -45.7095
   XZ=   -10.2955   YZ=   -45.4836   ZZ=    77.5134
   Eigenvalues:    50.3524    53.4405   166.4670
     14  C    Isotropic =    50.1571   Anisotropy =   189.8853
   XX=   -28.3010   YX=    22.9749   ZX=   -20.5169
   XY=    21.6886   YY=   138.9212   ZY=   -68.3261
   XZ=   -19.1471   YZ=   -65.5917   ZZ=    39.8511
   Eigenvalues:   -33.8062     7.5303   176.7473
     15  C    Isotropic =    43.7016   Anisotropy =   125.0041
   XX=    33.8876   YX=    -0.7868   ZX=   -28.4393
   XY=     4.4216   YY=   101.1987   ZY=   -53.3106
   XZ=   -19.3223   YZ=   -59.2966   ZZ=    -3.9814
   Eigenvalues:   -35.0200    39.0872   127.0377
     16  C    Isotropic =    40.8130   Anisotropy =   133.6634
   XX=    12.9728   YX=    27.8961   ZX=    17.9905
   XY=    32.6118   YY=    89.2636   ZY=   -63.6099
   XZ=    12.5668   YZ=   -63.2363   ZZ=    20.2027
   Eigenvalues:   -35.1991    27.7163   129.9220
     17  C    Isotropic =    88.7890   Anisotropy =   106.1187
   XX=    78.5269   YX=    -5.5707   ZX=   -27.5512
   XY=   -10.5001   YY=   133.1528   ZY=   -51.6532
   XZ=   -26.1991   YZ=   -52.7623   ZZ=    54.6872
   Eigenvalues:    16.3087    90.5234   159.5348
     18  C    Isotropic =    93.8827   Anisotropy =    95.6726
   XX=    75.4329   YX=    22.2256   ZX=    27.2988
   XY=    17.4336   YY=   132.6762   ZY=   -46.5573
   XZ=    30.7456   YZ=   -44.7160   ZZ=    73.5391
   Eigenvalues:    24.6192    99.3645   157.6644
     19  H    Isotropic =    24.9325   Anisotropy =     7.6971
   XX=    29.3398   YX=    -1.8582   ZX=    -1.3754
   XY=    -1.4631   YY=    21.4741   ZY=     0.7446
   XZ=    -1.3193   YZ=     1.3433   ZZ=    23.9838
   Eigenvalues:    20.9327    23.8010    30.0639
     20  H    Isotropic =    25.2583   Anisotropy =     6.9339
   XX=    28.3396   YX=     0.4485   ZX=     2.5470
   XY=     0.2414   YY=    22.5975   ZY=     2.4495
   XZ=     2.4326   YZ=     1.8612   ZZ=    24.8378
   Eigenvalues:    21.1268    24.7671    29.8809
     21  O    Isotropic =   209.2987   Anisotropy =    75.9962
   XX=   175.4983   YX=    -0.0031   ZX=   -29.8604
   XY=    -1.0654   YY=   249.3660   ZY=   -19.4343
   XZ=   -33.0668   YZ=   -24.7328   ZZ=   203.0317
   Eigenvalues:   153.2037   214.7295   259.9628
     22  H    Isotropic =    20.7267   Anisotropy =    29.4571
   XX=    39.5610   YX=     2.9672   ZX=     4.7881
   XY=     1.9737   YY=     8.9738   ZY=     3.0940
   XZ=     2.7403   YZ=     3.1807   ZZ=    13.6452
   Eigenvalues:     7.3891    14.4261    40.3647
     23  O    Isotropic =   226.8988   Anisotropy =    45.7816
   XX=   195.7496   YX=    12.9032   ZX=    13.1579
   XY=    25.1567   YY=   241.5053   ZY=     7.6783
   XZ=    27.7522   YZ=    -3.3031   ZZ=   243.4415
   Eigenvalues:   183.0844   240.1921   257.4199
     24  H    Isotropic =    26.5471   Anisotropy =    15.1090
   XX=    29.6921   YX=    -3.0598   ZX=    -3.5694
   XY=    -4.0227   YY=    21.1516   ZY=     6.0990
   XZ=    -5.2726   YZ=     5.9103   ZZ=    28.7977
   Eigenvalues:    17.7584    25.2632    36.6198
     25  O    Isotropic =   286.4935   Anisotropy =    53.9163
   XX=   318.6527   YX=    -7.3408   ZX=   -15.8588
   XY=    14.1643   YY=   277.2072   ZY=    13.3030
   XZ=   -13.3708   YZ=    -7.0099   ZZ=   263.6207
   Eigenvalues:   259.1430   277.8999   322.4377
     26  H    Isotropic =    26.8801   Anisotropy =    17.9904
   XX=    34.9690   YX=     5.5409   ZX=    -5.9844
   XY=     4.2944   YY=    18.5107   ZY=     2.9579
   XZ=    -6.6633   YZ=     3.8387   ZZ=    27.1607
   Eigenvalues:    14.9154    26.8512    38.8737
     27  C    Isotropic =   171.0089   Anisotropy =    39.8035
   XX=   161.4603   YX=     4.6453   ZX=     5.7740
   XY=     4.3533   YY=   185.1182   ZY=    19.9435
   XZ=     4.1214   YZ=    16.8184   ZZ=   166.4483
   Eigenvalues:   154.5787   160.9035   197.5446
     28  H    Isotropic =    30.3011   Anisotropy =    10.4242
   XX=    33.7580   YX=     3.2436   ZX=     2.2065
   XY=     4.6011   YY=    29.7312   ZY=     2.1524
   XZ=     3.1180   YZ=     1.7297   ZZ=    27.4139
   Eigenvalues:    26.2573    27.3953    37.2506
     29  H    Isotropic =    30.6879   Anisotropy =     8.9159
   XX=    28.3251   YX=    -0.6357   ZX=     0.8458
   XY=    -0.0350   YY=    36.5628   ZY=    -1.4582
   XZ=     0.5066   YZ=     0.0679   ZZ=    27.1758
   Eigenvalues:    26.8379    28.5940    36.6318
     30  H    Isotropic =    29.6413   Anisotropy =     7.7050
   XX=    27.7756   YX=     1.6573   ZX=    -2.5205
   XY=     1.6290   YY=    29.0272   ZY=     4.4013
   XZ=    -2.8325   YZ=     2.7761   ZZ=    32.1212
   Eigenvalues:    24.2521    29.8939    34.7780
     31  O    Isotropic =   258.6195   Anisotropy =    97.9570
   XX=   214.1983   YX=   -10.3630   ZX=   -10.4142
   XY=     1.4362   YY=   273.7728   ZY=   -44.9332
   XZ=   -29.4992   YZ=   -37.1734   ZZ=   287.8872
   Eigenvalues:   205.1159   246.8184   323.9241
     32  H    Isotropic =    30.3099   Anisotropy =    18.0530
   XX=    24.5284   YX=     0.9963   ZX=    -3.5863
   XY=     1.5386   YY=    36.0143   ZY=    -7.6046
   XZ=    -2.6876   YZ=    -8.8230   ZZ=    30.3869
   Eigenvalues:    22.4861    26.0983    42.3452
     33  H    Isotropic =    29.7282   Anisotropy =     8.8724
   XX=    29.2729   YX=    -1.6749   ZX=     1.6744
   XY=    -1.3806   YY=    30.7663   ZY=    -4.7878
   XZ=     2.3793   YZ=    -4.5160   ZZ=    29.1453
   Eigenvalues:    25.1414    28.4001    35.6432
     34  C    Isotropic =    40.3322   Anisotropy =   181.3719
   XX=    13.8916   YX=   -81.1120   ZX=    60.7473
   XY=   -84.1704   YY=    13.5010   ZY=   -27.4860
   XZ=    62.5075   YZ=   -33.7027   ZZ=    93.6041
   Eigenvalues:   -72.3431    32.0929   161.2468
     35  C    Isotropic =    83.2960   Anisotropy =   120.8336
   XX=    69.7371   YX=   -75.1326   ZX=    21.0194
   XY=   -75.7459   YY=    50.7787   ZY=   -16.1800
   XZ=    22.6873   YZ=   -27.4453   ZZ=   129.3720
   Eigenvalues:   -15.8005   101.8367   163.8517
     36  H    Isotropic =    26.0640   Anisotropy =     5.6214
   XX=    25.1282   YX=    -3.3109   ZX=    -2.1198
   XY=    -1.5819   YY=    27.5414   ZY=     1.1414
   XZ=    -0.5346   YZ=     1.4131   ZZ=    25.5223
   Eigenvalues:    23.4690    24.9114    29.8116
     37  H    Isotropic =    25.7737   Anisotropy =     6.7146
   XX=    23.5782   YX=     0.3630   ZX=     0.1279
   XY=    -3.8380   YY=    28.3217   ZY=     3.0114
   XZ=    -1.9489   YZ=     1.7846   ZZ=    25.4213
   Eigenvalues:    22.9989    24.0722    30.2502
     38  C    Isotropic =   167.2678   Anisotropy =    43.2455
   XX=   176.9732   YX=    20.8253   ZX=   -14.4423
   XY=    17.2550   YY=   166.6802   ZY=    -0.0252
   XZ=   -17.9552   YZ=     0.4369   ZZ=   158.1501
   Eigenvalues:   143.3441   162.3613   196.0982
     39  H    Isotropic =    30.5257   Anisotropy =     7.6324
   XX=    32.7679   YX=    -1.3758   ZX=    -0.4022
   XY=    -2.5238   YY=    33.2377   ZY=    -3.1591
   XZ=     0.7476   YZ=    -3.0659   ZZ=    25.5714
   Eigenvalues:    24.4368    31.5262    35.6139
     40  H    Isotropic =    30.0193   Anisotropy =     8.5356
   XX=    28.8532   YX=     3.9357   ZX=     0.3721
   XY=     1.4837   YY=    34.5565   ZY=     1.6912
   XZ=    -0.6560   YZ=     0.1483   ZZ=    26.6483
   Eigenvalues:    26.4139    27.9344    35.7097
     41  H    Isotropic =    29.9886   Anisotropy =     8.3777
   XX=    27.4833   YX=     1.2778   ZX=    -1.6581
   XY=     1.0120   YY=    29.2188   ZY=    -3.8831
   XZ=    -0.6295   YZ=    -3.0883   ZZ=    33.2636
   Eigenvalues:    26.7821    27.6099    35.5737
     42  C    Isotropic =   164.2755   Anisotropy =    29.7678
   XX=   183.5754   YX=    -7.2396   ZX=     6.6091
   XY=     4.2690   YY=   152.6528   ZY=     2.6228
   XZ=     0.7908   YZ=     1.2337   ZZ=   156.5984
   Eigenvalues:   151.6154   157.0904   184.1208
     43  H    Isotropic =    29.1943   Anisotropy =     7.6172
   XX=    29.5400   YX=    -0.1226   ZX=     2.1789
   XY=    -1.6000   YY=    25.1878   ZY=    -2.6321
   XZ=     1.4877   YZ=    -1.7259   ZZ=    32.8550
   Eigenvalues:    24.5824    28.7280    34.2724
     44  H    Isotropic =    29.2785   Anisotropy =     7.4421
   XX=    30.1088   YX=    -2.5096   ZX=    -0.7869
   XY=    -2.7709   YY=    31.9520   ZY=     2.6250
   XZ=     0.8787   YZ=     1.9427   ZZ=    25.7747
   Eigenvalues:    24.8525    28.7431    34.2399
     45  C    Isotropic =   176.7237   Anisotropy =    29.6844
   XX=   183.5982   YX=     8.1728   ZX=    -2.3409
   XY=    17.5034   YY=   179.5127   ZY=    -5.4754
   XZ=    -7.5789   YZ=    -6.2765   ZZ=   167.0600
   Eigenvalues:   164.7230   168.9347   196.5133
     46  H    Isotropic =    30.3052   Anisotropy =    11.9339
   XX=    37.8284   YX=     1.1720   ZX=     0.7507
   XY=     3.2376   YY=    26.9985   ZY=    -0.2327
   XZ=    -0.3847   YZ=    -0.4300   ZZ=    26.0887
   Eigenvalues:    25.8946    26.7599    38.2612
     47  H    Isotropic =    30.5431   Anisotropy =     7.1671
   XX=    29.7069   YX=     0.6806   ZX=    -0.8869
   XY=     1.3792   YY=    34.3672   ZY=     3.3783
   XZ=    -1.5805   YZ=     1.8637   ZZ=    27.5554
   Eigenvalues:    26.0436    30.2646    35.3212
     48  H    Isotropic =    30.5813   Anisotropy =     7.1361
   XX=    29.4581   YX=     1.5791   ZX=    -0.8345
   XY=     2.6276   YY=    27.8895   ZY=    -2.5266
   XZ=    -1.0564   YZ=    -1.3982   ZZ=    34.3964
   Eigenvalues:    26.2724    30.1328    35.3387
 End of Minotr Frequency-dependent properties file   721 does not exist.
 End of Minotr Frequency-dependent properties file   722 does not exist.

 **********************************************************************

            Population analysis using the SCF density.

 **********************************************************************

 Orbital symmetries:
       Occupied  (A) (A) (A) (A) (A) (A) (A) (A) (A) (A) (A) (A)
                 (A) (A) (A) (A) (A) (A) (A) (A) (A) (A) (A) (A)
                 (A) (A) (A) (A) (A) (A) (A) (A) (A) (A) (A) (A)
                 (A) (A) (A) (A) (A) (A) (A) (A) (A) (A) (A) (A)
                 (A) (A) (A) (A) (A) (A) (A) (A) (A) (A) (A) (A)
                 (A) (A) (A) (A) (A) (A) (A) (A) (A) (A) (A) (A)
                 (A) (A) (A) (A) (A) (A) (A) (A) (A) (A) (A)
       Virtual   (A) (A) (A) (A) (A) (A) (A) (A) (A) (A) (A) (A)
                 (A) (A) (A) (A) (A) (A) (A) (A) (A) (A) (A) (A)
                 (A) (A) (A) (A) (A) (A) (A) (A) (A) (A) (A) (A)
                 (A) (A) (A) (A) (A) (A) (A) (A) (A) (A) (A) (A)
                 (A) (A) (A) (A) (A) (A) (A) (A) (A) (A) (A) (A)
                 (A) (A) (A) (A) (A) (A) (A) (A) (A) (A) (A) (A)
                 (A) (A) (A) (A) (A) (A) (A) (A) (A) (A) (A) (A)
                 (A) (A) (A) (A) (A) (A) (A) (A) (A) (A) (A) (A)
                 (A) (A) (A) (A) (A) (A) (A) (A) (A) (A) (A) (A)
                 (A) (A) (A) (A) (A) (A) (A) (A) (A) (A) (A) (A)
                 (A) (A) (A) (A) (A) (A) (A) (A) (A) (A) (A) (A)
                 (A) (A) (A) (A) (A) (A) (A) (A) (A) (A) (A) (A)
                 (A) (A) (A) (A) (A) (A) (A) (A) (A) (A) (A) (A)
                 (A) (A) (A) (A) (A) (A) (A) (A) (A) (A) (A) (A)
                 (A) (A) (A) (A) (A) (A) (A) (A) (A) (A) (A) (A)
                 (A) (A) (A) (A) (A) (A) (A) (A) (A) (A) (A) (A)
                 (A) (A) (A) (A) (A) (A) (A) (A) (A) (A) (A) (A)
                 (A) (A) (A) (A) (A) (A) (A) (A) (A) (A) (A) (A)
                 (A) (A) (A) (A) (A) (A) (A) (A) (A) (A) (A) (A)
                 (A) (A) (A) (A) (A) (A) (A) (A) (A) (A) (A) (A)
                 (A) (A) (A) (A) (A) (A) (A) (A) (A) (A) (A) (A)
                 (A) (A) (A) (A) (A) (A) (A) (A) (A) (A) (A) (A)
                 (A) (A) (A) (A) (A) (A) (A) (A) (A) (A) (A) (A)
                 (A) (A) (A) (A) (A) (A) (A) (A) (A) (A) (A) (A)
                 (A) (A) (A) (A) (A) (A) (A) (A) (A) (A) (A) (A)
                 (A) (A) (A) (A) (A) (A) (A) (A) (A) (A) (A) (A)
                 (A) (A) (A) (A) (A) (A) (A) (A) (A) (A) (A) (A)
                 (A) (A) (A) (A) (A) (A) (A) (A) (A) (A) (A) (A)
                 (A) (A) (A) (A) (A) (A) (A) (A) (A) (A) (A) (A)
                 (A) (A) (A) (A) (A) (A) (A) (A) (A) (A) (A) (A)
                 (A) (A) (A) (A) (A) (A) (A) (A) (A) (A) (A) (A)
                 (A) (A) (A) (A) (A) (A) (A) (A) (A) (A) (A) (A)
                 (A) (A) (A) (A) (A) (A) (A) (A) (A) (A) (A) (A)
                 (A) (A) (A) (A) (A) (A) (A) (A) (A) (A) (A) (A)
                 (A) (A) (A) (A) (A) (A) (A) (A) (A) (A) (A) (A)
                 (A) (A) (A) (A) (A) (A) (A) (A) (A) (A) (A) (A)
                 (A) (A) (A) (A) (A) (A) (A) (A) (A) (A) (A) (A)
                 (A) (A) (A) (A) (A) (A) (A) (A) (A) (A) (A) (A)
                 (A) (A) (A) (A) (A) (A) (A)
 The electronic state is 1-A.
 Alpha  occ. eigenvalues --  -19.28369 -19.26744 -19.26350 -19.25552 -10.32183
 Alpha  occ. eigenvalues --  -10.32165 -10.31489 -10.31298 -10.27427 -10.26418
 Alpha  occ. eigenvalues --  -10.26365 -10.26236 -10.26144 -10.24963 -10.24864
 Alpha  occ. eigenvalues --  -10.24802 -10.24556 -10.24489 -10.23893 -10.23677
 Alpha  occ. eigenvalues --  -10.23652 -10.23178  -1.09837  -1.09205  -1.07588
 Alpha  occ. eigenvalues --   -1.05282  -0.88683  -0.86852  -0.82241  -0.82112
 Alpha  occ. eigenvalues --   -0.78541  -0.77055  -0.75785  -0.73975  -0.71325
 Alpha  occ. eigenvalues --   -0.70087  -0.67153  -0.64867  -0.64303  -0.63207
 Alpha  occ. eigenvalues --   -0.61254  -0.58894  -0.56230  -0.54818  -0.53511
 Alpha  occ. eigenvalues --   -0.52280  -0.51261  -0.50806  -0.50044  -0.49137
 Alpha  occ. eigenvalues --   -0.48068  -0.46720  -0.45504  -0.45446  -0.44520
 Alpha  occ. eigenvalues --   -0.44447  -0.43336  -0.42816  -0.42481  -0.41785
 Alpha  occ. eigenvalues --   -0.41305  -0.40810  -0.40563  -0.40189  -0.39782
 Alpha  occ. eigenvalues --   -0.39391  -0.38516  -0.38020  -0.37835  -0.36859
 Alpha  occ. eigenvalues --   -0.36372  -0.35629  -0.34809  -0.34756  -0.33792
 Alpha  occ. eigenvalues --   -0.33099  -0.32267  -0.31912  -0.31433  -0.29716
 Alpha  occ. eigenvalues --   -0.25852  -0.23848  -0.22733
 Alpha virt. eigenvalues --   -0.00350  -0.00168   0.00171   0.01079   0.01308
 Alpha virt. eigenvalues --    0.01678   0.02033   0.02815   0.02845   0.03081
 Alpha virt. eigenvalues --    0.03986   0.04186   0.04515   0.04848   0.05176
 Alpha virt. eigenvalues --    0.05900   0.06272   0.06998   0.07131   0.07597
 Alpha virt. eigenvalues --    0.07751   0.08049   0.08616   0.08961   0.09330
 Alpha virt. eigenvalues --    0.09808   0.10008   0.10456   0.10588   0.10774
 Alpha virt. eigenvalues --    0.11217   0.11945   0.12063   0.12528   0.12753
 Alpha virt. eigenvalues --    0.13173   0.13459   0.14114   0.14236   0.14404
 Alpha virt. eigenvalues --    0.14700   0.15087   0.15204   0.15427   0.16072
 Alpha virt. eigenvalues --    0.16759   0.16889   0.17271   0.17699   0.18052
 Alpha virt. eigenvalues --    0.18134   0.18494   0.18824   0.18909   0.19125
 Alpha virt. eigenvalues --    0.19329   0.19628   0.20088   0.20437   0.20821
 Alpha virt. eigenvalues --    0.20956   0.21551   0.21612   0.22139   0.22453
 Alpha virt. eigenvalues --    0.22569   0.22963   0.23116   0.23375   0.23660
 Alpha virt. eigenvalues --    0.23897   0.24111   0.24348   0.24446   0.24994
 Alpha virt. eigenvalues --    0.25280   0.25671   0.26124   0.26438   0.26538
 Alpha virt. eigenvalues --    0.27002   0.27289   0.27810   0.28020   0.28359
 Alpha virt. eigenvalues --    0.28487   0.28766   0.28989   0.29085   0.29789
 Alpha virt. eigenvalues --    0.30053   0.30415   0.30760   0.30773   0.31531
 Alpha virt. eigenvalues --    0.31972   0.32340   0.32831   0.32952   0.33270
 Alpha virt. eigenvalues --    0.33534   0.34334   0.34504   0.34767   0.35518
 Alpha virt. eigenvalues --    0.35987   0.36082   0.36641   0.36994   0.37231
 Alpha virt. eigenvalues --    0.37521   0.38243   0.38586   0.39418   0.39633
 Alpha virt. eigenvalues --    0.40310   0.40980   0.41517   0.41779   0.42289
 Alpha virt. eigenvalues --    0.42847   0.43488   0.44252   0.44976   0.45053
 Alpha virt. eigenvalues --    0.45309   0.46692   0.46966   0.47747   0.48202
 Alpha virt. eigenvalues --    0.49790   0.49906   0.51388   0.51768   0.53060
 Alpha virt. eigenvalues --    0.54211   0.55890   0.59978   0.63617   0.65536
 Alpha virt. eigenvalues --    0.67307   0.69046   0.69534   0.70012   0.70942
 Alpha virt. eigenvalues --    0.71574   0.72298   0.72660   0.72793   0.73809
 Alpha virt. eigenvalues --    0.74528   0.74976   0.75266   0.76114   0.76680
 Alpha virt. eigenvalues --    0.77237   0.77297   0.78315   0.78615   0.79865
 Alpha virt. eigenvalues --    0.80622   0.80919   0.82283   0.82367   0.83419
 Alpha virt. eigenvalues --    0.84483   0.84996   0.86158   0.86998   0.87631
 Alpha virt. eigenvalues --    0.88339   0.88582   0.89985   0.90944   0.91264
 Alpha virt. eigenvalues --    0.92048   0.92714   0.93290   0.94166   0.94672
 Alpha virt. eigenvalues --    0.95132   0.96251   0.97030   0.97817   0.99319
 Alpha virt. eigenvalues --    0.99790   1.00665   1.01515   1.02727   1.03589
 Alpha virt. eigenvalues --    1.05003   1.05353   1.06648   1.06744   1.07675
 Alpha virt. eigenvalues --    1.09370   1.10217   1.10659   1.11854   1.12185
 Alpha virt. eigenvalues --    1.12809   1.13237   1.14366   1.14987   1.15249
 Alpha virt. eigenvalues --    1.15763   1.16405   1.16644   1.17540   1.18356
 Alpha virt. eigenvalues --    1.19164   1.19233   1.19974   1.20209   1.22203
 Alpha virt. eigenvalues --    1.23650   1.24415   1.24979   1.25800   1.26227
 Alpha virt. eigenvalues --    1.28127   1.28601   1.29622   1.30132   1.30853
 Alpha virt. eigenvalues --    1.31214   1.32493   1.33449   1.34035   1.35347
 Alpha virt. eigenvalues --    1.35638   1.36118   1.36754   1.37970   1.38330
 Alpha virt. eigenvalues --    1.39708   1.40114   1.41391   1.43095   1.44123
 Alpha virt. eigenvalues --    1.44297   1.45483   1.46084   1.47506   1.48171
 Alpha virt. eigenvalues --    1.49412   1.50239   1.52025   1.53330   1.54404
 Alpha virt. eigenvalues --    1.54793   1.56560   1.57331   1.59547   1.60718
 Alpha virt. eigenvalues --    1.61228   1.63536   1.64389   1.65237   1.66166
 Alpha virt. eigenvalues --    1.67900   1.68684   1.71501   1.72442   1.74323
 Alpha virt. eigenvalues --    1.76152   1.76294   1.78033   1.78567   1.80169
 Alpha virt. eigenvalues --    1.81251   1.81801   1.82582   1.84378   1.84867
 Alpha virt. eigenvalues --    1.85728   1.86194   1.86563   1.87139   1.87929
 Alpha virt. eigenvalues --    1.89418   1.90112   1.90760   1.91596   1.91984
 Alpha virt. eigenvalues --    1.92764   1.93387   1.94076   1.94685   1.95908
 Alpha virt. eigenvalues --    1.96407   1.96928   1.97423   1.98076   2.00185
 Alpha virt. eigenvalues --    2.01094   2.01692   2.03073   2.03824   2.05999
 Alpha virt. eigenvalues --    2.06388   2.06805   2.07096   2.07712   2.08805
 Alpha virt. eigenvalues --    2.09531   2.10839   2.11613   2.12703   2.13451
 Alpha virt. eigenvalues --    2.13720   2.14699   2.15353   2.15486   2.16032
 Alpha virt. eigenvalues --    2.16841   2.18749   2.19150   2.19282   2.19858
 Alpha virt. eigenvalues --    2.21156   2.22489   2.23084   2.25653   2.26019
 Alpha virt. eigenvalues --    2.26303   2.26919   2.28410   2.29333   2.29827
 Alpha virt. eigenvalues --    2.31476   2.32201   2.33634   2.33981   2.34461
 Alpha virt. eigenvalues --    2.36476   2.37110   2.37917   2.39551   2.40270
 Alpha virt. eigenvalues --    2.41061   2.41606   2.43382   2.46044   2.46586
 Alpha virt. eigenvalues --    2.47800   2.48556   2.49336   2.50501   2.50777
 Alpha virt. eigenvalues --    2.52880   2.53434   2.54575   2.55785   2.56151
 Alpha virt. eigenvalues --    2.57086   2.57443   2.58478   2.58863   2.59699
 Alpha virt. eigenvalues --    2.60167   2.60960   2.62420   2.63632   2.63940
 Alpha virt. eigenvalues --    2.65176   2.66342   2.67534   2.68594   2.69087
 Alpha virt. eigenvalues --    2.69607   2.70263   2.71288   2.72034   2.72865
 Alpha virt. eigenvalues --    2.73795   2.75323   2.75834   2.76980   2.78267
 Alpha virt. eigenvalues --    2.78808   2.79507   2.79950   2.80870   2.81896
 Alpha virt. eigenvalues --    2.83412   2.84879   2.85105   2.85861   2.87142
 Alpha virt. eigenvalues --    2.87963   2.88837   2.90329   2.91598   2.91750
 Alpha virt. eigenvalues --    2.93251   2.93411   2.93752   2.95476   2.95811
 Alpha virt. eigenvalues --    2.97296   2.98832   3.00959   3.03609   3.05112
 Alpha virt. eigenvalues --    3.07485   3.08389   3.09801   3.10519   3.14668
 Alpha virt. eigenvalues --    3.18640   3.21225   3.25320   3.28982   3.29388
 Alpha virt. eigenvalues --    3.30674   3.31279   3.35998   3.37718   3.39314
 Alpha virt. eigenvalues --    3.41543   3.42723   3.45569   3.47767   3.49313
 Alpha virt. eigenvalues --    3.51004   3.51295   3.51653   3.51789   3.51993
 Alpha virt. eigenvalues --    3.53985   3.55600   3.56341   3.57951   3.58574
 Alpha virt. eigenvalues --    3.59135   3.59927   3.61463   3.67717   3.74814
 Alpha virt. eigenvalues --    3.93207   4.36676   4.37312   4.42140   4.46201
 Alpha virt. eigenvalues --    4.48938   4.50986   4.53101   4.54775   4.57506
 Alpha virt. eigenvalues --    4.61279   4.63641   4.64564   4.67677   4.71764
 Alpha virt. eigenvalues --    4.74002   4.75873   4.78459   4.84210   4.93264
 Alpha virt. eigenvalues --    4.96420   5.00517   5.09369
          Condensed to atoms (all electrons):
              1          2          3          4          5          6
     1  C   12.678168  -1.805622  -0.144260   0.074713  -0.885041   0.070687
     2  C   -1.805622   7.738768   0.413655   0.328990   0.274817  -0.088989
     3  H   -0.144260   0.413655   0.532258  -0.029968  -0.036688  -0.006047
     4  H    0.074713   0.328990  -0.029968   0.533353  -0.064288   0.004895
     5  C   -0.885041   0.274817  -0.036688  -0.064288   7.014372   0.381079
     6  H    0.070687  -0.088989  -0.006047   0.004895   0.381079   0.540245
     7  C    2.728606  -1.283449   0.050610   0.077866  -1.694811   0.048226
     8  H   -0.041607   0.042422  -0.000130  -0.000122  -0.007051  -0.009296
     9  C   -1.919483   1.157382  -0.032944  -0.031106   0.672130  -0.025883
    10  H    0.094242  -0.025942  -0.000054   0.000131  -0.068214   0.002333
    11  C   -2.405161  -0.344302   0.072849  -0.048566   0.485548  -0.050980
    12  H    0.068528  -0.009847  -0.000095  -0.000109  -0.016894  -0.000025
    13  C   -0.018685  -0.076261  -0.000903  -0.004085   0.153326  -0.018122
    14  C   -0.046635   0.000534   0.000001  -0.000107  -0.006639   0.000065
    15  C    0.086785  -0.055991  -0.000993   0.004262  -0.347698   0.035688
    16  C   -0.655029   0.079679  -0.000008  -0.001099   0.065379  -0.012135
    17  C   -0.054277  -0.052520   0.000156  -0.000120  -0.069339  -0.000725
    18  C   -0.096599   0.048773  -0.000185   0.000311  -0.020928   0.005587
    19  H   -0.000047  -0.000032   0.000000   0.000000   0.000019   0.000000
    20  H   -0.000065  -0.000005   0.000000   0.000000  -0.000072   0.000000
    21  O    0.047404  -0.006042  -0.000009   0.000021   0.003737   0.000016
    22  H   -0.017524   0.002942   0.000002  -0.000020   0.000982  -0.000002
    23  O   -0.013085   0.005173   0.000000  -0.000009   0.004662  -0.000430
    24  H    0.000617   0.000055   0.000000   0.000000   0.000367   0.000000
    25  O    0.352739  -0.010189  -0.000364   0.001360  -0.184493   0.000144
    26  H   -0.020987  -0.045260  -0.000045   0.001156   0.018862  -0.000004
    27  C   -1.015390  -0.297464   0.002860   0.009867   0.166186  -0.010776
    28  H   -0.130877   0.013630   0.002638   0.000057   0.021576   0.000069
    29  H   -0.028867   0.010453   0.000111  -0.000145  -0.001872  -0.000053
    30  H   -0.096736   0.035837   0.000209  -0.000007  -0.025591   0.000010
    31  O    0.020842  -0.145116   0.004126  -0.006796   0.062746  -0.000757
    32  H    0.133696   0.051944  -0.000190   0.000007  -0.011972   0.000007
    33  H    0.043263  -0.025752  -0.001343  -0.005290   0.447092  -0.027140
    34  C   -0.699656   0.386234  -0.004299   0.008869   0.134843  -0.015055
    35  C   -0.226611  -0.025951   0.003194  -0.032574   0.038726  -0.004242
    36  H   -0.000405  -0.000252  -0.000001   0.000066  -0.000750   0.000003
    37  H   -0.009522  -0.014696   0.000125   0.001963  -0.005571  -0.000040
    38  C    0.127097  -0.064152  -0.000647   0.006809  -0.084351   0.006766
    39  H    0.002633  -0.000758   0.000000   0.000001  -0.000827   0.000011
    40  H    0.001196  -0.000709   0.000000   0.000000  -0.002779   0.000002
    41  H   -0.002450   0.001555   0.000000  -0.000001   0.004139  -0.000035
    42  C   -0.009041   0.000194   0.000000  -0.000004   0.003017  -0.000004
    43  H    0.000014  -0.000001   0.000000   0.000000   0.000001   0.000000
    44  H    0.000003   0.000000   0.000000   0.000000  -0.000004   0.000000
    45  C   -0.000029  -0.000018   0.000000   0.000000   0.000027   0.000000
    46  H    0.000000   0.000000   0.000000   0.000000  -0.000001   0.000000
    47  H    0.000000   0.000000   0.000000   0.000000  -0.000006   0.000000
    48  H    0.000003   0.000000   0.000000   0.000000  -0.000002   0.000000
              7          8          9         10         11         12
     1  C    2.728606  -0.041607  -1.919483   0.094242  -2.405161   0.068528
     2  C   -1.283449   0.042422   1.157382  -0.025942  -0.344302  -0.009847
     3  H    0.050610  -0.000130  -0.032944  -0.000054   0.072849  -0.000095
     4  H    0.077866  -0.000122  -0.031106   0.000131  -0.048566  -0.000109
     5  C   -1.694811  -0.007051   0.672130  -0.068214   0.485548  -0.016894
     6  H    0.048226  -0.009296  -0.025883   0.002333  -0.050980  -0.000025
     7  C   15.423947   0.010102  -2.568268   0.160553  -1.984118   0.039542
     8  H    0.010102   0.572412   0.092117  -0.008721   0.046501  -0.000151
     9  C   -2.568268   0.092117  13.833444   0.221898  -1.908243  -0.164433
    10  H    0.160553  -0.008721   0.221898   0.562325  -0.278601  -0.002666
    11  C   -1.984118   0.046501  -1.908243  -0.278601  15.483150   0.331444
    12  H    0.039542  -0.000151  -0.164433  -0.002666   0.331444   0.588576
    13  C    0.167085   0.056898   2.667208  -0.225810  -1.143003  -0.091361
    14  C   -0.134780  -0.009184  -0.607983   0.011339  -0.201319   0.015087
    15  C    1.258688  -0.046896  -1.691035   0.454318  -2.087184  -0.057185
    16  C   -2.135929  -0.021738  -1.360444  -0.194743   1.595608   0.243739
    17  C    0.100400  -0.018017  -1.658430   0.013079  -0.521854   0.035622
    18  C   -0.357784   0.019210  -1.098259   0.090520   0.184293  -0.004561
    19  H   -0.000231   0.000000   0.003942   0.000002  -0.002274   0.000000
    20  H   -0.001140   0.000004   0.000870  -0.000008   0.000250   0.000000
    21  O    0.051973   0.000178   0.127654  -0.000510   0.051081  -0.000916
    22  H   -0.052473   0.000005  -0.010956  -0.000045   0.045251  -0.000201
    23  O   -0.137410   0.003958  -0.003539  -0.001310  -0.008119  -0.001426
    24  H   -0.002616  -0.000036   0.040519   0.000098   0.000831  -0.000002
    25  O    0.344777  -0.001896  -0.277954   0.011080  -0.262930  -0.040685
    26  H   -0.026505   0.000014   0.041819  -0.000292   0.010877  -0.003666
    27  C   -0.528075   0.012659   0.461419  -0.009234   0.084307  -0.044470
    28  H   -0.009632   0.000001   0.003405   0.000022   0.027309  -0.000092
    29  H   -0.004258  -0.000001  -0.004053  -0.000138  -0.000539   0.003895
    30  H    0.018092  -0.000065   0.026096  -0.000998  -0.035892   0.000062
    31  O   -0.040125   0.000184   0.002117  -0.000883   0.169281  -0.019162
    32  H   -0.000976   0.000000   0.037301  -0.000004  -0.143180   0.004398
    33  H   -0.138195  -0.000830   0.025975  -0.000038  -0.015747   0.000012
    34  C   -3.015700   0.130338  -0.317552   0.002672  -0.408671  -0.029379
    35  C   -1.320070   0.005772  -0.258508   0.011956  -0.723199  -0.004129
    36  H    0.029663  -0.000145  -0.018885   0.000003  -0.006874   0.000000
    37  H   -0.015012  -0.000040  -0.004545  -0.000018  -0.009414  -0.000004
    38  C    0.971829   0.006202   0.191341   0.003064   0.272842  -0.000333
    39  H    0.141741  -0.001679   0.060431  -0.000086   0.017179   0.000002
    40  H    0.010316   0.000358   0.003323   0.000003  -0.000895   0.000000
    41  H   -0.081978   0.003107  -0.013099   0.000009  -0.004097   0.000000
    42  C   -0.013436  -0.001108  -0.103568  -0.000548  -0.053645   0.000877
    43  H    0.000026   0.000000   0.000036   0.000000   0.000138   0.000000
    44  H   -0.000073   0.000000   0.000540   0.000000  -0.000205   0.000000
    45  C   -0.002763   0.000008  -0.003960  -0.000003  -0.001903   0.000001
    46  H   -0.000023   0.000000   0.000059   0.000000   0.000000   0.000000
    47  H   -0.000200   0.000000  -0.000214   0.000000  -0.000134   0.000000
    48  H    0.000127   0.000000   0.000083   0.000000   0.000054   0.000000
             13         14         15         16         17         18
     1  C   -0.018685  -0.046635   0.086785  -0.655029  -0.054277  -0.096599
     2  C   -0.076261   0.000534  -0.055991   0.079679  -0.052520   0.048773
     3  H   -0.000903   0.000001  -0.000993  -0.000008   0.000156  -0.000185
     4  H   -0.004085  -0.000107   0.004262  -0.001099  -0.000120   0.000311
     5  C    0.153326  -0.006639  -0.347698   0.065379  -0.069339  -0.020928
     6  H   -0.018122   0.000065   0.035688  -0.012135  -0.000725   0.005587
     7  C    0.167085  -0.134780   1.258688  -2.135929   0.100400  -0.357784
     8  H    0.056898  -0.009184  -0.046896  -0.021738  -0.018017   0.019210
     9  C    2.667208  -0.607983  -1.691035  -1.360444  -1.658430  -1.098259
    10  H   -0.225810   0.011339   0.454318  -0.194743   0.013079   0.090520
    11  C   -1.143003  -0.201319  -2.087184   1.595608  -0.521854   0.184293
    12  H   -0.091361   0.015087  -0.057185   0.243739   0.035622  -0.004561
    13  C   23.333490  -2.572112  -0.818057  -6.671594  -5.642924  -2.649710
    14  C   -2.572112   9.690679  -0.877330   0.330661   1.306684   0.594815
    15  C   -0.818057  -0.877330  18.523504  -9.770879   2.740413  -2.140958
    16  C   -6.671594   0.330661  -9.770879  25.453587  -1.902537   1.650632
    17  C   -5.642924   1.306684   2.740413  -1.902537  14.995892  -3.605424
    18  C   -2.649710   0.594815  -2.140958   1.650632  -3.605424  13.504010
    19  H    0.057680   0.054282  -0.033405   0.036132   0.170486   0.059181
    20  H    0.041043   0.096916   0.056446  -0.059680   0.067419   0.141438
    21  O    0.088623   0.041939  -0.012685  -0.104987  -0.245017   0.055044
    22  H   -0.164802  -0.004752  -0.015537   0.160805   0.063945  -0.007844
    23  O   -0.210450   0.034066   0.282911  -0.038053   0.020375   0.048927
    24  H    0.176166  -0.005766  -0.020728   0.014261  -0.016404  -0.184614
    25  O   -0.012716   0.010823   0.017174   0.069900   0.067771  -0.020601
    26  H    0.013738  -0.000920  -0.003081  -0.019058  -0.003480  -0.000436
    27  C    0.129176   0.000330   0.054332   0.018909  -0.013766   0.027836
    28  H   -0.000751  -0.000028  -0.001475  -0.000553   0.000018  -0.000176
    29  H    0.007037   0.000214  -0.012114   0.009453   0.000336  -0.001132
    30  H    0.000481   0.000265   0.016371   0.000918  -0.000610   0.004224
    31  O    0.032379  -0.000918   0.010022  -0.020176  -0.004380   0.002016
    32  H    0.000660   0.000101  -0.000169   0.003264  -0.000130   0.000069
    33  H    0.015131   0.000355  -0.008113   0.006170   0.000749  -0.001380
    34  C   -0.293613   0.048850  -0.372979   1.074717   0.262881  -0.184485
    35  C   -0.055117   0.043683   0.119482  -0.017219   0.115421  -0.015207
    36  H    0.006710   0.000502   0.002361  -0.000310   0.001855  -0.000143
    37  H   -0.021111   0.000488  -0.002913   0.029279   0.002753   0.000325
    38  C    0.098808  -0.036236   0.125754  -0.386840  -0.139111   0.082350
    39  H   -0.014948  -0.000221   0.012712  -0.041571  -0.008158   0.004028
    40  H   -0.001267  -0.000672  -0.003580   0.016745  -0.013401   0.005884
    41  H    0.017173   0.000620   0.010835  -0.001344   0.005054  -0.004617
    42  C   -1.259293  -1.436859   0.428760  -0.571099   0.618071   0.035688
    43  H    0.011274  -0.246502  -0.010647   0.027556   0.218375  -0.134416
    44  H    0.001360  -0.233207   0.030992  -0.007755  -0.133610   0.190669
    45  C   -0.024417  -0.068319   0.017019  -0.007328   0.041252   0.020026
    46  H    0.002402   0.030037   0.002467   0.001777   0.009643   0.004507
    47  H   -0.005244  -0.030667  -0.002127  -0.002424  -0.034618   0.030181
    48  H    0.000379  -0.029923   0.002773  -0.002631   0.032827  -0.037595
             19         20         21         22         23         24
     1  C   -0.000047  -0.000065   0.047404  -0.017524  -0.013085   0.000617
     2  C   -0.000032  -0.000005  -0.006042   0.002942   0.005173   0.000055
     3  H    0.000000   0.000000  -0.000009   0.000002   0.000000   0.000000
     4  H    0.000000   0.000000   0.000021  -0.000020  -0.000009   0.000000
     5  C    0.000019  -0.000072   0.003737   0.000982   0.004662   0.000367
     6  H    0.000000   0.000000   0.000016  -0.000002  -0.000430   0.000000
     7  C   -0.000231  -0.001140   0.051973  -0.052473  -0.137410  -0.002616
     8  H    0.000000   0.000004   0.000178   0.000005   0.003958  -0.000036
     9  C    0.003942   0.000870   0.127654  -0.010956  -0.003539   0.040519
    10  H    0.000002  -0.000008  -0.000510  -0.000045  -0.001310   0.000098
    11  C   -0.002274   0.000250   0.051081   0.045251  -0.008119   0.000831
    12  H    0.000000   0.000000  -0.000916  -0.000201  -0.001426  -0.000002
    13  C    0.057680   0.041043   0.088623  -0.164802  -0.210450   0.176166
    14  C    0.054282   0.096916   0.041939  -0.004752   0.034066  -0.005766
    15  C   -0.033405   0.056446  -0.012685  -0.015537   0.282911  -0.020728
    16  C    0.036132  -0.059680  -0.104987   0.160805  -0.038053   0.014261
    17  C    0.170486   0.067419  -0.245017   0.063945   0.020375  -0.016404
    18  C    0.059181   0.141438   0.055044  -0.007844   0.048927  -0.184614
    19  H    0.518810  -0.000144  -0.007501   0.000145   0.000111  -0.000001
    20  H   -0.000144   0.523640   0.000125   0.000000  -0.019018   0.008144
    21  O   -0.007501   0.000125   8.389123   0.165283  -0.000698   0.000053
    22  H    0.000145   0.000000   0.165283   0.301555  -0.000162   0.000000
    23  O    0.000111  -0.019018  -0.000698  -0.000162   8.292062   0.205568
    24  H   -0.000001   0.008144   0.000053   0.000000   0.205568   0.360418
    25  O    0.000027   0.000001   0.009078   0.018853  -0.001182  -0.000001
    26  H    0.000000   0.000000   0.002987   0.000736   0.000006   0.000000
    27  C    0.000019   0.000036   0.000736   0.001264   0.001341   0.000180
    28  H    0.000000   0.000000  -0.000001   0.000000   0.000027   0.000000
    29  H    0.000000   0.000000   0.000002  -0.000001  -0.000115   0.000000
    30  H    0.000000   0.000000   0.000008   0.000001  -0.000189   0.000001
    31  O    0.000000   0.000000  -0.000470  -0.000092   0.000256   0.000000
    32  H    0.000000   0.000000   0.000027   0.000004  -0.000001   0.000000
    33  H    0.000000   0.000000   0.000006  -0.000004  -0.000041   0.000000
    34  C   -0.001943   0.000379  -0.089735   0.024540   0.058161   0.007081
    35  C   -0.000277  -0.000020  -0.042557   0.017041   0.012977   0.000663
    36  H    0.000000   0.000000  -0.000005  -0.000060  -0.000001   0.000000
    37  H    0.000000   0.000000  -0.001059   0.000117   0.000013   0.000000
    38  C    0.001692  -0.000129   0.033622  -0.007203  -0.015386  -0.001239
    39  H   -0.000006  -0.000008   0.002542  -0.000084  -0.000504  -0.000016
    40  H    0.000001   0.000000   0.000034  -0.000016  -0.000034   0.000000
    41  H    0.000000   0.000000  -0.000247   0.000004   0.000008   0.000001
    42  C   -0.027585  -0.027475  -0.011487   0.001141   0.000783  -0.000589
    43  H    0.001662   0.000090   0.000056   0.000000   0.000036   0.000000
    44  H    0.000093   0.002116   0.000028   0.000000  -0.000026   0.000005
    45  C    0.003996   0.007360  -0.000198  -0.000010  -0.000124   0.000084
    46  H   -0.000028  -0.000026   0.000002   0.000000  -0.000002   0.000000
    47  H    0.000182   0.000011  -0.000014   0.000000   0.000001   0.000000
    48  H    0.000007   0.000192   0.000005   0.000000   0.000027   0.000001
             25         26         27         28         29         30
     1  C    0.352739  -0.020987  -1.015390  -0.130877  -0.028867  -0.096736
     2  C   -0.010189  -0.045260  -0.297464   0.013630   0.010453   0.035837
     3  H   -0.000364  -0.000045   0.002860   0.002638   0.000111   0.000209
     4  H    0.001360   0.001156   0.009867   0.000057  -0.000145  -0.000007
     5  C   -0.184493   0.018862   0.166186   0.021576  -0.001872  -0.025591
     6  H    0.000144  -0.000004  -0.010776   0.000069  -0.000053   0.000010
     7  C    0.344777  -0.026505  -0.528075  -0.009632  -0.004258   0.018092
     8  H   -0.001896   0.000014   0.012659   0.000001  -0.000001  -0.000065
     9  C   -0.277954   0.041819   0.461419   0.003405  -0.004053   0.026096
    10  H    0.011080  -0.000292  -0.009234   0.000022  -0.000138  -0.000998
    11  C   -0.262930   0.010877   0.084307   0.027309  -0.000539  -0.035892
[...]
    20  H    0.000002   0.000000   0.000029   0.000000   0.000000   0.000000
    21  O    0.001862   0.004339   0.002674   0.000000   0.000012   0.000000
    22  H    0.022673  -0.000150   0.000581   0.000000   0.000000   0.000001
    23  O   -0.001124   0.000000   0.001718   0.000015  -0.000115   0.000321
    24  H    0.000000   0.000000   0.000200   0.000000   0.000000   0.000001
    25  O    8.705108   0.194037  -0.049197   0.000031   0.001763  -0.000065
    26  H    0.194037   0.312032   0.020756  -0.000032  -0.000026  -0.000044
    27  C   -0.049197   0.020756   6.150774   0.439234   0.401529   0.400382
    28  H    0.000031  -0.000032   0.439234   0.526144  -0.028516  -0.025301
    29  H    0.001763  -0.000026   0.401529  -0.028516   0.541546  -0.025594
    30  H   -0.000065  -0.000044   0.400382  -0.025301  -0.025594   0.518576
    31  O   -0.055439   0.042580  -0.028711  -0.000040  -0.007700   0.006981
    32  H    0.009092  -0.003443  -0.051841  -0.001018   0.004343   0.000168
    33  H    0.002007  -0.000017  -0.008788  -0.000013   0.000003   0.000012
    34  C   -0.175172   0.009679   0.171550   0.001508  -0.000738   0.000731
    35  C    0.091395  -0.006752  -0.017501   0.000669  -0.000291  -0.000450
    36  H    0.001101  -0.000026  -0.000232   0.000000   0.000000   0.000000
    37  H   -0.002498   0.000087  -0.000598   0.000000   0.000000  -0.000001
    38  C   -0.020941   0.000931  -0.007420  -0.000052  -0.000103  -0.000125
    39  H   -0.000184   0.000000  -0.000537   0.000000   0.000000   0.000000
    40  H   -0.000089   0.000000   0.000045   0.000000   0.000000   0.000000
    41  H   -0.000003   0.000000   0.000513   0.000000   0.000000   0.000000
    42  C   -0.001611  -0.000022  -0.000707   0.000001   0.000003  -0.000008
    43  H    0.000000   0.000000   0.000000   0.000000   0.000000   0.000000
    44  H    0.000000   0.000000  -0.000001   0.000000   0.000000   0.000000
    45  C    0.000019   0.000000   0.000031   0.000000   0.000000   0.000000
    46  H    0.000000   0.000000   0.000000   0.000000   0.000000   0.000000
    47  H    0.000000   0.000000   0.000000   0.000000   0.000000   0.000000
    48  H    0.000000   0.000000   0.000000   0.000000   0.000000   0.000000
             31         32         33         34         35         36
     1  C    0.046641   0.117903   0.044791  -0.777701  -0.155037  -0.000255
     2  C   -0.138009   0.042487  -0.053909   0.435327  -0.135749  -0.000141
     3  H    0.004438  -0.000197  -0.001099   0.000348   0.001608  -0.000001
     4  H   -0.001112   0.000064  -0.005883  -0.000523  -0.017130   0.000086
     5  C    0.036644  -0.008560   0.496599   0.139971   0.062201  -0.001184
     6  H   -0.000149   0.000006  -0.031688  -0.019629   0.012424   0.000003
     7  C   -0.020359   0.002314  -0.091593  -3.592741  -1.706646  -0.002251
     8  H    0.000148   0.000000  -0.001168   0.093196  -0.000608  -0.000153
     9  C   -0.033930   0.032276  -0.006101  -0.379338  -0.446814  -0.016214
    10  H   -0.000477  -0.000006   0.000002   0.022255   0.017776   0.000004
    11  C    0.154868  -0.144283   0.002458  -0.383519  -1.238579  -0.009464
    12  H   -0.018339   0.004211   0.000013  -0.033862  -0.006434   0.000000
    13  C    0.021736   0.002341   0.012530  -0.634329   0.222754   0.010804
    14  C   -0.000780   0.000106   0.000366   0.087552   0.048806   0.000373
    15  C    0.008942  -0.000423  -0.008782  -0.622567   0.303283   0.002840
    16  C   -0.015520   0.002562   0.003830   1.749159  -0.253493  -0.006082
    17  C   -0.003776   0.000031   0.000819   0.266776   0.139682   0.000278
    18  C    0.001902  -0.000055  -0.001570  -0.034894   0.022669   0.000129
    19  H    0.000000   0.000000   0.000000  -0.001611  -0.000196   0.000000
    20  H    0.000000   0.000000   0.000000   0.000325   0.000025   0.000000
    21  O   -0.000315   0.000036   0.000020  -0.090028  -0.049049   0.000081
    22  H   -0.000047   0.000002  -0.000005   0.033733   0.015538  -0.000017
    23  O    0.000241  -0.000001  -0.000066   0.035234   0.013747   0.000000
    24  H    0.000000   0.000000   0.000000   0.006316   0.000601   0.000000
    25  O   -0.055439   0.009092   0.002007  -0.175172   0.091395   0.001101
    26  H    0.042580  -0.003443  -0.000017   0.009679  -0.006752  -0.000026
    27  C   -0.028711  -0.051841  -0.008788   0.171550  -0.017501  -0.000232
    28  H   -0.000040  -0.001018  -0.000013   0.001508   0.000669   0.000000
    29  H   -0.007700   0.004343   0.000003  -0.000738  -0.000291   0.000000
    30  H    0.006981   0.000168   0.000012   0.000731  -0.000450   0.000000
    31  O    8.344633   0.243486  -0.000425   0.011844   0.003907   0.000000
    32  H    0.243486   0.338959   0.000004  -0.000767   0.000197   0.000000
    33  H   -0.000425   0.000004   0.561885  -0.047509  -0.018228  -0.000032
    34  C    0.011844  -0.000767  -0.047509  12.059976  -0.382570  -0.197534
    35  C    0.003907   0.000197  -0.018228  -0.382570  10.147637   0.632734
    36  H    0.000000   0.000000  -0.000032  -0.197534   0.632734   0.546836
    37  H   -0.000109   0.000001   0.000145  -0.167141   0.597484  -0.037324
    38  C   -0.000754  -0.000084  -0.003293  -1.590609  -1.349239  -0.068807
    39  H   -0.000003   0.000000  -0.000010  -0.334815  -0.074898   0.000241
    40  H    0.000000   0.000000  -0.000027  -0.121274  -0.023824   0.003379
    41  H    0.000001   0.000000   0.000075   0.040003   0.002270   0.000185
    42  C   -0.000044   0.000003   0.000017  -0.001130   0.013608   0.000083
    43  H    0.000000   0.000000   0.000000   0.000080   0.000033   0.000000
    44  H    0.000000   0.000000   0.000000   0.000102   0.000010   0.000000
    45  C    0.000000   0.000000   0.000000   0.008102   0.002063  -0.000001
    46  H    0.000000   0.000000   0.000000   0.000052   0.000006   0.000000
    47  H    0.000000   0.000000   0.000000   0.000032   0.000057   0.000000
    48  H    0.000000   0.000000   0.000000  -0.000403  -0.000029   0.000000
             37         38         39         40         41         42
     1  C   -0.003261   0.086584   0.002964   0.001198  -0.002497  -0.009037
     2  C   -0.019084  -0.020972  -0.000433  -0.001164   0.001755   0.000062
     3  H    0.000133  -0.001120   0.000000   0.000000   0.000000   0.000000
     4  H    0.001284   0.002676   0.000001   0.000000  -0.000001  -0.000005
     5  C   -0.010430  -0.164319   0.001988  -0.007395   0.008759   0.002588
     6  H   -0.000040  -0.005402   0.000011   0.000002  -0.000040   0.000004
     7  C   -0.016071   1.075554   0.146417  -0.006447  -0.102406  -0.023180
     8  H   -0.000038   0.017615  -0.001720   0.000450   0.002966  -0.000875
     9  C   -0.009029   0.278802   0.061804   0.005187  -0.010950  -0.107328
    10  H   -0.000021   0.000363  -0.000089   0.000003   0.000007  -0.000697
    11  C   -0.020861   0.417132   0.021647  -0.002367  -0.002647  -0.076628
    12  H    0.000002   0.000499   0.000002   0.000000   0.000000   0.001022
    13  C   -0.022026  -0.076056  -0.027198  -0.001973   0.016449  -1.265642
    14  C    0.000495  -0.007761  -0.001643   0.000601   0.000675  -1.225641
    15  C   -0.005244   0.096142  -0.017872  -0.004886   0.014039   0.799584
    16  C    0.032280  -0.306128   0.000005   0.022145  -0.015131  -1.089198
    17  C    0.003027  -0.123849  -0.018169  -0.012484   0.003533   0.875781
    18  C    0.000239   0.075456   0.009370   0.006513  -0.003578  -0.353527
    19  H    0.000000   0.001439   0.000009   0.000001   0.000000  -0.022020
    20  H    0.000000  -0.000112  -0.000005   0.000000   0.000000  -0.031805
    21  O   -0.001343   0.037826   0.001428  -0.000374   0.000033  -0.005934
    22  H   -0.000072  -0.008928  -0.000039  -0.000006   0.000000   0.000226
    23  O    0.000018  -0.011494  -0.000393  -0.000005  -0.000131   0.003986
    24  H    0.000000  -0.001148  -0.000019   0.000000   0.000001  -0.000747
    25  O   -0.002498  -0.020941  -0.000184  -0.000089  -0.000003  -0.001611
    26  H    0.000087   0.000931   0.000000   0.000000   0.000000  -0.000022
    27  C   -0.000598  -0.007420  -0.000537   0.000045   0.000513  -0.000707
    28  H    0.000000  -0.000052   0.000000   0.000000   0.000000   0.000001
    29  H    0.000000  -0.000103   0.000000   0.000000   0.000000   0.000003
    30  H   -0.000001  -0.000125   0.000000   0.000000   0.000000  -0.000008
    31  O   -0.000109  -0.000754  -0.000003   0.000000   0.000001  -0.000044
    32  H    0.000001  -0.000084   0.000000   0.000000   0.000000   0.000003
    33  H    0.000145  -0.003293  -0.000010  -0.000027   0.000075   0.000017
    34  C   -0.167141  -1.590609  -0.334815  -0.121274   0.040003  -0.001130
    35  C    0.597484  -1.349239  -0.074898  -0.023824   0.002270   0.013608
    36  H   -0.037324  -0.068807   0.000241   0.003379   0.000185   0.000083
    37  H    0.549601  -0.011135  -0.000199   0.000232  -0.000193  -0.000018
    38  C   -0.011135   6.920908   0.575920   0.496573   0.396709  -0.000289
    39  H   -0.000199   0.575920   0.541586  -0.027220  -0.029740  -0.000356
    40  H    0.000232   0.496573  -0.027220   0.547553  -0.027606   0.000343
    41  H   -0.000193   0.396709  -0.029740  -0.027606   0.540511  -0.000150
    42  C   -0.000018  -0.000289  -0.000356   0.000343  -0.000150   7.516208
    43  H    0.000000  -0.000033   0.000000   0.000000   0.000000   0.473840
    44  H    0.000000  -0.000019   0.000000   0.000000   0.000000   0.491549
    45  C    0.000002  -0.004797  -0.000999   0.000039   0.000035   0.230994
    46  H    0.000000  -0.000017   0.000000   0.000000   0.000000  -0.075401
    47  H    0.000000  -0.000054   0.000000   0.000000   0.000000  -0.049527
    48  H    0.000000   0.000152  -0.000002   0.000000   0.000000  -0.051136
             43         44         45         46         47         48
     1  C    0.000011   0.000007   0.000051   0.000000  -0.000001   0.000004
     2  C   -0.000001   0.000000  -0.000014   0.000000   0.000000  -0.000001
     3  H    0.000000   0.000000   0.000000   0.000000   0.000000   0.000000
     4  H    0.000000   0.000000   0.000000   0.000000   0.000000   0.000000
     5  C   -0.000001  -0.000004  -0.000065  -0.000001  -0.000001   0.000000
     6  H    0.000000   0.000000  -0.000001   0.000000   0.000000   0.000000
     7  C   -0.000075  -0.000014  -0.005083  -0.000032  -0.000138   0.000146
     8  H    0.000000   0.000000   0.000009   0.000000   0.000000   0.000000
     9  C   -0.000207   0.000034  -0.007346   0.000007  -0.000124  -0.000114
    10  H    0.000000   0.000000  -0.000002   0.000000   0.000000   0.000000
    11  C    0.000047  -0.000158  -0.002672   0.000001  -0.000126   0.000052
    12  H    0.000000   0.000000   0.000001   0.000000   0.000000   0.000000
    13  C    0.002864  -0.001998  -0.033126   0.001114  -0.009232   0.000657
    14  C   -0.169913  -0.174015   0.046033  -0.006801   0.053144   0.029959
    15  C   -0.017524   0.020910  -0.004487   0.000415   0.002167  -0.010502
    16  C    0.026045  -0.009721   0.000241   0.003868  -0.016199  -0.004383
    17  C    0.101775  -0.083033  -0.026909   0.010144  -0.120011   0.079858
    18  C   -0.076132   0.096839   0.000647   0.001891   0.076742  -0.107171
    19  H    0.002209   0.000116   0.002225  -0.000034   0.000244   0.000009
    20  H    0.000112   0.002433   0.003949  -0.000032   0.000012   0.000229
    21  O    0.000026   0.000017  -0.000407  -0.000002  -0.000016   0.000014
    22  H    0.000000   0.000000  -0.000002   0.000000   0.000000   0.000000
    23  O    0.000026  -0.000013  -0.000139  -0.000004   0.000004   0.000049
    24  H    0.000000   0.000003   0.000097   0.000000   0.000000   0.000000
    25  O    0.000000   0.000000   0.000019   0.000000   0.000000   0.000000
    26  H    0.000000   0.000000   0.000000   0.000000   0.000000   0.000000
    27  C    0.000000  -0.000001   0.000031   0.000000   0.000000   0.000000
    28  H    0.000000   0.000000   0.000000   0.000000   0.000000   0.000000
    29  H    0.000000   0.000000   0.000000   0.000000   0.000000   0.000000
    30  H    0.000000   0.000000   0.000000   0.000000   0.000000   0.000000
    31  O    0.000000   0.000000   0.000000   0.000000   0.000000   0.000000
    32  H    0.000000   0.000000   0.000000   0.000000   0.000000   0.000000
    33  H    0.000000   0.000000   0.000000   0.000000   0.000000   0.000000
    34  C    0.000080   0.000102   0.008102   0.000052   0.000032  -0.000403
    35  C    0.000033   0.000010   0.002063   0.000006   0.000057  -0.000029
    36  H    0.000000   0.000000  -0.000001   0.000000   0.000000   0.000000
    37  H    0.000000   0.000000   0.000002   0.000000   0.000000   0.000000
    38  C   -0.000033  -0.000019  -0.004797  -0.000017  -0.000054   0.000152
    39  H    0.000000   0.000000  -0.000999   0.000000   0.000000  -0.000002
    40  H    0.000000   0.000000   0.000039   0.000000   0.000000   0.000000
    41  H    0.000000   0.000000   0.000035   0.000000   0.000000   0.000000
    42  C    0.473840   0.491549   0.230994  -0.075401  -0.049527  -0.051136
    43  H    0.565481  -0.033764  -0.022686  -0.003312  -0.005111   0.004873
    44  H   -0.033764   0.567364  -0.023692  -0.003366   0.004908  -0.005085
    45  C   -0.022686  -0.023692   5.179986   0.424036   0.419426   0.418954
    46  H   -0.003312  -0.003366   0.424036   0.549803  -0.027140  -0.027064
    47  H   -0.005111   0.004908   0.419426  -0.027140   0.541440  -0.028739
    48  H    0.004873  -0.005085   0.418954  -0.027064  -0.028739   0.541830
 Mulliken atomic charges:
              1
     1  C   -0.073760
     2  C   -0.266623
     3  H    0.155163
     4  H    0.157379
     5  C   -0.418025
     6  H    0.158394
     7  C   -0.037452
     8  H    0.144667
     9  C    0.443480
    10  H    0.164231
    11  C   -0.138560
    12  H    0.143019
    13  C    0.708697
    14  C   -0.030118
    15  C    0.498907
    16  C   -0.746494
    17  C   -0.743841
    18  C   -0.184326
    19  H    0.145638
    20  H    0.147862
    21  O   -0.622848
    22  H    0.487939
    23  O   -0.601615
    24  H    0.447474
    25  O   -0.759956
    26  H    0.459788
    27  C   -0.285195
    28  H    0.172111
    29  H    0.161284
    30  H    0.177375
    31  O   -0.602955
    32  H    0.410088
    33  H    0.154629
    34  C    0.416553
    35  C   -0.469669
    36  H    0.140559
    37  H    0.141704
    38  C   -0.696218
    39  H    0.173153
    40  H    0.152875
    41  H    0.166553
    42  C   -0.017237
    43  H    0.151338
    44  H    0.150589
    45  C   -0.604511
    46  H    0.151867
    47  H    0.158242
    48  H    0.157844
 Sum of Mulliken atomic charges =   0.00000
 Mulliken charges with hydrogens summed into heavy atoms:
              1
     1  C   -0.073760
     2  C    0.045919
     5  C   -0.105002
     7  C    0.107215
     9  C    0.607710
    11  C    0.004460
    13  C    0.708697
    14  C   -0.030118
    15  C    0.498907
    16  C   -0.746494
    17  C   -0.598203
    18  C   -0.036463
    21  O   -0.134909
    23  O   -0.154141
    25  O   -0.300168
    27  C    0.225576
    31  O   -0.192867
    34  C    0.416553
    35  C   -0.187405
    38  C   -0.203637
    42  C    0.284691
    45  C   -0.136558
 Sum of Mulliken charges with hydrogens summed into heavy atoms =   0.00000
 Electronic spatial extent (au):  <R**2>=           7128.3201
 Charge=              0.0000 electrons
 Dipole moment (field-independent basis, Debye):
    X=             -0.6916    Y=             -4.6443    Z=             -4.2171  Tot=              6.3113
 Quadrupole moment (field-independent basis, Debye-Ang):
   XX=           -122.0513   YY=           -130.1044   ZZ=           -133.4526
   XY=              3.3949   XZ=             -7.6911   YZ=             -0.9534
 Traceless Quadrupole moment (field-independent basis, Debye-Ang):
   XX=              6.4848   YY=             -1.5683   ZZ=             -4.9165
   XY=              3.3949   XZ=             -7.6911   YZ=             -0.9534
 Octapole moment (field-independent basis, Debye-Ang**2):
  XXX=             53.9871  YYY=            -31.8039  ZZZ=            -20.7613  XYY=            -23.4135
  XXY=            -47.8049  XXZ=            -14.5096  XZZ=             -5.6928  YZZ=            -27.6522
  YYZ=              4.6323  XYZ=             22.4234
 Hexadecapole moment (field-independent basis, Debye-Ang**3):
 XXXX=          -6602.1035 YYYY=          -1733.7561 ZZZZ=          -1225.3608 XXXY=            -12.7685
 XXXZ=             24.3496 YYYX=             95.3694 YYYZ=             21.2542 ZZZX=           -141.7909
 ZZZY=             29.1845 XXYY=          -1330.8301 XXZZ=          -1236.0400 YYZZ=           -462.0159
 XXYZ=             31.9303 YYXZ=            -99.8005 ZZXY=            -12.9702
 N-N= 1.991224253922D+03 E-N=-6.315268105633D+03  KE= 9.932017202656D+02

 Test job not archived.
 1\1\GINC-COMPUTE-8-16\SP\RB3LYP\6-31+G(d,p)\C18H26O4\LPASSAGLIA.IQUIR\
 23-Dec-2022\0\\# B3LYP/6-31+G** geom=allcheck test scrf=(pcm,solvent=w
 ater,smd,dovacuum)\\comment\\0,1\C,0,1.99619817,2.191258616,-1.7376779
 98\C,0,1.200381004,3.354931429,-1.127700124\H,0,1.81860658,4.262713153
 ,-1.125948074\H,0,0.359553974,3.609012439,-1.781542724\C,0,0.701111925
 ,3.087945436,0.294355006\H,0,1.570009219,3.127398186,0.965287952\C,0,-
 0.007615112,1.726541174,0.522210662\H,0,0.093863806,1.56205237,1.60710
 1046\C,0,0.790787255,0.570449028,-0.15872724\H,0,1.76458487,0.58336639
 5,0.348495201\C,0,1.197873086,0.867020235,-1.620662066\H,0,1.795408148
 ,0.040550668,-2.024852668\C,0,0.251650657,-0.831736034,0.134705045\C,0
 ,-0.659737407,-3.446133862,0.842977039\C,0,0.703440834,-1.497590212,1.
 295380163\C,0,-0.69761139,-1.514294382,-0.64028871\C,0,-1.141159962,-2
 .797150469,-0.295799476\C,0,0.264427459,-2.77905795,1.646890696\H,0,-1
 .882188163,-3.280735436,-0.929449976\H,0,0.633300315,-3.263463368,2.54
 6420693\O,0,-1.297152365,-1.009160551,-1.757756315\H,0,-0.943282102,-0
 .11357201,-1.947232269\O,0,1.600815442,-0.865480908,2.119621099\H,0,1.
 770870982,-1.433294183,2.889255047\O,0,0.051649583,0.978878536,-2.4819
 07881\H,0,0.34653499,1.538701785,-3.232973821\C,0,3.404241138,2.098804
 251,-1.139608781\H,0,3.98232227,2.999003747,-1.378985731\H,0,3.9546569
 62,1.256750314,-1.5745541\H,0,3.401486156,1.979596408,-0.053194408\O,0
 ,2.139403039,2.476196042,-3.145695393\H,0,2.804360177,1.863724202,-3.5
 09627976\H,0,0.052505381,3.914174069,0.611898066\C,0,-1.52182676,1.761
 283663,0.290111143\C,0,-2.139828379,2.357006686,-0.743334925\H,0,-3.22
 2667365,2.351584985,-0.832334316\H,0,-1.606402899,2.846681695,-1.54626
 2021\C,0,-2.357267276,1.110245801,1.368466464\H,0,-2.101756863,0.05472
 601,1.486856257\H,0,-3.429386331,1.162852132,1.149912712\H,0,-2.193159
 984,1.614592109,2.326630866\C,0,-1.162093734,-4.816563425,1.213261622\
 H,0,-1.394274488,-5.383277676,0.303309359\H,0,-0.367820174,-5.37511620
 9,1.72336888\C,0,-2.39365175,-4.746182285,2.103216203\H,0,-2.735846311
 ,-5.754659192,2.356140073\H,0,-3.216313169,-4.224214644,1.602729605\H,
 0,-2.179001436,-4.216358768,3.037516095\\Version=EM64L-G09RevC.01\Stat
 e=1-A\HF=-1002.5451476\RMSD=5.545e-09\Dipole=2.1355057,0.0049743,1.266
 912\Quadrupole=-0.1577294,-1.8077218,1.9654512,1.2814422,-4.2388661,-5
 .9468319\PG=C01 [X(C18H26O4)]\\@


 OUR LITTLE SYSTEMS HAVE THEIR DAY,    
   THEY HAVE THEIR DAY AND CEASE TO BE.
   THEY ARE BUT BROKEN LIGHTS OF THEE, 
 AND THOU, OH LORD, ART MORE THAN THEY.
          -------------------          
 LET KNOWLEDGE GROW FROM MORE TO MORE, 
   BUT MORE OF REVERENCE IN US DWELL.  
   THAT MIND AND SOUL, ACCORDING WELL, 
 MAY MAKE ONE MUSIC AS BEFORE.....     
          -------------------          
                    LORD TENNYSON      
 Job cpu time:  0 days  2 hours  5 minutes 40.5 seconds.
 File lengths (MBytes):  RWF=    241 Int=      0 D2E=      0 Chk=     19 Scr=      1
 Normal termination of Gaussian 09 at Fri Dec 23 15:29:53 2022.
