 Entering Gaussian System, Link 0=g09
 Input=/home/lpassaglia.iquir/Link1/03_RSRS_THC_002.gjc
 Output=/home/lpassaglia.iquir/Link1/03_RSRS_THC_002.log
 Initial command:
 /share/apps/Gaussian09/EM64T.SSE4.2-enabled/g09/l1.exe /tmp/Gau-57608.inp -scrdir=/tmp/
 Entering Link 1 = /share/apps/Gaussian09/EM64T.SSE4.2-enabled/g09/l1.exe PID=     57618.
  
 Copyright (c) 1988,1990,1992,1993,1995,1998,2003,2009,2011,
            Gaussian, Inc.  All Rights Reserved.
  
 This is part of the Gaussian(R) 09 program.  It is based on
 the Gaussian(R) 03 system (copyright 2003, Gaussian, Inc.),
 the Gaussian(R) 98 system (copyright 1998, Gaussian, Inc.),
 the Gaussian(R) 94 system (copyright 1995, Gaussian, Inc.),
 the Gaussian 92(TM) system (copyright 1992, Gaussian, Inc.),
 the Gaussian 90(TM) system (copyright 1990, Gaussian, Inc.),
 the Gaussian 88(TM) system (copyright 1988, Gaussian, Inc.),
 the Gaussian 86(TM) system (copyright 1986, Carnegie Mellon
 University), and the Gaussian 82(TM) system (copyright 1983,
 Carnegie Mellon University). Gaussian is a federally registered
 trademark of Gaussian, Inc.
  
 This software contains proprietary and confidential information,
 including trade secrets, belonging to Gaussian, Inc.
  
 This software is provided under written license and may be
 used, copied, transmitted, or stored only in accord with that
 written license.
  
 The following legend is applicable only to US Government
 contracts under FAR:
  
                    RESTRICTED RIGHTS LEGEND
  
 Use, reproduction and disclosure by the US Government is
 subject to restrictions as set forth in subparagraphs (a)
 and (c) of the Commercial Computer Software - Restricted
 Rights clause in FAR 52.227-19.
  
 Gaussian, Inc.
 340 Quinnipiac St., Bldg. 40, Wallingford CT 06492
  
  
 ---------------------------------------------------------------
 Warning -- This program may not be used in any manner that
 competes with the business of Gaussian, Inc. or will provide
 assistance to any competitor of Gaussian, Inc.  The licensee
 of this program is prohibited from giving any competitor of
 Gaussian, Inc. access to this program.  By using this program,
 the user acknowledges that Gaussian, Inc. is engaged in the
 business of creating and licensing software in the field of
 computational chemistry and represents and warrants to the
 licensee that it is not a competitor of Gaussian, Inc. and that
 it will not use this program in any manner prohibited above.
 ---------------------------------------------------------------
  

 Cite this work as:
 Gaussian 09, Revision C.01,
 M. J. Frisch, G. W. Trucks, H. B. Schlegel, G. E. Scuseria, 
 M. A. Robb, J. R. Cheeseman, G. Scalmani, V. Barone, B. Mennucci, 
 G. A. Petersson, H. Nakatsuji, M. Caricato, X. Li, H. P. Hratchian, 
 A. F. Izmaylov, J. Bloino, G. Zheng, J. L. Sonnenberg, M. Hada, 
 M. Ehara, K. Toyota, R. Fukuda, J. Hasegawa, M. Ishida, T. Nakajima, 
 Y. Honda, O. Kitao, H. Nakai, T. Vreven, J. A. Montgomery, Jr., 
 J. E. Peralta, F. Ogliaro, M. Bearpark, J. J. Heyd, E. Brothers, 
 K. N. Kudin, V. N. Staroverov, T. Keith, R. Kobayashi, J. Normand, 
 K. Raghavachari, A. Rendell, J. C. Burant, S. S. Iyengar, J. Tomasi, 
 M. Cossi, N. Rega, J. M. Millam, M. Klene, J. E. Knox, J. B. Cross, 
 V. Bakken, C. Adamo, J. Jaramillo, R. Gomperts, R. E. Stratmann, 
 O. Yazyev, A. J. Austin, R. Cammi, C. Pomelli, J. W. Ochterski, 
 R. L. Martin, K. Morokuma, V. G. Zakrzewski, G. A. Voth, 
 P. Salvador, J. J. Dannenberg, S. Dapprich, A. D. Daniels, 
 O. Farkas, J. B. Foresman, J. V. Ortiz, J. Cioslowski, 
 and D. J. Fox, Gaussian, Inc., Wallingford CT, 2010.
 
 ******************************************
 Gaussian 09:  EM64L-G09RevC.01 23-Sep-2011
                23-Dec-2022 
 ******************************************
 %chk=03_RSRS_THC_002_optB_NMR
 %nprocshared=4
 Will use up to    4 processors via shared memory.
 ------------------------------------------------
 # mPW1PW91/6-31+G** scrf=(PCM,solvent=water) nmr
 ------------------------------------------------
 1/38=1/1;
 2/12=2,17=6,18=5,40=1/2;
 3/5=1,6=6,7=111,11=2,16=1,25=1,30=1,70=2201,72=1,74=-7/1,2,8,3;
 4//1;
 5/5=2,38=5,53=1/2;
 8/6=1,10=90,11=11/1;
 10/13=100,45=16/2;
 6/7=2,8=2,9=2,10=2,28=1/1;
 99/9=1/99;
 -------
 comment
 -------
 Charge =  0 Multiplicity = 1
 Symbolic Z-Matrix:
 6                     1.78026   2.39453  -1.46456 
 6                     0.99315   3.49819  -0.74167 
 1                     1.60516   4.40815  -0.68152 
 1                     0.13417   3.7963   -1.35172 
 6                     0.53441   3.1129    0.66562 
 1                     1.4215    3.0989    1.3134 
 6                    -0.16623   1.73584   0.79593 
 1                    -0.04024   1.48303   1.86119 
 6                     0.61879   0.6413    0.00755 
 1                     1.60147   0.61641   0.49677 
 6                     1.00256   1.05296  -1.43293 
 1                     1.60378   0.26505  -1.9038 
 6                     0.08284  -0.77987   0.19953 
 6                    -0.8305   -3.43741   0.72139 
 6                     0.56982  -1.54395   1.28284 
 6                    -0.89541  -1.39133  -0.59861 
 6                    -1.33752  -2.69624  -0.34782 
 6                     0.13377  -2.84892   1.53946 
 1                    -2.09489  -3.12494  -1.00125 
 1                     0.53741  -3.4133    2.37512 
 8                    -1.52396  -0.79287  -1.65236 
 1                    -1.14745   0.10226  -1.79535 
 8                     1.50118  -0.98939   2.12521 
 1                     1.70656  -1.6292    2.82658 
 8                    -0.15348   1.21704  -2.27216 
 1                     0.19263   1.6969   -3.05739 
 6                     3.20591   2.2595   -0.92006 
 1                     3.76723   3.18893  -1.07161 
 1                     3.75285   1.4806   -1.46347 
 1                     3.23618   2.02121   0.14614 
 8                     1.88793   2.77495  -2.85348 
 1                     2.3621    3.6253   -2.88977 
 1                    -0.10673   3.90725   1.06826 
 6                    -1.68471   1.78707   0.60138 
 6                    -2.3244    2.43384  -0.38708 
 1                    -3.40887   2.43149  -0.45318 
 1                    -1.80783   2.95842  -1.17888 
 6                    -2.49566   1.07727   1.66089 
 1                    -2.23193   0.01836   1.71826 
 1                    -3.57214   1.13506   1.46667 
 1                    -2.31396   1.53201   2.64046 
 6                    -1.30206  -4.84587   0.96889 
 1                    -1.27887  -5.0592    2.04454 
 1                    -2.35102  -4.94373   0.66362 
 6                    -0.45309  -5.86514   0.2247 
 1                    -0.81759  -6.87806   0.42282 
 1                     0.59504  -5.8142    0.53858 
 1                    -0.48814  -5.6974   -0.85712 
 
                          Input orientation:                          
 ---------------------------------------------------------------------
 Center     Atomic      Atomic             Coordinates (Angstroms)
 Number     Number       Type             X           Y           Z
 ---------------------------------------------------------------------
      1          6           0        1.780261    2.394525   -1.464559
      2          6           0        0.993147    3.498194   -0.741668
      3          1           0        1.605164    4.408148   -0.681518
      4          1           0        0.134170    3.796297   -1.351716
      5          6           0        0.534413    3.112904    0.665619
      6          1           0        1.421498    3.098898    1.313397
      7          6           0       -0.166229    1.735839    0.795932
      8          1           0       -0.040243    1.483030    1.861191
      9          6           0        0.618789    0.641303    0.007548
     10          1           0        1.601467    0.616411    0.496770
     11          6           0        1.002564    1.052962   -1.432928
     12          1           0        1.603780    0.265052   -1.903802
     13          6           0        0.082836   -0.779870    0.199527
     14          6           0       -0.830504   -3.437410    0.721392
     15          6           0        0.569819   -1.543946    1.282836
     16          6           0       -0.895407   -1.391331   -0.598614
     17          6           0       -1.337521   -2.696245   -0.347817
     18          6           0        0.133771   -2.848918    1.539458
     19          1           0       -2.094892   -3.124944   -1.001250
     20          1           0        0.537406   -3.413298    2.375121
     21          8           0       -1.523959   -0.792869   -1.652362
     22          1           0       -1.147451    0.102258   -1.795350
     23          8           0        1.501179   -0.989390    2.125207
     24          1           0        1.706559   -1.629205    2.826581
     25          8           0       -0.153484    1.217044   -2.272160
     26          1           0        0.192627    1.696899   -3.057391
     27          6           0        3.205911    2.259501   -0.920057
     28          1           0        3.767234    3.188926   -1.071608
     29          1           0        3.752846    1.480599   -1.463471
     30          1           0        3.236181    2.021210    0.146137
     31          8           0        1.887934    2.774951   -2.853485
     32          1           0        2.362096    3.625296   -2.889766
     33          1           0       -0.106733    3.907254    1.068256
     34          6           0       -1.684712    1.787071    0.601376
     35          6           0       -2.324403    2.433843   -0.387078
     36          1           0       -3.408870    2.431491   -0.453184
     37          1           0       -1.807826    2.958415   -1.178879
     38          6           0       -2.495656    1.077269    1.660894
     39          1           0       -2.231927    0.018363    1.718263
     40          1           0       -3.572142    1.135061    1.466665
     41          1           0       -2.313963    1.532011    2.640456
     42          6           0       -1.302059   -4.845873    0.968893
     43          1           0       -1.278873   -5.059197    2.044545
     44          1           0       -2.351020   -4.943731    0.663616
     45          6           0       -0.453094   -5.865142    0.224703
     46          1           0       -0.817588   -6.878056    0.422819
     47          1           0        0.595042   -5.814202    0.538577
     48          1           0       -0.488140   -5.697402   -0.857117
 ---------------------------------------------------------------------
                    Distance matrix (angstroms):
                    1          2          3          4          5
     1  C    0.000000
     2  C    1.536295   0.000000
     3  H    2.167600   1.098271   0.000000
     4  H    2.165021   1.094927   1.728395   0.000000
     5  C    2.570187   1.529491   2.153820   2.167224   0.000000
     6  H    2.888233   2.136870   2.393231   3.040790   1.098514
     7  C    3.054916   2.610414   3.530146   2.991341   1.550545
     8  H    3.899444   3.450167   4.210587   3.962877   2.101454
     9  C    2.567081   2.977129   3.954349   3.469358   2.559100
    10  H    2.653387   3.195067   3.970598   3.959992   2.720219
    11  C    1.551001   2.541080   3.490704   2.878644   2.977654
    12  H    2.181453   3.489503   4.319633   3.864485   3.981926
    13  C    3.965755   4.473963   5.478070   4.832214   3.946499
    14  C    6.753217   7.319075   8.333872   7.586494   6.691243
    15  C    4.952263   5.449862   6.352799   5.970666   4.697709
    16  C    4.716118   5.243525   6.316146   5.342161   4.891913
    17  C    6.073188   6.630098   7.696957   6.732517   6.186873
    18  C    6.263285   6.799110   7.730637   7.246915   6.038827
    19  H    6.759882   7.312272   8.398817   7.279775   6.971546
    20  H    7.072386   7.595446   8.465116   8.125896   6.746386
    21  O    4.594848   5.057510   6.146912   4.888786   4.986481
    22  H    3.733016   4.150275   5.230507   3.935135   4.236629
    23  O    4.941173   5.349344   6.084566   6.071286   4.460252
    24  H    5.883002   6.287414   6.983314   7.026140   5.341468
    25  O    2.403758   2.976712   3.975693   2.753636   3.563430
    26  H    2.354651   3.041064   3.871809   2.705590   3.997836
    27  C    1.532054   2.542146   2.689977   3.461743   3.221733
    28  H    2.175671   2.810705   2.512612   3.694119   3.670813
    29  H    2.174018   3.493942   3.714100   4.297647   4.189959
    30  H    2.203045   2.828583   3.007109   3.875174   2.959934
    31  O    1.444103   2.404889   2.732166   2.524707   3.785541
    32  H    1.970925   2.550393   2.462147   2.712655   4.030352
    33  H    3.502034   2.157056   2.498639   2.434463   1.097349
    34  C    4.079598   3.450020   4.397629   3.340642   2.585822
    35  C    4.243911   3.502102   4.407502   2.971765   3.121238
    36  H    5.286901   4.538593   5.394427   3.901690   4.155180
    37  H    3.643344   2.885821   3.741336   2.122090   2.985318
    38  C    5.457754   4.879029   5.779132   4.835795   3.783609
    39  H    5.645719   5.344304   6.304952   5.412575   4.282158
    40  H    6.231094   5.594908   6.490938   5.363040   4.627886
    41  H    5.861549   5.122658   5.887889   5.201710   3.809522
    42  C    8.236853   8.821420   9.839345   9.062841   8.173539
    43  H    8.788064   9.281917  10.265462   9.589111   8.483671
    44  H    8.686001   9.188273  10.242969   9.307299   8.557751
    45  C    8.721443   9.523525  10.516565   9.806803   9.042947
    46  H    9.812837  10.597233  11.596021  10.862625  10.084947
    47  H    8.532321   9.408413  10.344343   9.805473   8.928216
    48  H    8.425789   9.314855  10.321575   9.526921   8.999213
                    6          7          8          9         10
     6  H    0.000000
     7  C    2.155593   0.000000
     8  H    2.246730   1.102071   0.000000
     9  C    2.896439   1.560710   2.139818   0.000000
    10  H    2.619544   2.113615   2.303885   1.098004   0.000000
    11  C    3.450168   2.607722   3.481899   1.546517   2.067122
    12  H    4.291186   3.547494   4.285027   2.182895   2.426150
    13  C    4.251772   2.597407   2.810159   1.530958   2.084273
    14  C    6.938683   5.216256   5.112181   4.387018   4.732696
    15  C    4.720413   3.396444   3.141537   2.530626   2.519790
    16  C    5.402407   3.500808   3.878647   2.606113   3.386042
    17  C    6.629895   4.724770   4.901937   3.884927   4.508289
    18  C    6.089817   4.654334   4.347364   3.842347   3.905104
    19  H    7.513908   5.529631   5.800740   4.750406   5.468535
    20  H    6.657146   5.431626   4.956999   4.695936   4.571542
    21  O    5.711156   3.772524   4.441417   3.066516   4.046372
    22  H    5.024307   3.216539   4.062355   2.580816   3.615898
    23  O    4.168871   3.460361   2.925500   2.814649   2.289206
    24  H    4.972519   4.353664   3.697202   3.779602   3.237570
    25  O    4.344901   3.111672   4.143448   2.474864   3.332804
    26  H    4.751791   3.870193   4.928734   3.269518   3.972952
    27  C    2.979434   3.819708   4.344624   3.189391   2.698403
    28  H    3.346465   4.590348   5.099830   4.191380   3.710551
    29  H    3.970525   4.530916   5.043898   3.562390   3.036082
    30  H    2.411842   3.475639   3.737112   2.962109   2.183734
    31  O    4.205402   4.314810   5.255006   3.787967   3.995693
    32  H    4.339170   4.852510   5.738652   4.509741   4.593536
    33  H    1.746145   2.189233   2.551475   3.509690   3.751558
    34  C    3.446216   1.531752   2.093765   2.640366   3.490037
    35  C    4.167217   2.558210   3.343075   3.468619   4.415507
    36  H    5.186395   3.543859   4.195659   4.431601   5.412984
    37  H    4.081631   2.844189   3.813546   3.558804   4.462742
    38  C    4.421746   2.570623   2.496760   3.552941   4.284156
    39  H    4.795949   2.840338   2.639916   3.382481   4.067507
    40  H    5.368109   3.522933   3.570860   4.465056   5.289227
    41  H    4.262617   2.838411   2.404051   4.040620   4.556787
    42  C    8.405703   6.681239   6.514859   5.892617   6.204024
    43  H    8.624448   6.997822   6.660973   6.343987   6.550152
    44  H    8.907188   7.029045   6.933768   6.359465   6.823868
    45  C    9.222438   7.627811   7.539507   6.597720   6.804834
    46  H   10.263832   8.646541   8.519445   7.666576   7.875553
    47  H    8.984806   7.592686   7.443285   6.477352   6.509027
    48  H    9.259198   7.621632   7.690801   6.492466   6.787025
                   11         12         13         14         15
    11  C    0.000000
    12  H    1.097263   0.000000
    13  C    2.621084   2.798057   0.000000
    14  C    5.307040   5.150302   2.858156   0.000000
    15  C    3.782403   3.807390   1.412276   2.421019   0.000000
    16  C    3.205144   3.270024   1.402809   2.435788   2.389567
    17  C    4.550826   4.454393   2.447344   1.396280   2.761298
    18  C    4.981420   4.869679   2.465557   1.394769   1.399623
    19  H    5.218762   5.097730   3.418149   2.159585   3.849323
    20  H    5.887707   5.742526   3.445982   2.146295   2.165321
    21  O    3.136649   3.311370   2.451826   3.620661   3.682854
    22  H    2.378603   2.758175   2.504254   4.354732   3.890274
    23  O    4.132813   4.221027   2.400800   3.660635   1.372791
    24  H    5.082622   5.096597   3.203008   3.760069   1.919009
    25  O    1.437943   2.032228   3.186337   5.575271   4.558972
    26  H    1.926015   2.317823   4.093159   6.456557   5.429818
    27  C    2.563885   2.740877   4.499426   7.172294   5.125224
    28  H    3.512306   3.731236   5.562545   8.262105   6.177940
    29  H    2.783497   2.507974   4.619984   7.068772   5.178970
    30  H    2.901723   3.154532   4.218114   6.831207   4.594770
    31  O    2.401480   2.698561   5.021554   7.665708   6.123680
    32  H    3.253861   3.583072   5.843308   8.550730   6.880693
    33  H    3.953915   5.002461   4.770718   7.388386   5.497213
    34  C    3.449458   4.405297   3.142434   5.295213   4.079580
    35  C    3.750913   4.736531   4.057938   6.158901   5.194993
    36  H    4.724509   5.650169   4.788620   6.517024   5.886241
    37  H    3.404935   4.406674   4.410145   6.743350   5.655484
    38  C    4.670103   5.492916   3.497596   4.902828   4.051029
    39  H    4.632745   5.281368   2.881295   3.860065   3.237311
    40  H    5.416854   6.237558   4.316418   5.383262   4.936265
    41  H    5.274590   6.132225   4.128871   5.529792   4.429542
    42  C    6.773204   6.543534   4.363742   1.505785   3.808571
    43  H    7.392987   7.228192   4.854995   2.140551   4.044113
    44  H    7.183478   7.025916   4.845284   2.141100   4.524740
    45  C    7.261325   6.807389   5.113496   2.506595   4.564946
    46  H    8.346125   7.893046   6.168346   3.453600   5.578284
    47  H    7.156176   6.628733   5.071667   2.777542   4.334702
    48  H    6.936943   6.404884   5.062078   2.777853   4.790603
                   16         17         18         19         20
    16  C    0.000000
    17  C    1.400415   0.000000
    18  C    2.784801   2.397877   0.000000
    19  H    2.146228   1.088287   3.390918   0.000000
    20  H    3.870969   3.382885   1.086177   4.290924   0.000000
    21  O    1.365145   2.315046   4.142839   2.487667   5.228432
    22  H    1.930418   3.156437   4.633779   3.455875   5.708827
    23  O    3.650258   4.133693   2.381335   5.221787   2.620429
    24  H    4.307989   4.525682   2.370242   5.598263   2.180303
    25  O    3.186664   4.518724   5.580590   4.923122   6.596561
    26  H    4.094700   5.383573   6.465210   5.719321   7.466270
    27  C    5.500246   6.747566   6.448504   7.556279   7.082356
    28  H    6.553068   7.824170   7.515004   8.615940   8.117949
    29  H    5.531927   6.678514   6.392183   7.457929   7.001719
    30  H    5.410186   6.589167   5.940071   7.497982   6.464181
    31  O    5.494483   6.827585   7.348669   7.355436   8.213202
    32  H    6.405253   7.753100   8.154686   8.306442   8.977213
    33  H    5.610300   6.864859   6.776853   7.595225   7.464134
    34  C    3.487868   4.595827   5.067472   5.183103   5.926873
    35  C    4.088856   5.224297   6.136915   5.597321   7.071688
    36  H    4.577403   5.531298   6.663606   5.735929   7.598287
    37  H    4.482133   5.734722   6.699573   6.092719   7.663535
    38  C    3.709469   4.428950   4.726899   4.990613   5.465783
    39  H    3.023481   3.526718   3.721531   4.158715   4.458359
    40  H    4.220538   4.792158   5.441615   5.140090   6.196874
    41  H    4.588007   5.268905   5.137717   5.915847   5.714612
    42  C    3.815272   2.521088   2.524873   2.733431   2.722752
    43  H    4.537242   3.363090   2.671330   3.699201   2.473284
    44  H    4.041234   2.664840   3.365936   2.478985   3.689781
    45  C    4.570390   3.339446   3.342244   3.421570   3.408361
    46  H    5.581534   4.283895   4.287880   4.212520   4.201433
    47  H    4.803793   3.773878   3.163454   4.103525   3.023335
    48  H    4.333005   3.160345   3.774150   3.036440   4.088550
                   21         22         23         24         25
    21  O    0.000000
    22  H    0.981558   0.000000
    23  O    4.843564   4.855688   0.000000
    24  H    5.585394   5.701366   0.971323   0.000000
    25  O    2.510399   1.567822   5.190674   6.128462   0.000000
    26  H    3.334624   2.435454   5.982289   6.926477   0.983179
    27  C    5.676698   4.936759   4.768127   5.604229   3.768346
    28  H    6.647458   5.848542   5.728259   6.531206   4.549909
    29  H    5.748827   5.101262   4.904025   5.680028   3.997856
    30  H    5.814858   5.164105   3.998833   4.780173   4.240834
    31  O    5.080655   4.180490   6.253576   7.189759   2.632945
    32  H    6.012718   5.091804   6.869240   7.792056   3.536843
    33  H    5.612615   4.874559   5.261145   6.085401   4.289265
    34  C    3.429470   2.978513   4.492293   5.303130   3.305571
    35  C    3.557151   2.967278   5.715347   6.563888   3.122023
    36  H    3.922679   3.512941   6.516065   7.308469   3.921874
    37  H    3.791688   2.995625   6.119777   7.031420   2.639032
    38  C    3.926738   3.835874   4.523423   5.132488   4.579762
    39  H    3.538421   3.678124   3.888091   4.410727   4.656203
    40  H    4.200035   4.193632   5.539455   6.111891   5.066829
    41  H    4.945448   4.804302   4.601984   5.117863   5.375935
    42  C    4.831879   5.670004   4.905882   4.780140   6.970122
    43  H    5.650552   6.434491   4.929353   4.614025   7.700106
    44  H    4.824669   5.740827   5.710736   5.668196   7.169595
    45  C    5.513445   6.338186   5.586059   5.420058   7.515413
    46  H    6.467985   7.331702   6.553716   6.300780   8.557720
    47  H    5.874025   6.594543   5.159195   4.897410   7.609136
    48  H    5.075410   5.911939   5.917519   5.910716   7.065685
                   26         27         28         29         30
    26  H    0.000000
    27  C    3.736924   0.000000
    28  H    4.352849   1.096304   0.000000
    29  H    3.906729   1.095959   1.752754   0.000000
    30  H    4.430688   1.092917   1.768751   1.774835   0.000000
    31  O    2.019367   2.396016   2.622638   2.661838   3.373963
    32  H    2.907475   2.541097   2.338916   2.927154   3.543138
    33  H    4.690016   4.200248   4.483595   5.214849   3.947473
    34  C    4.113284   5.143553   5.872630   5.824479   4.947449
    35  C    3.742873   5.558672   6.176307   6.245019   5.601311
    36  H    4.504697   6.633466   7.242418   7.294865   6.684626
    37  H    3.020272   5.068829   5.580854   5.760730   5.298682
    38  C    5.465621   6.369210   7.151884   6.997721   6.003288
    39  H    5.612736   6.446201   7.336605   6.933907   6.031847
    40  H    5.912379   7.273431   8.032909   7.896869   6.991589
    41  H    6.227009   6.608745   7.314762   7.324687   6.104511
    42  C    7.826424   8.624167   9.716963   8.455336   8.272205
    43  H    8.593014   9.081051  10.158993   8.966231   8.609403
    44  H    8.025833   9.234395  10.323960   9.113380   8.943993
    45  C    8.268830   8.983797  10.073119   8.631325   8.706978
    46  H    9.309256  10.074066  11.162349   9.711543   9.782972
    47  H    8.337240   8.609816   9.680486   8.197197   8.277880
    48  H    7.744698   8.772815   9.855001   8.359266   8.628677
                   31         32         33         34         35
    31  O    0.000000
    32  H    0.974286   0.000000
    33  H    4.543221   4.673389   0.000000
    34  C    5.067126   5.651885   2.683872   0.000000
    35  C    4.893189   5.444840   3.034304   1.343340   0.000000
    36  H    5.825422   6.377002   3.923871   2.121343   1.086482
    37  H    4.061602   4.556327   2.973824   2.134599   1.081192
    38  C    6.517484   7.127321   3.750598   1.511300   2.462481
    39  H    6.743360   7.439687   4.479110   2.162223   3.205551
    40  H    7.152997   7.771419   4.455653   2.176289   2.584579
    41  H    7.027392   7.538617   3.603535   2.149154   3.159015
    42  C    9.102944  10.003799   8.834926   6.654130   7.475167
    43  H    9.766946  10.631298   9.095289   7.008482   7.946796
    44  H    9.482446  10.405201   9.140049   6.763988   7.452065
    45  C    9.466090  10.377554   9.814849   7.759841   8.529316
    46  H   10.546780  11.463159  10.827964   8.710236   9.467729
    47  H    9.324763  10.197065   9.761135   7.936030   8.798310
    48  H    9.022859   9.958324   9.803160   7.718570   8.349249
                   36         37         38         39         40
    36  H    0.000000
    37  H    1.835109   0.000000
    38  C    2.671554   3.475073   0.000000
    39  H    3.453051   4.149361   1.092761   0.000000
    40  H    2.322328   3.665560   1.095394   1.762525   0.000000
    41  H    3.402718   4.108300   1.095146   1.774345   1.765890
    42  C    7.708500   8.110218   6.081706   5.008692   6.416590
    43  H    8.178382   8.657503   6.267692   5.176522   6.630374
    44  H    7.533935   8.132267   6.104746   5.074331   6.252019
    45  C    8.833473   9.036620   7.377789   6.325393   7.763618
    46  H    9.703081  10.015097   8.224107   7.158151   8.537402
    47  H    9.219889   9.256471   7.635731   6.588036   8.155920
    48  H    8.647123   8.761751   7.501112   6.507176   7.848158
                   41         42         43         44         45
    41  H    0.000000
    42  C    6.670493   0.000000
    43  H    6.698547   1.096846   0.000000
    44  H    6.770856   1.096854   1.752083   0.000000
    45  C    8.001035   1.521009   2.154827   2.154940   0.000000
    46  H    8.825320   2.159323   2.480126   2.480123   1.094578
    47  H    8.176004   2.172976   2.519827   3.074514   1.095309
    48  H    8.235961   2.172989   3.074444   2.520114   1.095308
                   46         47         48
    46  H    0.000000
    47  H    1.772205   0.000000
    48  H    1.772206   1.770561   0.000000
 Stoichiometry    C18H26O4
 Framework group  C1[X(C18H26O4)]
 Deg. of freedom   138
 Full point group                 C1      NOp   1
 Largest Abelian subgroup         C1      NOp   1
 Largest concise Abelian subgroup C1      NOp   1
                         Standard orientation:                         
 ---------------------------------------------------------------------
 Center     Atomic      Atomic             Coordinates (Angstroms)
 Number     Number       Type             X           Y           Z
 ---------------------------------------------------------------------
      1          6           0        3.020436   -1.271053   -0.239158
      2          6           0        3.688871    0.002921    0.299719
      3          1           0        4.676278   -0.245100    0.711683
      4          1           0        3.910881    0.680663   -0.531088
      5          6           0        2.870844    0.727718    1.369693
      6          1           0        2.913074    0.124885    2.287048
      7          6           0        1.376744    0.968303    1.032092
      8          1           0        0.908364    1.103591    2.020463
      9          6           0        0.732452   -0.321068    0.433572
     10          1           0        0.826488   -1.061968    1.238456
     11          6           0        1.565266   -0.980449   -0.690418
     12          1           0        1.086471   -1.911378   -1.019224
     13          6           0       -0.778390   -0.223351    0.206330
     14          6           0       -3.622112   -0.070470   -0.036416
     15          6           0       -1.643930   -0.566495    1.268224
     16          6           0       -1.392926    0.220198   -0.974129
     17          6           0       -2.786384    0.287875   -1.096013
     18          6           0       -3.037407   -0.502499    1.153900
     19          1           0       -3.211486    0.634306   -2.036037
     20          1           0       -3.674827   -0.784550    1.986921
     21          8           0       -0.724335    0.648066   -2.084775
     22          1           0        0.242099    0.544728   -1.947722
     23          8           0       -1.105004   -0.972043    2.463901
     24          1           0       -1.828192   -1.140642    3.090035
     25          8           0        1.645920   -0.147846   -1.860011
     26          1           0        2.372807   -0.550723   -2.385336
     27          6           0        3.104567   -2.427566    0.762137
     28          1           0        4.149968   -2.689001    0.963808
     29          1           0        2.638916   -3.329178    0.348142
     30          1           0        2.626453   -2.201408    1.718551
     31          8           0        3.744545   -1.676097   -1.421121
     32          1           0        4.666345   -1.848402   -1.156871
     33          1           0        3.362785    1.675583    1.622127
     34          6           0        1.105611    2.289700    0.306377
     35          6           0        1.800835    2.762714   -0.741231
     36          1           0        1.552759    3.716671   -1.198251
     37          1           0        2.612513    2.218500   -1.203818
     38          6           0       -0.016820    3.123089    0.880518
     39          1           0       -0.961258    2.573429    0.874494
     40          1           0       -0.175053    4.049249    0.317421
     41          1           0        0.213542    3.402581    1.914037
     42          6           0       -5.119089   -0.009625   -0.187241
     43          1           0       -5.577796    0.233594    0.778939
     44          1           0       -5.389533    0.809125   -0.865177
     45          6           0       -5.688113   -1.319436   -0.710763
     46          1           0       -6.775754   -1.246685   -0.809992
     47          1           0       -5.464025   -2.149432   -0.032093
     48          1           0       -5.273552   -1.568102   -1.693618
 ---------------------------------------------------------------------
 Rotational constants (GHZ):      0.4844737      0.1807689      0.1721634
 Standard basis: 6-31+G(d,p) (6D, 7F)
 There are   548 symmetry adapted basis functions of A   symmetry.
 Integral buffers will be    131072 words long.
 Raffenetti 2 integral format.
 Two-electron integral symmetry is turned on.
   548 basis functions,   886 primitive gaussians,   548 cartesian basis functions
    83 alpha electrons       83 beta electrons
       nuclear repulsion energy      1988.2779637136 Hartrees.
 NAtoms=   48 NActive=   48 NUniq=   48 SFac= 1.00D+00 NAtFMM=   60 NAOKFM=F Big=F
 ------------------------------------------------------------------------------
 Polarizable Continuum Model (PCM)
 =================================
 Model                : PCM.
 Atomic radii         : UFF (Universal Force Field).
 Polarization charges : Total charges.
 Charge compensation  : None.
 Solution method      : Matrix inversion.
 Cavity type          : Scaled VdW (van der Waals Surface) (Alpha=1.100).
 Cavity algorithm     : GePol (No added spheres)
                        Default sphere list used, NSphG=   48.
                        Lebedev-Laikov grids with approx.  5.0 points / Ang**2.
                        Smoothing algorithm: Karplus/York (Gamma=1.0000).
                        Polarization charges: spherical gaussians, with
                                              point-specific exponents (IZeta= 3).
                        Self-potential: point-specific (ISelfS= 7).
                        Self-field    : sphere-specific E.n sum rule (ISelfD= 2).
 Solvent              : Water, Eps=  78.355300 Eps(inf)=   1.777849
 ------------------------------------------------------------------------------
 One-electron integrals computed using PRISM.
 NBasis=   548 RedAO= T  NBF=   548
 NBsUse=   546 1.00D-06 NBFU=   546
 Harris functional with IExCor=  908 diagonalized for initial guess.
 ExpMin= 4.38D-02 ExpMax= 5.48D+03 ExpMxC= 8.25D+02 IAcc=2 IRadAn=         4 AccDes= 0.00D+00
 HarFok:  IExCor=  908 AccDes= 0.00D+00 IRadAn=         4 IDoV= 1
 ScaDFX=  1.000000  1.000000  1.000000  1.000000
 FoFCou: FMM=F IPFlag=           0 FMFlag=      100000 FMFlg1=           0
         NFxFlg=           0 DoJE=T BraDBF=F KetDBF=T FulRan=T
         Omega=  0.000000  0.000000  1.000000  0.000000  0.000000 ICntrl=     500 IOpCl=  0
         NMat0=    1 NMatS0=    1 NMatT0=    0 NMatD0=    1 NMtDS0=    0 NMtDT0=    0
         I1Cent=           4 NGrid=           0.
 Petite list used in FoFCou.
 Initial guess orbital symmetries:
       Occupied  (A) (A) (A) (A) (A) (A) (A) (A) (A) (A) (A) (A)
                 (A) (A) (A) (A) (A) (A) (A) (A) (A) (A) (A) (A)
                 (A) (A) (A) (A) (A) (A) (A) (A) (A) (A) (A) (A)
                 (A) (A) (A) (A) (A) (A) (A) (A) (A) (A) (A) (A)
                 (A) (A) (A) (A) (A) (A) (A) (A) (A) (A) (A) (A)
                 (A) (A) (A) (A) (A) (A) (A) (A) (A) (A) (A) (A)
                 (A) (A) (A) (A) (A) (A) (A) (A) (A) (A) (A)
       Virtual   (A) (A) (A) (A) (A) (A) (A) (A) (A) (A) (A) (A)
                 (A) (A) (A) (A) (A) (A) (A) (A) (A) (A) (A) (A)
                 (A) (A) (A) (A) (A) (A) (A) (A) (A) (A) (A) (A)
                 (A) (A) (A) (A) (A) (A) (A) (A) (A) (A) (A) (A)
                 (A) (A) (A) (A) (A) (A) (A) (A) (A) (A) (A) (A)
                 (A) (A) (A) (A) (A) (A) (A) (A) (A) (A) (A) (A)
                 (A) (A) (A) (A) (A) (A) (A) (A) (A) (A) (A) (A)
                 (A) (A) (A) (A) (A) (A) (A) (A) (A) (A) (A) (A)
                 (A) (A) (A) (A) (A) (A) (A) (A) (A) (A) (A) (A)
                 (A) (A) (A) (A) (A) (A) (A) (A) (A) (A) (A) (A)
                 (A) (A) (A) (A) (A) (A) (A) (A) (A) (A) (A) (A)
                 (A) (A) (A) (A) (A) (A) (A) (A) (A) (A) (A) (A)
                 (A) (A) (A) (A) (A) (A) (A) (A) (A) (A) (A) (A)
                 (A) (A) (A) (A) (A) (A) (A) (A) (A) (A) (A) (A)
                 (A) (A) (A) (A) (A) (A) (A) (A) (A) (A) (A) (A)
                 (A) (A) (A) (A) (A) (A) (A) (A) (A) (A) (A) (A)
                 (A) (A) (A) (A) (A) (A) (A) (A) (A) (A) (A) (A)
                 (A) (A) (A) (A) (A) (A) (A) (A) (A) (A) (A) (A)
                 (A) (A) (A) (A) (A) (A) (A) (A) (A) (A) (A) (A)
                 (A) (A) (A) (A) (A) (A) (A) (A) (A) (A) (A) (A)
                 (A) (A) (A) (A) (A) (A) (A) (A) (A) (A) (A) (A)
                 (A) (A) (A) (A) (A) (A) (A) (A) (A) (A) (A) (A)
                 (A) (A) (A) (A) (A) (A) (A) (A) (A) (A) (A) (A)
                 (A) (A) (A) (A) (A) (A) (A) (A) (A) (A) (A) (A)
                 (A) (A) (A) (A) (A) (A) (A) (A) (A) (A) (A) (A)
                 (A) (A) (A) (A) (A) (A) (A) (A) (A) (A) (A) (A)
                 (A) (A) (A) (A) (A) (A) (A) (A) (A) (A) (A) (A)
                 (A) (A) (A) (A) (A) (A) (A) (A) (A) (A) (A) (A)
                 (A) (A) (A) (A) (A) (A) (A) (A) (A) (A) (A) (A)
                 (A) (A) (A) (A) (A) (A) (A) (A) (A) (A) (A) (A)
                 (A) (A) (A) (A) (A) (A) (A) (A) (A) (A) (A) (A)
                 (A) (A) (A) (A) (A) (A) (A) (A) (A) (A) (A) (A)
                 (A) (A) (A) (A) (A) (A) (A) (A) (A) (A) (A) (A)
                 (A) (A) (A) (A) (A) (A) (A) (A) (A) (A) (A) (A)
                 (A) (A) (A) (A) (A) (A) (A) (A) (A) (A) (A) (A)
                 (A) (A) (A) (A) (A) (A) (A) (A) (A) (A) (A) (A)
                 (A) (A) (A) (A) (A) (A) (A) (A) (A) (A) (A) (A)
                 (A) (A) (A) (A) (A) (A) (A) (A) (A) (A) (A) (A)
                 (A) (A) (A) (A) (A) (A) (A)
 The electronic state of the initial guess is 1-A.
 Requested convergence on RMS density matrix=1.00D-08 within 128 cycles.
 Requested convergence on MAX density matrix=1.00D-06.
 Requested convergence on             energy=1.00D-06.
 No special actions if energy rises.
 CoulSu:  requested number of processors reduced to:   2 ShMem   1 Linda.
 CoulSu:  requested number of processors reduced to:   2 ShMem   1 Linda.
 Error on total polarization charges =  0.01930
 SCF Done:  E(RmPW1PW91) =  -1002.30416091     A.U. after   14 cycles
             Convg  =    0.5377D-08             -V/T =  2.0093
 Range of M.O.s used for correlation:     1   546
 NBasis=   548 NAE=    83 NBE=    83 NFC=     0 NFV=     0
 NROrb=    546 NOA=    83 NOB=    83 NVA=   463 NVB=   463

 **** Warning!!: The largest alpha MO coefficient is  0.15236844D+03

 NEqPCM:  Using equilibrium solvation (IEInf=0, Eps=  78.3553, EpsInf=   1.7778)
          Differentiating once with respect to magnetic field using GIAOs.
          Electric field/nuclear overlap derivatives assumed to be zero.
 FoFCou: FMM=F IPFlag=           0 FMFlag=    10101102 FMFlg1=           0
         NFxFlg=    40000000 DoJE=F BraDBF=F KetDBF=T FulRan=T
         Omega=  0.000000  0.000000  1.000000  0.000000  0.000000 ICntrl=    6100 IOpCl=  0
         NMat0=    1 NMatS0=    1 NMatT0=    0 NMatD0=    1 NMtDS0=    0 NMtDT0=    0
         I1Cent=           7 NGrid=        2988.
 Symmetry not used in FoFCou.
          There are     3 degrees of freedom in the 1st order CPHF.  IDoFFX=0.
      3 vectors produced by pass  0 Test12= 1.28D-12 3.33D-08 XBig12= 7.08D+02 3.85D+00.
 AX will form     3 AO Fock derivatives at one time.
      3 vectors produced by pass  1 Test12= 1.28D-12 3.33D-08 XBig12= 1.85D+00 5.09D-01.
      3 vectors produced by pass  2 Test12= 1.28D-12 3.33D-08 XBig12= 7.76D-03 3.91D-02.
      3 vectors produced by pass  3 Test12= 1.28D-12 3.33D-08 XBig12= 4.01D-05 1.70D-03.
      3 vectors produced by pass  4 Test12= 1.28D-12 3.33D-08 XBig12= 1.37D-07 8.39D-05.
      3 vectors produced by pass  5 Test12= 1.28D-12 3.33D-08 XBig12= 4.30D-10 4.43D-06.
      3 vectors produced by pass  6 Test12= 1.28D-12 3.33D-08 XBig12= 1.84D-12 2.28D-07.
 Inverted reduced A of dimension    21 with in-core refinement.
 Calculating GIAO nuclear magnetic shielding tensors.
 SCF GIAO Magnetic shielding tensor (ppm):
      1  C    Isotropic =   121.1842   Anisotropy =    47.3796
   XX=   114.6190   YX=   -10.8504   ZX=   -15.6673
   XY=    -8.8085   YY=   111.4214   ZY=     3.8531
   XZ=   -23.2948   YZ=    14.8247   ZZ=   137.5121
   Eigenvalues:   101.1984   109.5836   152.7706
      2  C    Isotropic =   161.3835   Anisotropy =    27.0786
   XX=   155.9298   YX=     7.8672   ZX=     0.0236
   XY=    -0.2506   YY=   171.9717   ZY=    10.2234
   XZ=    -2.5088   YZ=    15.3440   ZZ=   156.2490
   Eigenvalues:   147.9800   156.7346   179.4359
      3  H    Isotropic =    30.1309   Anisotropy =     8.5701
   XX=    35.3546   YX=    -1.1916   ZX=     1.8420
   XY=    -0.7786   YY=    27.8602   ZY=     0.9526
   XZ=     1.9684   YZ=     1.2233   ZZ=    27.1779
   Eigenvalues:    25.9020    28.6464    35.8443
      4  H    Isotropic =    29.0701   Anisotropy =     5.9078
   XX=    28.7059   YX=     1.2986   ZX=    -2.5481
   XY=     1.7480   YY=    30.3311   ZY=    -2.1136
   XZ=    -1.7554   YZ=    -2.0332   ZZ=    28.1733
   Eigenvalues:    26.1633    28.0383    33.0086
      5  C    Isotropic =   163.1212   Anisotropy =    24.8345
   XX=   177.0883   YX=    -5.2836   ZX=     8.4452
   XY=    -1.9260   YY=   157.8058   ZY=    -2.7134
   XZ=     5.3312   YZ=     0.3525   ZZ=   154.4696
   Eigenvalues:   152.5314   157.1547   179.6776
      6  H    Isotropic =    29.5040   Anisotropy =     8.4120
   XX=    28.3022   YX=    -2.4617   ZX=     2.1048
   XY=    -1.9704   YY=    26.2018   ZY=    -1.2182
   XZ=     1.6698   YZ=    -1.9156   ZZ=    34.0080
   Eigenvalues:    24.7872    28.6127    35.1120
      7  C    Isotropic =   153.6214   Anisotropy =    15.8751
   XX=   151.1368   YX=    -6.3924   ZX=     6.1228
   XY=    -0.9679   YY=   159.0537   ZY=    -4.3767
   XZ=     6.2207   YZ=    -5.3658   ZZ=   150.6735
   Eigenvalues:   144.6496   152.0097   164.2048
      8  H    Isotropic =    28.8688   Anisotropy =     5.4683
   XX=    29.0431   YX=    -1.9870   ZX=    -1.6297
   XY=    -0.0225   YY=    27.1680   ZY=     1.6323
   XZ=    -2.2875   YZ=     1.7617   ZZ=    30.3955
   Eigenvalues:    26.4256    27.6666    32.5144
      9  C    Isotropic =   156.0075   Anisotropy =    18.2442
   XX=   156.0493   YX=    -0.9782   ZX=     1.1276
   XY=     1.0263   YY=   160.8217   ZY=    13.8220
   XZ=     2.7277   YZ=     8.3343   ZZ=   151.1515
   Eigenvalues:   143.6914   156.1608   168.1704
     10  H    Isotropic =    27.9756   Anisotropy =     8.1284
   XX=    31.0537   YX=    -0.6975   ZX=    -2.9305
   XY=    -1.7157   YY=    25.8501   ZY=    -4.9360
   XZ=    -4.1606   YZ=    -3.9847   ZZ=    27.0231
   Eigenvalues:    20.8676    29.6647    33.3946
     11  C    Isotropic =   118.5161   Anisotropy =    38.2957
   XX=   105.9320   YX=    -3.9337   ZX=     0.9355
   XY=    -4.7516   YY=   125.1907   ZY=   -16.3732
   XZ=    -2.5763   YZ=   -21.7577   ZZ=   124.4257
   Eigenvalues:   102.1332   109.3686   144.0466
     12  H    Isotropic =    27.3796   Anisotropy =     4.6762
   XX=    25.9299   YX=     1.1005   ZX=     1.1021
   XY=     0.0599   YY=    30.3895   ZY=     0.7329
   XZ=    -0.5466   YZ=    -1.5975   ZZ=    25.8193
   Eigenvalues:    25.4898    26.1519    30.4971
     13  C    Isotropic =    88.8418   Anisotropy =   114.4944
   XX=    48.8285   YX=     4.3812   ZX=     0.5183
   XY=     1.0578   YY=   151.3005   ZY=    37.0127
   XZ=    -0.3587   YZ=    36.8435   ZZ=    66.3964
   Eigenvalues:    48.5790    52.7750   165.1714
     14  C    Isotropic =    49.4149   Anisotropy =   190.3659
   XX=   -31.4586   YX=    10.4505   ZX=    -4.0024
   XY=     9.8573   YY=   155.9367   ZY=    56.0183
   XZ=    -3.4089   YZ=    54.4978   ZZ=    23.7666
   Eigenvalues:   -33.0981     5.0173   176.3255
     15  C    Isotropic =    43.8860   Anisotropy =   124.5653
   XX=    32.6355   YX=     9.5144   ZX=   -24.0243
   XY=     6.2360   YY=   113.0690   ZY=    42.3860
   XZ=   -13.9695   YZ=    45.8928   ZZ=   -14.0466
   Eigenvalues:   -34.1535    38.8819   126.9295
     16  C    Isotropic =    40.3148   Anisotropy =   132.5380
   XX=     8.8978   YX=    -8.4094   ZX=    25.7344
   XY=   -11.5397   YY=   110.2682   ZY=    47.9025
   XZ=    25.6019   YZ=    48.7511   ZZ=     1.7782
   Eigenvalues:   -34.2155    26.4864   128.6734
     17  C    Isotropic =    88.5375   Anisotropy =   106.5557
   XX=    77.7971   YX=     9.6623   ZX=   -27.1862
   XY=     3.8821   YY=   143.5570   ZY=    45.8458
   XZ=   -27.4190   YZ=    39.7076   ZZ=    44.2583
   Eigenvalues:    15.7629    90.2749   159.5746
     18  C    Isotropic =    93.6795   Anisotropy =    94.7504
   XX=    75.2862   YX=   -12.2735   ZX=    32.8329
   XY=   -15.9830   YY=   145.9789   ZY=    29.1907
   XZ=    31.0949   YZ=    35.2458   ZZ=    59.7734
   Eigenvalues:    24.9699    99.2222   156.8464
     19  H    Isotropic =    24.8350   Anisotropy =     7.7784
   XX=    29.3503   YX=     1.1296   ZX=    -1.6271
   XY=     1.4053   YY=    21.4135   ZY=    -1.5918
   XZ=    -1.4120   YZ=    -1.0530   ZZ=    23.7413
   Eigenvalues:    20.7787    23.7058    30.0206
     20  H    Isotropic =    25.1844   Anisotropy =     7.0822
   XX=    28.4414   YX=    -0.4291   ZX=     2.3632
   XY=    -0.2170   YY=    21.2593   ZY=    -0.9692
   XZ=     2.3099   YZ=    -1.3416   ZZ=    25.8524
   Eigenvalues:    20.9771    24.6702    29.9059
     21  O    Isotropic =   209.3817   Anisotropy =    70.4344
   XX=   172.5733   YX=    11.1614   ZX=   -30.7610
   XY=    12.1048   YY=   249.4159   ZY=    17.7672
   XZ=   -24.7118   YZ=    19.4361   ZZ=   206.1559
   Eigenvalues:   153.0251   218.7821   256.3379
     22  H    Isotropic =    20.8853   Anisotropy =    29.6657
   XX=    38.7876   YX=    -7.1926   ZX=     3.1942
   XY=    -6.8908   YY=     9.6187   ZY=    -2.3662
   XZ=     1.0814   YZ=    -2.5703   ZZ=    14.2496
   Eigenvalues:     7.4434    14.5501    40.6625
     23  O    Isotropic =   226.7553   Anisotropy =    50.8561
   XX=   193.1490   YX=    -4.8196   ZX=    16.1347
   XY=   -13.8253   YY=   247.6132   ZY=   -17.8336
   XZ=    32.1423   YZ=     0.2286   ZZ=   239.5038
   Eigenvalues:   182.4459   237.1607   260.6594
     24  H    Isotropic =    26.5138   Anisotropy =    15.1973
   XX=    29.9314   YX=     1.2719   ZX=    -4.4856
   XY=     2.0756   YY=    18.9995   ZY=    -4.3666
   XZ=    -6.1966   YZ=    -4.0637   ZZ=    30.6107
   Eigenvalues:    17.6303    25.2659    36.6454
     25  O    Isotropic =   288.9454   Anisotropy =    47.9153
   XX=   310.3465   YX=    -2.7228   ZX=   -22.5615
   XY=   -18.5943   YY=   280.5259   ZY=     0.0539
   XZ=   -11.7935   YZ=     9.9840   ZZ=   275.9637
   Eigenvalues:   268.8172   277.1300   320.8889
     26  H    Isotropic =    27.0604   Anisotropy =    18.2133
   XX=    30.2657   YX=    -9.5998   ZX=    -5.3539
   XY=    -8.4389   YY=    20.3845   ZY=     0.9666
   XZ=    -6.6511   YZ=     0.3460   ZZ=    30.5309
   Eigenvalues:    14.6114    27.3671    39.2026
     27  C    Isotropic =   170.4182   Anisotropy =    39.7682
   XX=   162.9167   YX=    -3.0371   ZX=     3.9983
   XY=    -3.1269   YY=   178.1630   ZY=   -23.1399
   XZ=     1.0092   YZ=   -20.7346   ZZ=   170.1750
   Eigenvalues:   151.8708   162.4535   196.9303
     28  H    Isotropic =    30.6133   Anisotropy =    10.2287
   XX=    33.1784   YX=    -3.3612   ZX=     2.0796
   XY=    -4.6869   YY=    30.4473   ZY=    -2.4452
   XZ=     3.1490   YZ=    -2.4462   ZZ=    28.2142
   Eigenvalues:    26.6420    27.7655    37.4324
     29  H    Isotropic =    30.3344   Anisotropy =     8.7780
   XX=    28.3975   YX=     1.6753   ZX=     0.9042
   XY=     0.9908   YY=    35.9400   ZY=     0.3075
   XZ=     0.4840   YZ=    -1.3759   ZZ=    26.6657
   Eigenvalues:    26.3237    28.4931    36.1864
     30  H    Isotropic =    29.7994   Anisotropy =     7.5582
   XX=    27.4468   YX=    -1.9093   ZX=    -2.4659
   XY=    -1.8789   YY=    28.7516   ZY=    -3.4071
   XZ=    -2.6784   YZ=    -1.9921   ZZ=    33.1999
   Eigenvalues:    24.5328    30.0272    34.8383
     31  O    Isotropic =   247.4959   Anisotropy =    62.0349
   XX=   255.1214   YX=   -10.8026   ZX=   -24.1970
   XY=   -22.8013   YY=   229.6770   ZY=    23.9379
   XZ=   -16.6505   YZ=    17.5216   ZZ=   257.6893
   Eigenvalues:   217.5352   236.0999   288.8525
     32  H    Isotropic =    29.8177   Anisotropy =    16.9561
   XX=    39.4196   YX=    -5.0788   ZX=    -0.3181
   XY=    -5.3178   YY=    23.8304   ZY=     1.2614
   XZ=    -1.7555   YZ=     1.4024   ZZ=    26.2031
   Eigenvalues:    22.0234    26.3080    41.1218
     33  H    Isotropic =    29.6611   Anisotropy =     9.1344
   XX=    30.1039   YX=     2.3036   ZX=     2.0266
   XY=     2.3540   YY=    31.2758   ZY=     4.2014
   XZ=     2.7816   YZ=     3.8226   ZZ=    27.6036
   Eigenvalues:    24.8827    28.3500    35.7507
     34  C    Isotropic =    41.5135   Anisotropy =   182.2259
   XX=    52.8900   YX=    88.9543   ZX=    55.7497
   XY=    89.6812   YY=    -4.9129   ZY=    25.7864
   XZ=    57.4605   YZ=    30.3373   ZZ=    76.5635
   Eigenvalues:   -70.7762    32.3194   162.9975
     35  C    Isotropic =    82.6792   Anisotropy =   122.3982
   XX=    92.0011   YX=    75.7630   ZX=    15.8128
   XY=    76.2337   YY=    36.7036   ZY=    19.1495
   XZ=    19.8625   YZ=    31.2564   ZZ=   119.3328
   Eigenvalues:   -17.3436   101.1032   164.2780
     36  H    Isotropic =    26.1666   Anisotropy =     5.7449
   XX=    25.8724   YX=     3.3115   ZX=    -2.5576
   XY=     1.4523   YY=    26.3956   ZY=    -1.0603
   XZ=    -1.3760   YZ=    -1.6840   ZZ=    26.2319
   Eigenvalues:    23.5483    24.9550    29.9966
     37  H    Isotropic =    25.6772   Anisotropy =     6.2524
   XX=    24.0431   YX=    -0.1645   ZX=    -0.0650
   XY=     3.6397   YY=    26.8452   ZY=    -3.4415
   XZ=    -2.8311   YZ=    -1.4478   ZZ=    26.1433
   Eigenvalues:    23.1598    24.0264    29.8455
     38  C    Isotropic =   165.7887   Anisotropy =    43.7201
   XX=   168.0482   YX=   -24.0045   ZX=   -12.4512
   XY=   -19.4583   YY=   173.0323   ZY=     2.4274
   XZ=   -14.0556   YZ=    -0.2412   ZZ=   156.2857
   Eigenvalues:   141.9477   160.4830   194.9355
     39  H    Isotropic =    30.6925   Anisotropy =     7.3701
   XX=    33.3001   YX=     1.5541   ZX=    -1.1084
   XY=     2.6380   YY=    33.4704   ZY=     2.1181
   XZ=     0.0788   YZ=     1.8796   ZZ=    25.3069
   Eigenvalues:    24.7275    31.7441    35.6059
     40  H    Isotropic =    30.1910   Anisotropy =     8.3468
   XX=    28.0189   YX=    -3.2545   ZX=     0.2707
   XY=    -0.9140   YY=    34.8213   ZY=    -2.6679
   XZ=    -0.4774   YZ=    -0.8459   ZZ=    27.7328
   Eigenvalues:    26.8440    27.9734    35.7555
     41  H    Isotropic =    29.9741   Anisotropy =     8.6019
   XX=    26.9837   YX=    -0.8108   ZX=    -0.7957
   XY=    -0.3276   YY=    30.6366   ZY=     4.5978
   XZ=     0.4561   YZ=     3.6592   ZZ=    32.3020
   Eigenvalues:    26.7418    27.4718    35.7088
     42  C    Isotropic =   164.2984   Anisotropy =    29.0908
   XX=   183.2055   YX=    -6.5427   ZX=     0.3598
   XY=    10.3093   YY=   152.7650   ZY=    -0.7926
   XZ=     6.1479   YZ=    -2.6069   ZZ=   156.9246
   Eigenvalues:   151.8873   157.3156   183.6922
     43  H    Isotropic =    29.2699   Anisotropy =     7.2174
   XX=    30.7536   YX=    -0.6028   ZX=    -2.6091
   XY=    -2.1671   YY=    26.0565   ZY=     2.7839
   XZ=    -1.6532   YZ=     2.5948   ZZ=    30.9998
   Eigenvalues:    24.8420    28.8863    34.0815
     44  H    Isotropic =    29.2183   Anisotropy =     7.0760
   XX=    29.9558   YX=    -1.3870   ZX=     2.1004
   XY=    -1.6038   YY=    31.0134   ZY=    -3.8568
   XZ=     0.4424   YZ=    -3.2261   ZZ=    26.6859
   Eigenvalues:    24.6701    29.0493    33.9356
     45  C    Isotropic =   177.9935   Anisotropy =    27.8272
   XX=   180.9557   YX=     6.6035   ZX=     3.8821
   XY=    14.5139   YY=   184.6028   ZY=     7.9011
   XZ=     6.7279   YZ=     7.3698   ZZ=   168.4221
   Eigenvalues:   165.2759   172.1597   196.5450
     46  H    Isotropic =    30.3369   Anisotropy =    11.9283
   XX=    37.1853   YX=     1.5076   ZX=     1.7917
   XY=     3.7225   YY=    27.3322   ZY=     0.9945
   XZ=     2.5602   YZ=     0.6514   ZZ=    26.4931
   Eigenvalues:    25.9434    26.7782    38.2891
     47  H    Isotropic =    30.5848   Anisotropy =     7.6307
   XX=    28.7271   YX=     1.5522   ZX=     1.1343
   XY=     2.7071   YY=    33.8530   ZY=    -3.9207
   XZ=     1.4803   YZ=    -2.2805   ZZ=    29.1741
   Eigenvalues:    25.9175    30.1648    35.6719
     48  H    Isotropic =    30.5992   Anisotropy =     7.3234
   XX=    29.1763   YX=     1.3917   ZX=    -0.6234
   XY=     2.0477   YY=    28.8176   ZY=     4.0801
   XZ=    -0.5009   YZ=     2.5772   ZZ=    33.8038
   Eigenvalues:    26.1063    30.2099    35.4815
 End of Minotr Frequency-dependent properties file   721 does not exist.
 End of Minotr Frequency-dependent properties file   722 does not exist.

 **********************************************************************

            Population analysis using the SCF density.

 **********************************************************************

 Orbital symmetries:
       Occupied  (A) (A) (A) (A) (A) (A) (A) (A) (A) (A) (A) (A)
                 (A) (A) (A) (A) (A) (A) (A) (A) (A) (A) (A) (A)
                 (A) (A) (A) (A) (A) (A) (A) (A) (A) (A) (A) (A)
                 (A) (A) (A) (A) (A) (A) (A) (A) (A) (A) (A) (A)
                 (A) (A) (A) (A) (A) (A) (A) (A) (A) (A) (A) (A)
                 (A) (A) (A) (A) (A) (A) (A) (A) (A) (A) (A) (A)
                 (A) (A) (A) (A) (A) (A) (A) (A) (A) (A) (A)
       Virtual   (A) (A) (A) (A) (A) (A) (A) (A) (A) (A) (A) (A)
                 (A) (A) (A) (A) (A) (A) (A) (A) (A) (A) (A) (A)
                 (A) (A) (A) (A) (A) (A) (A) (A) (A) (A) (A) (A)
                 (A) (A) (A) (A) (A) (A) (A) (A) (A) (A) (A) (A)
                 (A) (A) (A) (A) (A) (A) (A) (A) (A) (A) (A) (A)
                 (A) (A) (A) (A) (A) (A) (A) (A) (A) (A) (A) (A)
                 (A) (A) (A) (A) (A) (A) (A) (A) (A) (A) (A) (A)
                 (A) (A) (A) (A) (A) (A) (A) (A) (A) (A) (A) (A)
                 (A) (A) (A) (A) (A) (A) (A) (A) (A) (A) (A) (A)
                 (A) (A) (A) (A) (A) (A) (A) (A) (A) (A) (A) (A)
                 (A) (A) (A) (A) (A) (A) (A) (A) (A) (A) (A) (A)
                 (A) (A) (A) (A) (A) (A) (A) (A) (A) (A) (A) (A)
                 (A) (A) (A) (A) (A) (A) (A) (A) (A) (A) (A) (A)
                 (A) (A) (A) (A) (A) (A) (A) (A) (A) (A) (A) (A)
                 (A) (A) (A) (A) (A) (A) (A) (A) (A) (A) (A) (A)
                 (A) (A) (A) (A) (A) (A) (A) (A) (A) (A) (A) (A)
                 (A) (A) (A) (A) (A) (A) (A) (A) (A) (A) (A) (A)
                 (A) (A) (A) (A) (A) (A) (A) (A) (A) (A) (A) (A)
                 (A) (A) (A) (A) (A) (A) (A) (A) (A) (A) (A) (A)
                 (A) (A) (A) (A) (A) (A) (A) (A) (A) (A) (A) (A)
                 (A) (A) (A) (A) (A) (A) (A) (A) (A) (A) (A) (A)
                 (A) (A) (A) (A) (A) (A) (A) (A) (A) (A) (A) (A)
                 (A) (A) (A) (A) (A) (A) (A) (A) (A) (A) (A) (A)
                 (A) (A) (A) (A) (A) (A) (A) (A) (A) (A) (A) (A)
                 (A) (A) (A) (A) (A) (A) (A) (A) (A) (A) (A) (A)
                 (A) (A) (A) (A) (A) (A) (A) (A) (A) (A) (A) (A)
                 (A) (A) (A) (A) (A) (A) (A) (A) (A) (A) (A) (A)
                 (A) (A) (A) (A) (A) (A) (A) (A) (A) (A) (A) (A)
                 (A) (A) (A) (A) (A) (A) (A) (A) (A) (A) (A) (A)
                 (A) (A) (A) (A) (A) (A) (A) (A) (A) (A) (A) (A)
                 (A) (A) (A) (A) (A) (A) (A) (A) (A) (A) (A) (A)
                 (A) (A) (A) (A) (A) (A) (A) (A) (A) (A) (A) (A)
                 (A) (A) (A) (A) (A) (A) (A) (A) (A) (A) (A) (A)
                 (A) (A) (A) (A) (A) (A) (A) (A) (A) (A) (A) (A)
                 (A) (A) (A) (A) (A) (A) (A) (A) (A) (A) (A) (A)
                 (A) (A) (A) (A) (A) (A) (A) (A) (A) (A) (A) (A)
                 (A) (A) (A) (A) (A) (A) (A) (A) (A) (A) (A) (A)
                 (A) (A) (A) (A) (A) (A) (A) (A) (A) (A) (A) (A)
                 (A) (A) (A) (A) (A) (A) (A)
 The electronic state is 1-A.
 Alpha  occ. eigenvalues --  -19.28396 -19.26604 -19.26337 -19.25500 -10.32210
 Alpha  occ. eigenvalues --  -10.32031 -10.31587 -10.31507 -10.27571 -10.26437
 Alpha  occ. eigenvalues --  -10.26360 -10.26299 -10.26140 -10.24867 -10.24848
 Alpha  occ. eigenvalues --  -10.24588 -10.24508 -10.24368 -10.23900 -10.23676
 Alpha  occ. eigenvalues --  -10.23670 -10.23152  -1.09864  -1.09190  -1.07447
 Alpha  occ. eigenvalues --   -1.05373  -0.88710  -0.86854  -0.82198  -0.82071
 Alpha  occ. eigenvalues --   -0.78488  -0.77137  -0.75792  -0.73947  -0.71177
 Alpha  occ. eigenvalues --   -0.70094  -0.67296  -0.64632  -0.63922  -0.63628
 Alpha  occ. eigenvalues --   -0.61252  -0.59558  -0.56248  -0.54322  -0.53341
 Alpha  occ. eigenvalues --   -0.52298  -0.51277  -0.50743  -0.50471  -0.48515
 Alpha  occ. eigenvalues --   -0.47988  -0.46378  -0.45489  -0.44978  -0.44891
 Alpha  occ. eigenvalues --   -0.44266  -0.43584  -0.43185  -0.42288  -0.42023
 Alpha  occ. eigenvalues --   -0.41721  -0.40790  -0.40618  -0.40265  -0.39898
 Alpha  occ. eigenvalues --   -0.39084  -0.38807  -0.38112  -0.37698  -0.37226
 Alpha  occ. eigenvalues --   -0.36428  -0.35663  -0.34838  -0.34801  -0.33822
 Alpha  occ. eigenvalues --   -0.32722  -0.32099  -0.31943  -0.30937  -0.29505
 Alpha  occ. eigenvalues --   -0.25902  -0.23902  -0.22731
 Alpha virt. eigenvalues --   -0.00461  -0.00114   0.00191   0.01085   0.01194
 Alpha virt. eigenvalues --    0.01777   0.02085   0.02822   0.02904   0.03106
 Alpha virt. eigenvalues --    0.04043   0.04255   0.04328   0.04671   0.05270
 Alpha virt. eigenvalues --    0.05975   0.06131   0.06827   0.07017   0.07476
 Alpha virt. eigenvalues --    0.07555   0.07999   0.08670   0.09131   0.09438
 Alpha virt. eigenvalues --    0.09887   0.10133   0.10258   0.10267   0.10741
 Alpha virt. eigenvalues --    0.11101   0.12006   0.12296   0.12571   0.12649
 Alpha virt. eigenvalues --    0.13008   0.13540   0.13950   0.14267   0.14496
 Alpha virt. eigenvalues --    0.14696   0.14981   0.15260   0.15791   0.15980
 Alpha virt. eigenvalues --    0.16221   0.16514   0.17508   0.17564   0.17774
 Alpha virt. eigenvalues --    0.18310   0.18387   0.18775   0.19054   0.19280
 Alpha virt. eigenvalues --    0.19505   0.19716   0.20283   0.20524   0.20715
 Alpha virt. eigenvalues --    0.21125   0.21448   0.21909   0.21997   0.22522
 Alpha virt. eigenvalues --    0.22841   0.23171   0.23240   0.23337   0.23453
 Alpha virt. eigenvalues --    0.23954   0.24271   0.24552   0.24656   0.24739
 Alpha virt. eigenvalues --    0.25107   0.25538   0.25674   0.26261   0.26646
 Alpha virt. eigenvalues --    0.26880   0.27384   0.27662   0.27908   0.28173
 Alpha virt. eigenvalues --    0.28591   0.28861   0.28924   0.29435   0.29685
 Alpha virt. eigenvalues --    0.29925   0.30380   0.30821   0.31266   0.31492
 Alpha virt. eigenvalues --    0.31646   0.31936   0.32580   0.33074   0.33159
 Alpha virt. eigenvalues --    0.33904   0.34143   0.34480   0.34827   0.35660
 Alpha virt. eigenvalues --    0.35834   0.36130   0.36380   0.37100   0.37354
 Alpha virt. eigenvalues --    0.37746   0.37834   0.38719   0.38839   0.39697
 Alpha virt. eigenvalues --    0.40236   0.41386   0.41464   0.41995   0.42637
 Alpha virt. eigenvalues --    0.43095   0.43371   0.43450   0.44033   0.45022
 Alpha virt. eigenvalues --    0.45925   0.46775   0.47147   0.47725   0.48652
 Alpha virt. eigenvalues --    0.48731   0.49638   0.51257   0.52406   0.53248
 Alpha virt. eigenvalues --    0.53751   0.55149   0.60313   0.63744   0.65662
 Alpha virt. eigenvalues --    0.67446   0.68662   0.69440   0.69638   0.70782
 Alpha virt. eigenvalues --    0.71621   0.72341   0.72703   0.73183   0.74132
 Alpha virt. eigenvalues --    0.74982   0.75176   0.75557   0.75858   0.75920
 Alpha virt. eigenvalues --    0.77273   0.77288   0.78503   0.79007   0.79581
 Alpha virt. eigenvalues --    0.80686   0.81206   0.81964   0.82518   0.82945
 Alpha virt. eigenvalues --    0.84391   0.85126   0.86541   0.86909   0.88092
 Alpha virt. eigenvalues --    0.88414   0.88772   0.89257   0.90405   0.91175
 Alpha virt. eigenvalues --    0.91454   0.92542   0.93098   0.93577   0.94737
 Alpha virt. eigenvalues --    0.95215   0.96181   0.97202   0.97735   0.98953
 Alpha virt. eigenvalues --    0.99294   1.00812   1.01651   1.01731   1.02883
 Alpha virt. eigenvalues --    1.04753   1.05337   1.06615   1.06759   1.07663
 Alpha virt. eigenvalues --    1.09938   1.10240   1.10716   1.12147   1.12374
 Alpha virt. eigenvalues --    1.12806   1.13177   1.14197   1.14536   1.15036
 Alpha virt. eigenvalues --    1.15456   1.16267   1.16583   1.17885   1.18274
 Alpha virt. eigenvalues --    1.19375   1.19615   1.20175   1.20799   1.21866
 Alpha virt. eigenvalues --    1.23659   1.24195   1.24610   1.25854   1.26433
 Alpha virt. eigenvalues --    1.28385   1.28528   1.29597   1.30237   1.30936
 Alpha virt. eigenvalues --    1.31882   1.32255   1.33123   1.34369   1.35391
 Alpha virt. eigenvalues --    1.35647   1.36575   1.36738   1.37850   1.38388
 Alpha virt. eigenvalues --    1.39708   1.40980   1.41482   1.43091   1.43533
 Alpha virt. eigenvalues --    1.44381   1.45203   1.46193   1.47475   1.47859
 Alpha virt. eigenvalues --    1.49965   1.50516   1.51826   1.52930   1.53393
 Alpha virt. eigenvalues --    1.54970   1.57053   1.59158   1.59740   1.60571
 Alpha virt. eigenvalues --    1.61754   1.63083   1.63858   1.64633   1.66136
 Alpha virt. eigenvalues --    1.67689   1.69507   1.70412   1.72777   1.73451
 Alpha virt. eigenvalues --    1.75356   1.76624   1.77663   1.78280   1.79465
 Alpha virt. eigenvalues --    1.80726   1.81745   1.82828   1.84658   1.85148
 Alpha virt. eigenvalues --    1.85307   1.86136   1.86573   1.87547   1.88692
 Alpha virt. eigenvalues --    1.89299   1.89905   1.90778   1.91859   1.92671
 Alpha virt. eigenvalues --    1.92756   1.93108   1.93677   1.95149   1.95529
 Alpha virt. eigenvalues --    1.95751   1.97425   1.97928   1.98453   1.99986
 Alpha virt. eigenvalues --    2.00396   2.01791   2.03789   2.03835   2.05879
 Alpha virt. eigenvalues --    2.06257   2.07034   2.07321   2.08721   2.09062
 Alpha virt. eigenvalues --    2.09623   2.10575   2.11152   2.12162   2.13474
 Alpha virt. eigenvalues --    2.13911   2.14181   2.15127   2.15644   2.16131
 Alpha virt. eigenvalues --    2.16549   2.18748   2.19160   2.19749   2.20653
 Alpha virt. eigenvalues --    2.21284   2.22854   2.23651   2.25669   2.26004
 Alpha virt. eigenvalues --    2.27103   2.28076   2.28675   2.30154   2.30803
 Alpha virt. eigenvalues --    2.31347   2.32382   2.33159   2.34122   2.34954
 Alpha virt. eigenvalues --    2.35002   2.36732   2.38571   2.39020   2.40336
 Alpha virt. eigenvalues --    2.40912   2.41231   2.41683   2.44949   2.45973
 Alpha virt. eigenvalues --    2.46821   2.47936   2.49080   2.50854   2.52251
 Alpha virt. eigenvalues --    2.52823   2.53545   2.54876   2.55124   2.56023
 Alpha virt. eigenvalues --    2.56611   2.57695   2.58580   2.59293   2.59665
 Alpha virt. eigenvalues --    2.60196   2.60696   2.61333   2.63990   2.64951
 Alpha virt. eigenvalues --    2.65373   2.66136   2.67610   2.68060   2.68393
 Alpha virt. eigenvalues --    2.68837   2.69980   2.71183   2.72253   2.72636
 Alpha virt. eigenvalues --    2.73779   2.74934   2.75497   2.76674   2.78271
 Alpha virt. eigenvalues --    2.78461   2.79374   2.80396   2.81590   2.82778
 Alpha virt. eigenvalues --    2.83738   2.84134   2.84904   2.85502   2.86904
 Alpha virt. eigenvalues --    2.88615   2.89029   2.89605   2.91271   2.91781
 Alpha virt. eigenvalues --    2.92483   2.93318   2.93529   2.95438   2.95992
 Alpha virt. eigenvalues --    2.96467   2.98604   3.00620   3.03120   3.04946
 Alpha virt. eigenvalues --    3.08085   3.09128   3.09544   3.10072   3.14574
 Alpha virt. eigenvalues --    3.18437   3.21469   3.25778   3.29018   3.29369
 Alpha virt. eigenvalues --    3.30791   3.31324   3.36150   3.37756   3.39363
 Alpha virt. eigenvalues --    3.41670   3.42963   3.45489   3.47799   3.49635
 Alpha virt. eigenvalues --    3.50666   3.51364   3.51432   3.51870   3.52387
 Alpha virt. eigenvalues --    3.54217   3.55191   3.56754   3.57256   3.58726
 Alpha virt. eigenvalues --    3.59112   3.59918   3.62087   3.68013   3.74348
 Alpha virt. eigenvalues --    3.91958   4.36969   4.37507   4.42407   4.46083
 Alpha virt. eigenvalues --    4.48549   4.51142   4.52416   4.54920   4.57419
 Alpha virt. eigenvalues --    4.61268   4.63306   4.65914   4.67692   4.71460
 Alpha virt. eigenvalues --    4.74577   4.76370   4.78206   4.83907   4.93825
 Alpha virt. eigenvalues --    4.96945   5.00330   5.08486
          Condensed to atoms (all electrons):
              1          2          3          4          5          6
     1  C   11.201117  -1.472634  -0.063007   0.014541  -0.423121   0.050887
     2  C   -1.472634   7.082371   0.409460   0.384976   0.081491  -0.079570
     3  H   -0.063007   0.409460   0.537575  -0.032010  -0.063492  -0.006149
     4  H    0.014541   0.384976  -0.032010   0.530250  -0.067551   0.004911
     5  C   -0.423121   0.081491  -0.063492  -0.067551   7.079856   0.382968
     6  H    0.050887  -0.079570  -0.006149   0.004911   0.382968   0.540449
     7  C    2.172630  -0.844004   0.074857   0.068479  -1.871484   0.041349
     8  H   -0.042512   0.040718  -0.000137  -0.000114  -0.003455  -0.009142
     9  C   -1.545100   0.743868  -0.044424  -0.017971   0.355759  -0.014704
    10  H    0.082830  -0.022120  -0.000054   0.000127  -0.065861   0.002318
    11  C   -1.487706  -0.078350   0.042413  -0.050239   0.643680  -0.056635
    12  H    0.005747   0.004342  -0.000090  -0.000082  -0.015834  -0.000029
    13  C    0.015031  -0.127082  -0.001415  -0.003239  -0.053010  -0.016000
    14  C   -0.076967  -0.002731   0.000005  -0.000127   0.024771  -0.000009
    15  C    0.127987  -0.133447  -0.001385   0.004524  -0.474156   0.035938
    16  C   -0.822633   0.161523   0.000408  -0.003108   0.389419  -0.013874
    17  C   -0.103152  -0.030077   0.000183  -0.000305  -0.008652  -0.000762
    18  C   -0.020551   0.017570  -0.000209   0.000373  -0.107302   0.005511
    19  H   -0.000104  -0.000023   0.000000   0.000000  -0.000022   0.000000
    20  H   -0.000037  -0.000005   0.000000   0.000000  -0.000045   0.000000
    21  O    0.054594  -0.005079  -0.000011   0.000056  -0.001625   0.000018
    22  H   -0.012899   0.001430   0.000002  -0.000014   0.000460  -0.000002
    23  O   -0.010210   0.004797   0.000000  -0.000007  -0.000263  -0.000327
    24  H    0.000648   0.000030   0.000000   0.000000   0.000332   0.000000
    25  O    0.200122   0.002781  -0.000397   0.001458  -0.151578   0.000022
    26  H   -0.024957  -0.019703  -0.000018   0.000535   0.012970  -0.000004
    27  C   -0.803917  -0.028524  -0.019593   0.013044   0.129824  -0.005884
    28  H   -0.054222  -0.009184   0.002707   0.000053   0.018838   0.000083
    29  H   -0.112882   0.030463   0.000092  -0.000141  -0.000905  -0.000045
    30  H   -0.123452   0.027716   0.000243   0.000004  -0.029889  -0.000194
    31  O    0.228180  -0.116781  -0.007452  -0.007241   0.023279  -0.000527
    32  H    0.055169  -0.056475   0.003265  -0.000972   0.006919  -0.000002
    33  H    0.035158  -0.024408  -0.001286  -0.005028   0.451029  -0.027160
    34  C   -0.712926   0.339172  -0.007558   0.012235   0.194082  -0.010451
    35  C   -0.334425   0.032476   0.003771  -0.034116   0.056107  -0.004836
    36  H   -0.000834  -0.000256  -0.000001   0.000072   0.000901   0.000003
    37  H   -0.008214  -0.014136   0.000136   0.001848  -0.007714  -0.000041
    38  C    0.139385  -0.061310  -0.000462   0.006668  -0.099052   0.007260
    39  H    0.003181  -0.000780   0.000000   0.000001  -0.002365   0.000011
    40  H    0.001063  -0.000688   0.000000   0.000000  -0.002387   0.000002
    41  H   -0.002420   0.001553   0.000000  -0.000001   0.005879  -0.000037
    42  C   -0.013439  -0.000424   0.000000  -0.000004   0.008809  -0.000005
    43  H    0.000003  -0.000001   0.000000   0.000000   0.000020   0.000000
    44  H   -0.000001  -0.000001   0.000000   0.000000   0.000002   0.000000
    45  C    0.000276  -0.000027   0.000000   0.000000  -0.000085   0.000000
    46  H    0.000000   0.000000   0.000000   0.000000   0.000000   0.000000
    47  H   -0.000010   0.000000   0.000000   0.000000   0.000000   0.000000
    48  H    0.000004  -0.000001   0.000000   0.000000   0.000004   0.000000
              7          8          9         10         11         12
     1  C    2.172630  -0.042512  -1.545100   0.082830  -1.487706   0.005747
     2  C   -0.844004   0.040718   0.743868  -0.022120  -0.078350   0.004342
     3  H    0.074857  -0.000137  -0.044424  -0.000054   0.042413  -0.000090
     4  H    0.068479  -0.000114  -0.017971   0.000127  -0.050239  -0.000082
     5  C   -1.871484  -0.003455   0.355759  -0.065861   0.643680  -0.015834
     6  H    0.041349  -0.009142  -0.014704   0.002318  -0.056635  -0.000029
     7  C   15.977630  -0.003432  -2.164319   0.160418  -2.541189   0.040795
     8  H   -0.003432   0.572801   0.106101  -0.008815   0.061964  -0.000144
     9  C   -2.164319   0.106101  13.249391   0.228217  -1.813189  -0.065918
    10  H    0.160418  -0.008815   0.228217   0.560062  -0.283012  -0.003495
    11  C   -2.541189   0.061964  -1.813189  -0.283012  14.766230   0.201927
    12  H    0.040795  -0.000144  -0.065918  -0.003495   0.201927   0.585317
    13  C    0.344452   0.051697   2.414239  -0.209243  -1.432291  -0.039557
    14  C   -0.194255  -0.008850  -0.562115   0.008389  -0.104948   0.014249
    15  C    1.386582  -0.044336  -1.685167   0.448267  -2.133938  -0.026174
    16  C   -2.675806  -0.020916  -0.897416  -0.215147   2.138996   0.193705
    17  C    0.064091  -0.019425  -1.653817   0.011620  -0.427633   0.029565
    18  C   -0.139687   0.019177  -1.120074   0.103439   0.006259  -0.003733
    19  H   -0.000802   0.000000   0.004638   0.000002  -0.003441   0.000001
    20  H   -0.001073   0.000003   0.001267  -0.000008   0.000504   0.000000
    21  O    0.072565   0.000297   0.143029  -0.000398   0.035349  -0.001487
    22  H   -0.047136   0.000002  -0.018385  -0.000059   0.052861  -0.000117
    23  O   -0.121552   0.003220  -0.011700  -0.000433  -0.002511  -0.001196
    24  H   -0.001941  -0.000035   0.042169   0.000091   0.001009  -0.000003
    25  O    0.287461  -0.001790  -0.101993   0.010413  -0.293856  -0.039414
    26  H   -0.025372   0.000011   0.024970  -0.000294   0.041483  -0.005591
    27  C   -0.601889   0.011394   0.524075  -0.008158  -0.353190  -0.012358
    28  H   -0.010040   0.000001  -0.003611   0.000007   0.009177  -0.000078
    29  H   -0.005082   0.000000   0.013665  -0.000132   0.003018   0.003941
    30  H    0.021543  -0.000060   0.035697  -0.000710  -0.019776  -0.000013
    31  O    0.019601   0.000160  -0.070663  -0.000530   0.090740   0.000022
    32  H   -0.005642   0.000000   0.005578  -0.000006   0.030573  -0.000258
    33  H   -0.162099  -0.000834   0.034152  -0.000052  -0.012059   0.000013
    34  C   -3.023164   0.119774  -0.318156   0.007492  -0.355594  -0.024896
    35  C   -1.309116   0.004791  -0.190852   0.011173  -0.620554  -0.003872
    36  H    0.027253  -0.000145  -0.017141   0.000003  -0.006272   0.000000
    37  H   -0.011008  -0.000051  -0.000747  -0.000019  -0.014077  -0.000001
    38  C    0.978765   0.004979   0.187707   0.003357   0.239625   0.000112
    39  H    0.145861  -0.001657   0.051645  -0.000087   0.013524   0.000002
    40  H    0.009710   0.000378   0.005868   0.000003  -0.000139   0.000000
    41  H   -0.086421   0.002903  -0.010302   0.000010  -0.002825   0.000000
    42  C   -0.003682  -0.001217  -0.107831  -0.000305  -0.048907   0.000930
    43  H    0.000228   0.000000   0.001555   0.000000   0.000135   0.000000
    44  H   -0.000080   0.000000  -0.000511   0.000000  -0.000213   0.000000
    45  C   -0.001925   0.000004   0.000152   0.000011  -0.001228  -0.000008
    46  H    0.000003   0.000000   0.000034   0.000000   0.000009   0.000000
    47  H   -0.000043   0.000000  -0.000368   0.000000  -0.000193   0.000000
    48  H    0.000022   0.000000   0.000372   0.000000   0.000198   0.000000
             13         14         15         16         17         18
     1  C    0.015031  -0.076967   0.127987  -0.822633  -0.103152  -0.020551
     2  C   -0.127082  -0.002731  -0.133447   0.161523  -0.030077   0.017570
     3  H   -0.001415   0.000005  -0.001385   0.000408   0.000183  -0.000209
     4  H   -0.003239  -0.000127   0.004524  -0.003108  -0.000305   0.000373
     5  C   -0.053010   0.024771  -0.474156   0.389419  -0.008652  -0.107302
     6  H   -0.016000  -0.000009   0.035938  -0.013874  -0.000762   0.005511
     7  C    0.344452  -0.194255   1.386582  -2.675806   0.064091  -0.139687
     8  H    0.051697  -0.008850  -0.044336  -0.020916  -0.019425   0.019177
     9  C    2.414239  -0.562115  -1.685167  -0.897416  -1.653817  -1.120074
    10  H   -0.209243   0.008389   0.448267  -0.215147   0.011620   0.103439
    11  C   -1.432291  -0.104948  -2.133938   2.138996  -0.427633   0.006259
    12  H   -0.039557   0.014249  -0.026174   0.193705   0.029565  -0.003733
    13  C   23.716493  -2.247211  -0.147751  -7.869668  -5.320616  -2.701744
    14  C   -2.247211  10.277149  -1.244729   0.620714   1.046307   0.523685
    15  C   -0.147751  -1.244729  17.458941  -9.692466   2.514187  -1.351136
    16  C   -7.869668   0.620714  -9.692466  27.129391  -2.529732   1.092460
    17  C   -5.320616   1.046307   2.514187  -2.529732  15.536534  -3.677229
    18  C   -2.701744   0.523685  -1.351136   1.092460  -3.677229  13.441720
    19  H    0.055237   0.057368  -0.032405   0.047750   0.161427   0.056996
    20  H    0.046842   0.093468   0.050830  -0.063877   0.069980   0.145477
    21  O    0.144249   0.036941  -0.009801  -0.119884  -0.305825   0.063517
    22  H   -0.172207  -0.002850  -0.014527   0.157318   0.069390  -0.009568
    23  O   -0.192110   0.033696   0.246395  -0.019616   0.025279   0.045923
    24  H    0.166256  -0.002193  -0.008256   0.010733  -0.015605  -0.190011
    25  O    0.047471   0.007385   0.033886  -0.011505   0.061067  -0.017486
    26  H   -0.005413  -0.000586  -0.006905  -0.006961  -0.002830  -0.000472
    27  C    0.146566   0.007264   0.059410   0.072234  -0.017610   0.034365
    28  H   -0.000145  -0.000010  -0.001962  -0.000319   0.000056  -0.000275
    29  H    0.005431   0.000107  -0.011360   0.008197   0.000258  -0.001203
    30  H    0.003334   0.000171   0.016431   0.002102  -0.000850   0.005002
    31  O    0.008506  -0.000353   0.005744  -0.009473  -0.002982   0.001474
    32  H    0.000918   0.000001   0.000252  -0.000352  -0.000014  -0.000003
    33  H    0.014890   0.000367  -0.008156   0.007295   0.000711  -0.001239
    34  C   -0.177624   0.009797  -0.383162   1.062831   0.218823  -0.179891
    35  C   -0.035183   0.031744   0.063798  -0.011124   0.116118  -0.014594
    36  H    0.006132   0.000381   0.001718  -0.000211   0.000900   0.000020
    37  H   -0.018884   0.000422  -0.002356   0.027238   0.002304   0.000304
    38  C    0.112718  -0.029288   0.159412  -0.441083  -0.131117   0.087589
    39  H   -0.006860  -0.000678   0.017791  -0.048922  -0.006477   0.004657
    40  H   -0.001172  -0.000713  -0.003701   0.016658  -0.015129   0.005664
    41  H    0.014871   0.000619   0.008377  -0.000059   0.005120  -0.004035
    42  C   -1.500348  -2.034607   0.600409  -0.775534   0.919139   0.069078
    43  H   -0.002240  -0.262257   0.043256  -0.011353  -0.145537   0.203171
    44  H   -0.002493  -0.299069  -0.011171   0.004008   0.254018  -0.144254
    45  C    0.027084   0.023795   0.007983   0.025509   0.017261  -0.012698
    46  H    0.000466   0.009644   0.003256  -0.001190   0.009357   0.005467
    47  H   -0.007434  -0.052911   0.002309  -0.010686   0.044258  -0.043389
    48  H   -0.002584  -0.027137  -0.001742   0.002879  -0.051913   0.040608
             19         20         21         22         23         24
     1  C   -0.000104  -0.000037   0.054594  -0.012899  -0.010210   0.000648
     2  C   -0.000023  -0.000005  -0.005079   0.001430   0.004797   0.000030
     3  H    0.000000   0.000000  -0.000011   0.000002   0.000000   0.000000
     4  H    0.000000   0.000000   0.000056  -0.000014  -0.000007   0.000000
     5  C   -0.000022  -0.000045  -0.001625   0.000460  -0.000263   0.000332
     6  H    0.000000   0.000000   0.000018  -0.000002  -0.000327   0.000000
     7  C   -0.000802  -0.001073   0.072565  -0.047136  -0.121552  -0.001941
     8  H    0.000000   0.000003   0.000297   0.000002   0.003220  -0.000035
     9  C    0.004638   0.001267   0.143029  -0.018385  -0.011700   0.042169
    10  H    0.000002  -0.000008  -0.000398  -0.000059  -0.000433   0.000091
    11  C   -0.003441   0.000504   0.035349   0.052861  -0.002511   0.001009
    12  H    0.000001   0.000000  -0.001487  -0.000117  -0.001196  -0.000003
    13  C    0.055237   0.046842   0.144249  -0.172207  -0.192110   0.166256
    14  C    0.057368   0.093468   0.036941  -0.002850   0.033696  -0.002193
    15  C   -0.032405   0.050830  -0.009801  -0.014527   0.246395  -0.008256
    16  C    0.047750  -0.063877  -0.119884   0.157318  -0.019616   0.010733
    17  C    0.161427   0.069980  -0.305825   0.069390   0.025279  -0.015605
    18  C    0.056996   0.145477   0.063517  -0.009568   0.045923  -0.190011
    19  H    0.518783  -0.000144  -0.007707   0.000150   0.000105  -0.000001
    20  H   -0.000144   0.523076   0.000131   0.000000  -0.018505   0.008152
    21  O   -0.007707   0.000131   8.407868   0.168555  -0.000685   0.000054
    22  H    0.000150   0.000000   0.168555   0.302997  -0.000162   0.000000
    23  O    0.000105  -0.018505  -0.000685  -0.000162   8.287680   0.205497
    24  H   -0.000001   0.008152   0.000054   0.000000   0.205497   0.360067
    25  O    0.000027   0.000001   0.004900   0.015881  -0.001043  -0.000001
    26  H    0.000000   0.000000   0.002109   0.000834   0.000001   0.000000
    27  C    0.000022   0.000033  -0.001113   0.001324  -0.000242   0.000162
    28  H    0.000000   0.000000  -0.000002   0.000000   0.000026   0.000000
    29  H    0.000000   0.000000   0.000005  -0.000001  -0.000082   0.000000
    30  H    0.000000   0.000000   0.000004   0.000001  -0.000066   0.000002
    31  O    0.000000   0.000000   0.000549  -0.000127   0.000197   0.000000
    32  H    0.000000   0.000000  -0.000006   0.000000   0.000002   0.000000
    33  H    0.000000   0.000000   0.000000  -0.000004  -0.000042   0.000000
    34  C   -0.001283   0.000087  -0.105457   0.017477   0.050426   0.006473
    35  C   -0.000255  -0.000034  -0.043183   0.016838   0.011812   0.000624
    36  H    0.000000   0.000000   0.000023  -0.000091  -0.000001   0.000000
    37  H    0.000000   0.000000  -0.001228   0.000128   0.000014   0.000000
    38  C    0.001670   0.000041   0.036975  -0.006525  -0.013214  -0.001061
    39  H   -0.000007  -0.000008   0.002351  -0.000040  -0.000380  -0.000015
    40  H    0.000001   0.000000   0.000126  -0.000020  -0.000033   0.000000
    41  H    0.000000   0.000000  -0.000245   0.000002  -0.000017   0.000001
    42  C   -0.029214  -0.027392  -0.018184   0.001453   0.000441  -0.000881
    43  H    0.000087   0.002039   0.000031   0.000000   0.000084   0.000000
    44  H    0.001722   0.000084   0.000064   0.000000   0.000032   0.000000
    45  C    0.004483   0.007342   0.000443  -0.000057  -0.000198   0.000121
    46  H   -0.000027  -0.000028   0.000001   0.000000  -0.000001   0.000000
    47  H    0.000005   0.000192   0.000006   0.000000   0.000010   0.000001
    48  H    0.000160   0.000008   0.000004   0.000000   0.000010   0.000000
             25         26         27         28         29         30
     1  C    0.200122  -0.024957  -0.803917  -0.054222  -0.112882  -0.123452
     2  C    0.002781  -0.019703  -0.028524  -0.009184   0.030463   0.027716
     3  H   -0.000397  -0.000018  -0.019593   0.002707   0.000092   0.000243
     4  H    0.001458   0.000535   0.013044   0.000053  -0.000141   0.000004
     5  C   -0.151578   0.012970   0.129824   0.018838  -0.000905  -0.029889
     6  H    0.000022  -0.000004  -0.005884   0.000083  -0.000045  -0.000194
     7  C    0.287461  -0.025372  -0.601889  -0.010040  -0.005082   0.021543
     8  H   -0.001790   0.000011   0.011394   0.000001   0.000000  -0.000060
     9  C   -0.101993   0.024970   0.524075  -0.003611   0.013665   0.035697
    10  H    0.010413  -0.000294  -0.008158   0.000007  -0.000132  -0.000710
    11  C   -0.293856   0.041483  -0.353190   0.009177   0.003018  -0.019776
[...]
    16  C    0.058418  -0.028778   0.128194  -0.000114   0.007704   0.005602
    17  C    0.064596  -0.006172  -0.019244  -0.000031   0.000186  -0.000252
    18  C   -0.018543   0.000135   0.028784  -0.000043  -0.001855   0.002002
    19  H    0.000009   0.000000   0.000021   0.000000   0.000000   0.000000
    20  H    0.000002   0.000000   0.000028   0.000000   0.000000   0.000000
    21  O   -0.002650   0.003632   0.001251  -0.000001   0.000010  -0.000005
    22  H    0.019352  -0.000016   0.000398   0.000000  -0.000001   0.000001
    23  O   -0.001018  -0.000004   0.000782   0.000013  -0.000091   0.000473
    24  H    0.000000   0.000000   0.000158   0.000000   0.000000   0.000002
    25  O    8.654291   0.196084  -0.031448  -0.000039   0.001665  -0.000073
    26  H    0.196084   0.316774   0.016337  -0.000032  -0.000038  -0.000036
    27  C   -0.031448   0.016337   6.034063   0.426928   0.434741   0.407081
    28  H   -0.000039  -0.000032   0.426928   0.530318  -0.028308  -0.025570
    29  H    0.001665  -0.000038   0.434741  -0.028308   0.543053  -0.026410
    30  H   -0.000073  -0.000036   0.407081  -0.025570  -0.026410   0.523148
    31  O   -0.017220   0.030458  -0.112750  -0.011771   0.005172   0.008201
    32  H    0.000461  -0.000755  -0.021455   0.004113  -0.000577   0.000071
    33  H    0.001693  -0.000009  -0.003960  -0.000013   0.000003   0.000029
    34  C   -0.141445   0.010066   0.151372   0.001355   0.000115   0.003118
    35  C    0.075451  -0.004580  -0.006647   0.000489  -0.000269  -0.000054
    36  H    0.001014  -0.000019  -0.000174   0.000000   0.000000   0.000000
    37  H   -0.001835   0.000030  -0.000530   0.000000   0.000000  -0.000001
    38  C   -0.014044   0.000343  -0.014247  -0.000029  -0.000113  -0.000204
    39  H   -0.000311   0.000000  -0.000551   0.000000   0.000000   0.000000
    40  H   -0.000092   0.000000   0.000044   0.000000   0.000000   0.000000
    41  H    0.000029   0.000000   0.000501   0.000000   0.000000   0.000000
    42  C   -0.002021  -0.000012   0.000660   0.000001  -0.000002  -0.000007
    43  H    0.000000   0.000000   0.000000   0.000000   0.000000   0.000000
    44  H   -0.000001   0.000000   0.000000   0.000000   0.000000   0.000000
    45  C    0.000017   0.000000   0.000057   0.000000   0.000000   0.000000
    46  H    0.000000   0.000000   0.000000   0.000000   0.000000   0.000000
    47  H    0.000000   0.000000   0.000000   0.000000   0.000000   0.000000
    48  H    0.000000   0.000000   0.000000   0.000000   0.000000   0.000000
             31         32         33         34         35         36
     1  C    0.204260   0.008208   0.035720  -0.749885  -0.283216  -0.000730
     2  C   -0.095960  -0.038175  -0.057974   0.393540  -0.092568  -0.000323
     3  H   -0.007998   0.003358  -0.001038  -0.001993   0.002050  -0.000001
     4  H   -0.000495  -0.001277  -0.005634   0.001642  -0.016852   0.000093
     5  C    0.009242   0.007204   0.504714   0.167068   0.108574   0.000645
     6  H    0.000203  -0.000012  -0.031755  -0.014457   0.012244   0.000003
     7  C    0.031358  -0.006897  -0.115945  -3.389191  -1.786086  -0.006737
     8  H    0.000115   0.000000  -0.001180   0.078761  -0.000226  -0.000153
     9  C   -0.072429   0.005536   0.003182  -0.398025  -0.388678  -0.014374
    10  H   -0.000397  -0.000006  -0.000008   0.026115   0.016690   0.000004
    11  C    0.052261   0.043341   0.005512  -0.371710  -1.054542  -0.009979
    12  H    0.000255  -0.000224   0.000014  -0.028647  -0.006729   0.000000
    13  C    0.006647  -0.000039   0.012677  -0.443634   0.204747   0.011258
    14  C   -0.000362  -0.000003   0.000392   0.056071   0.044266   0.000235
    15  C    0.001936   0.000039  -0.008507  -0.538359   0.205819   0.002509
    16  C   -0.005857   0.000204   0.004825   1.570355  -0.217736  -0.006317
    17  C   -0.002390  -0.000030   0.000810   0.225428   0.172708  -0.000638
    18  C    0.000733   0.000012  -0.001422  -0.094942   0.011566   0.000297
    19  H    0.000000   0.000000   0.000000  -0.001334  -0.000287   0.000000
    20  H    0.000000   0.000000   0.000000   0.000218   0.000028   0.000000
    21  O    0.000672  -0.000002   0.000013  -0.099019  -0.048289   0.000088
    22  H   -0.000092   0.000001  -0.000006   0.027795   0.013549  -0.000040
    23  O    0.000199   0.000002  -0.000070   0.029759   0.012640   0.000001
    24  H    0.000000   0.000000   0.000000   0.005677   0.000561   0.000000
    25  O   -0.017220   0.000461   0.001693  -0.141445   0.075451   0.001014
    26  H    0.030458  -0.000755  -0.000009   0.010066  -0.004580  -0.000019
    27  C   -0.112750  -0.021455  -0.003960   0.151372  -0.006647  -0.000174
    28  H   -0.011771   0.004113  -0.000013   0.001355   0.000489   0.000000
    29  H    0.005172  -0.000577   0.000003   0.000115  -0.000269   0.000000
    30  H    0.008201   0.000071   0.000029   0.003118  -0.000054   0.000000
    31  O    8.348587   0.248163  -0.000420   0.004535   0.004315   0.000000
    32  H    0.248163   0.328510  -0.000009   0.001485  -0.000332   0.000000
    33  H   -0.000420  -0.000009   0.564663  -0.040182  -0.016835  -0.000033
    34  C    0.004535   0.001485  -0.040182  11.892300  -0.262364  -0.192419
    35  C    0.004315  -0.000332  -0.016835  -0.262364   9.894820   0.627093
    36  H    0.000000   0.000000  -0.000033  -0.192419   0.627093   0.547389
    37  H   -0.000051   0.000002   0.000154  -0.161742   0.587651  -0.037225
    38  C   -0.000947   0.000010  -0.002294  -1.649882  -1.243702  -0.065681
    39  H   -0.000002   0.000000  -0.000010  -0.332257  -0.070455   0.000238
    40  H    0.000000   0.000000  -0.000028  -0.121133  -0.028898   0.003381
    41  H    0.000001   0.000000   0.000090   0.043119   0.005819   0.000186
    42  C   -0.000022   0.000000   0.000016  -0.040215   0.001698   0.000080
    43  H    0.000000   0.000000   0.000000  -0.000377  -0.000015   0.000000
    44  H    0.000000   0.000000   0.000000  -0.000004  -0.000019   0.000000
    45  C    0.000001   0.000000   0.000000   0.004639   0.000708   0.000000
    46  H    0.000000   0.000000   0.000000  -0.000010  -0.000001   0.000000
    47  H    0.000000   0.000000   0.000000   0.000024   0.000001   0.000000
    48  H    0.000000   0.000000   0.000000  -0.000049  -0.000003   0.000000
             37         38         39         40         41         42
     1  C   -0.003573   0.108994   0.003603   0.001105  -0.002453  -0.016189
     2  C   -0.018091  -0.021854  -0.000420  -0.001101   0.001590  -0.000950
     3  H    0.000140  -0.001311   0.000000   0.000000   0.000000   0.000000
     4  H    0.001145   0.002939   0.000001   0.000000  -0.000001  -0.000005
     5  C   -0.011049  -0.174681   0.000169  -0.007096   0.010593   0.010040
     6  H   -0.000042  -0.004612   0.000011   0.000002  -0.000042   0.000002
     7  C   -0.013433   1.084133   0.148484  -0.005983  -0.105068  -0.012095
     8  H   -0.000052   0.017793  -0.001679   0.000470   0.002771  -0.001003
     9  C   -0.006581   0.277977   0.051826   0.007784  -0.009330  -0.137849
    10  H   -0.000022   0.000703  -0.000090   0.000003   0.000008  -0.000402
    11  C   -0.020661   0.372113   0.017516  -0.001582  -0.001434  -0.072766
    12  H    0.000006   0.000991   0.000002   0.000000   0.000000   0.001042
    13  C   -0.023502  -0.068024  -0.015900  -0.002347   0.013751  -1.777942
    14  C    0.000503  -0.008363  -0.003710   0.000524   0.000955  -1.980888
    15  C   -0.005473   0.116250  -0.010258  -0.004731   0.012300   0.964738
    16  C    0.033536  -0.343584  -0.009148   0.022519  -0.014335  -1.400407
    17  C    0.002996  -0.131071  -0.019355  -0.013978   0.003747   1.271999
    18  C    0.000176   0.087271   0.009655   0.006214  -0.002815  -0.278215
    19  H    0.000000   0.001583   0.000003   0.000001   0.000000  -0.023735
    20  H    0.000000   0.000020  -0.000006   0.000000   0.000000  -0.032413
    21  O   -0.001634   0.041023   0.001247  -0.000300   0.000038  -0.014165
    22  H   -0.000086  -0.008244   0.000006  -0.000009  -0.000002   0.000483
    23  O    0.000018  -0.009417  -0.000219  -0.000009  -0.000139   0.002525
    24  H    0.000000  -0.000961  -0.000017   0.000000   0.000001  -0.001369
    25  O   -0.001835  -0.014044  -0.000311  -0.000092   0.000029  -0.002021
    26  H    0.000030   0.000343   0.000000   0.000000   0.000000  -0.000012
    27  C   -0.000530  -0.014247  -0.000551   0.000044   0.000501   0.000660
    28  H    0.000000  -0.000029   0.000000   0.000000   0.000000   0.000001
    29  H    0.000000  -0.000113   0.000000   0.000000   0.000000  -0.000002
    30  H   -0.000001  -0.000204   0.000000   0.000000   0.000000  -0.000007
    31  O   -0.000051  -0.000947  -0.000002   0.000000   0.000001  -0.000022
    32  H    0.000002   0.000010   0.000000   0.000000   0.000000   0.000000
    33  H    0.000154  -0.002294  -0.000010  -0.000028   0.000090   0.000016
    34  C   -0.161742  -1.649882  -0.332257  -0.121133   0.043119  -0.040215
    35  C    0.587651  -1.243702  -0.070455  -0.028898   0.005819   0.001698
    36  H   -0.037225  -0.065681   0.000238   0.003381   0.000186   0.000080
    37  H    0.547837  -0.011454  -0.000196   0.000226  -0.000193  -0.000018
    38  C   -0.011454   6.886370   0.576062   0.499046   0.390481   0.006048
    39  H   -0.000196   0.576062   0.540044  -0.027009  -0.029683  -0.000987
    40  H    0.000226   0.499046  -0.027009   0.546891  -0.027520   0.000307
    41  H   -0.000193   0.390481  -0.029683  -0.027520   0.540327  -0.000020
    42  C   -0.000018   0.006048  -0.000987   0.000307  -0.000020   8.585800
    43  H    0.000000   0.000171   0.000000   0.000000   0.000000   0.540763
    44  H    0.000000  -0.000025   0.000000   0.000000   0.000000   0.541984
    45  C    0.000001  -0.002788  -0.000282   0.000007   0.000006   0.090790
    46  H    0.000000   0.000002   0.000000   0.000000   0.000000  -0.034253
    47  H    0.000000  -0.000001   0.000000   0.000000   0.000000  -0.021096
    48  H    0.000000   0.000018   0.000000   0.000000   0.000000  -0.056541
             43         44         45         46         47         48
     1  C    0.000000   0.000000   0.000530  -0.000001  -0.000010   0.000002
     2  C   -0.000001  -0.000001  -0.000008   0.000000   0.000000   0.000000
     3  H    0.000000   0.000000   0.000000   0.000000   0.000000   0.000000
     4  H    0.000000   0.000000   0.000000   0.000000   0.000000   0.000000
     5  C    0.000015   0.000004  -0.000110   0.000001  -0.000003   0.000003
     6  H    0.000000   0.000000   0.000000   0.000000   0.000000   0.000000
     7  C    0.000198  -0.000050  -0.001275   0.000004  -0.000061   0.000014
     8  H    0.000000   0.000000   0.000004   0.000000   0.000000   0.000000
     9  C    0.000789  -0.000640  -0.006237   0.000033  -0.000731   0.000378
    10  H    0.000000   0.000000   0.000028   0.000000   0.000000   0.000000
    11  C    0.000042  -0.000154  -0.001919   0.000006  -0.000231   0.000176
    12  H    0.000000   0.000000  -0.000011   0.000000   0.000000   0.000000
    13  C   -0.010485  -0.012049  -0.003264  -0.001078  -0.007797  -0.007498
    14  C   -0.215102  -0.216057   0.152218  -0.046297   0.014342   0.064252
    15  C    0.034028  -0.015288  -0.004323   0.003111  -0.014566   0.002968
    16  C   -0.022164   0.003425   0.024061  -0.001500  -0.011889  -0.009889
    17  C   -0.079822   0.118059  -0.039103   0.011915   0.093153  -0.140985
    18  C    0.096209  -0.077278  -0.038522   0.003994  -0.115133   0.086792
    19  H    0.000105   0.002279   0.002516  -0.000032   0.000006   0.000218
    20  H    0.002373   0.000104   0.003561  -0.000033   0.000229   0.000010
    21  O    0.000024   0.000027   0.000194   0.000000   0.000011  -0.000003
    22  H    0.000000   0.000000  -0.000033   0.000000   0.000000   0.000000
    23  O    0.000070   0.000029  -0.000304  -0.000001   0.000019   0.000011
    24  H   -0.000002   0.000000   0.000124   0.000000   0.000000   0.000000
    25  O    0.000000  -0.000001   0.000017   0.000000   0.000000   0.000000
    26  H    0.000000   0.000000   0.000000   0.000000   0.000000   0.000000
    27  C    0.000000   0.000000   0.000057   0.000000   0.000000   0.000000
    28  H    0.000000   0.000000   0.000000   0.000000   0.000000   0.000000
    29  H    0.000000   0.000000   0.000000   0.000000   0.000000   0.000000
    30  H    0.000000   0.000000   0.000000   0.000000   0.000000   0.000000
    31  O    0.000000   0.000000   0.000001   0.000000   0.000000   0.000000
    32  H    0.000000   0.000000   0.000000   0.000000   0.000000   0.000000
    33  H    0.000000   0.000000   0.000000   0.000000   0.000000   0.000000
    34  C   -0.000377  -0.000004   0.004639  -0.000010   0.000024  -0.000049
    35  C   -0.000015  -0.000019   0.000708  -0.000001   0.000001  -0.000003
    36  H    0.000000   0.000000   0.000000   0.000000   0.000000   0.000000
    37  H    0.000000   0.000000   0.000001   0.000000   0.000000   0.000000
    38  C    0.000171  -0.000025  -0.002788   0.000002  -0.000001   0.000018
    39  H    0.000000   0.000000  -0.000282   0.000000   0.000000   0.000000
    40  H    0.000000   0.000000   0.000007   0.000000   0.000000   0.000000
    41  H    0.000000   0.000000   0.000006   0.000000   0.000000   0.000000
    42  C    0.540763   0.541984   0.090790  -0.034253  -0.021096  -0.056541
    43  H    0.566933  -0.033662  -0.027430  -0.003312  -0.004977   0.004921
    44  H   -0.033662   0.565556  -0.024061  -0.003297   0.004896  -0.005071
    45  C   -0.027430  -0.024061   5.199211   0.422896   0.419581   0.416056
    46  H   -0.003312  -0.003297   0.422896   0.549585  -0.026985  -0.026833
    47  H   -0.004977   0.004896   0.419581  -0.026985   0.541994  -0.028397
    48  H    0.004921  -0.005071   0.416056  -0.026833  -0.028397   0.541665
 Mulliken atomic charges:
              1
     1  C    0.054555
     2  C   -0.277004
     3  H    0.155654
     4  H    0.160220
     5  C   -0.424273
     6  H    0.157479
     7  C    0.009048
     8  H    0.145178
     9  C    0.318205
    10  H    0.165972
    11  C   -0.206273
    12  H    0.146232
    13  C    0.770679
    14  C    0.024514
    15  C    0.524574
    16  C   -0.778399
    17  C   -0.692729
    18  C   -0.167200
    19  H    0.145429
    20  H    0.148045
    21  O   -0.631832
    22  H    0.490323
    23  O   -0.601821
    24  H    0.448118
    25  O   -0.738241
    26  H    0.454573
    27  C   -0.303637
    28  H    0.166475
    29  H    0.160346
    30  H    0.174625
    31  O   -0.628152
    32  H    0.419073
    33  H    0.152827
    34  C    0.378717
    35  C   -0.474102
    36  H    0.140329
    37  H    0.143024
    38  C   -0.692808
    39  H    0.173679
    40  H    0.153288
    41  H    0.166721
    42  C   -0.113387
    43  H    0.150709
    44  H    0.151294
    45  C   -0.587535
    46  H    0.152087
    47  H    0.157618
    48  H    0.157786
 Sum of Mulliken atomic charges =   0.00000
 Mulliken charges with hydrogens summed into heavy atoms:
              1
     1  C    0.054555
     2  C    0.038870
     5  C   -0.113968
     7  C    0.154225
     9  C    0.484177
    11  C   -0.060042
    13  C    0.770679
    14  C    0.024514
    15  C    0.524574
    16  C   -0.778399
    17  C   -0.547300
    18  C   -0.019155
    21  O   -0.141510
    23  O   -0.153703
    25  O   -0.283668
    27  C    0.197809
    31  O   -0.209079
    34  C    0.378717
    35  C   -0.190749
    38  C   -0.199121
    42  C    0.188616
    45  C   -0.120044
 Sum of Mulliken charges with hydrogens summed into heavy atoms =   0.00000
 Electronic spatial extent (au):  <R**2>=           7179.8855
 Charge=              0.0000 electrons
 Dipole moment (field-independent basis, Debye):
    X=              2.5432    Y=             -2.9477    Z=              5.5958  Tot=              6.8169
 Quadrupole moment (field-independent basis, Debye-Ang):
   XX=           -103.9683   YY=           -136.9483   ZZ=           -135.0666
   XY=             -4.9554   XZ=             -6.6271   YZ=             -1.9947
 Traceless Quadrupole moment (field-independent basis, Debye-Ang):
   XX=             21.3594   YY=            -11.6205   ZZ=             -9.7389
   XY=             -4.9554   XZ=             -6.6271   YZ=             -1.9947
 Octapole moment (field-independent basis, Debye-Ang**2):
  XXX=             65.1965  YYY=            -14.9187  ZZZ=             35.3669  XYY=             14.7499
  XXY=            -46.7090  XXZ=             19.2722  XZZ=            -11.4379  YZZ=            -13.9364
  YYZ=              5.4706  XYZ=              5.1756
 Hexadecapole moment (field-independent basis, Debye-Ang**3):
 XXXX=          -5774.0382 YYYY=          -1864.2537 ZZZZ=          -1220.9023 XXXY=           -227.5133
 XXXZ=           -106.2667 YYYX=            -73.4412 YYYZ=            -26.3204 ZZZX=           -146.2050
 ZZZY=            -32.4542 XXYY=          -1412.1751 XXZZ=          -1246.5782 YYZZ=           -525.9329
 XXYZ=            -56.0662 YYXZ=            -19.0723 ZZXY=             37.4199
 N-N= 1.988290638993D+03 E-N=-6.309670510259D+03  KE= 9.932066580546D+02

 Test job not archived.
 1\1\GINC-COMPUTE-8-14\SP\RB3LYP\6-31+G(d,p)\C18H26O4\LPASSAGLIA.IQUIR\
 23-Dec-2022\0\\# B3LYP/6-31+G** geom=allcheck test scrf=(pcm,solvent=w
 ater,smd,dovacuum)\\comment\\0,1\C,0,1.780261164,2.394525202,-1.464558
 661\C,0,0.993147051,3.498193817,-0.741668362\H,0,1.605163802,4.4081483
 99,-0.681518025\H,0,0.134169932,3.796297339,-1.351715679\C,0,0.5344131
 23,3.112904374,0.66561913\H,0,1.421498456,3.098898474,1.313396596\C,0,
 -0.166229164,1.735839003,0.795932285\H,0,-0.040242807,1.483030408,1.86
 1190602\C,0,0.618789433,0.641302513,0.007547704\H,0,1.601467211,0.6164
 11471,0.496769714\C,0,1.002563914,1.052962316,-1.43292768\H,0,1.603779
 679,0.265052132,-1.903802473\C,0,0.08283629,-0.779869681,0.199526845\C
 ,0,-0.83050425,-3.437410199,0.721391893\C,0,0.569819112,-1.543945989,1
 .282836251\C,0,-0.895407153,-1.391331482,-0.598613595\C,0,-1.33752109,
 -2.696244658,-0.347816565\C,0,0.133770799,-2.848917978,1.53945764\H,0,
 -2.094891902,-3.12494419,-1.001250109\H,0,0.537406135,-3.413298423,2.3
 75121332\O,0,-1.523959238,-0.792869018,-1.652361676\H,0,-1.147450567,0
 .102257736,-1.795349854\O,0,1.501179416,-0.989389685,2.125207371\H,0,1
 .706558663,-1.629204981,2.826581008\O,0,-0.153483584,1.217043513,-2.27
 2159793\H,0,0.192626638,1.696898972,-3.057391129\C,0,3.205910597,2.259
 501047,-0.92005686\H,0,3.767233682,3.188926325,-1.071607862\H,0,3.7528
 46026,1.480598653,-1.46347121\H,0,3.236181362,2.021209832,0.14613655\O
 ,0,1.887934087,2.774951111,-2.853484881\H,0,2.362096453,3.625295931,-2
 .889766485\H,0,-0.106732626,3.907253904,1.068256238\C,0,-1.684711582,1
 .787071194,0.601376265\C,0,-2.324403377,2.43384347,-0.387078306\H,0,-3
 .408869679,2.431491046,-0.453183579\H,0,-1.807826129,2.958415458,-1.17
 8879008\C,0,-2.495655552,1.077269315,1.66089405\H,0,-2.231926603,0.018
 363059,1.718262549\H,0,-3.572141683,1.13506141,1.466665122\H,0,-2.3139
 63434,1.532010644,2.640456221\C,0,-1.30205935,-4.845872973,0.968893124
 \H,0,-1.278872907,-5.059196597,2.044544572\H,0,-2.351020309,-4.9437306
 15,0.663616087\C,0,-0.453093976,-5.865141619,0.224703174\H,0,-0.817588
 327,-6.878055849,0.422818854\H,0,0.595042017,-5.81420183,0.538577497\H
 ,0,-0.488139753,-5.697402299,-0.857116886\\Version=EM64L-G09RevC.01\St
 ate=1-A\HF=-1002.5434483\RMSD=5.096e-09\Dipole=2.0881744,0.9000695,1.4
 220764\Quadrupole=-5.3158218,9.3535812,-4.0377594,6.6334797,-1.6657118
 ,-10.8106941\PG=C01 [X(C18H26O4)]\\@


 SEEN ON A WALL AT THE UNIVERSITY OF ILLINOIS AT CHICAGO CIRCLE:

 TO DO IS TO BE  -- SOCRATES
 TO BE IS TO DO  -- SARTRE
 OO BE DO BE DO  -- SINATRA
 Job cpu time:  0 days  1 hours 58 minutes 53.7 seconds.
 File lengths (MBytes):  RWF=    241 Int=      0 D2E=      0 Chk=     19 Scr=      1
 Normal termination of Gaussian 09 at Fri Dec 23 15:35:00 2022.
