 Entering Gaussian System, Link 0=g09
 Input=/home/lpassaglia.iquir/Link1/03_RSRS_THC_009.gjc
 Output=/home/lpassaglia.iquir/Link1/03_RSRS_THC_009.log
 Initial command:
 /share/apps/Gaussian09/EM64T.SSE4.2-enabled/g09/l1.exe /tmp/Gau-28595.inp -scrdir=/tmp/
 Entering Link 1 = /share/apps/Gaussian09/EM64T.SSE4.2-enabled/g09/l1.exe PID=     28602.
  
 Copyright (c) 1988,1990,1992,1993,1995,1998,2003,2009,2011,
            Gaussian, Inc.  All Rights Reserved.
  
 This is part of the Gaussian(R) 09 program.  It is based on
 the Gaussian(R) 03 system (copyright 2003, Gaussian, Inc.),
 the Gaussian(R) 98 system (copyright 1998, Gaussian, Inc.),
 the Gaussian(R) 94 system (copyright 1995, Gaussian, Inc.),
 the Gaussian 92(TM) system (copyright 1992, Gaussian, Inc.),
 the Gaussian 90(TM) system (copyright 1990, Gaussian, Inc.),
 the Gaussian 88(TM) system (copyright 1988, Gaussian, Inc.),
 the Gaussian 86(TM) system (copyright 1986, Carnegie Mellon
 University), and the Gaussian 82(TM) system (copyright 1983,
 Carnegie Mellon University). Gaussian is a federally registered
 trademark of Gaussian, Inc.
  
 This software contains proprietary and confidential information,
 including trade secrets, belonging to Gaussian, Inc.
  
 This software is provided under written license and may be
 used, copied, transmitted, or stored only in accord with that
 written license.
  
 The following legend is applicable only to US Government
 contracts under FAR:
  
                    RESTRICTED RIGHTS LEGEND
  
 Use, reproduction and disclosure by the US Government is
 subject to restrictions as set forth in subparagraphs (a)
 and (c) of the Commercial Computer Software - Restricted
 Rights clause in FAR 52.227-19.
  
 Gaussian, Inc.
 340 Quinnipiac St., Bldg. 40, Wallingford CT 06492
  
  
 ---------------------------------------------------------------
 Warning -- This program may not be used in any manner that
 competes with the business of Gaussian, Inc. or will provide
 assistance to any competitor of Gaussian, Inc.  The licensee
 of this program is prohibited from giving any competitor of
 Gaussian, Inc. access to this program.  By using this program,
 the user acknowledges that Gaussian, Inc. is engaged in the
 business of creating and licensing software in the field of
 computational chemistry and represents and warrants to the
 licensee that it is not a competitor of Gaussian, Inc. and that
 it will not use this program in any manner prohibited above.
 ---------------------------------------------------------------
  

 Cite this work as:
 Gaussian 09, Revision C.01,
 M. J. Frisch, G. W. Trucks, H. B. Schlegel, G. E. Scuseria, 
 M. A. Robb, J. R. Cheeseman, G. Scalmani, V. Barone, B. Mennucci, 
 G. A. Petersson, H. Nakatsuji, M. Caricato, X. Li, H. P. Hratchian, 
 A. F. Izmaylov, J. Bloino, G. Zheng, J. L. Sonnenberg, M. Hada, 
 M. Ehara, K. Toyota, R. Fukuda, J. Hasegawa, M. Ishida, T. Nakajima, 
 Y. Honda, O. Kitao, H. Nakai, T. Vreven, J. A. Montgomery, Jr., 
 J. E. Peralta, F. Ogliaro, M. Bearpark, J. J. Heyd, E. Brothers, 
 K. N. Kudin, V. N. Staroverov, T. Keith, R. Kobayashi, J. Normand, 
 K. Raghavachari, A. Rendell, J. C. Burant, S. S. Iyengar, J. Tomasi, 
 M. Cossi, N. Rega, J. M. Millam, M. Klene, J. E. Knox, J. B. Cross, 
 V. Bakken, C. Adamo, J. Jaramillo, R. Gomperts, R. E. Stratmann, 
 O. Yazyev, A. J. Austin, R. Cammi, C. Pomelli, J. W. Ochterski, 
 R. L. Martin, K. Morokuma, V. G. Zakrzewski, G. A. Voth, 
 P. Salvador, J. J. Dannenberg, S. Dapprich, A. D. Daniels, 
 O. Farkas, J. B. Foresman, J. V. Ortiz, J. Cioslowski, 
 and D. J. Fox, Gaussian, Inc., Wallingford CT, 2010.
 
 ******************************************
 Gaussian 09:  EM64L-G09RevC.01 23-Sep-2011
                23-Dec-2022 
 ******************************************
 %chk=03_RSRS_THC_009_optB_NMR
 %nprocshared=4
 Will use up to    4 processors via shared memory.
 ------------------------------------------------
 # mPW1PW91/6-31+G** scrf=(PCM,solvent=water) nmr
 ------------------------------------------------
 1/38=1/1;
 2/12=2,17=6,18=5,40=1/2;
 3/5=1,6=6,7=111,11=2,16=1,25=1,30=1,70=2201,72=1,74=-7/1,2,8,3;
 4//1;
 5/5=2,38=5,53=1/2;
 8/6=1,10=90,11=11/1;
 10/13=100,45=16/2;
 6/7=2,8=2,9=2,10=2,28=1/1;
 99/9=1/99;
 -------
 comment
 -------
 Charge =  0 Multiplicity = 1
 Symbolic Z-Matrix:
 6                     0.53155   2.05303  -2.01907 
 6                     0.04058   3.26601  -1.22053 
 1                     0.86578   3.97846  -1.09075 
 1                    -0.74729   3.78787  -1.77835 
 6                    -0.51099   2.91355   0.15951 
 1                    -0.6795    3.85343   0.70328 
 6                     0.42923   2.0141    0.99632 
 1                     1.29017   2.67877   1.18444 
 6                     1.04397   0.80338   0.20956 
 1                     1.97063   0.60868   0.77425 
 6                     1.55175   1.24573  -1.18769 
 1                     2.42528   1.89074  -1.02018 
 6                     0.35224  -0.56839   0.21947 
 6                    -0.76619  -3.18512   0.48486 
 6                     1.14995  -1.7304    0.283 
 6                    -1.02717  -0.78324   0.19077 
 6                    -1.58522  -2.06271   0.33146 
 6                     0.61563  -3.00883   0.44034 
 1                    -2.66349  -2.19772   0.30305 
 1                     1.28717  -3.86167   0.50076 
 8                    -1.87216   0.25962  -0.05224 
 1                    -2.7709   -0.01186   0.20541 
 8                     2.51153  -1.66725   0.12998 
 1                     2.66697  -1.03871  -0.60976 
 8                     2.0448    0.11405  -1.92314 
 1                     1.27017  -0.21482  -2.42881 
 6                     1.15915   2.5288   -3.33631 
 1                     0.4357    3.10743  -3.92269 
 1                     1.45408   1.68261  -3.96689 
 1                     2.03999   3.15526  -3.16168 
 8                    -0.56503   1.21578  -2.39718 
 1                    -1.06871   0.977    -1.59246 
 1                    -1.50387   2.47984   0.03622 
 6                    -0.07351   1.66545   2.40433 
 6                    -1.32705   1.87415   2.84451 
 1                    -1.61829   1.61822   3.85948 
 1                    -2.10502   2.29679   2.21961 
 6                     0.95697   1.09097   3.34733 
 1                     1.27118   0.09458   3.02412 
 1                     0.57348   0.99718   4.36921 
 1                     1.83768   1.74014   3.38882 
 6                    -1.35964  -4.56204   0.62576 
 1                    -0.69878  -5.18763   1.23814 
 1                    -2.3089   -4.49943   1.17169 
 6                    -1.58628  -5.22319  -0.72526 
 1                    -2.0173   -6.22033  -0.59092 
 1                    -0.64653  -5.33129  -1.27741 
 1                    -2.27385  -4.63697  -1.34434 
 
                          Input orientation:                          
 ---------------------------------------------------------------------
 Center     Atomic      Atomic             Coordinates (Angstroms)
 Number     Number       Type             X           Y           Z
 ---------------------------------------------------------------------
      1          6           0        0.531550    2.053027   -2.019070
      2          6           0        0.040585    3.266015   -1.220530
      3          1           0        0.865778    3.978460   -1.090753
      4          1           0       -0.747285    3.787875   -1.778348
      5          6           0       -0.510992    2.913546    0.159512
      6          1           0       -0.679496    3.853430    0.703276
      7          6           0        0.429235    2.014103    0.996320
      8          1           0        1.290173    2.678767    1.184439
      9          6           0        1.043969    0.803375    0.209556
     10          1           0        1.970627    0.608681    0.774251
     11          6           0        1.551748    1.245733   -1.187694
     12          1           0        2.425282    1.890738   -1.020184
     13          6           0        0.352241   -0.568386    0.219473
     14          6           0       -0.766186   -3.185119    0.484862
     15          6           0        1.149954   -1.730402    0.282999
     16          6           0       -1.027174   -0.783240    0.190772
     17          6           0       -1.585217   -2.062705    0.331457
     18          6           0        0.615630   -3.008829    0.440342
     19          1           0       -2.663491   -2.197723    0.303054
     20          1           0        1.287174   -3.861671    0.500755
     21          8           0       -1.872164    0.259625   -0.052238
     22          1           0       -2.770896   -0.011863    0.205411
     23          8           0        2.511531   -1.667254    0.129982
     24          1           0        2.666971   -1.038710   -0.609756
     25          8           0        2.044803    0.114054   -1.923144
     26          1           0        1.270172   -0.214820   -2.428814
     27          6           0        1.159146    2.528802   -3.336313
     28          1           0        0.435704    3.107429   -3.922694
     29          1           0        1.454084    1.682610   -3.966892
     30          1           0        2.039985    3.155255   -3.161679
     31          8           0       -0.565030    1.215780   -2.397177
     32          1           0       -1.068708    0.976999   -1.592457
     33          1           0       -1.503870    2.479835    0.036216
     34          6           0       -0.073514    1.665445    2.404333
     35          6           0       -1.327045    1.874147    2.844513
     36          1           0       -1.618290    1.618220    3.859477
     37          1           0       -2.105020    2.296790    2.219606
     38          6           0        0.956971    1.090975    3.347327
     39          1           0        1.271185    0.094576    3.024116
     40          1           0        0.573484    0.997182    4.369208
     41          1           0        1.837681    1.740141    3.388821
     42          6           0       -1.359638   -4.562043    0.625755
     43          1           0       -0.698776   -5.187633    1.238141
     44          1           0       -2.308905   -4.499432    1.171687
     45          6           0       -1.586282   -5.223195   -0.725256
     46          1           0       -2.017300   -6.220330   -0.590920
     47          1           0       -0.646535   -5.331292   -1.277408
     48          1           0       -2.273850   -4.636967   -1.344336
 ---------------------------------------------------------------------
                    Distance matrix (angstroms):
                    1          2          3          4          5
     1  C    0.000000
     2  C    1.532988   0.000000
     3  H    2.163509   1.097891   0.000000
     4  H    2.168655   1.097377   1.763826   0.000000
     5  C    2.563905   1.527412   2.143059   2.139062   0.000000
     6  H    3.481271   2.136493   2.371085   2.483415   1.098842
     7  C    3.017376   2.575414   2.899162   3.497034   1.547020
     8  H    3.351049   2.773122   2.654395   3.762906   2.085615
     9  C    2.605951   3.019358   3.435654   4.008440   2.621685
    10  H    3.458283   3.842608   4.006787   4.900008   3.442200
    11  C    1.543928   2.523139   2.819175   3.478061   2.975141
    12  H    2.147168   2.760128   2.606841   3.773476   3.325587
    13  C    3.451816   4.107720   4.759645   4.917036   3.587843
    14  C    5.949115   6.721336   7.514169   7.331106   6.112666
    15  C    4.471720   5.334368   5.878695   6.188703   4.933583
    16  C    3.918856   4.419089   5.281985   4.985063   3.732781
    17  C    5.190851   5.783351   6.672761   6.275563   5.093781
    18  C    5.628336   6.516352   7.157447   7.278414   6.035120
    19  H    5.802537   6.283771   7.248702   6.620534   5.547877
    20  H    6.473341   7.437790   8.011126   8.237044   7.018078
    21  O    3.586442   3.749920   4.733347   4.085750   2.990138
    22  H    4.485336   4.547770   5.552307   4.740074   3.696930
    23  O    4.730670   5.680370   6.006062   6.634760   5.488192
    24  H    4.013107   5.079528   5.352350   6.026497   5.129479
    25  O    2.461453   3.800712   4.125120   4.616674   4.325124
    26  H    2.420037   3.884333   4.420129   4.529327   4.433808
    27  C    1.534721   2.504236   2.688887   2.765321   3.893351
    28  H    2.178241   2.735499   2.993919   2.541789   4.195025
    29  H    2.186844   3.470973   3.726822   3.750719   4.733280
    30  H    2.189940   2.788894   2.518961   3.175325   4.194785
    31  O    1.430537   2.440231   3.374368   2.651761   3.069526
    32  H    1.975010   2.570691   3.605928   2.835294   2.670330
    33  H    2.923918   2.140754   3.021782   2.361361   1.090465
    34  C    4.481385   3.964149   4.295106   4.738511   2.605449
    35  C    5.209685   4.509133   4.972215   5.036796   2.992578
    36  H    6.274407   5.592277   6.020474   6.103369   4.073539
    37  H    4.997729   4.168639   4.755221   4.477768   2.676808
    38  C    5.468523   5.141584   5.295512   6.037409   3.954598
    39  H    5.460432   5.439616   5.672835   6.385792   4.396442
    40  H    6.475079   6.056133   6.227730   6.879304   4.750797
    41  H    5.572177   5.177255   5.101103   6.129836   4.161920
    42  C    7.370947   8.163816   8.991055   8.710673   7.538039
    43  H    8.034319   8.834923   9.585866   9.468964   8.174827
    44  H    7.822010   8.458426   9.331233   8.934250   7.694754
    45  C    7.687820   8.657867   9.529776   9.111108   8.255036
    46  H    8.774092   9.727386  10.610244  10.158104   9.287616
    47  H    7.514394   8.624909   9.433632   9.133471   8.370213
    48  H    7.285709   8.235839   9.173176   8.573023   7.898068
                    6          7          8          9         10
     6  H    0.000000
     7  C    2.167552   0.000000
     8  H    2.343277   1.103803   0.000000
     9  C    3.537926   1.569318   2.127935   0.000000
    10  H    4.190057   2.097717   2.217324   1.102489   0.000000
    11  C    3.918456   2.573004   2.783707   1.551074   2.104881
    12  H    4.057354   2.840020   2.601889   2.145378   2.251750
    13  C    4.566289   2.697901   3.514950   1.536331   2.076641
    14  C    7.042470   5.359340   6.253253   4.388683   4.686877
    15  C    5.890899   3.879379   4.502558   2.537056   2.527082
    16  C    4.677846   3.255022   4.282869   2.609087   3.356294
    17  C    5.996602   4.595697   5.610437   3.891259   4.469497
    18  C    6.988354   5.057045   5.775590   3.843129   3.877357
    19  H    6.380664   5.271153   6.339437   4.770807   5.438106
    20  H    7.964395   5.958722   6.576075   4.680449   4.530559
    21  O    3.861178   3.078003   4.169172   2.977924   3.946133
    22  H    4.422930   3.869226   4.968930   3.901003   4.815672
    23  O    6.402286   4.317278   4.635892   2.874731   2.426426
    24  H    6.070908   4.111765   4.351361   2.588182   2.261475
    25  O    5.320039   3.839729   4.099304   2.454637   2.743374
    26  H    5.491980   4.172148   4.629130   2.837056   3.380595
    27  C    4.631795   4.423731   4.525136   3.945067   4.608916
    28  H    4.816616   5.039058   5.195833   4.770131   5.537240
    29  H    5.574503   5.078747   5.249324   4.287653   4.888617
    30  H    4.777123   4.602793   4.435990   4.229494   4.688433
    31  O    4.072236   3.625149   4.290697   3.090957   4.105616
    32  H    3.700774   3.165626   4.021379   2.782230   3.869693
    33  H    1.735317   2.208076   3.027320   3.054840   4.014728
    34  C    2.836914   1.535194   2.091556   2.609402   2.820006
    35  C    2.986934   2.553414   3.202045   3.702872   4.094146
    36  H    3.979837   3.542139   4.091424   4.590590   4.839226
    37  H    2.598943   2.828213   3.569988   4.023272   4.642161
    38  C    4.159349   2.580292   2.703737   3.152125   2.807281
    39  H    4.829124   2.916406   3.172195   2.911318   2.411517
    40  H    4.813228   3.525806   3.672073   4.190658   3.876423
    41  H    4.244328   2.789774   2.457658   3.408113   2.851991
    42  C    8.443269   6.825181   7.730651   5.893918   6.152164
    43  H    9.056890   7.293551   8.114126   6.323553   6.398294
    44  H    8.523185   7.067836   8.029948   6.347222   6.675715
    45  C    9.232989   7.707439   8.623336   6.641659   6.993633
    46  H   10.244281   8.735603   9.658426   7.703542   8.025126
    47  H    9.395920   7.764145   8.600731   6.534754   6.807505
    48  H    8.878148   7.551296   8.521556   6.558950   7.072540
                   11         12         13         14         15
    11  C    0.000000
    12  H    1.098704   0.000000
    13  C    2.590360   3.446960   0.000000
    14  C    5.272828   6.181824   2.858077   0.000000
    15  C    3.343913   4.054306   1.410909   2.414237   0.000000
    16  C    3.559177   4.531669   1.396342   2.433850   2.376027
    17  C    4.805636   5.791438   2.449342   1.397912   2.755710
    18  C    4.650604   5.423443   2.464533   1.393727   1.394502
    19  H    5.643401   6.660487   3.428756   2.146572   3.842025
    20  H    5.385763   6.057950   3.434960   2.162005   2.146755
    21  O    3.739632   4.697392   2.389017   3.657584   3.633976
    22  H    4.712488   5.667648   3.172365   3.763842   4.281642
    23  O    3.338105   3.740271   2.424470   3.629502   1.371603
    24  H    2.606993   2.967916   2.503358   4.194262   1.891241
    25  O    1.436902   2.028967   2.814480   4.958295   3.011617
    26  H    1.937235   2.784221   2.825072   4.632380   3.108918
    27  C    2.533174   2.715637   4.784066   7.138430   5.589305
    28  H    3.491661   3.723348   5.538603   7.776069   6.450009
    29  H    2.815020   3.109602   4.879210   6.960064   5.459186
    30  H    2.789493   2.516637   5.305297   7.834041   6.043808
    31  O    2.438134   3.360602   3.297194   5.264458   4.336415
    32  H    2.665116   3.656553   2.773157   4.661544   3.971122
    33  H    3.515361   4.111113   3.573567   5.730372   4.982949
    34  C    3.964883   4.245240   3.153551   5.262332   4.186731
    35  C    4.994102   5.386661   3.959394   5.610587   5.068496
    36  H    5.971752   6.343172   4.681224   5.931792   5.627401
    37  H    5.107481   5.584331   4.271755   5.903654   5.528433
    38  C    4.576476   4.676614   3.592026   5.426597   4.169835
    39  H    4.375297   4.573238   3.024896   4.621156   3.295295
    40  H    5.647825   5.768287   4.440748   5.862977   4.946629
    41  H    4.612016   4.450538   4.192922   6.282618   4.707842
    42  C    6.745001   7.659838   4.364046   1.505974   3.799175
    43  H    7.234482   8.059969   4.845592   2.140569   4.035163
    44  H    7.312882   8.249309   4.841646   2.139890   4.518960
    45  C    7.204728   8.172372   5.130071   2.508127   4.550073
    46  H    8.296767   9.257981   6.181904   3.454721   5.563693
    47  H    6.935254   7.852384   5.091511   2.779563   4.316092
    48  H    7.018967   8.049711   5.088733   2.779727   4.776900
                   16         17         18         19         20
    16  C    0.000000
    17  C    1.402938   0.000000
    18  C    2.777470   2.398069   0.000000
    19  H    2.165850   1.087065   3.380736   0.000000
    20  H    3.863811   3.393461   1.087180   4.291336   0.000000
    21  O    1.364048   2.371239   4.136973   2.605953   5.222289
    22  H    1.906778   2.372272   4.528306   2.190675   5.601445
    23  O    3.647960   4.120719   2.343200   5.205018   2.540076
    24  H    3.788511   4.473875   3.031844   5.530856   3.332595
    25  O    3.835468   4.795681   4.169053   5.698097   4.717592
    26  H    3.530315   4.380300   4.057952   5.183504   4.677841
    27  C    5.309420   6.485831   6.724872   7.085026   7.455041
    28  H    5.847899   6.993727   7.515123   7.456984   8.298209
    29  H    5.433528   6.460692   6.491250   7.088290   7.122274
    30  H    6.013164   7.250601   7.280061   7.923475   7.950938
    31  O    3.302595   4.385737   5.224251   4.831852   6.132632
    32  H    2.506007   3.634285   4.780805   4.026805   5.774465
    33  H    3.301331   4.552852   5.897545   4.826539   6.944093
    34  C    3.435896   4.525612   5.116740   5.103668   6.002008
    35  C    3.767489   4.677703   5.779056   4.982492   6.725099
    36  H    4.424458   5.098747   6.171747   5.319963   7.053505
    37  H    3.842461   4.779173   6.222323   4.917897   7.237960
    38  C    4.172932   5.050138   5.037407   5.761153   5.721950
    39  H    3.752447   4.479208   4.091059   5.304761   4.692494
    40  H    4.815739   5.506935   5.611229   6.100741   6.251619
    41  H    4.980197   5.960314   5.721858   6.729731   6.326475
    42  C    3.818259   2.526695   2.519630   2.719224   2.740760
    43  H    4.539108   3.372392   2.666708   3.697844   2.499182
    44  H    4.051557   2.677190   3.362985   2.485582   3.713310
    45  C    4.567812   3.332467   3.333234   3.372133   3.407873
    46  H    5.581517   4.280574   4.278967   4.171105   4.204114
    47  H    4.794290   3.762078   3.152389   4.047867   3.010130
    48  H    4.331508   3.147907   3.766299   2.969111   4.084892
                   21         22         23         24         25
    21  O    0.000000
    22  H    0.973554   0.000000
    23  O    4.791956   5.536248   0.000000
    24  H    4.753972   5.593685   0.983078   0.000000
    25  O    4.343283   5.266645   2.757937   1.854979   0.000000
    26  H    3.968310   4.828101   3.193427   2.436969   0.981791
    27  C    5.012301   5.868903   5.608123   4.736538   2.934697
    28  H    5.330730   6.087160   6.597791   5.757133   3.943057
    29  H    5.330416   6.174934   5.396680   4.488545   2.643146
    30  H    5.775657   6.671770   5.857814   4.949219   3.283733
    31  O    2.849837   3.625798   4.915653   4.327058   2.872235
    32  H    1.879479   2.666012   4.772523   4.357073   3.247765
    33  H    2.252288   2.800454   5.773265   5.494848   4.693515
    34  C    3.353537   3.863223   4.791870   4.889524   5.061733
    35  C    3.360804   3.550577   5.885989   6.030661   6.099003
    36  H    4.148704   4.163876   6.462112   6.737713   7.008528
    37  H    3.060316   3.135323   6.433717   6.473233   6.256815
    38  C    4.500243   4.998488   4.513956   4.808135   5.469517
    39  H    4.401345   4.928980   3.608118   4.054329   5.007419
    40  H    5.106306   5.435094   5.369011   5.772142   6.522145
    41  H    5.272169   5.868781   4.762820   4.939469   5.559140
    42  C    4.896002   4.782518   4.859172   5.491262   6.320838
    43  H    5.719661   5.669991   4.891539   5.653012   6.754911
    44  H    4.933291   4.613611   5.687089   6.317395   7.058116
    45  C    5.531364   5.424705   5.492560   5.967698   6.565511
    46  H    6.503926   6.304531   6.462237   6.985123   7.641984
    47  H    5.853337   5.916754   5.037787   5.463639   6.108360
    48  H    5.080106   4.903096   5.821742   6.156199   6.446548
                   26         27         28         29         30
    26  H    0.000000
    27  C    2.891945   0.000000
    28  H    3.737024   1.096366   0.000000
    29  H    2.449438   1.095746   1.751902   0.000000
    30  H    3.533710   1.094906   1.776274   1.777732   0.000000
    31  O    2.327140   2.361946   2.628119   2.599761   3.336485
    32  H    2.755047   3.226835   3.497427   3.535577   4.107461
    33  H    4.586157   4.297441   4.452952   5.040826   4.820957
    34  C    5.357257   5.934632   6.509216   6.551821   6.137337
    35  C    6.238373   6.694201   7.100941   7.359796   7.003748
    36  H    7.158620   7.766769   8.185281   8.408072   8.064868
    37  H    6.269602   6.448011   6.696287   7.163602   6.846624
    38  C    5.930177   6.839538   7.562474   7.354927   6.913851
    39  H    5.461701   6.811246   7.617971   7.171436   6.944270
    40  H    6.940275   7.878065   8.557322   8.410459   7.970079
    41  H    6.163507   6.805133   7.569232   7.365933   6.704665
    42  C    5.928292   8.504255   9.095738   8.246523   9.244393
    43  H    6.484766   9.160834   9.835106   8.884110   9.821559
    44  H    6.643139   9.041323   9.557716   8.875963   9.812500
    45  C    6.012093   8.628351   9.149389   8.212318   9.449042
    46  H    7.088828   9.704345  10.204167   9.268449  10.534323
    47  H    5.583707   8.323500   8.909590   7.800048   9.098866
    48  H    5.769885   8.191562   8.600307   7.791813   9.090140
                   31         32         33         34         35
    31  O    0.000000
    32  H    0.978919   0.000000
    33  H    2.898388   2.258419   0.000000
    34  C    4.847503   4.175967   2.883943   0.000000
    35  C    5.337549   4.534128   2.878309   1.344862   0.000000
    36  H    6.357439   5.516954   3.920816   2.122735   1.086496
    37  H    4.985462   4.165047   2.272021   2.135353   1.083688
    38  C    5.944022   5.340209   4.352945   1.510349   2.466356
    39  H    5.832598   5.250382   4.724187   2.158699   3.154351
    40  H    6.864980   6.183740   5.028765   2.173917   2.589551
    41  H    6.286951   5.817440   4.790936   2.151154   3.213988
    42  C    6.569076   5.973784   7.067985   6.602959   6.807973
    43  H    7.364585   6.793513   7.802747   6.979659   7.269380
    44  H    6.959995   6.258584   7.116709   6.672489   6.662200
    45  C    6.730428   6.281904   7.741014   7.715968   7.948756
    46  H    7.788926   7.328331   8.737836   8.656518   8.820386
    47  H    6.642640   6.330246   7.967078   7.927036   8.328966
    48  H    6.187340   5.747220   7.290244   7.656004   7.799840
                   36         37         38         39         40
    36  H    0.000000
    37  H    1.840255   0.000000
    38  C    2.678107   3.478726   0.000000
    39  H    3.371703   4.110443   1.093621   0.000000
    40  H    2.334392   3.672077   1.095490   1.763733   0.000000
    41  H    3.490002   4.149917   1.094891   1.778149   1.763898
    42  C    6.979936   7.080928   6.688068   5.861524   6.975342
    43  H    7.350954   7.678370   6.827231   5.913728   7.047990
    44  H    6.717650   6.879559   6.830228   6.111746   6.981767
    45  C    8.235639   8.092680   7.932390   7.106447   8.325337
    46  H    9.022644   8.969285   8.821069   7.985027   9.132771
    47  H    8.696413   8.517271   8.074956   7.184761   8.568681
    48  H    8.163135   7.797895   8.078318   7.351064   8.514430
                   41         42         43         44         45
    41  H    0.000000
    42  C    7.587813   0.000000
    43  H    7.684601   1.096867   0.000000
    44  H    7.812946   1.096845   1.752298   0.000000
    45  C    8.782779   1.521092   2.154962   2.155089   0.000000
    46  H    9.698882   2.159336   2.480007   2.480586   1.094578
    47  H    8.828940   2.173083   2.520189   3.074659   1.095299
    48  H    8.942872   2.173167   3.074618   2.520023   1.095296
                   46         47         48
    46  H    0.000000
    47  H    1.772188   0.000000
    48  H    1.772143   1.770515   0.000000
 Stoichiometry    C18H26O4
 Framework group  C1[X(C18H26O4)]
 Deg. of freedom   138
 Full point group                 C1      NOp   1
 Largest Abelian subgroup         C1      NOp   1
 Largest concise Abelian subgroup C1      NOp   1
                         Standard orientation:                         
 ---------------------------------------------------------------------
 Center     Atomic      Atomic             Coordinates (Angstroms)
 Number     Number       Type             X           Y           Z
 ---------------------------------------------------------------------
      1          6           0        2.426947   -1.559354   -0.415099
      2          6           0        3.385887   -0.443249   -0.844978
      3          1           0        4.217481   -0.378634   -0.131086
      4          1           0        3.822489   -0.680581   -1.823390
      5          6           0        2.727956    0.931815   -0.941482
      6          1           0        3.523640    1.674265   -1.093499
      7          6           0        1.912914    1.323178    0.313832
      8          1           0        2.696340    1.425206    1.084686
      9          6           0        0.978502    0.188861    0.864248
     10          1           0        0.884957    0.463682    1.927829
     11          6           0        1.717612   -1.174293    0.901064
     12          1           0        2.487560   -1.098758    1.681209
     13          6           0       -0.487151    0.094983    0.413293
     14          6           0       -3.281103    0.101630   -0.188695
     15          6           0       -1.467387   -0.265840    1.361770
     16          6           0       -0.959848    0.358056   -0.874000
     17          6           0       -2.329797    0.374383   -1.176005
     18          6           0       -2.834229   -0.239199    1.086694
     19          1           0       -2.666484    0.580838   -2.188788
     20          1           0       -3.538968   -0.511672    1.868398
     21          8           0       -0.077129    0.536254   -1.898539
     22          1           0       -0.554367    0.944374   -2.642507
     23          8           0       -1.117679   -0.727171    2.605221
     24          1           0       -0.366319   -1.343860    2.458270
     25          8           0        0.828325   -2.214937    1.338004
     26          1           0        0.435188   -2.573426    0.512872
     27          6           0        3.209683   -2.868792   -0.247574
     28          1           0        3.718176   -3.137627   -1.180945
     29          1           0        2.542573   -3.705783   -0.012905
     30          1           0        3.961999   -2.791902    0.544214
     31          8           0        1.459106   -1.819085   -1.436010
     32          1           0        1.007755   -0.979914   -1.660412
     33          1           0        2.132818    0.968683   -1.854480
     34          6           0        1.263958    2.713798    0.270793
     35          6           0        1.155290    3.475495   -0.832232
     36          1           0        0.696903    4.459854   -0.794918
     37          1           0        1.507825    3.152484   -1.804735
     38          6           0        0.765360    3.248294    1.592484
     39          1           0       -0.090076    2.669168    1.951441
     40          1           0        0.445071    4.293398    1.519873
     41          1           0        1.559811    3.203166    2.344546
     42          6           0       -4.752431    0.107501   -0.509814
     43          1           0       -5.322566    0.406892    0.378121
     44          1           0       -4.959381    0.867551   -1.273073
     45          6           0       -5.232836   -1.251896   -0.994551
     46          1           0       -6.303469   -1.216642   -1.219502
     47          1           0       -5.070879   -2.024518   -0.235272
     48          1           0       -4.705036   -1.558959   -1.903845
 ---------------------------------------------------------------------
 Rotational constants (GHZ):      0.3929597      0.2224625      0.1906322
 Standard basis: 6-31+G(d,p) (6D, 7F)
 There are   548 symmetry adapted basis functions of A   symmetry.
 Integral buffers will be    131072 words long.
 Raffenetti 2 integral format.
 Two-electron integral symmetry is turned on.
   548 basis functions,   886 primitive gaussians,   548 cartesian basis functions
    83 alpha electrons       83 beta electrons
       nuclear repulsion energy      2016.4569837086 Hartrees.
 NAtoms=   48 NActive=   48 NUniq=   48 SFac= 1.00D+00 NAtFMM=   60 NAOKFM=F Big=F
 ------------------------------------------------------------------------------
 Polarizable Continuum Model (PCM)
 =================================
 Model                : PCM.
 Atomic radii         : UFF (Universal Force Field).
 Polarization charges : Total charges.
 Charge compensation  : None.
 Solution method      : Matrix inversion.
 Cavity type          : Scaled VdW (van der Waals Surface) (Alpha=1.100).
 Cavity algorithm     : GePol (No added spheres)
                        Default sphere list used, NSphG=   48.
                        Lebedev-Laikov grids with approx.  5.0 points / Ang**2.
                        Smoothing algorithm: Karplus/York (Gamma=1.0000).
                        Polarization charges: spherical gaussians, with
                                              point-specific exponents (IZeta= 3).
                        Self-potential: point-specific (ISelfS= 7).
                        Self-field    : sphere-specific E.n sum rule (ISelfD= 2).
 Solvent              : Water, Eps=  78.355300 Eps(inf)=   1.777849
 ------------------------------------------------------------------------------
 One-electron integrals computed using PRISM.
 NBasis=   548 RedAO= T  NBF=   548
 NBsUse=   546 1.00D-06 NBFU=   546
 Harris functional with IExCor=  908 diagonalized for initial guess.
 ExpMin= 4.38D-02 ExpMax= 5.48D+03 ExpMxC= 8.25D+02 IAcc=2 IRadAn=         4 AccDes= 0.00D+00
 HarFok:  IExCor=  908 AccDes= 0.00D+00 IRadAn=         4 IDoV= 1
 ScaDFX=  1.000000  1.000000  1.000000  1.000000
 FoFCou: FMM=F IPFlag=           0 FMFlag=      100000 FMFlg1=           0
         NFxFlg=           0 DoJE=T BraDBF=F KetDBF=T FulRan=T
         Omega=  0.000000  0.000000  1.000000  0.000000  0.000000 ICntrl=     500 IOpCl=  0
         NMat0=    1 NMatS0=    1 NMatT0=    0 NMatD0=    1 NMtDS0=    0 NMtDT0=    0
         I1Cent=           4 NGrid=           0.
 Petite list used in FoFCou.
 Initial guess orbital symmetries:
       Occupied  (A) (A) (A) (A) (A) (A) (A) (A) (A) (A) (A) (A)
                 (A) (A) (A) (A) (A) (A) (A) (A) (A) (A) (A) (A)
                 (A) (A) (A) (A) (A) (A) (A) (A) (A) (A) (A) (A)
                 (A) (A) (A) (A) (A) (A) (A) (A) (A) (A) (A) (A)
                 (A) (A) (A) (A) (A) (A) (A) (A) (A) (A) (A) (A)
                 (A) (A) (A) (A) (A) (A) (A) (A) (A) (A) (A) (A)
                 (A) (A) (A) (A) (A) (A) (A) (A) (A) (A) (A)
       Virtual   (A) (A) (A) (A) (A) (A) (A) (A) (A) (A) (A) (A)
                 (A) (A) (A) (A) (A) (A) (A) (A) (A) (A) (A) (A)
                 (A) (A) (A) (A) (A) (A) (A) (A) (A) (A) (A) (A)
                 (A) (A) (A) (A) (A) (A) (A) (A) (A) (A) (A) (A)
                 (A) (A) (A) (A) (A) (A) (A) (A) (A) (A) (A) (A)
                 (A) (A) (A) (A) (A) (A) (A) (A) (A) (A) (A) (A)
                 (A) (A) (A) (A) (A) (A) (A) (A) (A) (A) (A) (A)
                 (A) (A) (A) (A) (A) (A) (A) (A) (A) (A) (A) (A)
                 (A) (A) (A) (A) (A) (A) (A) (A) (A) (A) (A) (A)
                 (A) (A) (A) (A) (A) (A) (A) (A) (A) (A) (A) (A)
                 (A) (A) (A) (A) (A) (A) (A) (A) (A) (A) (A) (A)
                 (A) (A) (A) (A) (A) (A) (A) (A) (A) (A) (A) (A)
                 (A) (A) (A) (A) (A) (A) (A) (A) (A) (A) (A) (A)
                 (A) (A) (A) (A) (A) (A) (A) (A) (A) (A) (A) (A)
                 (A) (A) (A) (A) (A) (A) (A) (A) (A) (A) (A) (A)
                 (A) (A) (A) (A) (A) (A) (A) (A) (A) (A) (A) (A)
                 (A) (A) (A) (A) (A) (A) (A) (A) (A) (A) (A) (A)
                 (A) (A) (A) (A) (A) (A) (A) (A) (A) (A) (A) (A)
                 (A) (A) (A) (A) (A) (A) (A) (A) (A) (A) (A) (A)
                 (A) (A) (A) (A) (A) (A) (A) (A) (A) (A) (A) (A)
                 (A) (A) (A) (A) (A) (A) (A) (A) (A) (A) (A) (A)
                 (A) (A) (A) (A) (A) (A) (A) (A) (A) (A) (A) (A)
                 (A) (A) (A) (A) (A) (A) (A) (A) (A) (A) (A) (A)
                 (A) (A) (A) (A) (A) (A) (A) (A) (A) (A) (A) (A)
                 (A) (A) (A) (A) (A) (A) (A) (A) (A) (A) (A) (A)
                 (A) (A) (A) (A) (A) (A) (A) (A) (A) (A) (A) (A)
                 (A) (A) (A) (A) (A) (A) (A) (A) (A) (A) (A) (A)
                 (A) (A) (A) (A) (A) (A) (A) (A) (A) (A) (A) (A)
                 (A) (A) (A) (A) (A) (A) (A) (A) (A) (A) (A) (A)
                 (A) (A) (A) (A) (A) (A) (A) (A) (A) (A) (A) (A)
                 (A) (A) (A) (A) (A) (A) (A) (A) (A) (A) (A) (A)
                 (A) (A) (A) (A) (A) (A) (A) (A) (A) (A) (A) (A)
                 (A) (A) (A) (A) (A) (A) (A) (A) (A) (A) (A) (A)
                 (A) (A) (A) (A) (A) (A) (A) (A) (A) (A) (A) (A)
                 (A) (A) (A) (A) (A) (A) (A) (A) (A) (A) (A) (A)
                 (A) (A) (A) (A) (A) (A) (A) (A) (A) (A) (A) (A)
                 (A) (A) (A) (A) (A) (A) (A) (A) (A) (A) (A) (A)
                 (A) (A) (A) (A) (A) (A) (A) (A) (A) (A) (A) (A)
                 (A) (A) (A) (A) (A) (A) (A)
 The electronic state of the initial guess is 1-A.
 Requested convergence on RMS density matrix=1.00D-08 within 128 cycles.
 Requested convergence on MAX density matrix=1.00D-06.
 Requested convergence on             energy=1.00D-06.
 No special actions if energy rises.
 CoulSu:  requested number of processors reduced to:   2 ShMem   1 Linda.
 CoulSu:  requested number of processors reduced to:   2 ShMem   1 Linda.
 Error on total polarization charges =  0.01936
 SCF Done:  E(RmPW1PW91) =  -1002.30667784     A.U. after   14 cycles
             Convg  =    0.5109D-08             -V/T =  2.0094
 Range of M.O.s used for correlation:     1   546
 NBasis=   548 NAE=    83 NBE=    83 NFC=     0 NFV=     0
 NROrb=    546 NOA=    83 NOB=    83 NVA=   463 NVB=   463

 **** Warning!!: The largest alpha MO coefficient is  0.14773665D+03

 NEqPCM:  Using equilibrium solvation (IEInf=0, Eps=  78.3553, EpsInf=   1.7778)
          Differentiating once with respect to magnetic field using GIAOs.
          Electric field/nuclear overlap derivatives assumed to be zero.
 FoFCou: FMM=F IPFlag=           0 FMFlag=    10101102 FMFlg1=           0
         NFxFlg=    40000000 DoJE=F BraDBF=F KetDBF=T FulRan=T
         Omega=  0.000000  0.000000  1.000000  0.000000  0.000000 ICntrl=    6100 IOpCl=  0
         NMat0=    1 NMatS0=    1 NMatT0=    0 NMatD0=    1 NMtDS0=    0 NMtDT0=    0
         I1Cent=           7 NGrid=        2996.
 Symmetry not used in FoFCou.
          There are     3 degrees of freedom in the 1st order CPHF.  IDoFFX=0.
      3 vectors produced by pass  0 Test12= 1.28D-12 3.33D-08 XBig12= 7.09D+02 5.01D+00.
 AX will form     3 AO Fock derivatives at one time.
      3 vectors produced by pass  1 Test12= 1.28D-12 3.33D-08 XBig12= 1.35D+00 3.30D-01.
      3 vectors produced by pass  2 Test12= 1.28D-12 3.33D-08 XBig12= 5.66D-03 3.65D-02.
      3 vectors produced by pass  3 Test12= 1.28D-12 3.33D-08 XBig12= 3.06D-05 1.86D-03.
      3 vectors produced by pass  4 Test12= 1.28D-12 3.33D-08 XBig12= 9.14D-08 4.12D-05.
      3 vectors produced by pass  5 Test12= 1.28D-12 3.33D-08 XBig12= 2.60D-10 2.67D-06.
      3 vectors produced by pass  6 Test12= 1.28D-12 3.33D-08 XBig12= 1.22D-12 2.59D-07.
 Inverted reduced A of dimension    21 with in-core refinement.
 Calculating GIAO nuclear magnetic shielding tensors.
 SCF GIAO Magnetic shielding tensor (ppm):
      1  C    Isotropic =   125.0988   Anisotropy =    45.2939
   XX=   130.5007   YX=     0.1474   ZX=    24.0447
   XY=     4.2528   YY=   109.8700   ZY=     4.7283
   XZ=    20.5399   YZ=    -1.0024   ZZ=   134.9255
   Eigenvalues:   109.5105   110.4911   155.2947
      2  C    Isotropic =   158.0056   Anisotropy =    26.8141
   XX=   156.7212   YX=     9.7352   ZX=    -2.7838
   XY=     9.9536   YY=   168.6457   ZY=    -2.0416
   XZ=    -7.5829   YZ=    -7.6331   ZZ=   148.6500
   Eigenvalues:   146.1164   152.0188   175.8817
      3  H    Isotropic =    29.7742   Anisotropy =     8.6353
   XX=    34.8018   YX=    -0.0634   ZX=     2.8114
   XY=     0.7108   YY=    29.0952   ZY=    -0.5063
   XZ=     2.5841   YZ=    -0.1089   ZZ=    25.4257
   Eigenvalues:    24.6721    29.1195    35.5310
      4  H    Isotropic =    29.5726   Anisotropy =     9.1145
   XX=    29.6718   YX=    -2.1858   ZX=    -5.4806
   XY=    -1.9596   YY=    28.9063   ZY=     0.3899
   XZ=    -5.0136   YZ=     0.6353   ZZ=    30.1397
   Eigenvalues:    24.3464    28.7225    35.6489
      5  C    Isotropic =   171.8299   Anisotropy =    18.0770
   XX=   175.5949   YX=     0.3019   ZX=   -12.6813
   XY=    -4.8705   YY=   171.8617   ZY=     0.4048
   XZ=    -8.0680   YZ=     5.2878   ZZ=   168.0333
   Eigenvalues:   160.6737   170.9348   183.8813
      6  H    Isotropic =    30.1731   Anisotropy =    10.4309
   XX=    32.8759   YX=     3.2505   ZX=    -3.6693
   XY=     3.6345   YY=    31.9760   ZY=    -1.7920
   XZ=    -2.9568   YZ=    -2.0034   ZZ=    25.6676
   Eigenvalues:    24.3322    29.0601    37.1271
      7  C    Isotropic =   149.0051   Anisotropy =    20.5784
   XX=   153.2524   YX=    -6.0677   ZX=    -3.2263
   XY=    -5.9458   YY=   157.4034   ZY=     6.0697
   XZ=     0.4378   YZ=     4.7368   ZZ=   136.3595
   Eigenvalues:   135.0531   149.2382   162.7240
      8  H    Isotropic =    28.9779   Anisotropy =     7.3342
   XX=    29.9383   YX=     1.3708   ZX=     2.8816
   XY=     2.5032   YY=    27.4375   ZY=     3.0637
   XZ=     1.8456   YZ=     2.5581   ZZ=    29.5578
   Eigenvalues:    25.4724    27.5939    33.8674
      9  C    Isotropic =   156.7508   Anisotropy =    27.3057
   XX=   162.6339   YX=     1.4964   ZX=     5.8825
   XY=     1.7019   YY=   173.6737   ZY=   -13.7711
   XZ=     3.6282   YZ=    -0.4323   ZZ=   133.9449
   Eigenvalues:   131.9129   163.3850   174.9546
     10  H    Isotropic =    27.3295   Anisotropy =     5.3865
   XX=    25.8340   YX=     1.1715   ZX=    -2.2886
   XY=     2.6631   YY=    26.0882   ZY=     1.5348
   XZ=    -1.7702   YZ=     0.8514   ZZ=    30.0662
   Eigenvalues:    23.2580    27.8099    30.9205
     11  C    Isotropic =   117.9300   Anisotropy =    36.7796
   XX=   123.3728   YX=    11.8254   ZX=   -19.5896
   XY=     9.6585   YY=   126.7291   ZY=   -11.7616
   XZ=   -11.7144   YZ=    -2.2783   ZZ=   103.6883
   Eigenvalues:    95.0081   116.3323   142.4498
     12  H    Isotropic =    27.5328   Anisotropy =     4.3487
   XX=    27.8042   YX=    -0.3363   ZX=     2.6745
   XY=    -0.9485   YY=    26.4655   ZY=    -1.0641
   XZ=     1.3651   YZ=    -0.8451   ZZ=    28.3287
   Eigenvalues:    25.9316    26.2348    30.4319
     13  C    Isotropic =    89.3958   Anisotropy =   121.7423
   XX=    40.4844   YX=   -12.2629   ZX=   -11.2596
   XY=     1.6812   YY=   163.1207   ZY=    28.0851
   XZ=    -4.8318   YZ=    26.4582   ZZ=    64.5822
   Eigenvalues:    37.9630    59.6670   170.5573
     14  C    Isotropic =    49.8724   Anisotropy =   188.8125
   XX=   -29.7856   YX=    -3.9781   ZX=    -8.7970
   XY=    -4.7822   YY=   164.6497   ZY=    42.3946
   XZ=    -7.2704   YZ=    41.3629   ZZ=    14.7532
   Eigenvalues:   -31.2433     5.1132   175.7475
     15  C    Isotropic =    40.8889   Anisotropy =   129.0205
   XX=    33.1569   YX=     6.9308   ZX=   -20.4346
   XY=     7.2665   YY=   107.1021   ZY=    49.4216
   XZ=   -19.2189   YZ=    57.5547   ZZ=   -17.5922
   Eigenvalues:   -43.1996    38.9638   126.9026
     16  C    Isotropic =    45.0407   Anisotropy =   121.0388
   XX=    13.8424   YX=    -7.9539   ZX=    41.2224
   XY=    -4.5655   YY=   119.5217   ZY=    32.1603
   XZ=    33.0164   YZ=    23.1586   ZZ=     1.7580
   Eigenvalues:   -33.9797    43.3686   125.7333
     17  C    Isotropic =    88.6826   Anisotropy =   101.8947
   XX=    87.4080   YX=     1.4335   ZX=   -22.9674
   XY=    -7.2101   YY=   152.2015   ZY=    17.0591
   XZ=   -25.4712   YZ=    26.6197   ZZ=    26.4383
   Eigenvalues:    15.1406    94.2947   156.6124
     18  C    Isotropic =    86.4963   Anisotropy =   115.0540
   XX=    58.0034   YX=   -14.5486   ZX=    30.7399
   XY=   -36.9884   YY=   146.9045   ZY=    44.5754
   XZ=    28.9861   YZ=    33.2888   ZZ=    54.5811
   Eigenvalues:    10.7439    85.5460   163.1990
     19  H    Isotropic =    25.0776   Anisotropy =     8.2859
   XX=    30.2533   YX=     1.2680   ZX=    -0.9568
   XY=     1.5107   YY=    21.3953   ZY=    -1.4726
   XZ=    -0.6173   YZ=    -1.0054   ZZ=    23.5840
   Eigenvalues:    20.7381    23.8931    30.6015
     20  H    Isotropic =    24.6320   Anisotropy =     7.2322
   XX=    27.7779   YX=    -0.1676   ZX=     2.5040
   XY=     0.0076   YY=    20.6361   ZY=    -0.0155
   XZ=     2.6244   YZ=    -1.0324   ZZ=    25.4818
   Eigenvalues:    20.5738    23.8687    29.4534
     21  O    Isotropic =   221.7292   Anisotropy =    35.0687
   XX=   216.0945   YX=     5.4737   ZX=   -14.5674
   XY=     1.0382   YY=   238.3138   ZY=     0.7510
   XZ=   -42.9188   YZ=    17.9698   ZZ=   210.7792
   Eigenvalues:   183.0619   237.0173   245.1083
     22  H    Isotropic =    26.1300   Anisotropy =    15.5995
   XX=    27.1526   YX=    -1.7027   ZX=     4.0743
   XY=    -2.5336   YY=    20.1576   ZY=    -6.5367
   XZ=     4.8609   YZ=    -5.9757   ZZ=    31.0799
   Eigenvalues:    17.3135    24.5470    36.5297
     23  O    Isotropic =   228.4574   Anisotropy =    85.2681
   XX=   177.1571   YX=    10.1525   ZX=     3.6897
   XY=    -9.5750   YY=   255.8165   ZY=    68.0839
   XZ=    10.5841   YZ=    -6.2735   ZZ=   252.3985
   Eigenvalues:   176.3849   223.6844   285.3028
     24  H    Isotropic =    24.0471   Anisotropy =    21.9257
   XX=    28.2210   YX=    -9.6173   ZX=    -6.3868
   XY=   -13.4902   YY=    23.7442   ZY=    -2.9709
   XZ=    -6.3857   YZ=     0.0071   ZZ=    20.1761
   Eigenvalues:    11.0401    22.4370    38.6642
     25  O    Isotropic =   295.5984   Anisotropy =    31.8650
   XX=   281.8484   YX=     5.2378   ZX=     9.4392
   XY=     4.0007   YY=   313.6888   ZY=     2.9657
   XZ=    -1.8790   YZ=    12.0395   ZZ=   291.2579
   Eigenvalues:   280.3900   289.5634   316.8417
     26  H    Isotropic =    28.6988   Anisotropy =    11.2012
   XX=    26.9507   YX=     5.2293   ZX=     2.6529
   XY=     2.1032   YY=    27.4690   ZY=     3.9043
   XZ=     2.1399   YZ=     4.7696   ZZ=    31.6766
   Eigenvalues:    23.2653    26.6648    36.1663
     27  C    Isotropic =   169.8939   Anisotropy =    42.8350
   XX=   166.3973   YX=   -19.3887   ZX=    11.0227
   XY=   -20.5423   YY=   183.6508   ZY=    -4.9007
   XZ=     7.7241   YZ=    -1.8901   ZZ=   159.6335
   Eigenvalues:   149.3088   161.9223   198.4505
     28  H    Isotropic =    30.5539   Anisotropy =     9.7360
   XX=    30.1072   YX=    -3.4239   ZX=    -3.4760
   XY=    -4.2554   YY=    31.0885   ZY=     3.1375
   XZ=    -3.2450   YZ=     1.8525   ZZ=    30.4661
   Eigenvalues:    26.3541    28.2631    37.0446
     29  H    Isotropic =    30.0998   Anisotropy =     8.6126
   XX=    28.6327   YX=    -1.0424   ZX=    -1.7590
   XY=     0.1005   YY=    35.6849   ZY=    -1.4004
   XZ=    -2.2002   YZ=    -1.0249   ZZ=    25.9820
   Eigenvalues:    24.7721    29.6858    35.8416
     30  H    Isotropic =    30.6998   Anisotropy =    10.6693
   XX=    33.1302   YX=    -2.9839   ZX=     4.4847
   XY=    -3.9334   YY=    28.9487   ZY=    -2.1030
   XZ=     4.1577   YZ=    -1.3120   ZZ=    30.0205
   Eigenvalues:    26.5749    27.7117    37.8127
     31  O    Isotropic =   296.7334   Anisotropy =    60.8423
   XX=   301.8170   YX=   -23.0707   ZX=    26.6733
   XY=   -31.2244   YY=   304.6858   ZY=    -8.3085
   XZ=    20.2336   YZ=     1.7342   ZZ=   283.6973
   Eigenvalues:   262.5443   290.3610   337.2949
     32  H    Isotropic =    27.4285   Anisotropy =    25.5159
   XX=    26.9490   YX=   -11.1405   ZX=     6.4194
   XY=   -12.6987   YY=    33.7848   ZY=    -2.6445
   XZ=     5.4747   YZ=    -3.7838   ZZ=    21.5516
   Eigenvalues:    16.0354    21.8109    44.4391
     33  H    Isotropic =    28.8109   Anisotropy =     6.1121
   XX=    28.7073   YX=    -0.5166   ZX=     2.2720
   XY=    -1.5051   YY=    27.0424   ZY=    -2.0820
   XZ=     1.9940   YZ=    -1.8800   ZZ=    30.6831
   Eigenvalues:    26.1693    27.3778    32.8856
     34  C    Isotropic =    46.9699   Anisotropy =   173.2159
   XX=   118.0037   YX=    74.8507   ZX=    43.9652
   XY=    78.9593   YY=    10.8122   ZY=   -32.4802
   XZ=    45.7108   YZ=   -34.3588   ZZ=    12.0939
   Eigenvalues:   -63.9213    42.3839   162.4472
     35  C    Isotropic =    87.0119   Anisotropy =   120.4108
   XX=   131.5354   YX=    54.1824   ZX=    44.7453
   XY=    63.1965   YY=    50.7616   ZY=   -38.3982
   XZ=    35.1005   YZ=   -33.1129   ZZ=    78.7388
   Eigenvalues:    -9.3946   103.1446   167.2858
     36  H    Isotropic =    26.4186   Anisotropy =     5.8951
   XX=    24.4392   YX=     0.4349   ZX=    -0.3419
   XY=     0.8346   YY=    27.9745   ZY=    -2.1152
   XZ=     1.5219   YZ=    -3.6508   ZZ=    26.8421
   Eigenvalues:    23.5947    25.3125    30.3487
     37  H    Isotropic =    26.4737   Anisotropy =     8.3608
   XX=    23.8830   YX=     0.0414   ZX=     1.4642
   XY=     1.1262   YY=    28.6381   ZY=    -5.9470
   XZ=     0.2614   YZ=    -2.4295   ZZ=    26.9001
   Eigenvalues:    22.6309    24.7427    32.0476
     38  C    Isotropic =   171.8261   Anisotropy =    38.1833
   XX=   159.4424   YX=   -10.4124   ZX=    -6.9014
   XY=    -7.2313   YY=   166.9318   ZY=    12.1050
   XZ=    -4.8901   YZ=    13.8080   ZZ=   189.1040
   Eigenvalues:   153.4074   164.7892   197.2816
     39  H    Isotropic =    29.9759   Anisotropy =     5.6623
   XX=    29.7857   YX=     1.6092   ZX=    -4.3885
   XY=     3.3077   YY=    31.7800   ZY=     2.3827
   XZ=    -3.5854   YZ=     0.9913   ZZ=    28.3619
   Eigenvalues:    23.9598    32.2171    33.7508
     40  H    Isotropic =    29.9048   Anisotropy =     8.9520
   XX=    26.3934   YX=    -2.6282   ZX=    -0.1354
   XY=    -1.4399   YY=    34.9817   ZY=     0.7679
   XZ=    -1.2191   YZ=     2.6307   ZZ=    28.3392
   Eigenvalues:    25.8966    27.9450    35.8728
     41  H    Isotropic =    30.0690   Anisotropy =     8.7527
   XX=    28.2945   YX=     0.0556   ZX=     3.2998
   XY=     1.0500   YY=    29.1138   ZY=     3.5848
   XZ=     3.9959   YZ=     1.9378   ZZ=    32.7986
   Eigenvalues:    25.9444    28.3584    35.9041
     42  C    Isotropic =   164.8030   Anisotropy =    28.2751
   XX=   182.3327   YX=    -5.0792   ZX=     3.8583
   XY=     8.2782   YY=   153.9023   ZY=     1.0809
   XZ=     7.4166   YZ=    -2.2076   ZZ=   158.1741
   Eigenvalues:   153.5920   157.1640   183.6531
     43  H    Isotropic =    29.1436   Anisotropy =     7.6945
   XX=    31.2899   YX=    -1.0034   ZX=    -2.7091
   XY=    -2.7080   YY=    26.1215   ZY=     3.0924
   XZ=    -1.6955   YZ=     2.7447   ZZ=    30.0195
   Eigenvalues:    24.4979    28.6596    34.2733
     44  H    Isotropic =    29.1834   Anisotropy =     7.1901
   XX=    29.9214   YX=    -0.9149   ZX=     2.4912
   XY=    -1.3859   YY=    30.1899   ZY=    -4.3949
   XZ=     0.9411   YZ=    -3.6006   ZZ=    27.4390
   Eigenvalues:    24.4805    29.0929    33.9768
     45  C    Isotropic =   177.4845   Anisotropy =    29.1710
   XX=   178.9100   YX=     6.0225   ZX=     4.7793
   XY=    16.2054   YY=   185.0246   ZY=     8.5189
   XZ=     7.5451   YZ=     6.9396   ZZ=   168.5188
   Eigenvalues:   165.0736   170.4480   196.9318
     46  H    Isotropic =    30.2205   Anisotropy =    12.1602
   XX=    36.5464   YX=     1.8669   ZX=     2.7848
   XY=     3.9593   YY=    27.3465   ZY=     1.3764
   XZ=     3.4372   YZ=     0.7867   ZZ=    26.7687
   Eigenvalues:    25.7940    26.5403    38.3273
     47  H    Isotropic =    30.5164   Anisotropy =     7.4888
   XX=    28.5028   YX=     1.7880   ZX=     0.8913
   XY=     3.1377   YY=    33.2928   ZY=    -3.7510
   XZ=     1.2338   YZ=    -2.4929   ZZ=    29.7535
   Eigenvalues:    25.9177    30.1225    35.5089
     48  H    Isotropic =    30.5686   Anisotropy =     7.1965
   XX=    29.4910   YX=     1.0845   ZX=    -1.3301
   XY=     1.5808   YY=    29.2521   ZY=     4.6366
   XZ=    -1.1058   YZ=     2.9872   ZZ=    32.9629
   Eigenvalues:    25.9697    30.3700    35.3663
 End of Minotr Frequency-dependent properties file   721 does not exist.
 End of Minotr Frequency-dependent properties file   722 does not exist.

 **********************************************************************

            Population analysis using the SCF density.

 **********************************************************************

 Orbital symmetries:
       Occupied  (A) (A) (A) (A) (A) (A) (A) (A) (A) (A) (A) (A)
                 (A) (A) (A) (A) (A) (A) (A) (A) (A) (A) (A) (A)
                 (A) (A) (A) (A) (A) (A) (A) (A) (A) (A) (A) (A)
                 (A) (A) (A) (A) (A) (A) (A) (A) (A) (A) (A) (A)
                 (A) (A) (A) (A) (A) (A) (A) (A) (A) (A) (A) (A)
                 (A) (A) (A) (A) (A) (A) (A) (A) (A) (A) (A) (A)
                 (A) (A) (A) (A) (A) (A) (A) (A) (A) (A) (A)
       Virtual   (A) (A) (A) (A) (A) (A) (A) (A) (A) (A) (A) (A)
                 (A) (A) (A) (A) (A) (A) (A) (A) (A) (A) (A) (A)
                 (A) (A) (A) (A) (A) (A) (A) (A) (A) (A) (A) (A)
                 (A) (A) (A) (A) (A) (A) (A) (A) (A) (A) (A) (A)
                 (A) (A) (A) (A) (A) (A) (A) (A) (A) (A) (A) (A)
                 (A) (A) (A) (A) (A) (A) (A) (A) (A) (A) (A) (A)
                 (A) (A) (A) (A) (A) (A) (A) (A) (A) (A) (A) (A)
                 (A) (A) (A) (A) (A) (A) (A) (A) (A) (A) (A) (A)
                 (A) (A) (A) (A) (A) (A) (A) (A) (A) (A) (A) (A)
                 (A) (A) (A) (A) (A) (A) (A) (A) (A) (A) (A) (A)
                 (A) (A) (A) (A) (A) (A) (A) (A) (A) (A) (A) (A)
                 (A) (A) (A) (A) (A) (A) (A) (A) (A) (A) (A) (A)
                 (A) (A) (A) (A) (A) (A) (A) (A) (A) (A) (A) (A)
                 (A) (A) (A) (A) (A) (A) (A) (A) (A) (A) (A) (A)
                 (A) (A) (A) (A) (A) (A) (A) (A) (A) (A) (A) (A)
                 (A) (A) (A) (A) (A) (A) (A) (A) (A) (A) (A) (A)
                 (A) (A) (A) (A) (A) (A) (A) (A) (A) (A) (A) (A)
                 (A) (A) (A) (A) (A) (A) (A) (A) (A) (A) (A) (A)
                 (A) (A) (A) (A) (A) (A) (A) (A) (A) (A) (A) (A)
                 (A) (A) (A) (A) (A) (A) (A) (A) (A) (A) (A) (A)
                 (A) (A) (A) (A) (A) (A) (A) (A) (A) (A) (A) (A)
                 (A) (A) (A) (A) (A) (A) (A) (A) (A) (A) (A) (A)
                 (A) (A) (A) (A) (A) (A) (A) (A) (A) (A) (A) (A)
                 (A) (A) (A) (A) (A) (A) (A) (A) (A) (A) (A) (A)
                 (A) (A) (A) (A) (A) (A) (A) (A) (A) (A) (A) (A)
                 (A) (A) (A) (A) (A) (A) (A) (A) (A) (A) (A) (A)
                 (A) (A) (A) (A) (A) (A) (A) (A) (A) (A) (A) (A)
                 (A) (A) (A) (A) (A) (A) (A) (A) (A) (A) (A) (A)
                 (A) (A) (A) (A) (A) (A) (A) (A) (A) (A) (A) (A)
                 (A) (A) (A) (A) (A) (A) (A) (A) (A) (A) (A) (A)
                 (A) (A) (A) (A) (A) (A) (A) (A) (A) (A) (A) (A)
                 (A) (A) (A) (A) (A) (A) (A) (A) (A) (A) (A) (A)
                 (A) (A) (A) (A) (A) (A) (A) (A) (A) (A) (A) (A)
                 (A) (A) (A) (A) (A) (A) (A) (A) (A) (A) (A) (A)
                 (A) (A) (A) (A) (A) (A) (A) (A) (A) (A) (A) (A)
                 (A) (A) (A) (A) (A) (A) (A) (A) (A) (A) (A) (A)
                 (A) (A) (A) (A) (A) (A) (A) (A) (A) (A) (A) (A)
                 (A) (A) (A) (A) (A) (A) (A) (A) (A) (A) (A) (A)
                 (A) (A) (A) (A) (A) (A) (A)
 The electronic state is 1-A.
 Alpha  occ. eigenvalues --  -19.29281 -19.27087 -19.26544 -19.25070 -10.32392
 Alpha  occ. eigenvalues --  -10.31662 -10.31294 -10.31028 -10.27321 -10.26850
 Alpha  occ. eigenvalues --  -10.26760 -10.26694 -10.26603 -10.25044 -10.25001
 Alpha  occ. eigenvalues --  -10.24536 -10.24501 -10.24027 -10.23949 -10.23752
 Alpha  occ. eigenvalues --  -10.23749 -10.23587  -1.11214  -1.08864  -1.07535
 Alpha  occ. eigenvalues --   -1.05118  -0.88902  -0.86716  -0.82254  -0.82181
 Alpha  occ. eigenvalues --   -0.78637  -0.77171  -0.76146  -0.74350  -0.70751
 Alpha  occ. eigenvalues --   -0.70227  -0.67151  -0.65456  -0.63394  -0.62720
 Alpha  occ. eigenvalues --   -0.60848  -0.59105  -0.57087  -0.55676  -0.53579
 Alpha  occ. eigenvalues --   -0.52382  -0.51654  -0.50321  -0.49626  -0.48908
 Alpha  occ. eigenvalues --   -0.47880  -0.46613  -0.46063  -0.45776  -0.44979
 Alpha  occ. eigenvalues --   -0.44371  -0.43750  -0.43468  -0.42839  -0.42467
 Alpha  occ. eigenvalues --   -0.41822  -0.41026  -0.40027  -0.39858  -0.39449
 Alpha  occ. eigenvalues --   -0.38861  -0.38643  -0.37689  -0.37324  -0.36653
 Alpha  occ. eigenvalues --   -0.36025  -0.35294  -0.35101  -0.34824  -0.34069
 Alpha  occ. eigenvalues --   -0.33520  -0.32554  -0.31823  -0.30582  -0.28861
 Alpha  occ. eigenvalues --   -0.26071  -0.24717  -0.23791
 Alpha virt. eigenvalues --   -0.01177  -0.00217   0.00039   0.00674   0.01424
 Alpha virt. eigenvalues --    0.01748   0.01851   0.02706   0.03145   0.03518
 Alpha virt. eigenvalues --    0.03843   0.04423   0.04501   0.04983   0.05412
 Alpha virt. eigenvalues --    0.05779   0.06517   0.06754   0.07178   0.07398
 Alpha virt. eigenvalues --    0.07849   0.07895   0.08464   0.08974   0.09395
 Alpha virt. eigenvalues --    0.09597   0.10086   0.10317   0.10620   0.10959
 Alpha virt. eigenvalues --    0.11289   0.11671   0.12159   0.12221   0.12711
 Alpha virt. eigenvalues --    0.13169   0.13775   0.13875   0.14614   0.14717
 Alpha virt. eigenvalues --    0.15104   0.15680   0.16000   0.16163   0.16319
 Alpha virt. eigenvalues --    0.16635   0.17202   0.17248   0.17504   0.17774
 Alpha virt. eigenvalues --    0.18037   0.18353   0.18709   0.19003   0.19194
 Alpha virt. eigenvalues --    0.19832   0.19940   0.20128   0.20681   0.20839
 Alpha virt. eigenvalues --    0.21306   0.21540   0.21841   0.22065   0.22355
 Alpha virt. eigenvalues --    0.22412   0.22675   0.22875   0.23100   0.23402
 Alpha virt. eigenvalues --    0.23884   0.24182   0.24242   0.24819   0.24965
 Alpha virt. eigenvalues --    0.25395   0.25668   0.25992   0.26288   0.26554
 Alpha virt. eigenvalues --    0.26926   0.27057   0.27363   0.27865   0.28103
 Alpha virt. eigenvalues --    0.28297   0.28679   0.28952   0.29524   0.29591
 Alpha virt. eigenvalues --    0.29855   0.30256   0.30559   0.30810   0.31587
 Alpha virt. eigenvalues --    0.31593   0.32047   0.32444   0.32836   0.33094
 Alpha virt. eigenvalues --    0.33613   0.34224   0.34265   0.34611   0.34859
 Alpha virt. eigenvalues --    0.35249   0.35890   0.36556   0.37150   0.37321
 Alpha virt. eigenvalues --    0.37679   0.37916   0.38072   0.38747   0.38979
 Alpha virt. eigenvalues --    0.39659   0.40187   0.40543   0.41923   0.42242
 Alpha virt. eigenvalues --    0.42406   0.42845   0.43694   0.44293   0.45018
 Alpha virt. eigenvalues --    0.46099   0.46466   0.47247   0.48166   0.48863
 Alpha virt. eigenvalues --    0.49688   0.50313   0.51852   0.52417   0.53106
 Alpha virt. eigenvalues --    0.55182   0.56714   0.59972   0.63479   0.65344
 Alpha virt. eigenvalues --    0.67448   0.68526   0.69053   0.69905   0.70349
 Alpha virt. eigenvalues --    0.70895   0.72327   0.73170   0.73349   0.73785
 Alpha virt. eigenvalues --    0.73973   0.74783   0.74924   0.75158   0.76173
 Alpha virt. eigenvalues --    0.77122   0.77460   0.78994   0.79145   0.79335
 Alpha virt. eigenvalues --    0.80257   0.80992   0.81790   0.83119   0.84462
 Alpha virt. eigenvalues --    0.84697   0.85568   0.86133   0.87316   0.87465
 Alpha virt. eigenvalues --    0.88149   0.88464   0.89401   0.90558   0.91022
 Alpha virt. eigenvalues --    0.92186   0.93039   0.94175   0.94659   0.95345
 Alpha virt. eigenvalues --    0.95852   0.96291   0.97177   0.97257   0.98190
 Alpha virt. eigenvalues --    1.00120   1.00751   1.01388   1.01483   1.03939
 Alpha virt. eigenvalues --    1.04925   1.05343   1.05962   1.06644   1.07813
 Alpha virt. eigenvalues --    1.08536   1.09614   1.10876   1.11369   1.12067
 Alpha virt. eigenvalues --    1.12854   1.13507   1.14501   1.14903   1.15432
 Alpha virt. eigenvalues --    1.16340   1.16450   1.17806   1.18365   1.18658
 Alpha virt. eigenvalues --    1.19771   1.20026   1.20273   1.22050   1.22337
 Alpha virt. eigenvalues --    1.23185   1.23501   1.24333   1.24826   1.25847
 Alpha virt. eigenvalues --    1.26298   1.27338   1.28678   1.29353   1.30073
 Alpha virt. eigenvalues --    1.31482   1.32147   1.32716   1.33211   1.33588
 Alpha virt. eigenvalues --    1.35094   1.35407   1.35824   1.37257   1.38270
 Alpha virt. eigenvalues --    1.38786   1.40079   1.41258   1.41581   1.43696
 Alpha virt. eigenvalues --    1.44091   1.45928   1.46991   1.47302   1.49011
 Alpha virt. eigenvalues --    1.49491   1.51854   1.52873   1.53390   1.53562
 Alpha virt. eigenvalues --    1.55690   1.57096   1.57531   1.58643   1.60015
 Alpha virt. eigenvalues --    1.61374   1.62371   1.64764   1.65386   1.66202
 Alpha virt. eigenvalues --    1.67562   1.69157   1.69625   1.71527   1.71914
 Alpha virt. eigenvalues --    1.73317   1.76038   1.77678   1.79394   1.80410
 Alpha virt. eigenvalues --    1.81607   1.81966   1.82968   1.84381   1.85057
 Alpha virt. eigenvalues --    1.85657   1.85895   1.86576   1.87191   1.88718
 Alpha virt. eigenvalues --    1.89286   1.90400   1.90565   1.91549   1.92072
 Alpha virt. eigenvalues --    1.93105   1.94086   1.94487   1.95293   1.95980
 Alpha virt. eigenvalues --    1.97223   1.97772   1.98681   1.99418   2.01418
 Alpha virt. eigenvalues --    2.01782   2.02845   2.04076   2.04885   2.05718
 Alpha virt. eigenvalues --    2.06528   2.06702   2.07085   2.07773   2.08851
 Alpha virt. eigenvalues --    2.10185   2.10572   2.12051   2.13046   2.13165
 Alpha virt. eigenvalues --    2.13825   2.14196   2.14522   2.15447   2.15690
 Alpha virt. eigenvalues --    2.16429   2.17347   2.18882   2.19189   2.19692
 Alpha virt. eigenvalues --    2.21359   2.22110   2.22896   2.24613   2.25308
 Alpha virt. eigenvalues --    2.25599   2.26191   2.26474   2.27740   2.29365
 Alpha virt. eigenvalues --    2.30150   2.31776   2.33017   2.33648   2.35205
 Alpha virt. eigenvalues --    2.35559   2.37117   2.37439   2.38845   2.39901
 Alpha virt. eigenvalues --    2.41436   2.43307   2.44531   2.45835   2.46524
 Alpha virt. eigenvalues --    2.48005   2.49095   2.49475   2.50650   2.51958
 Alpha virt. eigenvalues --    2.53050   2.53272   2.54612   2.55797   2.56162
 Alpha virt. eigenvalues --    2.56792   2.57144   2.57451   2.59585   2.60074
 Alpha virt. eigenvalues --    2.61056   2.62269   2.63322   2.63683   2.65059
 Alpha virt. eigenvalues --    2.66860   2.67054   2.68016   2.68872   2.69882
 Alpha virt. eigenvalues --    2.71126   2.71595   2.71823   2.72562   2.73391
 Alpha virt. eigenvalues --    2.74591   2.75272   2.75907   2.77288   2.78242
 Alpha virt. eigenvalues --    2.79458   2.79728   2.80455   2.82055   2.82837
 Alpha virt. eigenvalues --    2.83390   2.84598   2.84734   2.85455   2.87775
 Alpha virt. eigenvalues --    2.88521   2.89238   2.89541   2.89833   2.90888
 Alpha virt. eigenvalues --    2.92008   2.92103   2.94603   2.95257   2.96453
 Alpha virt. eigenvalues --    2.97768   2.99481   3.01041   3.03369   3.06721
 Alpha virt. eigenvalues --    3.07181   3.08566   3.10761   3.11464   3.12657
 Alpha virt. eigenvalues --    3.18662   3.19230   3.24506   3.27245   3.29393
 Alpha virt. eigenvalues --    3.30197   3.31288   3.35938   3.36718   3.38872
 Alpha virt. eigenvalues --    3.41040   3.42539   3.45430   3.47110   3.49497
 Alpha virt. eigenvalues --    3.49632   3.50059   3.51257   3.51746   3.53497
 Alpha virt. eigenvalues --    3.54492   3.55146   3.57485   3.59669   3.60043
 Alpha virt. eigenvalues --    3.62201   3.63319   3.65473   3.66035   3.72600
 Alpha virt. eigenvalues --    3.76671   4.36793   4.38031   4.39540   4.46435
 Alpha virt. eigenvalues --    4.47750   4.48510   4.52349   4.55052   4.56032
 Alpha virt. eigenvalues --    4.59046   4.61203   4.64675   4.67575   4.69073
 Alpha virt. eigenvalues --    4.72271   4.75496   4.78547   4.89607   4.94374
 Alpha virt. eigenvalues --    4.97393   5.00006   5.12566
          Condensed to atoms (all electrons):
              1          2          3          4          5          6
     1  C   12.394245  -1.296347  -0.001075  -0.059704  -0.265899   0.037945
     2  C   -1.296347   7.116034   0.368593   0.387176  -0.153851   0.006603
     3  H   -0.001075   0.368593   0.533800  -0.026177  -0.052478  -0.007390
     4  H   -0.059704   0.387176  -0.026177   0.522955  -0.029420  -0.001427
     5  C   -0.265899  -0.153851  -0.052478  -0.029420   7.736157   0.357742
     6  H    0.037945   0.006603  -0.007390  -0.001427   0.357742   0.539793
     7  C   -0.868929  -0.008469   0.014070   0.020507   0.205879  -0.192635
     8  H   -0.013665   0.039875   0.002518  -0.000040  -0.097135  -0.006508
     9  C    2.835811  -0.186207   0.021560   0.007206  -1.170886   0.077859
    10  H   -0.031865  -0.004876  -0.000050   0.000011   0.032607  -0.000153
    11  C   -4.441991   0.338240  -0.059928   0.046057   0.773398  -0.005808
    12  H    0.094487  -0.010138   0.001216  -0.000047  -0.020385  -0.000015
    13  C   -0.356918  -0.165974   0.008890   0.007487  -0.621594  -0.028129
    14  C   -0.077648   0.071301   0.000112  -0.000083  -0.083798   0.000080
    15  C   -0.582062   0.200111   0.002066   0.001290  -0.324487  -0.002843
    16  C    0.642338   0.445039  -0.006893  -0.006266  -0.328794   0.011605
    17  C   -0.153518   0.159850  -0.000792  -0.000983  -0.410277  -0.000352
    18  C   -0.225609   0.018385   0.000202   0.000150   0.007281  -0.000086
    19  H   -0.001719   0.000198   0.000000   0.000000   0.000533   0.000000
    20  H    0.000415  -0.000002   0.000000   0.000000  -0.000035   0.000000
    21  O   -0.006628   0.005684   0.000248   0.000999  -0.076105   0.000838
    22  H   -0.007896  -0.000142   0.000001   0.000001   0.009119  -0.000041
    23  O   -0.008662   0.004995  -0.000004  -0.000004  -0.008773   0.000002
    24  H   -0.014550   0.001417   0.000000   0.000000   0.001982   0.000000
    25  O    0.026146  -0.048709   0.000048  -0.000453  -0.059531   0.000096
    26  H   -0.008798   0.028348  -0.000021  -0.000004  -0.005423   0.000000
    27  C   -2.402739  -0.469694   0.011630  -0.037632   0.074038  -0.006817
    28  H   -0.143145   0.003125   0.000046   0.002393   0.003322  -0.000006
    29  H   -0.027983   0.010702   0.000074  -0.000009  -0.009572   0.000002
    30  H   -0.108804   0.008052   0.001316   0.000247   0.004625  -0.000002
    31  O    0.444413  -0.009891   0.007744  -0.002962   0.024520  -0.000098
    32  H    0.072018  -0.044413  -0.000078  -0.001048  -0.003626  -0.000066
    33  H    0.020181  -0.058832   0.004892  -0.006215   0.439746  -0.030883
    34  C    0.626107  -0.238095  -0.000631  -0.006055   1.327462   0.101075
    35  C   -0.055954  -0.019724  -0.002565  -0.001078  -1.039303  -0.027520
    36  H   -0.000599   0.001182   0.000000   0.000000  -0.013502   0.000029
    37  H   -0.003104   0.000834  -0.000001   0.000012  -0.002326  -0.000619
    38  C   -0.076127   0.010235   0.000805   0.000676   0.194546   0.003092
    39  H    0.004726  -0.001794   0.000000   0.000000   0.014623  -0.000004
    40  H   -0.000668   0.000817   0.000000   0.000000  -0.014130  -0.000003
    41  H   -0.002370   0.001324   0.000000   0.000000  -0.002343   0.000006
    42  C   -0.025323   0.009364   0.000006   0.000000  -0.009125  -0.000012
    43  H   -0.000003   0.000002   0.000000   0.000000   0.000011   0.000000
    44  H   -0.000012   0.000003   0.000000   0.000000  -0.000017   0.000000
    45  C   -0.000668  -0.000217   0.000000   0.000000   0.000117   0.000000
    46  H    0.000004   0.000000   0.000000   0.000000   0.000000   0.000000
    47  H   -0.000010   0.000001   0.000000   0.000000  -0.000004   0.000000
    48  H    0.000011   0.000001   0.000000   0.000000   0.000013   0.000000
              7          8          9         10         11         12
     1  C   -0.868929  -0.013665   2.835811  -0.031865  -4.441991   0.094487
     2  C   -0.008469   0.039875  -0.186207  -0.004876   0.338240  -0.010138
     3  H    0.014070   0.002518   0.021560  -0.000050  -0.059928   0.001216
     4  H    0.020507  -0.000040   0.007206   0.000011   0.046057  -0.000047
     5  C    0.205879  -0.097135  -1.170886   0.032607   0.773398  -0.020385
     6  H   -0.192635  -0.006508   0.077859  -0.000153  -0.005808  -0.000015
     7  C   21.161974   0.159383  -6.766876   0.065982   2.864204  -0.058290
     8  H    0.159383   0.561856   0.063604  -0.010041  -0.062829   0.002881
     9  C   -6.766876   0.063604  22.657000   0.255737  -6.502638   0.149834
    10  H    0.065982  -0.010041   0.255737   0.539917   0.047620  -0.012288
    11  C    2.864204  -0.062829  -6.502638   0.047620  17.046206   0.000855
    12  H   -0.058290   0.002881   0.149834  -0.012288   0.000855   0.552377
    13  C   -5.764878   0.091826  -3.399503  -0.001439  -0.897616   0.168957
    14  C   -0.234006   0.003851  -0.777371  -0.002198  -0.167171   0.000972
    15  C   -1.050271   0.032369  -2.530738   0.025954  -0.298097   0.025104
    16  C    1.624220   0.004763   4.103813  -0.061031  -2.312709  -0.031466
    17  C    1.003891   0.001498  -2.664938   0.004471  -0.042527   0.000581
    18  C   -0.438670   0.002567  -0.630025   0.018051  -0.025245   0.004293
    19  H    0.000985   0.000000   0.009559   0.000002   0.001520   0.000000
    20  H    0.002667   0.000000   0.006150  -0.000005  -0.001814   0.000000
    21  O   -0.115822   0.001002   0.008096  -0.000336   0.093177   0.000084
    22  H    0.000237   0.000002   0.002787   0.000003   0.003754   0.000000
    23  O    0.024198  -0.000093  -0.195797  -0.003496   0.024402  -0.000549
    24  H    0.058703   0.000005   0.073941   0.000905   0.032788  -0.001157
    25  O   -0.098157  -0.000009  -0.430770  -0.015652   0.455204  -0.043489
    26  H   -0.013352   0.000010  -0.023655   0.000200  -0.080265   0.006015
    27  C    0.448664   0.004655  -1.043951  -0.001712   1.066311  -0.044959
    28  H    0.000199   0.000000  -0.011876   0.000002   0.044685   0.000021
    29  H   -0.001581   0.000001  -0.000346  -0.000001  -0.029775   0.000172
    30  H    0.003793   0.000006   0.002506   0.000000   0.011550   0.001709
    31  O   -0.136995  -0.000264   0.081114   0.000082  -0.242631   0.007373
    32  H    0.042055  -0.000042   0.019081  -0.000159  -0.053897  -0.000185
    33  H   -0.110159   0.004930   0.022813  -0.000107  -0.039002   0.000040
    34  C   -5.365079   0.039323   2.168538  -0.072818  -1.119579   0.028547
    35  C   -2.419855   0.034117   1.009778   0.002024  -0.467998   0.002165
    36  H    0.070762  -0.000130  -0.000254   0.000003   0.001014   0.000000
    37  H   -0.056095   0.000133  -0.003003  -0.000001  -0.006677   0.000000
    38  C    2.124969  -0.044027  -0.724221   0.020947   0.258834  -0.000660
    39  H    0.115795  -0.000486   0.036035  -0.002091   0.005032   0.000011
    40  H    0.069823  -0.000003  -0.003515   0.000061  -0.001185   0.000000
    41  H   -0.058965   0.004278   0.027106   0.000142   0.005742   0.000007
    42  C   -0.007060   0.000192  -0.338453  -0.000751  -0.002758   0.000116
    43  H   -0.000069   0.000000   0.001634   0.000000   0.000028   0.000000
    44  H   -0.000199   0.000000  -0.001926   0.000000   0.000113   0.000000
    45  C   -0.000505  -0.000002  -0.004373   0.000004   0.003050   0.000000
    46  H    0.000009   0.000000   0.000099   0.000000   0.000004   0.000000
    47  H   -0.000047   0.000000  -0.001105   0.000000   0.000006   0.000000
    48  H   -0.000055   0.000000   0.000791   0.000000  -0.000133   0.000000
             13         14         15         16         17         18
     1  C   -0.356918  -0.077648  -0.582062   0.642338  -0.153518  -0.225609
     2  C   -0.165974   0.071301   0.200111   0.445039   0.159850   0.018385
     3  H    0.008890   0.000112   0.002066  -0.006893  -0.000792   0.000202
     4  H    0.007487  -0.000083   0.001290  -0.006266  -0.000983   0.000150
     5  C   -0.621594  -0.083798  -0.324487  -0.328794  -0.410277   0.007281
     6  H   -0.028129   0.000080  -0.002843   0.011605  -0.000352  -0.000086
     7  C   -5.764878  -0.234006  -1.050271   1.624220   1.003891  -0.438670
     8  H    0.091826   0.003851   0.032369   0.004763   0.001498   0.002567
     9  C   -3.399503  -0.777371  -2.530738   4.103813  -2.664938  -0.630025
    10  H   -0.001439  -0.002198   0.025954  -0.061031   0.004471   0.018051
    11  C   -0.897616  -0.167171  -0.298097  -2.312709  -0.042527  -0.025245
    12  H    0.168957   0.000972   0.025104  -0.031466   0.000581   0.004293
    13  C   39.939786  -2.720603   0.129273 -16.981869  -4.707240  -0.457977
    14  C   -2.720603  10.809578  -0.194760   0.031565   1.303539  -0.402650
    15  C    0.129273  -0.194760  10.120879  -1.169341   0.920010   0.216954
    16  C  -16.981869   0.031565  -1.169341  24.435378  -0.170159  -2.048559
    17  C   -4.707240   1.303539   0.920010  -0.170159  13.267415  -2.578340
    18  C   -0.457977  -0.402650   0.216954  -2.048559  -2.578340  12.446791
    19  H    0.007280   0.109620  -0.016382  -0.042271   0.267571   0.009695
    20  H    0.085985   0.033197   0.067907  -0.004089   0.035090   0.131734
    21  O   -0.319386   0.025499  -0.071239   0.141901   0.183967  -0.008989
    22  H    0.098860   0.020988   0.000889  -0.049398  -0.061050   0.006317
    23  O    0.168356   0.109110   0.184137  -0.034579   0.036395  -0.285295
    24  H   -0.269548  -0.018172   0.055856   0.039131  -0.013299   0.081612
    25  O    0.310254  -0.027157   0.020227  -0.243417  -0.009649   0.046878
    26  H    0.100246   0.008208   0.046505  -0.040138   0.009899   0.017228
    27  C   -0.434011  -0.027291  -0.087064  -0.031205   0.012421  -0.011017
    28  H    0.003318   0.000011   0.000910  -0.002546  -0.000062   0.000104
    29  H   -0.001129  -0.000094  -0.000300  -0.002062  -0.000423   0.000122
    30  H    0.006757   0.000030   0.001320  -0.000652   0.000174   0.000086
    31  O    0.489444  -0.005546   0.040574  -0.277856  -0.059239   0.023923
    32  H   -0.248503  -0.000530  -0.024752   0.174941   0.032436  -0.012244
    33  H    0.038960   0.003242   0.011864   0.001533  -0.000936   0.001144
    34  C   -0.487799   0.047013  -0.300299   0.696074  -0.492991  -0.044316
    35  C    2.518019  -0.000233   0.404375  -1.211455   0.023582   0.154263
    36  H    0.009962  -0.001661   0.000747  -0.005090  -0.001144   0.000751
    37  H    0.068645  -0.003805   0.005351  -0.033489  -0.010158   0.001287
    38  C   -0.779706  -0.017293  -0.135430   0.295875   0.027756  -0.065346
    39  H   -0.042793  -0.011945  -0.047848   0.002457  -0.012532  -0.023444
    40  H   -0.003062  -0.000929   0.001015   0.006863   0.001067   0.000617
    41  H    0.002444   0.002772   0.015409   0.017296   0.002475   0.001429
    42  C   -0.660686  -1.640241   0.167137  -0.941258   0.750404   0.224369
    43  H   -0.000808  -0.209623   0.060693  -0.023869  -0.096904   0.126275
    44  H   -0.000651  -0.275239  -0.015801   0.014237   0.186814  -0.105382
    45  C    0.056623  -0.084019   0.009758  -0.006164   0.029261   0.037242
    46  H    0.001351   0.018726   0.003777  -0.000493   0.007186   0.006025
    47  H   -0.005077  -0.055757   0.001017  -0.004831   0.023431  -0.021519
    48  H   -0.002712  -0.028789   0.001336  -0.000007  -0.017257   0.015089
             19         20         21         22         23         24
     1  C   -0.001719   0.000415  -0.006628  -0.007896  -0.008662  -0.014550
     2  C    0.000198  -0.000002   0.005684  -0.000142   0.004995   0.001417
     3  H    0.000000   0.000000   0.000248   0.000001  -0.000004   0.000000
     4  H    0.000000   0.000000   0.000999   0.000001  -0.000004   0.000000
     5  C    0.000533  -0.000035  -0.076105   0.009119  -0.008773   0.001982
     6  H    0.000000   0.000000   0.000838  -0.000041   0.000002   0.000000
     7  C    0.000985   0.002667  -0.115822   0.000237   0.024198   0.058703
     8  H    0.000000   0.000000   0.001002   0.000002  -0.000093   0.000005
     9  C    0.009559   0.006150   0.008096   0.002787  -0.195797   0.073941
    10  H    0.000002  -0.000005  -0.000336   0.000003  -0.003496   0.000905
    11  C    0.001520  -0.001814   0.093177   0.003754   0.024402   0.032788
    12  H    0.000000   0.000000   0.000084   0.000000  -0.000549  -0.001157
    13  C    0.007280   0.085985  -0.319386   0.098860   0.168356  -0.269548
    14  C    0.109620   0.033197   0.025499   0.020988   0.109110  -0.018172
    15  C   -0.016382   0.067907  -0.071239   0.000889   0.184137   0.055856
    16  C   -0.042271  -0.004089   0.141901  -0.049398  -0.034579   0.039131
    17  C    0.267571   0.035090   0.183967  -0.061050   0.036395  -0.013299
    18  C    0.009695   0.131734  -0.008989   0.006317  -0.285295   0.081612
    19  H    0.520292  -0.000135  -0.022452   0.008989   0.000089   0.000000
    20  H   -0.000135   0.510912   0.000100  -0.000001  -0.007313   0.000110
    21  O   -0.022452   0.000100   8.367648   0.191638  -0.000184  -0.000398
    22  H    0.008989  -0.000001   0.191638   0.339266   0.000036   0.000000
    23  O    0.000089  -0.007313  -0.000184   0.000036   8.287497   0.212069
    24  H    0.000000   0.000110  -0.000398   0.000000   0.212069   0.331486
    25  O   -0.000024  -0.000041   0.002873  -0.000191  -0.006137   0.027237
    26  H    0.000000  -0.000004   0.000264   0.000004  -0.002166  -0.003261
    27  C   -0.000105   0.000023   0.003668  -0.000799  -0.004076  -0.000448
    28  H    0.000000   0.000000  -0.000025   0.000000  -0.000001   0.000000
    29  H    0.000000   0.000000   0.000019   0.000000   0.000024   0.000000
    30  H    0.000000   0.000000  -0.000012   0.000000   0.000006  -0.000002
    31  O   -0.000078  -0.000005  -0.000437   0.001871   0.001706  -0.000365
    32  H   -0.000026   0.000000   0.015284  -0.000978  -0.000172   0.000003
    33  H   -0.000004   0.000000  -0.011374   0.000948  -0.000008   0.000000
    34  C   -0.000805  -0.000736   0.026532  -0.004866  -0.000854  -0.015512
    35  C    0.000074  -0.000081   0.098065  -0.003642  -0.002602  -0.000739
    36  H    0.000000   0.000000   0.000155  -0.000009   0.000002   0.000000
    37  H   -0.000001   0.000000   0.001950  -0.000051  -0.000002   0.000000
    38  C    0.000425   0.000481  -0.038396   0.001914   0.001746   0.003964
    39  H    0.000000  -0.000003  -0.000898   0.000001   0.001562  -0.000003
    40  H    0.000000   0.000000  -0.000081   0.000000   0.000008   0.000000
    41  H    0.000000   0.000000   0.000067   0.000000  -0.000237   0.000002
    42  C   -0.026558  -0.040235  -0.012744   0.006045  -0.005993   0.000670
    43  H    0.000082   0.001812   0.000040   0.000000   0.000004   0.000000
    44  H    0.002026   0.000088   0.000083  -0.000002   0.000039   0.000000
    45  C    0.007820   0.005409   0.000379   0.000174   0.001130   0.000034
    46  H   -0.000033  -0.000025   0.000001   0.000000  -0.000001   0.000000
    47  H    0.000011   0.000126   0.000005   0.000000   0.000019   0.000000
    48  H    0.000196   0.000009   0.000006   0.000001   0.000001   0.000000
             25         26         27         28         29         30
     1  C    0.026146  -0.008798  -2.402739  -0.143145  -0.027983  -0.108804
     2  C   -0.048709   0.028348  -0.469694   0.003125   0.010702   0.008052
     3  H    0.000048  -0.000021   0.011630   0.000046   0.000074   0.001316
     4  H   -0.000453  -0.000004  -0.037632   0.002393  -0.000009   0.000247
     5  C   -0.059531  -0.005423   0.074038   0.003322  -0.009572   0.004625
     6  H    0.000096   0.000000  -0.006817  -0.000006   0.000002  -0.000002
     7  C   -0.098157  -0.013352   0.448664   0.000199  -0.001581   0.003793
     8  H   -0.000009   0.000010   0.004655   0.000000   0.000001   0.000006
     9  C   -0.430770  -0.023655  -1.043951  -0.011876  -0.000346   0.002506
    10  H   -0.015652   0.000200  -0.001712   0.000002  -0.000001   0.000000
    11  C    0.455204  -0.080265   1.066311   0.044685  -0.029775   0.011550
[...]
    15  C    0.018429   0.017725   0.020364   0.000219  -0.000098   0.002476
    16  C   -0.223524  -0.010873  -0.190601  -0.000924   0.000726  -0.003701
    17  C   -0.034409   0.007204   0.001543   0.000188  -0.000198   0.000117
    18  C    0.087928   0.003456   0.034130  -0.000007   0.000091   0.000223
    19  H   -0.000035   0.000000  -0.000106   0.000000   0.000000   0.000000
    20  H    0.000013  -0.000004   0.000021   0.000000   0.000000   0.000000
    21  O    0.003977   0.000340  -0.001737  -0.000059  -0.000014  -0.000013
    22  H   -0.000187   0.000004  -0.001185   0.000000   0.000000   0.000000
    23  O   -0.015403  -0.001462  -0.003004   0.000000   0.000007   0.000011
    24  H    0.029172  -0.002728  -0.000319   0.000000   0.000002  -0.000002
    25  O    8.364384   0.239560   0.046330  -0.000964   0.006733  -0.001427
    26  H    0.239560   0.327130  -0.043576   0.000043   0.000405   0.000107
    27  C    0.046330  -0.043576   8.596040   0.495759   0.490311   0.452524
    28  H   -0.000964   0.000043   0.495759   0.536065  -0.029585  -0.026480
    29  H    0.006733   0.000405   0.490311  -0.029585   0.532371  -0.026608
    30  H   -0.001427   0.000107   0.452524  -0.026480  -0.026608   0.522930
    31  O   -0.031374   0.026995  -0.336481   0.000670  -0.000759   0.005501
    32  H   -0.000219  -0.001563   0.067645  -0.000025  -0.000034  -0.000199
    33  H   -0.000226   0.000000   0.000018  -0.000004   0.000002  -0.000001
    34  C    0.034193   0.002430  -0.087935  -0.000363  -0.000041  -0.000540
    35  C    0.016872  -0.000186   0.003587   0.000105  -0.000091   0.000077
    36  H   -0.000001   0.000000  -0.000023   0.000000   0.000000   0.000000
    37  H    0.000006   0.000000  -0.000266   0.000000   0.000000   0.000000
    38  C   -0.013927   0.000073  -0.026420  -0.000007  -0.000011  -0.000019
    39  H   -0.000053   0.000000  -0.000026   0.000000   0.000000   0.000000
    40  H    0.000002   0.000000  -0.000027   0.000000   0.000000   0.000000
    41  H    0.000031   0.000000  -0.000032   0.000000   0.000000   0.000000
    42  C   -0.004696   0.001115  -0.000687   0.000002  -0.000009   0.000003
    43  H   -0.000003   0.000000  -0.000002   0.000000   0.000000   0.000000
    44  H    0.000001   0.000000  -0.000001   0.000000   0.000000   0.000000
    45  C    0.000273  -0.000048  -0.000108   0.000000   0.000000   0.000000
    46  H    0.000000   0.000000   0.000000   0.000000   0.000000   0.000000
    47  H    0.000004   0.000000  -0.000002   0.000000   0.000000   0.000000
    48  H   -0.000002   0.000000  -0.000007   0.000000   0.000000   0.000000
             31         32         33         34         35         36
     1  C    0.316249   0.075954   0.026558   0.774499  -0.160135  -0.000672
     2  C    0.019618  -0.037713  -0.073504  -0.361094  -0.057863  -0.001306
     3  H    0.007041  -0.000026   0.005267  -0.000846  -0.002884   0.000000
     4  H    0.000038  -0.001345  -0.006932  -0.009257  -0.004547   0.000000
     5  C    0.014422   0.001977   0.540116   1.896033  -1.137050  -0.018174
     6  H    0.000123  -0.000064  -0.034500   0.122888  -0.035554   0.000041
     7  C   -0.105284   0.028751  -0.264666  -6.414913  -2.421167   0.060167
     8  H   -0.000533   0.000014   0.005591   0.049037   0.036791  -0.000133
     9  C    0.100354   0.062163   0.047097   3.063759   0.384513   0.000009
    10  H    0.000211  -0.000170  -0.000114  -0.087497  -0.004448   0.000003
    11  C   -0.196553  -0.083178  -0.021868  -1.079935  -0.335750   0.000214
    12  H    0.006521  -0.000111   0.000039   0.024772   0.001134   0.000000
    13  C    0.352020  -0.236006   0.021356  -1.291023   2.405119   0.006847
    14  C   -0.008490   0.000393   0.004490   0.098575   0.099167  -0.000869
    15  C    0.006201  -0.021579   0.013525  -0.263592   0.618272   0.000361
    16  C   -0.201220   0.173815   0.004209   1.129440  -1.287946  -0.002035
    17  C   -0.054933   0.016551  -0.005742  -0.816218   0.359895   0.001089
    18  C    0.004912  -0.008275   0.002251   0.029461   0.198583   0.000315
    19  H   -0.000051  -0.000028  -0.000005  -0.001563   0.000441   0.000000
    20  H   -0.000009   0.000000   0.000000  -0.000644  -0.000088   0.000000
    21  O   -0.000089   0.020139  -0.011016   0.037969   0.086000  -0.000219
    22  H    0.002292  -0.001126   0.000868  -0.004995  -0.006097   0.000002
    23  O    0.000727  -0.000108  -0.000012  -0.013843  -0.007978   0.000002
    24  H   -0.000140  -0.000005   0.000000  -0.013291   0.000157   0.000000
    25  O   -0.031374  -0.000219  -0.000226   0.034193   0.016872  -0.000001
    26  H    0.026995  -0.001563   0.000000   0.002430  -0.000186   0.000000
    27  C   -0.336481   0.067645   0.000018  -0.087935   0.003587  -0.000023
    28  H    0.000670  -0.000025  -0.000004  -0.000363   0.000105   0.000000
    29  H   -0.000759  -0.000034   0.000002  -0.000041  -0.000091   0.000000
    30  H    0.005501  -0.000199  -0.000001  -0.000540   0.000077   0.000000
    31  O    8.517354   0.177665  -0.001396   0.020126   0.003784   0.000001
    32  H    0.177665   0.338293  -0.000152   0.003650  -0.002048   0.000000
    33  H   -0.001396  -0.000152   0.552854   0.054173  -0.024826   0.000054
    34  C    0.020126   0.003650   0.054173  13.903759  -3.217793  -0.207203
    35  C    0.003784  -0.002048  -0.024826  -3.217793  11.858353   0.546543
    36  H    0.000001   0.000000   0.000054  -0.207203   0.546543   0.538152
    37  H    0.000030  -0.000001   0.000638  -0.258168   0.709530  -0.037391
    38  C    0.001979  -0.000597  -0.001102  -1.123025  -2.053711  -0.035566
    39  H    0.000019   0.000000  -0.000005  -0.204194  -0.092123   0.000290
    40  H    0.000000   0.000000   0.000000  -0.175654   0.021823   0.003206
    41  H    0.000000   0.000000   0.000000  -0.070424  -0.013276   0.000236
    42  C   -0.000917  -0.000792   0.000496  -0.000572   0.010552  -0.000069
    43  H    0.000000   0.000000   0.000000   0.000079  -0.000009   0.000000
    44  H    0.000000   0.000000   0.000000   0.000226  -0.000068   0.000000
    45  C    0.000250   0.000011  -0.000004  -0.001050  -0.000120   0.000000
    46  H    0.000000   0.000000   0.000000   0.000003  -0.000002   0.000000
    47  H   -0.000001   0.000000   0.000000   0.000008   0.000002   0.000000
    48  H    0.000003   0.000000   0.000000   0.000028  -0.000017   0.000000
             37         38         39         40         41         42
     1  C   -0.003064  -0.030544   0.005001  -0.000604  -0.003011  -0.021724
     2  C   -0.005446   0.002579  -0.003703   0.000183   0.003631   0.010755
     3  H   -0.000001   0.000710   0.000000   0.000000   0.000000   0.000009
     4  H    0.000013   0.000846   0.000000   0.000000   0.000000   0.000000
     5  C   -0.016543   0.122889   0.014124  -0.016705  -0.006484  -0.013327
     6  H   -0.000732   0.006785  -0.000005  -0.000003   0.000003  -0.000019
     7  C   -0.056938   2.270911   0.110141   0.050906  -0.061136  -0.042136
     8  H    0.000155  -0.056514  -0.000534   0.000046   0.003961   0.000168
     9  C   -0.020259  -0.505595   0.095858  -0.022381   0.028637  -0.357493
    10  H    0.000002   0.028334  -0.002255   0.000094  -0.000044  -0.001014
    11  C   -0.006634   0.210933   0.021805  -0.007246   0.010020   0.014030
    12  H    0.000000  -0.001618   0.000010   0.000000   0.000009   0.000066
    13  C    0.097086  -0.728701  -0.024936   0.016005  -0.028399  -1.028394
    14  C   -0.003592  -0.073852  -0.022836  -0.000592   0.003681  -1.283402
    15  C    0.007355  -0.336689  -0.066334   0.003871   0.006631   0.359821
    16  C   -0.055864   0.335549  -0.040789   0.003445   0.041108  -1.076341
    17  C   -0.006165  -0.032507  -0.029078   0.002662   0.004046   0.569025
    18  C    0.001646  -0.155749  -0.011074   0.000914  -0.002471   0.263721
    19  H   -0.000002   0.000329   0.000000   0.000000   0.000000  -0.013611
    20  H    0.000000   0.000584  -0.000003   0.000000   0.000000  -0.044837
    21  O    0.003455  -0.045438  -0.000515  -0.000077  -0.000048  -0.013484
    22  H   -0.000211   0.003056   0.000002   0.000000   0.000000   0.004977
    23  O   -0.000002   0.014664   0.002386   0.000011  -0.000248  -0.007058
    24  H    0.000000   0.002103  -0.000008   0.000000   0.000002   0.000878
    25  O    0.000006  -0.013927  -0.000053   0.000002   0.000031  -0.004696
    26  H    0.000000   0.000073   0.000000   0.000000   0.000000   0.001115
    27  C   -0.000266  -0.026420  -0.000026  -0.000027  -0.000032  -0.000687
    28  H    0.000000  -0.000007   0.000000   0.000000   0.000000   0.000002
    29  H    0.000000  -0.000011   0.000000   0.000000   0.000000  -0.000009
    30  H    0.000000  -0.000019   0.000000   0.000000   0.000000   0.000003
    31  O    0.000030   0.001979   0.000019   0.000000   0.000000  -0.000917
    32  H   -0.000001  -0.000597   0.000000   0.000000   0.000000  -0.000792
    33  H    0.000638  -0.001102  -0.000005   0.000000   0.000000   0.000496
    34  C   -0.258168  -1.123025  -0.204194  -0.175654  -0.070424  -0.000572
    35  C    0.709530  -2.053711  -0.092123   0.021823  -0.013276   0.010552
    36  H   -0.037391  -0.035566   0.000290   0.003206   0.000236  -0.000069
    37  H    0.544254  -0.036947  -0.000196   0.000217  -0.000180  -0.000024
    38  C   -0.036947   7.443641   0.591890   0.477119   0.436298  -0.010504
    39  H   -0.000196   0.591890   0.539803  -0.025833  -0.030265  -0.000803
    40  H    0.000217   0.477119  -0.025833   0.539575  -0.027676  -0.000220
    41  H   -0.000180   0.436298  -0.030265  -0.027676   0.539104   0.000135
    42  C   -0.000024  -0.010504  -0.000803  -0.000220   0.000135   7.667557
    43  H    0.000000  -0.000014   0.000000   0.000000   0.000000   0.511124
    44  H    0.000000  -0.000070   0.000000   0.000000   0.000000   0.526649
    45  C    0.000002   0.000135  -0.000002   0.000000   0.000000   0.171720
    46  H    0.000000   0.000000   0.000000   0.000000   0.000000  -0.049892
    47  H    0.000000  -0.000006   0.000000   0.000000   0.000000  -0.019506
    48  H    0.000000   0.000005   0.000000   0.000000   0.000000  -0.069362
             43         44         45         46         47         48
     1  C   -0.000019  -0.000001  -0.000559   0.000004  -0.000019   0.000030
     2  C    0.000003   0.000003  -0.000179   0.000000   0.000002   0.000002
     3  H    0.000000   0.000000   0.000000   0.000000   0.000000   0.000000
     4  H    0.000000   0.000000   0.000000   0.000000   0.000000   0.000000
     5  C    0.000006  -0.000013   0.000061   0.000000  -0.000004   0.000011
     6  H    0.000000   0.000000   0.000000   0.000000   0.000000   0.000000
     7  C   -0.000077  -0.000289   0.002132   0.000001  -0.000046  -0.000024
     8  H    0.000000   0.000000  -0.000002   0.000000   0.000000   0.000000
     9  C    0.000272  -0.001316  -0.003844   0.000021  -0.001481   0.001518
    10  H    0.000000   0.000000  -0.000006   0.000000   0.000000   0.000000
    11  C    0.000039   0.000001   0.003311   0.000005  -0.000075  -0.000237
    12  H    0.000000   0.000000  -0.000001   0.000000   0.000000   0.000000
    13  C   -0.009129  -0.007703   0.046037  -0.000476  -0.005935  -0.005947
    14  C   -0.173979  -0.198346   0.011852  -0.031600   0.004014   0.060889
    15  C    0.043367  -0.014606  -0.001820   0.002735  -0.020687   0.010546
    16  C   -0.024335   0.010149  -0.023729   0.000282  -0.000492  -0.017177
    17  C   -0.066898   0.102715   0.004116   0.010382   0.047293  -0.083629
    18  C    0.059342  -0.076621  -0.007591   0.003803  -0.065272   0.041238
    19  H    0.000106   0.002399   0.004176  -0.000039   0.000014   0.000253
    20  H    0.002188   0.000120   0.003211  -0.000031   0.000162   0.000014
    21  O    0.000031   0.000080   0.000808  -0.000001   0.000008   0.000019
    22  H    0.000000  -0.000004   0.000066   0.000000   0.000000   0.000001
    23  O    0.000002   0.000031   0.001238  -0.000003   0.000037   0.000003
    24  H    0.000000   0.000000   0.000056   0.000000   0.000000   0.000000
    25  O   -0.000003   0.000001   0.000273   0.000000   0.000004  -0.000002
    26  H    0.000000   0.000000  -0.000048   0.000000   0.000000   0.000000
    27  C   -0.000002  -0.000001  -0.000108   0.000000  -0.000002  -0.000007
    28  H    0.000000   0.000000   0.000000   0.000000   0.000000   0.000000
    29  H    0.000000   0.000000   0.000000   0.000000   0.000000   0.000000
    30  H    0.000000   0.000000   0.000000   0.000000   0.000000   0.000000
    31  O    0.000000   0.000000   0.000250   0.000000  -0.000001   0.000003
    32  H    0.000000   0.000000   0.000011   0.000000   0.000000   0.000000
    33  H    0.000000   0.000000  -0.000004   0.000000   0.000000   0.000000
    34  C    0.000079   0.000226  -0.001050   0.000003   0.000008   0.000028
    35  C   -0.000009  -0.000068  -0.000120  -0.000002   0.000002  -0.000017
    36  H    0.000000   0.000000   0.000000   0.000000   0.000000   0.000000
    37  H    0.000000   0.000000   0.000002   0.000000   0.000000   0.000000
    38  C   -0.000014  -0.000070   0.000135   0.000000  -0.000006   0.000005
    39  H    0.000000   0.000000  -0.000002   0.000000   0.000000   0.000000
    40  H    0.000000   0.000000   0.000000   0.000000   0.000000   0.000000
    41  H    0.000000   0.000000   0.000000   0.000000   0.000000   0.000000
    42  C    0.511124   0.526649   0.171720  -0.049892  -0.019506  -0.069362
    43  H    0.564558  -0.033324  -0.022691  -0.003330  -0.004972   0.004858
    44  H   -0.033324   0.565852  -0.023856  -0.003342   0.004877  -0.005026
    45  C   -0.022691  -0.023856   5.176114   0.424416   0.417917   0.418094
    46  H   -0.003330  -0.003342   0.424416   0.548733  -0.027043  -0.026974
    47  H   -0.004972   0.004877   0.417917  -0.027043   0.542407  -0.028659
    48  H    0.004858  -0.005026   0.418094  -0.026974  -0.028659   0.541711
 Mulliken atomic charges:
              1
     1  C    0.250773
     2  C   -0.533402
     3  H    0.163400
     4  H    0.160243
     5  C   -0.394970
     6  H    0.150400
     7  C   -0.119642
     8  H    0.161574
     9  C   -0.261336
    10  H    0.187255
    11  C   -0.262854
    12  H    0.162905
    13  C    1.238701
    14  C    0.171035
    15  C    0.368588
    16  C   -0.631998
    17  C   -0.813602
    18  C   -0.182073
    19  H    0.149197
    20  H    0.151374
    21  O   -0.539309
    22  H    0.465598
    23  O   -0.574788
    24  H    0.433435
    25  O   -0.539163
    26  H    0.416054
    27  C   -0.410456
    28  H    0.161927
    29  H    0.162096
    30  H    0.170985
    31  O   -0.646875
    32  H    0.428344
    33  H    0.166471
    34  C    0.460564
    35  C   -0.495522
    36  H    0.146129
    37  H    0.144237
    38  C   -0.682276
    39  H    0.174241
    40  H    0.156940
    41  H    0.166161
    42  C   -0.051911
    43  H    0.152808
    44  H    0.151484
    45  C   -0.600386
    46  H    0.152348
    47  H    0.157454
    48  H    0.157839
 Sum of Mulliken atomic charges =   0.00000
 Mulliken charges with hydrogens summed into heavy atoms:
              1
     1  C    0.250773
     2  C   -0.209758
     5  C   -0.078098
     7  C    0.041932
     9  C   -0.074081
    11  C   -0.099949
    13  C    1.238701
    14  C    0.171035
    15  C    0.368588
    16  C   -0.631998
    17  C   -0.664405
    18  C   -0.030699
    21  O   -0.073711
    23  O   -0.141353
    25  O   -0.123109
    27  C    0.084552
    31  O   -0.218531
    34  C    0.460564
    35  C   -0.205155
    38  C   -0.184934
    42  C    0.252381
    45  C   -0.132745
 Sum of Mulliken charges with hydrogens summed into heavy atoms =   0.00000
 Electronic spatial extent (au):  <R**2>=           6647.3803
 Charge=              0.0000 electrons
 Dipole moment (field-independent basis, Debye):
    X=              0.9009    Y=              2.4110    Z=             -3.1112  Tot=              4.0378
 Quadrupole moment (field-independent basis, Debye-Ang):
   XX=           -120.9254   YY=           -142.2575   ZZ=           -136.0693
   XY=             -0.7001   XZ=             12.2480   YZ=             -3.4393
 Traceless Quadrupole moment (field-independent basis, Debye-Ang):
   XX=             12.1587   YY=             -9.1734   ZZ=             -2.9852
   XY=             -0.7001   XZ=             12.2480   YZ=             -3.4393
 Octapole moment (field-independent basis, Debye-Ang**2):
  XXX=             -7.9281  YYY=             -8.4386  ZZZ=            -52.3391  XYY=             -7.9580
  XXY=            -11.8442  XXZ=             -3.7258  XZZ=              4.1446  YZZ=             25.5439
  YYZ=              4.2876  XYZ=              2.2897
 Hexadecapole moment (field-independent basis, Debye-Ang**3):
 XXXX=          -5003.1648 YYYY=          -2505.0292 ZZZZ=          -1330.0347 XXXY=            -63.7491
 XXXZ=             27.7854 YYYX=            -41.0247 YYYZ=             -8.2601 ZZZX=             80.1578
 ZZZY=            -51.7558 XXYY=          -1363.3643 XXZZ=          -1085.8886 YYZZ=           -659.7860
 XXYZ=            -18.5478 YYXZ=             10.9885 ZZXY=             -3.5448
 N-N= 2.016469164218D+03 E-N=-6.364913630323D+03  KE= 9.931864342692D+02

 Test job not archived.
 1\1\GINC-COMPUTE-8-16\SP\RB3LYP\6-31+G(d,p)\C18H26O4\LPASSAGLIA.IQUIR\
 23-Dec-2022\0\\# B3LYP/6-31+G** geom=allcheck test scrf=(pcm,solvent=w
 ater,smd,dovacuum)\\comment\\0,1\C,0,0.531550416,2.05302718,-2.0190697
 94\C,0,0.0405849,3.26601461,-1.220530278\H,0,0.865778169,3.978460045,-
 1.090752904\H,0,-0.747285194,3.787874516,-1.778347577\C,0,-0.510991828
 ,2.913546306,0.159512216\H,0,-0.679495652,3.853429702,0.703276105\C,0,
 0.429234907,2.014103353,0.996320056\H,0,1.290173218,2.678766945,1.1844
 3893\C,0,1.043969163,0.803375,0.209556473\H,0,1.970627317,0.608681353,
 0.774251346\C,0,1.551748488,1.245732934,-1.187694006\H,0,2.425282181,1
 .890737525,-1.020184262\C,0,0.352241021,-0.568385571,0.219473103\C,0,-
 0.766186225,-3.185118599,0.48486233\C,0,1.149953681,-1.730402078,0.282
 998559\C,0,-1.027173914,-0.783240068,0.190771536\C,0,-1.585217497,-2.0
 62705148,0.331457147\C,0,0.615630109,-3.00882941,0.440342439\H,0,-2.66
 3491449,-2.197723492,0.303054351\H,0,1.287174408,-3.861671319,0.500755
 076\O,0,-1.87216371,0.2596245,-0.052237588\H,0,-2.770895722,-0.0118631
 62,0.205411079\O,0,2.511530977,-1.667254234,0.129981834\H,0,2.66697149
 6,-1.038709505,-0.609755666\O,0,2.04480273,0.114053598,-1.923143928\H,
 0,1.270171667,-0.21481959,-2.428814106\C,0,1.159145601,2.528802412,-3.
 336313194\H,0,0.435703843,3.107429117,-3.922694054\H,0,1.454084165,1.6
 82610065,-3.966891695\H,0,2.039985073,3.155255393,-3.161679381\O,0,-0.
 565030133,1.215779728,-2.397176784\H,0,-1.068707927,0.976998676,-1.592
 456876\H,0,-1.503869562,2.479835234,0.036215554\C,0,-0.073514305,1.665
 445442,2.40433307\C,0,-1.327045266,1.874147106,2.844513064\H,0,-1.6182
 90126,1.618219579,3.859476685\H,0,-2.105019756,2.296789572,2.219605926
 \C,0,0.956971408,1.090974953,3.347327445\H,0,1.271184843,0.094575512,3
 .02411622\H,0,0.573484289,0.997182315,4.369207503\H,0,1.837680751,1.74
 0141022,3.388821276\C,0,-1.359638443,-4.562043442,0.625755151\H,0,-0.6
 98776226,-5.187632654,1.238140992\H,0,-2.308904593,-4.499432364,1.1716
 86943\C,0,-1.586281766,-5.223194766,-0.725256444\H,0,-2.017300122,-6.2
 20329755,-0.590920126\H,0,-0.646534991,-5.331291896,-1.277407983\H,0,-
 2.273850412,-4.63696664,-1.34433576\\Version=EM64L-G09RevC.01\State=1-
 A\HF=-1002.5447843\RMSD=5.869e-09\Dipole=-1.3233913,0.7122765,0.514723
 3\Quadrupole=2.5364675,5.5023949,-8.0388623,10.001885,-2.3629694,-0.14
 58588\PG=C01 [X(C18H26O4)]\\@


 HE THAT FOLLOWS NATURE IS NEVER LOST.

                             -- BACON
 Job cpu time:  0 days  2 hours  3 minutes 48.6 seconds.
 File lengths (MBytes):  RWF=    239 Int=      0 D2E=      0 Chk=     19 Scr=      1
 Normal termination of Gaussian 09 at Fri Dec 23 15:33:26 2022.
