 Entering Gaussian System, Link 0=g09
 Input=/home/lpassaglia.iquir/Link1/04_RSSR_THC_009.gjc
 Output=/home/lpassaglia.iquir/Link1/04_RSSR_THC_009.log
 Initial command:
 /share/apps/Gaussian09/EM64T.SSE4.2-enabled/g09/l1.exe /tmp/Gau-21310.inp -scrdir=/tmp/
 Entering Link 1 = /share/apps/Gaussian09/EM64T.SSE4.2-enabled/g09/l1.exe PID=     21317.
  
 Copyright (c) 1988,1990,1992,1993,1995,1998,2003,2009,2011,
            Gaussian, Inc.  All Rights Reserved.
  
 This is part of the Gaussian(R) 09 program.  It is based on
 the Gaussian(R) 03 system (copyright 2003, Gaussian, Inc.),
 the Gaussian(R) 98 system (copyright 1998, Gaussian, Inc.),
 the Gaussian(R) 94 system (copyright 1995, Gaussian, Inc.),
 the Gaussian 92(TM) system (copyright 1992, Gaussian, Inc.),
 the Gaussian 90(TM) system (copyright 1990, Gaussian, Inc.),
 the Gaussian 88(TM) system (copyright 1988, Gaussian, Inc.),
 the Gaussian 86(TM) system (copyright 1986, Carnegie Mellon
 University), and the Gaussian 82(TM) system (copyright 1983,
 Carnegie Mellon University). Gaussian is a federally registered
 trademark of Gaussian, Inc.
  
 This software contains proprietary and confidential information,
 including trade secrets, belonging to Gaussian, Inc.
  
 This software is provided under written license and may be
 used, copied, transmitted, or stored only in accord with that
 written license.
  
 The following legend is applicable only to US Government
 contracts under FAR:
  
                    RESTRICTED RIGHTS LEGEND
  
 Use, reproduction and disclosure by the US Government is
 subject to restrictions as set forth in subparagraphs (a)
 and (c) of the Commercial Computer Software - Restricted
 Rights clause in FAR 52.227-19.
  
 Gaussian, Inc.
 340 Quinnipiac St., Bldg. 40, Wallingford CT 06492
  
  
 ---------------------------------------------------------------
 Warning -- This program may not be used in any manner that
 competes with the business of Gaussian, Inc. or will provide
 assistance to any competitor of Gaussian, Inc.  The licensee
 of this program is prohibited from giving any competitor of
 Gaussian, Inc. access to this program.  By using this program,
 the user acknowledges that Gaussian, Inc. is engaged in the
 business of creating and licensing software in the field of
 computational chemistry and represents and warrants to the
 licensee that it is not a competitor of Gaussian, Inc. and that
 it will not use this program in any manner prohibited above.
 ---------------------------------------------------------------
  

 Cite this work as:
 Gaussian 09, Revision C.01,
 M. J. Frisch, G. W. Trucks, H. B. Schlegel, G. E. Scuseria, 
 M. A. Robb, J. R. Cheeseman, G. Scalmani, V. Barone, B. Mennucci, 
 G. A. Petersson, H. Nakatsuji, M. Caricato, X. Li, H. P. Hratchian, 
 A. F. Izmaylov, J. Bloino, G. Zheng, J. L. Sonnenberg, M. Hada, 
 M. Ehara, K. Toyota, R. Fukuda, J. Hasegawa, M. Ishida, T. Nakajima, 
 Y. Honda, O. Kitao, H. Nakai, T. Vreven, J. A. Montgomery, Jr., 
 J. E. Peralta, F. Ogliaro, M. Bearpark, J. J. Heyd, E. Brothers, 
 K. N. Kudin, V. N. Staroverov, T. Keith, R. Kobayashi, J. Normand, 
 K. Raghavachari, A. Rendell, J. C. Burant, S. S. Iyengar, J. Tomasi, 
 M. Cossi, N. Rega, J. M. Millam, M. Klene, J. E. Knox, J. B. Cross, 
 V. Bakken, C. Adamo, J. Jaramillo, R. Gomperts, R. E. Stratmann, 
 O. Yazyev, A. J. Austin, R. Cammi, C. Pomelli, J. W. Ochterski, 
 R. L. Martin, K. Morokuma, V. G. Zakrzewski, G. A. Voth, 
 P. Salvador, J. J. Dannenberg, S. Dapprich, A. D. Daniels, 
 O. Farkas, J. B. Foresman, J. V. Ortiz, J. Cioslowski, 
 and D. J. Fox, Gaussian, Inc., Wallingford CT, 2010.
 
 ******************************************
 Gaussian 09:  EM64L-G09RevC.01 23-Sep-2011
                23-Dec-2022 
 ******************************************
 %chk=04_RSSR_THC_009_optB_NMR
 %nprocshared=4
 Will use up to    4 processors via shared memory.
 ------------------------------------------------
 # mPW1PW91/6-31+G** scrf=(PCM,solvent=water) nmr
 ------------------------------------------------
 1/38=1/1;
 2/12=2,17=6,18=5,40=1/2;
 3/5=1,6=6,7=111,11=2,16=1,25=1,30=1,70=2201,72=1,74=-7/1,2,8,3;
 4//1;
 5/5=2,38=5,53=1/2;
 8/6=1,10=90,11=11/1;
 10/13=100,45=16/2;
 6/7=2,8=2,9=2,10=2,28=1/1;
 99/9=1/99;
 -------
 comment
 -------
 Charge =  0 Multiplicity = 1
 Symbolic Z-Matrix:
 6                     1.69466   2.4061   -1.61571 
 6                     0.97335   3.42759  -0.73345 
 1                     1.53314   4.3718   -0.7234 
 1                    -0.01322   3.65889  -1.14639 
 6                     0.83309   2.95366   0.70806 
 1                     1.83231   2.94892   1.16492 
 6                     0.2248    1.54457   0.87405 
 1                     0.4912    1.28277   1.907 
 6                     0.94941   0.49291  -0.03814 
 1                     1.99589   0.44667   0.30385 
 6                     1.04243   1.00672  -1.50045 
 1                     0.05547   1.04544  -1.96824 
 6                     0.43954  -0.94372   0.19392 
 6                    -0.61034  -3.52839   0.83454 
 6                     0.6128   -1.53268   1.46456 
 6                    -0.21098  -1.7402   -0.76141 
 6                    -0.75291  -2.99102  -0.44521 
 6                     0.09147  -2.79164   1.78919 
 1                    -1.27108  -3.55047  -1.22105 
 1                     0.22724  -3.20517   2.78438 
 8                    -0.33294  -1.39257  -2.07767 
 1                     0.54748  -1.04688  -2.34892 
 8                     1.3397   -0.86503   2.41728 
 1                     1.37395  -1.40692   3.22184 
 8                     1.83611   0.07471  -2.26978 
 1                     2.76028   0.26856  -2.00105 
 6                     1.71964   2.88798  -3.07131 
 1                     0.71003   2.95529  -3.48938 
 1                     2.31504   2.2194   -3.70278 
 1                     2.18927   3.8757   -3.14528 
 8                     3.06286   2.2827   -1.18898 
 1                     3.47055   3.16581  -1.24107 
 1                     0.25131   3.69133   1.27521 
 6                    -1.31082   1.57208   0.85772 
 6                    -1.99221   1.56222   2.01945 
 1                    -3.07776   1.56609   2.04615 
 1                    -1.48434   1.53823   2.97896 
 6                    -2.07426   1.58719  -0.43624 
 1                    -1.76665   2.41799  -1.07295 
 1                    -3.15166   1.70449  -0.27135 
 1                    -1.9421    0.65038  -0.98102 
 6                    -1.20595  -4.86869   1.17481 
 1                    -1.20044  -5.51256   0.28685 
 1                    -0.57805  -5.3739    1.91882 
 6                    -2.62549  -4.73681   1.70492 
 1                    -3.03344  -5.724     1.94393 
 1                    -3.28359  -4.26747   0.96576 
 1                    -2.65481  -4.12804   2.61501 
 
                          Input orientation:                          
 ---------------------------------------------------------------------
 Center     Atomic      Atomic             Coordinates (Angstroms)
 Number     Number       Type             X           Y           Z
 ---------------------------------------------------------------------
      1          6           0        1.694659    2.406104   -1.615710
      2          6           0        0.973351    3.427592   -0.733447
      3          1           0        1.533144    4.371801   -0.723399
      4          1           0       -0.013217    3.658890   -1.146394
      5          6           0        0.833085    2.953656    0.708061
      6          1           0        1.832306    2.948918    1.164917
      7          6           0        0.224801    1.544571    0.874050
      8          1           0        0.491196    1.282766    1.907003
      9          6           0        0.949408    0.492905   -0.038136
     10          1           0        1.995893    0.446671    0.303855
     11          6           0        1.042427    1.006716   -1.500447
     12          1           0        0.055475    1.045442   -1.968244
     13          6           0        0.439537   -0.943724    0.193916
     14          6           0       -0.610338   -3.528391    0.834537
     15          6           0        0.612798   -1.532683    1.464562
     16          6           0       -0.210975   -1.740198   -0.761412
     17          6           0       -0.752906   -2.991016   -0.445214
     18          6           0        0.091475   -2.791635    1.789187
     19          1           0       -1.271084   -3.550470   -1.221047
     20          1           0        0.227240   -3.205175    2.784382
     21          8           0       -0.332940   -1.392566   -2.077668
     22          1           0        0.547480   -1.046879   -2.348918
     23          8           0        1.339704   -0.865026    2.417282
     24          1           0        1.373954   -1.406920    3.221844
     25          8           0        1.836110    0.074708   -2.269781
     26          1           0        2.760282    0.268558   -2.001048
     27          6           0        1.719644    2.887978   -3.071306
     28          1           0        0.710029    2.955285   -3.489376
     29          1           0        2.315043    2.219402   -3.702776
     30          1           0        2.189273    3.875702   -3.145277
     31          8           0        3.062863    2.282701   -1.188979
     32          1           0        3.470550    3.165809   -1.241071
     33          1           0        0.251308    3.691326    1.275206
     34          6           0       -1.310818    1.572077    0.857716
     35          6           0       -1.992210    1.562223    2.019449
     36          1           0       -3.077763    1.566089    2.046150
     37          1           0       -1.484335    1.538226    2.978958
     38          6           0       -2.074261    1.587194   -0.436236
     39          1           0       -1.766652    2.417986   -1.072945
     40          1           0       -3.151659    1.704493   -0.271350
     41          1           0       -1.942103    0.650377   -0.981022
     42          6           0       -1.205948   -4.868689    1.174813
     43          1           0       -1.200440   -5.512557    0.286854
     44          1           0       -0.578052   -5.373904    1.918824
     45          6           0       -2.625491   -4.736812    1.704923
     46          1           0       -3.033441   -5.724002    1.943935
     47          1           0       -3.283587   -4.267473    0.965764
     48          1           0       -2.654814   -4.128045    2.615015
 ---------------------------------------------------------------------
                    Distance matrix (angstroms):
                    1          2          3          4          5
     1  C    0.000000
     2  C    1.530396   0.000000
     3  H    2.164780   1.097724   0.000000
     4  H    2.169463   1.094230   1.754537   0.000000
     5  C    2.538116   1.523888   2.133142   2.156985   0.000000
     6  H    2.836455   2.137924   2.383239   3.041738   1.098719
     7  C    3.016890   2.586531   3.500976   2.934142   1.543723
     8  H    3.888408   3.435801   4.188891   3.901747   2.084760
     9  C    2.589299   3.016027   3.981980   3.489748   2.574031
    10  H    2.759502   3.317752   4.083630   4.056858   2.792934
    11  C    1.548218   2.540414   3.488324   2.876415   2.951594
    12  H    2.159306   2.835817   3.846792   2.740486   3.377657
    13  C    4.008919   4.500374   5.503840   4.815130   3.950797
    14  C    6.821653   7.304269   8.332749   7.479148   6.642018
    15  C    5.115910   5.437423   6.363735   5.844776   4.555003
    16  C    4.642530   5.301836   6.356094   5.416408   5.028089
    17  C    6.040657   6.652937   7.714563   6.727558   6.259755
    18  C    6.417166   6.769061   7.726986   7.087868   5.892978
    19  H    6.665745   7.346332   8.418653   7.318652   7.103002
    20  H    7.280150   7.544892   8.451063   7.913546   6.527584
    21  O    4.330642   5.171775   6.208401   5.146523   5.292405
    22  H    3.711698   4.776192   5.742468   4.889244   5.042913
    23  O    5.204931   5.337404   6.109472   5.915741   4.214312
    24  H    6.167976   6.259179   6.998850   6.831411   5.062239
    25  O    2.425536   3.787679   4.576908   4.186690   4.261683
    26  H    2.419327   3.844403   4.469324   4.462856   4.273536
    27  C    1.533488   2.512712   2.783735   2.702295   3.882514
    28  H    2.186715   2.808480   3.214758   2.551022   4.199241
    29  H    2.185310   3.475166   3.757775   3.745398   4.710712
    30  H    2.178058   2.737918   2.557756   2.982198   4.187796
    31  O    1.438510   2.425768   2.630806   3.370160   3.003474
    32  H    1.967561   2.561682   2.340073   3.519762   3.286387
    33  H    3.477420   2.150718   2.469933   2.436220   1.097394
    34  C    3.980745   3.345469   4.292610   3.170964   2.554893
    35  C    5.245904   4.455624   5.276841   4.281936   3.411468
    36  H    6.073784   5.253844   6.066538   4.895263   4.360110
    37  H    5.654219   4.836515   5.553537   4.866203   3.539894
    38  C    4.033178   3.572581   4.566165   3.007349   3.410175
    39  H    3.503628   2.939759   3.850744   2.149366   3.196492
    40  H    5.078027   4.494253   5.409830   3.799366   4.289270
    41  H    4.087963   4.034116   5.098304   3.577583   3.982432
    42  C    8.314033   8.787439   9.823059   8.917971   8.097196
    43  H    8.643294   9.257033  10.305029   9.358373   8.717190
    44  H    8.842323   9.322432  10.315874   9.555416   8.532615
    45  C    8.983960   9.249584  10.303292   9.243473   8.491100
    46  H   10.056073  10.342844  11.397087  10.330079   9.580143
    47  H    8.716855   8.956722  10.034501   8.830841   8.316135
    48  H    8.916952   9.025709  10.046460   9.042266   8.121108
                    6          7          8          9         10
     6  H    0.000000
     7  C    2.154267   0.000000
     8  H    2.263920   1.098407   0.000000
     9  C    2.873820   1.569439   2.148814   0.000000
    10  H    2.651307   2.160388   2.352286   1.101920   0.000000
    11  C    3.391197   2.568275   3.462769   1.552741   2.116188
    12  H    4.073947   2.890750   3.906880   2.197664   3.047324
    13  C    4.246800   2.588496   2.809731   1.541986   2.089864
    14  C    6.930454   5.141397   5.050821   4.400590   4.782801
    15  C    4.654216   3.157331   2.852594   2.544487   2.679185
    16  C    5.465670   3.695179   4.092895   2.618466   3.284426
    17  C    6.675227   4.823683   5.034473   3.898883   4.464828
    18  C    6.031100   4.433727   4.095656   3.855304   4.039758
    19  H    7.587219   5.708463   6.020838   4.762220   5.382898
    20  H    6.562908   5.119518   4.580510   4.707859   4.755747
    21  O    5.835335   4.201249   4.869723   3.059266   3.804985
    22  H    5.473957   4.148164   4.852141   2.805743   3.371319
    23  O    4.044409   3.070949   2.365028   2.832911   2.572490
    24  H    4.838839   3.942586   3.121294   3.796979   3.512445
    25  O    4.478643   3.826289   4.551232   2.437492   2.605281
    26  H    4.250741   4.040182   4.631439   2.680041   2.434870
    27  C    4.238159   4.427769   5.373020   3.940781   4.174686
    28  H    4.787692   4.611405   5.653859   4.246372   4.726013
    29  H    4.945671   5.076598   5.972715   4.274966   4.392895
    30  H    4.423135   5.044633   5.927252   4.757616   4.867460
    31  O    2.738419   3.585460   4.147101   2.999084   2.595763
    32  H    2.918845   4.199647   4.725755   3.866215   3.457617
    33  H    1.750111   2.184075   2.501574   3.527336   3.809840
    34  C    3.445184   1.535952   2.105222   2.660034   3.536614
    35  C    4.156930   2.495473   2.501608   3.745692   4.482486
    36  H    5.176637   3.504456   3.582890   4.659836   5.480025
    37  H    4.034961   2.711424   2.262094   4.014804   4.523235
    38  C    4.436130   2.646573   3.487838   3.240142   4.291233
    39  H    4.271114   2.918824   3.907262   3.486222   4.465244
    40  H    5.333982   3.569033   4.265380   4.282649   5.330128
    41  H    4.912688   2.989372   3.829040   3.045433   4.147314
    42  C    8.387256   6.577796   6.423145   5.904532   6.266051
    43  H    9.031340   7.223515   7.187693   6.386943   6.762339
    44  H    8.697561   7.042828   6.742009   6.370422   6.566004
    45  C    8.901349   6.947682   6.781585   6.570243   7.084396
    46  H    9.975064   8.036973   7.843418   7.644712   8.127807
    47  H    8.848069   6.789481   6.777910   6.448818   7.108740
    48  H    8.504142   6.595582   6.298851   6.432946   6.920878
                   11         12         13         14         15
    11  C    0.000000
    12  H    1.092890   0.000000
    13  C    2.653028   2.962975   0.000000
    14  C    5.361994   5.405445   2.862365   0.000000
    15  C    3.927391   4.329144   1.411181   2.424015   0.000000
    16  C    3.108492   3.047496   1.403634   2.429852   2.382567
    17  C    4.507615   4.389316   2.453938   1.395300   2.763898
    18  C    5.114047   5.370545   2.465930   1.395245   1.400758
    19  H    5.118431   4.841536   3.423955   2.159282   3.851359
    20  H    6.063358   6.378456   3.445249   2.146602   2.165136
    21  O    2.825132   2.471179   2.440958   3.622104   3.668985
    22  H    2.276429   2.182840   2.547214   4.199147   3.844854
    23  O    4.352056   4.952976   2.399969   3.660773   1.371799
    24  H    5.313716   5.889777   3.202504   3.759958   1.919170
    25  O    1.445838   2.050344   3.009556   5.348292   4.245646
    26  H    1.935589   2.814357   3.416629   5.815363   4.457197
    27  C    2.542709   2.716826   5.194448   7.864745   6.429731
    28  H    2.804149   2.527803   5.370483   7.904281   6.685268
    29  H    2.817874   3.080980   5.357901   7.885569   6.608870
    30  H    3.500258   3.734819   6.118714   8.859873   7.279184
    31  O    2.409837   3.344017   4.382244   7.166298   5.253689
    32  H    3.259561   4.085030   5.304195   8.110124   6.128867
    33  H    3.941731   4.190348   4.763224   7.284294   5.239923
    34  C    3.379102   3.182790   3.135862   5.148397   3.702445
    35  C    4.680520   4.512401   3.940271   5.406287   4.083186
    36  H    5.465090   5.118946   4.701205   5.788775   4.853955
    37  H    5.170309   5.204676   4.197358   5.570729   4.015202
    38  C    3.344135   2.678865   3.622405   5.470571   4.535080
    39  H    3.172596   2.450629   4.215840   6.350981   5.263887
    40  H    4.425825   3.687750   4.486225   5.921518   5.259642
    41  H    3.050278   2.262962   3.097393   4.746783   4.156218
    42  C    6.836123   6.815199   4.367508   1.505635   3.810607
    43  H    7.122206   7.047705   4.855141   2.141283   4.529264
    44  H    7.418199   7.531179   4.861819   2.140710   4.047155
    45  C    7.531011   7.356235   5.105394   2.505732   4.561879
    46  H    8.589471   8.406659   6.162401   3.452954   5.576021
    47  H    7.253527   6.927106   5.050218   2.776639   4.786407
    48  H    7.548005   7.424075   5.057333   2.776610   4.328595
                   16         17         18         19         20
    16  C    0.000000
    17  C    1.399362   0.000000
    18  C    2.775347   2.396932   0.000000
    19  H    2.147598   1.087848   3.390266   0.000000
    20  H    3.861456   3.381840   1.086213   4.290415   0.000000
    21  O    1.366841   2.322998   4.134017   2.504089   5.219089
    22  H    1.891064   3.015752   4.513982   3.293514   5.577774
    23  O    3.643436   4.134336   2.380001   5.221615   2.616990
    24  H    4.299930   4.525506   2.369534   5.597348   2.177164
    25  O    3.124039   4.408028   5.266393   4.888396   6.236238
    26  H    3.794755   5.038644   5.554566   5.607610   6.432998
    27  C    5.521133   6.897277   7.650708   7.336315   8.581542
    28  H    5.507958   6.838538   7.827704   7.169029   8.805930
    29  H    5.541735   6.868223   7.759924   7.232615   8.710234
    30  H    6.556092   7.943461   8.555880   8.415745   9.441888
    31  O    5.204282   6.551746   6.591473   7.267049   7.344736
    32  H    6.152447   7.508492   7.489443   8.221428   8.204435
    33  H    5.819189   6.972946   6.505268   7.809773   7.059739
    34  C    3.847389   4.778149   4.677184   5.528411   5.375853
    35  C    4.670329   5.323760   4.832271   6.095938   5.314053
    36  H    5.199270   5.690260   5.394428   6.333864   5.850896
    37  H    5.134187   5.724856   4.758826   6.601541   5.046504
    38  C    3.827416   4.765088   5.368153   5.258956   6.215793
    39  H    4.450582   5.538865   6.227728   5.990825   7.104542
    40  H    4.555621   5.275609   5.914296   5.661548   6.697708
    41  H    2.959709   3.867947   4.863840   4.260867   5.809440
    42  C    3.811351   2.520990   2.524859   2.735341   2.722502
    43  H    4.038390   2.663528   3.365927   2.475589   3.687808
    44  H    4.530147   3.361162   2.670802   3.696484   2.470035
    45  C    4.570819   3.343272   3.342561   3.435567   3.413095
    46  H    5.581747   4.286966   4.288101   4.224600   4.205101
    47  H    4.337188   3.166157   3.774541   3.057189   4.094112
    48  H    4.803583   3.778239   3.163871   4.118697   3.030941
                   21         22         23         24         25
    21  O    0.000000
    22  H    0.983980   0.000000
    23  O    4.824999   4.835013   0.000000
    24  H    5.567632   5.643233   0.970640   0.000000
    25  O    2.625753   1.710201   4.806046   5.706729   0.000000
    26  H    3.511869   2.597668   4.777520   5.657538   0.981778
    27  C    4.850100   4.168802   6.659879   7.626886   2.927541
    28  H    4.688765   4.164659   7.062569   8.031819   3.324635
    29  H    4.764358   3.952949   6.922434   7.873133   2.623465
    30  H    5.937676   5.249903   7.357876   8.313307   3.916475
    31  O    5.082208   4.331133   5.087493   5.993420   2.747415
    32  H    5.995433   5.245798   5.845654   6.724817   3.644796
    33  H    6.117930   5.972652   4.821751   5.571521   5.306454
    34  C    4.285072   4.538139   3.923899   4.655268   4.682575
    35  C    5.316984   5.686833   4.141432   4.646786   5.938537
    36  H    5.770058   6.267903   5.055895   5.480768   6.708027
    37  H    5.956905   6.260775   3.750506   4.111289   6.380948
    38  C    3.821710   4.179739   5.080463   5.851192   4.576079
    39  H    4.193484   4.357592   5.710456   6.552750   4.461307
    40  H    4.560673   5.056676   5.831253   6.508799   5.614959
    41  H    2.822349   3.309054   4.961368   5.735223   4.033260
    42  C    4.839856   5.486112   4.904426   4.778082   6.749557
    43  H    4.828856   5.472184   5.708818   5.665503   6.853798
    44  H    5.646511   6.180906   4.925062   4.609246   7.284227
    45  C    5.545067   6.333796   5.587572   5.420774   7.671693
    46  H    6.498256   7.288831   6.554243   6.300426   8.665619
    47  H    5.121903   6.003034   5.921011   5.913150   7.452153
    48  H    5.907217   6.662499   5.161643   4.899360   7.854473
                   26         27         28         29         30
    26  H    0.000000
    27  C    3.014919   0.000000
    28  H    3.692853   1.094823   0.000000
    29  H    2.626768   1.095558   1.778521   0.000000
    30  H    3.827114   1.096186   1.775876   1.752128   0.000000
    31  O    2.192666   2.390345   3.358575   2.623435   2.669815
    32  H    3.078329   2.548062   3.566465   2.879387   2.402420
    33  H    5.361355   4.657633   4.842873   5.586221   4.830153
    34  C    5.142524   5.133470   4.989419   5.862081   5.794936
    35  C    6.357998   6.438266   6.292048   7.192230   7.036432
    36  H    7.221231   7.137988   6.849766   7.909446   7.747703
    37  H    6.665530   6.978037   6.975861   7.716531   7.514350
    38  C    5.249785   4.798890   4.352655   5.507809   5.545619
    39  H    5.096523   4.045813   3.501682   4.859597   4.697749
    40  H    6.324936   5.741949   5.180039   6.474925   6.441984
    41  H    4.826868   4.773315   4.317204   5.290849   5.670537
    42  C    7.225536   9.314209   9.308072   9.296736  10.327395
    43  H    7.371778   9.506478   9.466476   9.383974  10.555051
    44  H    7.638537   9.921668  10.014149   9.880825  10.902221
    45  C    8.233741   9.991495   9.862799  10.101535  10.994626
    46  H    9.221761  11.041315  10.902498  11.117072  12.055336
    47  H    8.118245   9.619290   9.378991   9.758047  10.637864
    48  H    8.364294  10.034674   9.937772  10.242267  10.986633
                   31         32         33         34         35
    31  O    0.000000
    32  H    0.974064   0.000000
    33  H    3.995156   4.119628   0.000000
    34  C    4.880885   5.459520   2.665661   0.000000
    35  C    6.030494   6.560809   3.181249   1.346853   0.000000
    36  H    6.977599   7.499688   4.024140   2.129438   1.085889
    37  H    6.213128   6.708841   3.248240   2.128596   1.085896
    38  C    5.238358   5.821057   3.572768   1.502460   2.457182
    39  H    4.832803   5.292994   3.347741   2.156571   3.216536
    40  H    6.308459   6.850507   4.233145   2.163566   2.571443
    41  H    5.268530   5.974264   4.375955   2.151513   3.136367
    42  C    8.657519   9.605169   8.683750   6.449420   6.533625
    43  H    9.006658   9.973301   9.369945   7.108454   7.326753
    44  H    9.029856   9.965079   9.125813   7.064669   7.079536
    45  C    9.487128  10.406344   8.915948   6.499862   6.338598
    46  H   10.539799  11.466249   9.994256   7.574963   7.360635
    47  H    9.371506  10.283100   8.713995   6.164725   6.063272
    48  H    9.394672  10.275688   8.448857   6.114394   5.759592
                   36         37         38         39         40
    36  H    0.000000
    37  H    1.846597   0.000000
    38  C    2.677630   3.466116   0.000000
    39  H    3.489054   4.155911   1.090980   0.000000
    40  H    2.322805   3.656790   1.096236   1.752105   0.000000
    41  H    3.360361   4.084026   1.091735   1.778672   1.754372
    42  C    6.757905   6.661906   6.710281   7.646073   7.005990
    43  H    7.531713   7.552587   7.189777   8.066174   7.496977
    44  H    7.377552   7.051438   7.499456   8.430718   7.843725
    45  C    6.328313   6.503961   6.699364   7.723036   6.758174
    46  H    7.290942   7.497396   7.748473   8.774866   7.752677
    47  H    5.936332   6.402842   6.140456   7.152118   6.100183
    48  H    5.738088   5.797336   6.504701   7.565738   6.526596
                   41         42         43         44         45
    41  H    0.000000
    42  C    5.970731   0.000000
    43  H    6.335561   1.096845   0.000000
    44  H    6.823613   1.096835   1.752118   0.000000
    45  C    6.058310   1.521023   2.154871   2.154912   0.000000
    46  H    7.097823   2.159361   2.480024   2.480349   1.094574
    47  H    5.456629   2.172958   2.520051   3.074481   1.095320
    48  H    6.022686   2.173004   3.074477   2.519878   1.095320
                   46         47         48
    46  H    0.000000
    47  H    1.772249   0.000000
    48  H    1.772226   1.770543   0.000000
 Stoichiometry    C18H26O4
 Framework group  C1[X(C18H26O4)]
 Deg. of freedom   138
 Full point group                 C1      NOp   1
 Largest Abelian subgroup         C1      NOp   1
 Largest concise Abelian subgroup C1      NOp   1
                         Standard orientation:                         
 ---------------------------------------------------------------------
 Center     Atomic      Atomic             Coordinates (Angstroms)
 Number     Number       Type             X           Y           Z
 ---------------------------------------------------------------------
      1          6           0        3.264113   -0.649759    0.077719
      2          6           0        3.590341    0.828623   -0.146055
      3          1           0        4.606081    1.043701    0.210333
      4          1           0        3.582861    1.063230   -1.214813
      5          6           0        2.631348    1.753443    0.593727
      6          1           0        2.824958    1.655595    1.670817
      7          6           0        1.133834    1.469141    0.349378
      8          1           0        0.644716    2.007251    1.172603
      9          6           0        0.792895   -0.047881    0.562786
     10          1           0        1.006911   -0.273535    1.619907
     11          6           0        1.776896   -0.948374   -0.232110
     12          1           0        1.620947   -0.847859   -1.309136
     13          6           0       -0.716340   -0.338915    0.439374
     14          6           0       -3.555780   -0.635072    0.231986
     15          6           0       -1.604764    0.262689    1.356002
     16          6           0       -1.309815   -1.158278   -0.533570
     17          6           0       -2.698100   -1.281969   -0.658391
     18          6           0       -2.995694    0.132357    1.253781
     19          1           0       -3.100584   -1.909770   -1.450405
     20          1           0       -3.650034    0.626512    1.966179
     21          8           0       -0.597015   -1.933290   -1.405079
     22          1           0        0.109977   -2.361014   -0.870822
     23          8           0       -1.095105    0.984294    2.405462
     24          1           0       -1.831249    1.317177    2.943444
     25          8           0        1.515159   -2.330151    0.103496
     26          1           0        1.919485   -2.441601    0.991183
     27          6           0        4.193861   -1.530499   -0.765758
     28          1           0        4.037516   -1.368568   -1.837192
     29          1           0        4.042835   -2.593466   -0.547721
     30          1           0        5.244325   -1.318232   -0.535342
     31          8           0        3.496283   -0.990545    1.455860
     32          1           0        4.426299   -0.784740    1.659616
     33          1           0        2.869430    2.794980    0.343144
     34          6           0        0.617201    2.148331   -0.927705
     35          6           0       -0.034611    3.323912   -0.843075
     36          1           0       -0.426558    3.825491   -1.722820
     37          1           0       -0.205946    3.814297    0.110517
     38          6           0        0.805343    1.513409   -2.276357
     39          1           0        1.856074    1.295711   -2.473356
     40          1           0        0.467135    2.170612   -3.085946
     41          1           0        0.226658    0.591488   -2.360439
     42          6           0       -5.049185   -0.759921    0.086765
     43          1           0       -5.300040   -1.744568   -0.326284
     44          1           0       -5.521437   -0.717428    1.075815
     45          6           0       -5.622456    0.331880   -0.803651
     46          1           0       -6.707473    0.217550   -0.891738
     47          1           0       -5.193780    0.289122   -1.810693
     48          1           0       -5.418197    1.326895   -0.393835
 ---------------------------------------------------------------------
 Rotational constants (GHZ):      0.4917642      0.1866580      0.1699008
 Standard basis: 6-31+G(d,p) (6D, 7F)
 There are   548 symmetry adapted basis functions of A   symmetry.
 Integral buffers will be    131072 words long.
 Raffenetti 2 integral format.
 Two-electron integral symmetry is turned on.
   548 basis functions,   886 primitive gaussians,   548 cartesian basis functions
    83 alpha electrons       83 beta electrons
       nuclear repulsion energy      1986.7720730101 Hartrees.
 NAtoms=   48 NActive=   48 NUniq=   48 SFac= 1.00D+00 NAtFMM=   60 NAOKFM=F Big=F
 ------------------------------------------------------------------------------
 Polarizable Continuum Model (PCM)
 =================================
 Model                : PCM.
 Atomic radii         : UFF (Universal Force Field).
 Polarization charges : Total charges.
 Charge compensation  : None.
 Solution method      : Matrix inversion.
 Cavity type          : Scaled VdW (van der Waals Surface) (Alpha=1.100).
 Cavity algorithm     : GePol (No added spheres)
                        Default sphere list used, NSphG=   48.
                        Lebedev-Laikov grids with approx.  5.0 points / Ang**2.
                        Smoothing algorithm: Karplus/York (Gamma=1.0000).
                        Polarization charges: spherical gaussians, with
                                              point-specific exponents (IZeta= 3).
                        Self-potential: point-specific (ISelfS= 7).
                        Self-field    : sphere-specific E.n sum rule (ISelfD= 2).
 Solvent              : Water, Eps=  78.355300 Eps(inf)=   1.777849
 ------------------------------------------------------------------------------
 One-electron integrals computed using PRISM.
 NBasis=   548 RedAO= T  NBF=   548
 NBsUse=   545 1.00D-06 NBFU=   545
 Harris functional with IExCor=  908 diagonalized for initial guess.
 ExpMin= 4.38D-02 ExpMax= 5.48D+03 ExpMxC= 8.25D+02 IAcc=2 IRadAn=         4 AccDes= 0.00D+00
 HarFok:  IExCor=  908 AccDes= 0.00D+00 IRadAn=         4 IDoV= 1
 ScaDFX=  1.000000  1.000000  1.000000  1.000000
 FoFCou: FMM=F IPFlag=           0 FMFlag=      100000 FMFlg1=           0
         NFxFlg=           0 DoJE=T BraDBF=F KetDBF=T FulRan=T
         Omega=  0.000000  0.000000  1.000000  0.000000  0.000000 ICntrl=     500 IOpCl=  0
         NMat0=    1 NMatS0=    1 NMatT0=    0 NMatD0=    1 NMtDS0=    0 NMtDT0=    0
         I1Cent=           4 NGrid=           0.
 Petite list used in FoFCou.
 Initial guess orbital symmetries:
       Occupied  (A) (A) (A) (A) (A) (A) (A) (A) (A) (A) (A) (A)
                 (A) (A) (A) (A) (A) (A) (A) (A) (A) (A) (A) (A)
                 (A) (A) (A) (A) (A) (A) (A) (A) (A) (A) (A) (A)
                 (A) (A) (A) (A) (A) (A) (A) (A) (A) (A) (A) (A)
                 (A) (A) (A) (A) (A) (A) (A) (A) (A) (A) (A) (A)
                 (A) (A) (A) (A) (A) (A) (A) (A) (A) (A) (A) (A)
                 (A) (A) (A) (A) (A) (A) (A) (A) (A) (A) (A)
       Virtual   (A) (A) (A) (A) (A) (A) (A) (A) (A) (A) (A) (A)
                 (A) (A) (A) (A) (A) (A) (A) (A) (A) (A) (A) (A)
                 (A) (A) (A) (A) (A) (A) (A) (A) (A) (A) (A) (A)
                 (A) (A) (A) (A) (A) (A) (A) (A) (A) (A) (A) (A)
                 (A) (A) (A) (A) (A) (A) (A) (A) (A) (A) (A) (A)
                 (A) (A) (A) (A) (A) (A) (A) (A) (A) (A) (A) (A)
                 (A) (A) (A) (A) (A) (A) (A) (A) (A) (A) (A) (A)
                 (A) (A) (A) (A) (A) (A) (A) (A) (A) (A) (A) (A)
                 (A) (A) (A) (A) (A) (A) (A) (A) (A) (A) (A) (A)
                 (A) (A) (A) (A) (A) (A) (A) (A) (A) (A) (A) (A)
                 (A) (A) (A) (A) (A) (A) (A) (A) (A) (A) (A) (A)
                 (A) (A) (A) (A) (A) (A) (A) (A) (A) (A) (A) (A)
                 (A) (A) (A) (A) (A) (A) (A) (A) (A) (A) (A) (A)
                 (A) (A) (A) (A) (A) (A) (A) (A) (A) (A) (A) (A)
                 (A) (A) (A) (A) (A) (A) (A) (A) (A) (A) (A) (A)
                 (A) (A) (A) (A) (A) (A) (A) (A) (A) (A) (A) (A)
                 (A) (A) (A) (A) (A) (A) (A) (A) (A) (A) (A) (A)
                 (A) (A) (A) (A) (A) (A) (A) (A) (A) (A) (A) (A)
                 (A) (A) (A) (A) (A) (A) (A) (A) (A) (A) (A) (A)
                 (A) (A) (A) (A) (A) (A) (A) (A) (A) (A) (A) (A)
                 (A) (A) (A) (A) (A) (A) (A) (A) (A) (A) (A) (A)
                 (A) (A) (A) (A) (A) (A) (A) (A) (A) (A) (A) (A)
                 (A) (A) (A) (A) (A) (A) (A) (A) (A) (A) (A) (A)
                 (A) (A) (A) (A) (A) (A) (A) (A) (A) (A) (A) (A)
                 (A) (A) (A) (A) (A) (A) (A) (A) (A) (A) (A) (A)
                 (A) (A) (A) (A) (A) (A) (A) (A) (A) (A) (A) (A)
                 (A) (A) (A) (A) (A) (A) (A) (A) (A) (A) (A) (A)
                 (A) (A) (A) (A) (A) (A) (A) (A) (A) (A) (A) (A)
                 (A) (A) (A) (A) (A) (A) (A) (A) (A) (A) (A) (A)
                 (A) (A) (A) (A) (A) (A) (A) (A) (A) (A) (A) (A)
                 (A) (A) (A) (A) (A) (A) (A) (A) (A) (A) (A) (A)
                 (A) (A) (A) (A) (A) (A) (A) (A) (A) (A) (A) (A)
                 (A) (A) (A) (A) (A) (A) (A) (A) (A) (A) (A) (A)
                 (A) (A) (A) (A) (A) (A) (A) (A) (A) (A) (A) (A)
                 (A) (A) (A) (A) (A) (A) (A) (A) (A) (A) (A) (A)
                 (A) (A) (A) (A) (A) (A) (A) (A) (A) (A) (A) (A)
                 (A) (A) (A) (A) (A) (A) (A) (A) (A) (A) (A) (A)
                 (A) (A) (A) (A) (A) (A) (A) (A) (A) (A) (A) (A)
                 (A) (A) (A) (A) (A) (A)
 The electronic state of the initial guess is 1-A.
 Requested convergence on RMS density matrix=1.00D-08 within 128 cycles.
 Requested convergence on MAX density matrix=1.00D-06.
 Requested convergence on             energy=1.00D-06.
 No special actions if energy rises.
 CoulSu:  requested number of processors reduced to:   3 ShMem   1 Linda.
 CoulSu:  requested number of processors reduced to:   3 ShMem   1 Linda.
 Error on total polarization charges =  0.01911
 SCF Done:  E(RmPW1PW91) =  -1002.30228189     A.U. after   14 cycles
             Convg  =    0.5140D-08             -V/T =  2.0094
 Range of M.O.s used for correlation:     1   545
 NBasis=   548 NAE=    83 NBE=    83 NFC=     0 NFV=     0
 NROrb=    545 NOA=    83 NOB=    83 NVA=   462 NVB=   462

 **** Warning!!: The largest alpha MO coefficient is  0.15904609D+03

 NEqPCM:  Using equilibrium solvation (IEInf=0, Eps=  78.3553, EpsInf=   1.7778)
          Differentiating once with respect to magnetic field using GIAOs.
          Electric field/nuclear overlap derivatives assumed to be zero.
 FoFCou: FMM=F IPFlag=           0 FMFlag=    10101102 FMFlg1=           0
         NFxFlg=    40000000 DoJE=F BraDBF=F KetDBF=T FulRan=T
         Omega=  0.000000  0.000000  1.000000  0.000000  0.000000 ICntrl=    6100 IOpCl=  0
         NMat0=    1 NMatS0=    1 NMatT0=    0 NMatD0=    1 NMtDS0=    0 NMtDT0=    0
         I1Cent=           7 NGrid=        2963.
 Symmetry not used in FoFCou.
          There are     3 degrees of freedom in the 1st order CPHF.  IDoFFX=0.
      3 vectors produced by pass  0 Test12= 1.28D-12 3.33D-08 XBig12= 6.33D+02 3.53D+00.
 AX will form     3 AO Fock derivatives at one time.
      3 vectors produced by pass  1 Test12= 1.28D-12 3.33D-08 XBig12= 1.63D+00 2.53D-01.
      3 vectors produced by pass  2 Test12= 1.28D-12 3.33D-08 XBig12= 6.26D-03 2.57D-02.
      3 vectors produced by pass  3 Test12= 1.28D-12 3.33D-08 XBig12= 3.09D-05 1.37D-03.
      3 vectors produced by pass  4 Test12= 1.28D-12 3.33D-08 XBig12= 1.00D-07 5.76D-05.
      3 vectors produced by pass  5 Test12= 1.28D-12 3.33D-08 XBig12= 3.77D-10 4.73D-06.
      3 vectors produced by pass  6 Test12= 1.28D-12 3.33D-08 XBig12= 1.81D-12 3.35D-07.
 Inverted reduced A of dimension    21 with in-core refinement.
 Calculating GIAO nuclear magnetic shielding tensors.
 SCF GIAO Magnetic shielding tensor (ppm):
      1  C    Isotropic =   122.8620   Anisotropy =    41.4242
   XX=   107.5536   YX=    -1.4274   ZX=     7.4733
   XY=    -2.9347   YY=   112.6879   ZY=    -9.1855
   XZ=     7.4639   YZ=    -1.2676   ZZ=   148.3446
   Eigenvalues:   105.9755   112.1324   150.4782
      2  C    Isotropic =   157.2661   Anisotropy =    25.6934
   XX=   154.0091   YX=     2.0266   ZX=     0.9600
   XY=     1.0779   YY=   174.2225   ZY=    -4.6390
   XZ=     3.6869   YZ=     1.7076   ZZ=   143.5668
   Eigenvalues:   142.9740   154.4293   174.3951
      3  H    Isotropic =    30.0502   Anisotropy =     9.0326
   XX=    35.6838   YX=     1.0892   ZX=     0.3604
   XY=     2.0388   YY=    29.1516   ZY=     1.2462
   XZ=     0.3498   YZ=     0.9703   ZZ=    25.3151
   Eigenvalues:    25.0176    29.0610    36.0719
      4  H    Isotropic =    29.4771   Anisotropy =     6.0359
   XX=    28.5539   YX=    -1.2878   ZX=    -2.1358
   XY=    -0.0031   YY=    28.6012   ZY=    -3.0751
   XZ=    -1.6959   YZ=    -2.7691   ZZ=    31.2764
   Eigenvalues:    25.7592    29.1712    33.5011
      5  C    Isotropic =   163.7012   Anisotropy =    30.1921
   XX=   182.3605   YX=     3.7716   ZX=     8.5590
   XY=     0.7984   YY=   162.4249   ZY=    -1.8641
   XZ=     5.5679   YZ=    -4.2142   ZZ=   146.3181
   Eigenvalues:   144.3376   162.9367   183.8292
      6  H    Isotropic =    29.0367   Anisotropy =     7.5716
   XX=    28.7700   YX=    -0.4991   ZX=     3.3370
   XY=    -0.1718   YY=    26.9761   ZY=     3.6390
   XZ=     2.0860   YZ=     2.8598   ZZ=    31.3640
   Eigenvalues:    24.5685    28.4572    34.0844
      7  C    Isotropic =   149.0672   Anisotropy =    24.3788
   XX=   149.1393   YX=    -7.2573   ZX=     9.4681
   XY=    -0.3919   YY=   150.9776   ZY=    -9.3536
   XZ=     7.8138   YZ=   -13.6193   ZZ=   147.0846
   Eigenvalues:   135.7527   146.1291   165.3197
      8  H    Isotropic =    27.6533   Anisotropy =     7.1928
   XX=    29.1914   YX=    -1.0228   ZX=    -3.7435
   XY=    -0.0594   YY=    27.7948   ZY=     1.8194
   XZ=    -4.2466   YZ=     2.2147   ZZ=    25.9737
   Eigenvalues:    22.8725    27.6388    32.4485
      9  C    Isotropic =   150.2595   Anisotropy =    30.1438
   XX=   145.2524   YX=    -6.7239   ZX=    -5.2352
   XY=     2.8700   YY=   170.1015   ZY=    -0.0363
   XZ=     0.2334   YZ=     3.4859   ZZ=   135.4246
   Eigenvalues:   134.7815   145.6416   170.3553
     10  H    Isotropic =    27.9469   Anisotropy =     4.5238
   XX=    30.3934   YX=    -0.7002   ZX=    -1.0271
   XY=    -2.5355   YY=    24.0197   ZY=    -0.1539
   XZ=    -0.0436   YZ=     0.2236   ZZ=    29.4276
   Eigenvalues:    23.6312    29.2468    30.9628
     11  C    Isotropic =   121.2851   Anisotropy =    42.4261
   XX=   117.2491   YX=     5.5686   ZX=    -6.9059
   XY=    11.6624   YY=   145.5107   ZY=    -4.3810
   XZ=    -5.3453   YZ=   -10.6135   ZZ=   101.0955
   Eigenvalues:    98.5780   115.7081   149.5692
     12  H    Isotropic =    26.5719   Anisotropy =     2.5235
   XX=    26.8504   YX=     0.0898   ZX=     0.6481
   XY=    -0.0543   YY=    25.7525   ZY=    -1.2662
   XZ=     1.5942   YZ=    -0.3309   ZZ=    27.1129
   Eigenvalues:    25.1893    26.2723    28.2543
     13  C    Isotropic =    86.7325   Anisotropy =   120.1149
   XX=    41.7247   YX=    -6.7700   ZX=     8.3444
   XY=    -0.8148   YY=   126.6299   ZY=   -54.4724
   XZ=     3.7641   YZ=   -54.5538   ZZ=    91.8427
   Eigenvalues:    40.7506    52.6377   166.8091
     14  C    Isotropic =    51.1136   Anisotropy =   190.0996
   XX=   -29.8926   YX=   -12.1298   ZX=     0.2251
   XY=   -14.2906   YY=   114.0283   ZY=   -84.9826
   XZ=     3.6111   YZ=   -80.1935   ZZ=    69.2050
   Eigenvalues:   -31.6644     7.1585   177.8466
     15  C    Isotropic =    43.1907   Anisotropy =   124.3359
   XX=    33.8728   YX=   -15.1300   ZX=   -20.2299
   XY=   -15.3956   YY=    74.1057   ZY=   -77.6514
   XZ=    -9.6911   YZ=   -69.3830   ZZ=    21.5937
   Eigenvalues:   -36.5026    39.9934   126.0813
     16  C    Isotropic =    42.6574   Anisotropy =   120.6917
   XX=    18.7364   YX=    29.6877   ZX=    26.3118
   XY=    18.8936   YY=    69.7742   ZY=   -57.1034
   XZ=    19.8382   YZ=   -76.0528   ZZ=    39.4617
   Eigenvalues:   -34.4312    39.2849   123.1185
     17  C    Isotropic =    83.5127   Anisotropy =   110.5123
   XX=    77.2486   YX=   -15.3930   ZX=   -22.4668
   XY=   -19.2519   YY=    99.0824   ZY=   -78.0449
   XZ=   -22.3393   YZ=   -60.7980   ZZ=    74.2072
   Eigenvalues:     5.0288    88.3218   157.1876
     18  C    Isotropic =    89.9578   Anisotropy =    97.9053
   XX=    68.7485   YX=    21.8776   ZX=    29.6103
   XY=    25.6430   YY=   119.0733   ZY=   -48.7809
   XZ=    26.8180   YZ=   -53.7918   ZZ=    82.0517
   Eigenvalues:    18.9071    95.7383   155.2280
     19  H    Isotropic =    24.8770   Anisotropy =     7.5263
   XX=    29.4164   YX=    -0.9116   ZX=    -1.3735
   XY=    -0.6999   YY=    22.8488   ZY=     1.8259
   XZ=    -1.5189   YZ=     1.7711   ZZ=    22.3658
   Eigenvalues:    20.7537    23.9827    29.8945
     20  H    Isotropic =    25.2156   Anisotropy =     7.0068
   XX=    28.2903   YX=     1.8510   ZX=     1.8036
   XY=     1.5761   YY=    22.3435   ZY=     1.7658
   XZ=     1.8432   YZ=     2.3004   ZZ=    25.0129
   Eigenvalues:    21.1766    24.5833    29.8868
     21  O    Isotropic =   239.1873   Anisotropy =    61.0279
   XX=   210.0117   YX=    -8.7244   ZX=   -23.3064
   XY=   -18.9832   YY=   263.5019   ZY=   -35.9649
   XZ=   -17.7091   YZ=   -12.4692   ZZ=   244.0482
   Eigenvalues:   192.5670   245.1223   279.8725
     22  H    Isotropic =    23.5486   Anisotropy =    24.7550
   XX=    31.5554   YX=    -4.1757   ZX=    11.1336
   XY=    -7.9236   YY=    19.5124   ZY=    -0.5136
   XZ=    12.2109   YZ=     0.1584   ZZ=    19.5781
   Eigenvalues:    11.2124    19.3816    40.0520
     23  O    Isotropic =   224.3625   Anisotropy =    45.7403
   XX=   190.1711   YX=     4.8593   ZX=    12.5161
   XY=    26.4210   YY=   234.9447   ZY=    -3.7057
   XZ=    27.3734   YZ=     0.9453   ZZ=   247.9717
   Eigenvalues:   179.6855   238.5459   254.8561
     24  H    Isotropic =    26.5405   Anisotropy =    15.2743
   XX=    29.9781   YX=    -1.8153   ZX=    -4.8379
   XY=    -2.7573   YY=    21.4443   ZY=     5.6007
   XZ=    -6.0128   YZ=     6.2579   ZZ=    28.1991
   Eigenvalues:    17.9391    24.9590    36.7234
     25  O    Isotropic =   289.7376   Anisotropy =    53.3781
   XX=   271.0394   YX=   -22.2163   ZX=    19.4965
   XY=   -18.2054   YY=   300.8053   ZY=   -12.1771
   XZ=    16.2349   YZ=   -13.2552   ZZ=   297.3679
   Eigenvalues:   257.6344   286.2554   325.3229
     26  H    Isotropic =    28.2328   Anisotropy =    15.2473
   XX=    25.8620   YX=     2.3968   ZX=     6.7053
   XY=    -0.1496   YY=    26.3295   ZY=    -5.0810
   XZ=     7.8524   YZ=    -5.1495   ZZ=    32.5069
   Eigenvalues:    19.0672    27.2336    38.3976
     27  C    Isotropic =   166.1321   Anisotropy =    47.2745
   XX=   164.5931   YX=   -18.4520   ZX=   -15.3519
   XY=   -16.2009   YY=   159.3655   ZY=    15.5320
   XZ=   -11.3771   YZ=    16.0642   ZZ=   174.4378
   Eigenvalues:   143.8926   156.8553   197.6485
     28  H    Isotropic =    30.4160   Anisotropy =     9.6649
   XX=    28.4486   YX=    -1.4930   ZX=    -2.7055
   XY=    -1.2452   YY=    26.8273   ZY=     1.8875
   XZ=    -1.6114   YZ=     1.0252   ZZ=    35.9722
   Eigenvalues:    26.0419    28.3469    36.8593
     29  H    Isotropic =    29.6090   Anisotropy =     8.1178
   XX=    29.5945   YX=    -2.5293   ZX=    -1.5427
   XY=    -1.5057   YY=    33.9544   ZY=     0.5693
   XZ=    -1.5193   YZ=     1.7252   ZZ=    25.2781
   Eigenvalues:    24.7621    29.0440    35.0209
     30  H    Isotropic =    30.6657   Anisotropy =     9.1142
   XX=    36.3688   YX=    -1.0336   ZX=    -0.4682
   XY=    -2.0146   YY=    28.0921   ZY=     0.6583
   XZ=    -1.2080   YZ=     0.9197   ZZ=    27.5363
   Eigenvalues:    26.9726    28.2827    36.7418
     31  O    Isotropic =   271.2586   Anisotropy =    81.9892
   XX=   306.5106   YX=     7.7562   ZX=    37.2810
   XY=    21.5604   YY=   233.7991   ZY=     5.0353
   XZ=    22.8810   YZ=    -7.0104   ZZ=   273.4663
   Eigenvalues:   229.5985   258.2593   325.9181
     32  H    Isotropic =    30.6501   Anisotropy =    18.0256
   XX=    38.9605   YX=     1.9377   ZX=     6.2288
   XY=     1.7266   YY=    23.3106   ZY=    -0.6702
   XZ=     7.3930   YZ=    -0.1536   ZZ=    29.6792
   Eigenvalues:    22.7590    26.5242    42.6671
     33  H    Isotropic =    30.0848   Anisotropy =     9.1778
   XX=    29.8662   YX=     2.1777   ZX=     0.2992
   XY=     2.1946   YY=    35.4241   ZY=     0.5993
   XZ=     0.0491   YZ=     0.3422   ZZ=    24.9640
   Eigenvalues:    24.9416    29.1095    36.2033
     34  C    Isotropic =    42.1066   Anisotropy =   184.9685
   XX=   129.9761   YX=    58.0462   ZX=   -17.1163
   XY=    55.3616   YY=    68.7952   ZY=   -11.5195
   XZ=   -16.4969   YZ=    -8.3945   ZZ=   -72.4514
   Eigenvalues:   -74.0556    34.9566   165.4189
     35  C    Isotropic =    85.3424   Anisotropy =    94.9845
   XX=   134.1270   YX=    18.6962   ZX=   -22.1994
   XY=    13.8889   YY=   126.0060   ZY=     1.2832
   XZ=   -19.6373   YZ=    -0.8697   ZZ=    -4.1058
   Eigenvalues:    -7.2530   114.6147   148.6654
     36  H    Isotropic =    26.6661   Anisotropy =     6.7992
   XX=    26.2359   YX=    -1.8306   ZX=     0.1981
   XY=    -1.9335   YY=    30.2645   ZY=    -2.6853
   XZ=    -1.1621   YZ=    -0.2797   ZZ=    23.4981
   Eigenvalues:    22.9342    25.8653    31.1989
     37  H    Isotropic =    26.7466   Anisotropy =     7.8644
   XX=    26.7764   YX=    -2.7707   ZX=    -1.7398
   XY=    -1.5133   YY=    31.0787   ZY=     1.6098
   XZ=    -0.4575   YZ=    -1.4393   ZZ=    22.3847
   Eigenvalues:    22.1044    26.1458    31.9895
     38  C    Isotropic =   171.0046   Anisotropy =    29.4986
   XX=   160.1618   YX=    -5.7222   ZX=    -0.1416
   XY=    -6.3047   YY=   164.7990   ZY=     6.7855
   XZ=    -3.5411   YZ=     8.2199   ZZ=   188.0530
   Eigenvalues:   155.7727   166.5707   190.6703
     39  H    Isotropic =    29.7099   Anisotropy =     5.6580
   XX=    32.1985   YX=    -2.3253   ZX=    -0.8742
   XY=    -1.9515   YY=    26.0546   ZY=    -1.8489
   XZ=    -2.3915   YZ=    -0.7365   ZZ=    30.8766
   Eigenvalues:    24.8748    30.7730    33.4819
     40  H    Isotropic =    29.7146   Anisotropy =     9.0228
   XX=    26.4933   YX=    -1.9386   ZX=     1.0170
   XY=    -1.1500   YY=    29.2789   ZY=    -2.7345
   XZ=     1.3711   YZ=    -4.2547   ZZ=    33.3716
   Eigenvalues:    25.7816    27.6324    35.7298
     41  H    Isotropic =    29.4960   Anisotropy =     5.7540
   XX=    27.1747   YX=     3.1752   ZX=     1.6305
   XY=     3.9854   YY=    31.2466   ZY=    -1.5589
   XZ=     0.7269   YZ=     0.3980   ZZ=    30.0668
   Eigenvalues:    24.7677    30.3883    33.3320
     42  C    Isotropic =   163.7597   Anisotropy =    29.1730
   XX=   182.8696   YX=     6.7181   ZX=    -1.1748
   XY=    -4.0000   YY=   152.6330   ZY=     2.9019
   XZ=     6.2988   YZ=     4.9885   ZZ=   155.7764
   Eigenvalues:   149.9549   158.1158   183.2084
     43  H    Isotropic =    29.1024   Anisotropy =     7.3184
   XX=    29.8438   YX=     2.1146   ZX=     1.3942
   XY=     1.8754   YY=    32.5015   ZY=     2.1432
   XZ=    -0.2385   YZ=     1.6028   ZZ=    24.9620
   Eigenvalues:    24.5200    28.8059    33.9813
     44  H    Isotropic =    29.2211   Anisotropy =     7.4558
   XX=    30.6672   YX=     0.2252   ZX=    -2.8382
   XY=     1.7817   YY=    24.9510   ZY=    -1.1206
   XZ=    -2.2647   YZ=    -0.7014   ZZ=    32.0453
   Eigenvalues:    24.7440    28.7277    34.1917
     45  C    Isotropic =   177.3918   Anisotropy =    30.2960
   XX=   181.3950   YX=    -4.7429   ZX=     5.8877
   XY=   -15.1738   YY=   176.7782   ZY=   -10.8690
   XZ=    14.1462   YZ=    -8.7753   ZZ=   174.0022
   Eigenvalues:   165.2982   169.2882   197.5891
     46  H    Isotropic =    30.3012   Anisotropy =    12.0356
   XX=    37.3068   YX=    -0.6141   ZX=     2.2078
   XY=    -2.5711   YY=    26.6820   ZY=    -0.8401
   XZ=     3.6292   YZ=    -0.5871   ZZ=    26.9147
   Eigenvalues:    25.9733    26.6053    38.3249
     47  H    Isotropic =    30.6409   Anisotropy =     7.1258
   XX=    29.5137   YX=    -1.2144   ZX=    -0.3062
   XY=    -2.0088   YY=    27.2495   ZY=    -2.1613
   XZ=     0.1334   YZ=    -0.5516   ZZ=    35.1595
   Eigenvalues:    26.2374    30.2939    35.3915
     48  H    Isotropic =    30.6424   Anisotropy =     7.0665
   XX=    29.0951   YX=    -1.0416   ZX=     1.2955
   XY=    -1.9221   YY=    34.9161   ZY=     1.7992
   XZ=     2.0774   YZ=     0.5527   ZZ=    27.9159
   Eigenvalues:    26.3313    30.2424    35.3534
 End of Minotr Frequency-dependent properties file   721 does not exist.
 End of Minotr Frequency-dependent properties file   722 does not exist.

 **********************************************************************

            Population analysis using the SCF density.

 **********************************************************************

 Orbital symmetries:
       Occupied  (A) (A) (A) (A) (A) (A) (A) (A) (A) (A) (A) (A)
                 (A) (A) (A) (A) (A) (A) (A) (A) (A) (A) (A) (A)
                 (A) (A) (A) (A) (A) (A) (A) (A) (A) (A) (A) (A)
                 (A) (A) (A) (A) (A) (A) (A) (A) (A) (A) (A) (A)
                 (A) (A) (A) (A) (A) (A) (A) (A) (A) (A) (A) (A)
                 (A) (A) (A) (A) (A) (A) (A) (A) (A) (A) (A) (A)
                 (A) (A) (A) (A) (A) (A) (A) (A) (A) (A) (A)
       Virtual   (A) (A) (A) (A) (A) (A) (A) (A) (A) (A) (A) (A)
                 (A) (A) (A) (A) (A) (A) (A) (A) (A) (A) (A) (A)
                 (A) (A) (A) (A) (A) (A) (A) (A) (A) (A) (A) (A)
                 (A) (A) (A) (A) (A) (A) (A) (A) (A) (A) (A) (A)
                 (A) (A) (A) (A) (A) (A) (A) (A) (A) (A) (A) (A)
                 (A) (A) (A) (A) (A) (A) (A) (A) (A) (A) (A) (A)
                 (A) (A) (A) (A) (A) (A) (A) (A) (A) (A) (A) (A)
                 (A) (A) (A) (A) (A) (A) (A) (A) (A) (A) (A) (A)
                 (A) (A) (A) (A) (A) (A) (A) (A) (A) (A) (A) (A)
                 (A) (A) (A) (A) (A) (A) (A) (A) (A) (A) (A) (A)
                 (A) (A) (A) (A) (A) (A) (A) (A) (A) (A) (A) (A)
                 (A) (A) (A) (A) (A) (A) (A) (A) (A) (A) (A) (A)
                 (A) (A) (A) (A) (A) (A) (A) (A) (A) (A) (A) (A)
                 (A) (A) (A) (A) (A) (A) (A) (A) (A) (A) (A) (A)
                 (A) (A) (A) (A) (A) (A) (A) (A) (A) (A) (A) (A)
                 (A) (A) (A) (A) (A) (A) (A) (A) (A) (A) (A) (A)
                 (A) (A) (A) (A) (A) (A) (A) (A) (A) (A) (A) (A)
                 (A) (A) (A) (A) (A) (A) (A) (A) (A) (A) (A) (A)
                 (A) (A) (A) (A) (A) (A) (A) (A) (A) (A) (A) (A)
                 (A) (A) (A) (A) (A) (A) (A) (A) (A) (A) (A) (A)
                 (A) (A) (A) (A) (A) (A) (A) (A) (A) (A) (A) (A)
                 (A) (A) (A) (A) (A) (A) (A) (A) (A) (A) (A) (A)
                 (A) (A) (A) (A) (A) (A) (A) (A) (A) (A) (A) (A)
                 (A) (A) (A) (A) (A) (A) (A) (A) (A) (A) (A) (A)
                 (A) (A) (A) (A) (A) (A) (A) (A) (A) (A) (A) (A)
                 (A) (A) (A) (A) (A) (A) (A) (A) (A) (A) (A) (A)
                 (A) (A) (A) (A) (A) (A) (A) (A) (A) (A) (A) (A)
                 (A) (A) (A) (A) (A) (A) (A) (A) (A) (A) (A) (A)
                 (A) (A) (A) (A) (A) (A) (A) (A) (A) (A) (A) (A)
                 (A) (A) (A) (A) (A) (A) (A) (A) (A) (A) (A) (A)
                 (A) (A) (A) (A) (A) (A) (A) (A) (A) (A) (A) (A)
                 (A) (A) (A) (A) (A) (A) (A) (A) (A) (A) (A) (A)
                 (A) (A) (A) (A) (A) (A) (A) (A) (A) (A) (A) (A)
                 (A) (A) (A) (A) (A) (A) (A) (A) (A) (A) (A) (A)
                 (A) (A) (A) (A) (A) (A) (A) (A) (A) (A) (A) (A)
                 (A) (A) (A) (A) (A) (A) (A) (A) (A) (A) (A) (A)
                 (A) (A) (A) (A) (A) (A) (A) (A) (A) (A) (A) (A)
                 (A) (A) (A) (A) (A) (A) (A) (A) (A) (A) (A) (A)
                 (A) (A) (A) (A) (A) (A)
 The electronic state is 1-A.
 Alpha  occ. eigenvalues --  -19.28310 -19.27128 -19.26028 -19.25983 -10.32183
 Alpha  occ. eigenvalues --  -10.31825 -10.31416 -10.31383 -10.27235 -10.26560
 Alpha  occ. eigenvalues --  -10.26552 -10.26420 -10.25933 -10.24878 -10.24773
 Alpha  occ. eigenvalues --  -10.24727 -10.24479 -10.24107 -10.23966 -10.23864
 Alpha  occ. eigenvalues --  -10.23676 -10.23569  -1.09856  -1.09103  -1.07643
 Alpha  occ. eigenvalues --   -1.05515  -0.88613  -0.86763  -0.82158  -0.82033
 Alpha  occ. eigenvalues --   -0.78471  -0.77278  -0.75767  -0.74028  -0.71669
 Alpha  occ. eigenvalues --   -0.69811  -0.67010  -0.64577  -0.63710  -0.63043
 Alpha  occ. eigenvalues --   -0.61142  -0.60402  -0.56032  -0.54328  -0.53479
 Alpha  occ. eigenvalues --   -0.51835  -0.51295  -0.50299  -0.49881  -0.48252
 Alpha  occ. eigenvalues --   -0.47313  -0.46904  -0.46511  -0.45450  -0.44616
 Alpha  occ. eigenvalues --   -0.44025  -0.43964  -0.43752  -0.42793  -0.42537
 Alpha  occ. eigenvalues --   -0.42317  -0.41493  -0.40257  -0.39590  -0.39217
 Alpha  occ. eigenvalues --   -0.38848  -0.38430  -0.38127  -0.37429  -0.36971
 Alpha  occ. eigenvalues --   -0.36271  -0.35976  -0.35164  -0.34732  -0.34260
 Alpha  occ. eigenvalues --   -0.32922  -0.32499  -0.31495  -0.30379  -0.29052
 Alpha  occ. eigenvalues --   -0.25848  -0.24274  -0.23311
 Alpha virt. eigenvalues --   -0.00490  -0.00165   0.00223   0.00530   0.01372
 Alpha virt. eigenvalues --    0.01599   0.01781   0.02728   0.03125   0.03338
 Alpha virt. eigenvalues --    0.04082   0.04387   0.04653   0.04834   0.05007
 Alpha virt. eigenvalues --    0.05717   0.06081   0.06606   0.07234   0.07331
 Alpha virt. eigenvalues --    0.07923   0.08119   0.08679   0.08937   0.08988
 Alpha virt. eigenvalues --    0.09623   0.09988   0.10015   0.10674   0.11484
 Alpha virt. eigenvalues --    0.11719   0.11958   0.12176   0.12563   0.12804
 Alpha virt. eigenvalues --    0.13355   0.13469   0.14032   0.14344   0.14410
 Alpha virt. eigenvalues --    0.14940   0.15217   0.15400   0.15682   0.16031
 Alpha virt. eigenvalues --    0.16598   0.16923   0.17623   0.17732   0.17933
 Alpha virt. eigenvalues --    0.18299   0.18506   0.18898   0.18972   0.19447
 Alpha virt. eigenvalues --    0.19716   0.19965   0.20386   0.20707   0.20853
 Alpha virt. eigenvalues --    0.21058   0.21406   0.21781   0.21944   0.22026
 Alpha virt. eigenvalues --    0.22200   0.22776   0.22891   0.23201   0.23746
 Alpha virt. eigenvalues --    0.23880   0.24003   0.24314   0.24788   0.24982
 Alpha virt. eigenvalues --    0.25389   0.25714   0.25851   0.26208   0.26424
 Alpha virt. eigenvalues --    0.26529   0.27132   0.27647   0.28149   0.28251
 Alpha virt. eigenvalues --    0.28307   0.28674   0.28969   0.29385   0.29615
 Alpha virt. eigenvalues --    0.30038   0.30260   0.30507   0.30849   0.31090
 Alpha virt. eigenvalues --    0.31697   0.32344   0.32896   0.32997   0.33770
 Alpha virt. eigenvalues --    0.33955   0.34371   0.34891   0.35158   0.35304
 Alpha virt. eigenvalues --    0.36043   0.36111   0.36566   0.36997   0.37577
 Alpha virt. eigenvalues --    0.38201   0.38390   0.39203   0.39751   0.39864
 Alpha virt. eigenvalues --    0.40496   0.40978   0.41805   0.42482   0.42728
 Alpha virt. eigenvalues --    0.43939   0.44364   0.44613   0.45466   0.45866
 Alpha virt. eigenvalues --    0.46335   0.46879   0.47782   0.47876   0.48223
 Alpha virt. eigenvalues --    0.48788   0.49699   0.50624   0.51028   0.52344
 Alpha virt. eigenvalues --    0.53249   0.60575   0.63114   0.65595   0.68002
 Alpha virt. eigenvalues --    0.68285   0.69167   0.70449   0.70583   0.71318
 Alpha virt. eigenvalues --    0.71804   0.73183   0.73511   0.73970   0.74380
 Alpha virt. eigenvalues --    0.74819   0.75343   0.76078   0.76693   0.77184
 Alpha virt. eigenvalues --    0.77509   0.78489   0.79069   0.79283   0.79857
 Alpha virt. eigenvalues --    0.80537   0.81617   0.82342   0.82499   0.83809
 Alpha virt. eigenvalues --    0.85578   0.86109   0.86675   0.87893   0.88518
 Alpha virt. eigenvalues --    0.88984   0.89295   0.89930   0.90494   0.91291
 Alpha virt. eigenvalues --    0.92091   0.93120   0.93179   0.94937   0.95426
 Alpha virt. eigenvalues --    0.96178   0.97063   0.97442   0.98239   0.99899
 Alpha virt. eigenvalues --    1.00603   1.01482   1.01631   1.03061   1.04250
 Alpha virt. eigenvalues --    1.04934   1.06502   1.07645   1.08803   1.09254
 Alpha virt. eigenvalues --    1.09565   1.10178   1.10373   1.11499   1.12867
 Alpha virt. eigenvalues --    1.13432   1.14215   1.14458   1.14887   1.15732
 Alpha virt. eigenvalues --    1.16254   1.17383   1.18106   1.18501   1.19031
 Alpha virt. eigenvalues --    1.19746   1.20426   1.20817   1.22089   1.23244
 Alpha virt. eigenvalues --    1.23604   1.24545   1.24875   1.25364   1.26764
 Alpha virt. eigenvalues --    1.28235   1.28780   1.29638   1.30454   1.31619
 Alpha virt. eigenvalues --    1.32181   1.32735   1.33592   1.34629   1.34912
 Alpha virt. eigenvalues --    1.36297   1.36480   1.36867   1.37792   1.38842
 Alpha virt. eigenvalues --    1.40342   1.40937   1.41533   1.42668   1.44290
 Alpha virt. eigenvalues --    1.45707   1.47420   1.48387   1.49565   1.49866
 Alpha virt. eigenvalues --    1.50695   1.51159   1.53100   1.53290   1.54876
 Alpha virt. eigenvalues --    1.55471   1.56269   1.57651   1.57894   1.59579
 Alpha virt. eigenvalues --    1.60774   1.61744   1.62539   1.63958   1.64785
 Alpha virt. eigenvalues --    1.67882   1.68994   1.69439   1.71305   1.72698
 Alpha virt. eigenvalues --    1.75464   1.77734   1.78187   1.78593   1.80459
 Alpha virt. eigenvalues --    1.81374   1.82229   1.82662   1.84329   1.84652
 Alpha virt. eigenvalues --    1.85815   1.86033   1.87039   1.87667   1.89177
 Alpha virt. eigenvalues --    1.90117   1.90419   1.91121   1.91826   1.92765
 Alpha virt. eigenvalues --    1.92884   1.93746   1.94712   1.95161   1.95641
 Alpha virt. eigenvalues --    1.95972   1.97463   1.99065   1.99273   2.00319
 Alpha virt. eigenvalues --    2.00670   2.01857   2.04687   2.05426   2.06571
 Alpha virt. eigenvalues --    2.06651   2.06970   2.08289   2.08892   2.09566
 Alpha virt. eigenvalues --    2.10469   2.10862   2.12785   2.12980   2.13391
 Alpha virt. eigenvalues --    2.14216   2.15537   2.16064   2.16639   2.18308
 Alpha virt. eigenvalues --    2.18382   2.19155   2.19531   2.20106   2.21473
 Alpha virt. eigenvalues --    2.22223   2.23266   2.24263   2.25143   2.26294
 Alpha virt. eigenvalues --    2.26591   2.27970   2.28313   2.29077   2.30682
 Alpha virt. eigenvalues --    2.30864   2.31679   2.33586   2.34187   2.36173
 Alpha virt. eigenvalues --    2.37496   2.37992   2.40326   2.40632   2.41171
 Alpha virt. eigenvalues --    2.41788   2.42719   2.45497   2.47315   2.48071
 Alpha virt. eigenvalues --    2.49398   2.50333   2.51438   2.51788   2.52222
 Alpha virt. eigenvalues --    2.53478   2.53686   2.54623   2.55506   2.56162
 Alpha virt. eigenvalues --    2.57321   2.57695   2.58643   2.59645   2.60246
 Alpha virt. eigenvalues --    2.60807   2.61699   2.62639   2.63929   2.64500
 Alpha virt. eigenvalues --    2.65793   2.66259   2.67997   2.69411   2.70624
 Alpha virt. eigenvalues --    2.71159   2.71845   2.72171   2.72656   2.73842
 Alpha virt. eigenvalues --    2.75357   2.76225   2.76577   2.77781   2.78584
 Alpha virt. eigenvalues --    2.78698   2.80585   2.81512   2.82171   2.83717
 Alpha virt. eigenvalues --    2.85524   2.86161   2.86664   2.87659   2.87960
 Alpha virt. eigenvalues --    2.88958   2.89535   2.90902   2.91617   2.92232
 Alpha virt. eigenvalues --    2.92895   2.94549   2.95636   2.96192   2.96985
 Alpha virt. eigenvalues --    2.99363   3.01993   3.03784   3.04751   3.08885
 Alpha virt. eigenvalues --    3.09523   3.10058   3.12465   3.15719   3.17132
 Alpha virt. eigenvalues --    3.18352   3.27373   3.28996   3.29312   3.30755
 Alpha virt. eigenvalues --    3.32221   3.35736   3.37147   3.38830   3.40008
 Alpha virt. eigenvalues --    3.42461   3.45395   3.47174   3.47311   3.49003
 Alpha virt. eigenvalues --    3.50782   3.51096   3.51480   3.54123   3.54477
 Alpha virt. eigenvalues --    3.54805   3.57155   3.58328   3.59006   3.59895
 Alpha virt. eigenvalues --    3.61795   3.62937   3.65095   3.71103   3.76792
 Alpha virt. eigenvalues --    4.35202   4.37819   4.39365   4.46526   4.47127
 Alpha virt. eigenvalues --    4.49635   4.51211   4.54244   4.55615   4.57165
 Alpha virt. eigenvalues --    4.62642   4.62817   4.66599   4.69579   4.72071
 Alpha virt. eigenvalues --    4.75451   4.78266   4.79927   4.87749   4.94669
 Alpha virt. eigenvalues --    4.99746   5.02603
          Condensed to atoms (all electrons):
              1          2          3          4          5          6
     1  C   12.163760  -1.098378   0.049657  -0.092125   0.095110  -0.012835
     2  C   -1.098378   7.256350   0.288214   0.378111  -0.024196  -0.061492
     3  H    0.049657   0.288214   0.532400  -0.025159  -0.006036  -0.005429
     4  H   -0.092125   0.378111  -0.025159   0.533122  -0.090910   0.004849
     5  C    0.095110  -0.024196  -0.006036  -0.090910   7.686611   0.397103
     6  H   -0.012835  -0.061492  -0.005429   0.004849   0.397103   0.533324
     7  C   -0.068087  -0.391339   0.045757   0.070891  -2.015666  -0.000785
     8  H   -0.014496   0.037209  -0.000168  -0.000148  -0.019731  -0.009297
     9  C    0.363624   0.597044   0.014931  -0.071215   0.628463  -0.050971
    10  H   -0.037885   0.017361  -0.000065   0.000066  -0.071361   0.002309
    11  C   -2.126196  -0.783967   0.003742   0.073826   0.616145   0.030511
    12  H   -0.064727   0.022734  -0.000057   0.000816  -0.014310   0.000029
    13  C    0.371368  -0.011113   0.003528  -0.015965  -0.010989  -0.024715
    14  C   -0.041045   0.001837   0.000013  -0.000129  -0.005379  -0.000228
    15  C   -0.154692   0.135452  -0.000314   0.000012  -0.133287   0.011958
    16  C   -0.771361   0.023169   0.000676   0.003096  -0.285821  -0.004229
    17  C   -0.074145  -0.011170   0.000058  -0.000073  -0.067067  -0.000474
    18  C    0.013960   0.037400  -0.000066   0.000202   0.014830   0.003486
    19  H   -0.000498   0.000031   0.000000   0.000000   0.000035   0.000000
    20  H   -0.000066   0.000013   0.000000   0.000000   0.000026   0.000000
    21  O    0.027502   0.003428  -0.000005  -0.000075   0.020503  -0.000029
    22  H    0.022438  -0.003175   0.000001   0.000000  -0.005083   0.000000
    23  O   -0.016438   0.001472   0.000003  -0.000017  -0.010973  -0.000143
    24  H   -0.000034  -0.000040   0.000000   0.000000  -0.000380  -0.000003
    25  O    0.052064  -0.024621  -0.000499   0.000106   0.016516  -0.000246
    26  H   -0.055541   0.015246  -0.000010  -0.000026  -0.005532  -0.000009
    27  C   -2.744505   0.037521  -0.063533   0.040859  -0.344694   0.005231
    28  H   -0.140919   0.030316   0.000330   0.001050   0.005971  -0.000001
    29  H   -0.100232   0.018867  -0.000052   0.000106  -0.010611   0.000003
    30  H   -0.058618  -0.014812   0.002414   0.000090   0.007827   0.000000
    31  O    0.421577   0.098474  -0.014562   0.009913  -0.074705   0.009374
    32  H    0.087980  -0.090852   0.004645   0.000043   0.018594   0.000001
    33  H    0.029854  -0.033251  -0.001997  -0.004454   0.424303  -0.026493
    34  C   -0.245908  -0.050064  -0.002071   0.026323  -0.290615   0.007920
    35  C    0.229670  -0.101189  -0.004046   0.022762  -0.017091   0.016957
    36  H    0.000318  -0.001018   0.000000   0.000001   0.002504   0.000004
    37  H    0.002817  -0.002942   0.000000  -0.000002  -0.001274  -0.000057
    38  C   -0.056169   0.044548   0.004300  -0.040024  -0.016661  -0.001899
    39  H   -0.031100  -0.029413   0.000120   0.001046   0.055917  -0.000049
    40  H   -0.005178   0.004271  -0.000001   0.000088   0.001300   0.000003
    41  H    0.007904   0.012491  -0.000002   0.000090  -0.026793   0.000004
    42  C    0.006410  -0.000765   0.000000  -0.000002  -0.000291   0.000000
    43  H    0.000007   0.000000   0.000000   0.000000   0.000002   0.000000
    44  H   -0.000003   0.000000   0.000000   0.000000  -0.000011   0.000000
    45  C   -0.000330   0.000093   0.000000   0.000000  -0.000387   0.000001
    46  H    0.000000   0.000000   0.000000   0.000000   0.000000   0.000000
    47  H   -0.000002   0.000000   0.000000   0.000000  -0.000008   0.000000
    48  H    0.000000  -0.000001   0.000000   0.000000   0.000000   0.000000
              7          8          9         10         11         12
     1  C   -0.068087  -0.014496   0.363624  -0.037885  -2.126196  -0.064727
     2  C   -0.391339   0.037209   0.597044   0.017361  -0.783967   0.022734
     3  H    0.045757  -0.000168   0.014931  -0.000065   0.003742  -0.000057
     4  H    0.070891  -0.000148  -0.071215   0.000066   0.073826   0.000816
     5  C   -2.015666  -0.019731   0.628463  -0.071361   0.616145  -0.014310
     6  H   -0.000785  -0.009297  -0.050971   0.002309   0.030511   0.000029
     7  C   12.536116   0.235531  -2.307652   0.167024  -1.258387   0.090320
     8  H    0.235531   0.562606  -0.004602  -0.006788  -0.015327  -0.000197
     9  C   -2.307652  -0.004602  17.617151   0.298852  -4.911116   0.027833
    10  H    0.167024  -0.006788   0.298852   0.524168  -0.267647   0.003992
    11  C   -1.258387  -0.015327  -4.911116  -0.267647  21.870399   0.286933
    12  H    0.090320  -0.000197   0.027833   0.003992   0.286933   0.507651
    13  C   -0.855084   0.033731   3.369106  -0.131481  -4.166357   0.065175
    14  C   -0.079613   0.001080  -0.896839   0.007143  -0.787688  -0.001986
    15  C   -0.132676   0.041309  -1.835398   0.209873  -2.561827   0.043266
    16  C    0.030179   0.007567  -1.964528  -0.034098  -0.085434  -0.097133
    17  C   -0.190829   0.003738  -1.260421  -0.008507  -0.641495  -0.027758
    18  C    0.225549   0.002274  -0.850532   0.079660  -0.022519   0.011127
    19  H    0.001194   0.000000   0.005336   0.000002  -0.000554   0.000002
    20  H    0.000304   0.000006  -0.012565  -0.000001  -0.000658   0.000000
    21  O   -0.003901  -0.000049  -0.099094  -0.002306   0.317063  -0.007697
    22  H   -0.004960   0.000003  -0.010911   0.000197  -0.077300  -0.001927
    23  O   -0.113118  -0.010709   0.206024   0.009536  -0.005166   0.000078
    24  H   -0.004270   0.000168   0.042710  -0.000013  -0.001189   0.000000
    25  O    0.065256  -0.000420  -0.305079  -0.015882   0.390367  -0.052727
    26  H    0.020405  -0.000006  -0.026302   0.003467   0.050705   0.005656
    27  C    0.326440  -0.000039  -2.254815   0.006787   1.857852  -0.010453
    28  H   -0.004667   0.000000   0.015542  -0.000003   0.066216   0.001931
    29  H    0.007124   0.000000  -0.011604   0.000009  -0.032173   0.000330
    30  H   -0.003959   0.000000  -0.000345   0.000001   0.022932   0.000056
    31  O    0.064259  -0.000605   0.111275   0.006647  -0.373987   0.006984
    32  H   -0.002222  -0.000006  -0.030240  -0.000175   0.061048  -0.000183
    33  H   -0.152580  -0.002143   0.038483  -0.000055   0.002056   0.000006
    34  C   -0.832619  -0.080314  -0.350046   0.036415  -0.798154  -0.001319
    35  C    0.258389   0.083852  -0.308565   0.006431  -0.104136   0.007047
    36  H    0.028261   0.000416  -0.009649   0.000002  -0.000522   0.000000
    37  H    0.011360   0.004880  -0.007419  -0.000002  -0.012475  -0.000001
    38  C    0.192001  -0.022255   0.158907   0.003784  -0.436273   0.001819
    39  H   -0.036931  -0.000094  -0.026404  -0.000011   0.064226  -0.001019
    40  H    0.027030  -0.000101  -0.014075   0.000002   0.008559   0.000127
    41  H   -0.024995  -0.000086   0.064231  -0.000063   0.006937  -0.000646
    42  C   -0.047070  -0.000350  -0.029932  -0.000080  -0.077885   0.000072
    43  H    0.000056   0.000000   0.000215   0.000000  -0.000085   0.000000
    44  H   -0.000214   0.000000  -0.001077   0.000000  -0.000440   0.000000
    45  C    0.000205   0.000018  -0.003063   0.000011  -0.002061   0.000006
    46  H   -0.000037   0.000000   0.000115   0.000000   0.000013   0.000000
    47  H   -0.000151   0.000000  -0.000577   0.000000  -0.000244   0.000000
    48  H    0.000135   0.000000  -0.000266   0.000000  -0.000047   0.000000
             13         14         15         16         17         18
     1  C    0.371368  -0.041045  -0.154692  -0.771361  -0.074145   0.013960
     2  C   -0.011113   0.001837   0.135452   0.023169  -0.011170   0.037400
     3  H    0.003528   0.000013  -0.000314   0.000676   0.000058  -0.000066
     4  H   -0.015965  -0.000129   0.000012   0.003096  -0.000073   0.000202
     5  C   -0.010989  -0.005379  -0.133287  -0.285821  -0.067067   0.014830
     6  H   -0.024715  -0.000228   0.011958  -0.004229  -0.000474   0.003486
     7  C   -0.855084  -0.079613  -0.132676   0.030179  -0.190829   0.225549
     8  H    0.033731   0.001080   0.041309   0.007567   0.003738   0.002274
     9  C    3.369106  -0.896839  -1.835398  -1.964528  -1.260421  -0.850532
    10  H   -0.131481   0.007143   0.209873  -0.034098  -0.008507   0.079660
    11  C   -4.166357  -0.787688  -2.561827  -0.085434  -0.641495  -0.022519
    12  H    0.065175  -0.001986   0.043266  -0.097133  -0.027758   0.011127
    13  C   17.619215  -0.949513   0.288569  -2.780397  -3.630995  -2.627647
    14  C   -0.949513   9.578505  -0.340964  -0.865475   1.616913  -0.155695
    15  C    0.288569  -0.340964  10.448247  -1.028180  -0.062048   0.344067
    16  C   -2.780397  -0.865475  -1.028180  12.888070   2.932580  -1.891914
    17  C   -3.630995   1.616913  -0.062048   2.932580   9.984105  -1.978033
    18  C   -2.627647  -0.155695   0.344067  -1.891914  -1.978033  12.711721
    19  H    0.101091   0.006930  -0.012484  -0.031423   0.254419   0.030307
    20  H    0.074103   0.058964  -0.033008  -0.007242   0.001647   0.259056
    21  O   -0.323196   0.108385  -0.045302   0.067871  -0.024285  -0.007343
    22  H   -0.135051   0.001509  -0.002494   0.138804   0.095792  -0.016347
    23  O   -0.250247   0.023150   0.158067   0.061538   0.002639  -0.024267
    24  H    0.155580   0.007607   0.055584  -0.000452  -0.002234  -0.244681
    25  O   -0.170930  -0.003263  -0.149520   0.176959   0.076089  -0.048997
    26  H   -0.023445  -0.000618   0.024625  -0.010711  -0.004652   0.006424
    27  C   -0.649148  -0.003665  -0.115468   0.158318   0.009123   0.003241
    28  H   -0.000605  -0.000076   0.000012  -0.001487  -0.000495   0.000024
    29  H   -0.000573   0.000013   0.000178  -0.000052   0.000138   0.000032
    30  H   -0.000216  -0.000001   0.000077  -0.000212  -0.000029   0.000005
    31  O   -0.009104  -0.000731   0.005251  -0.012295  -0.003737   0.002266
    32  H   -0.003989  -0.000041  -0.002304  -0.002036  -0.000124  -0.000098
    33  H    0.009793   0.000199  -0.007652   0.000240  -0.000013  -0.000846
    34  C    0.477924   0.155402   0.375342   0.272179   0.169891  -0.146570
    35  C   -0.413144   0.032572   0.062957   0.014681   0.073221   0.119820
    36  H   -0.002161   0.000000   0.005320  -0.001340  -0.000150   0.004856
    37  H    0.012644  -0.001098   0.015387   0.000128   0.001236  -0.000656
    38  C    0.488482  -0.003527   0.033625  -0.328436  -0.166095   0.041888
    39  H   -0.039653   0.000536  -0.001852   0.026578   0.002157  -0.001096
    40  H   -0.007991  -0.000364  -0.000672   0.008604   0.001464   0.000509
    41  H    0.079627  -0.008227  -0.008374  -0.067657  -0.036074   0.003611
    42  C   -0.496889  -1.122938   0.239954  -0.174128  -0.190678   0.152057
    43  H    0.001598  -0.192560  -0.017605   0.037913   0.137189  -0.091508
    44  H   -0.012392  -0.243683   0.058488  -0.036234  -0.094285   0.138822
    45  C    0.003234  -0.076883   0.007998   0.020239   0.030456   0.036462
    46  H    0.002302   0.031614   0.002835   0.001409   0.008030   0.005750
    47  H   -0.006215  -0.039180   0.002504  -0.014267  -0.012198   0.016952
    48  H   -0.001907  -0.030618   0.002494  -0.000913   0.011432  -0.017330
             19         20         21         22         23         24
     1  C   -0.000498  -0.000066   0.027502   0.022438  -0.016438  -0.000034
     2  C    0.000031   0.000013   0.003428  -0.003175   0.001472  -0.000040
     3  H    0.000000   0.000000  -0.000005   0.000001   0.000003   0.000000
     4  H    0.000000   0.000000  -0.000075   0.000000  -0.000017   0.000000
     5  C    0.000035   0.000026   0.020503  -0.005083  -0.010973  -0.000380
     6  H    0.000000   0.000000  -0.000029   0.000000  -0.000143  -0.000003
     7  C    0.001194   0.000304  -0.003901  -0.004960  -0.113118  -0.004270
     8  H    0.000000   0.000006  -0.000049   0.000003  -0.010709   0.000168
     9  C    0.005336  -0.012565  -0.099094  -0.010911   0.206024   0.042710
    10  H    0.000002  -0.000001  -0.002306   0.000197   0.009536  -0.000013
    11  C   -0.000554  -0.000658   0.317063  -0.077300  -0.005166  -0.001189
    12  H    0.000002   0.000000  -0.007697  -0.001927   0.000078   0.000000
    13  C    0.101091   0.074103  -0.323196  -0.135051  -0.250247   0.155580
    14  C    0.006930   0.058964   0.108385   0.001509   0.023150   0.007607
    15  C   -0.012484  -0.033008  -0.045302  -0.002494   0.158067   0.055584
    16  C   -0.031423  -0.007242   0.067871   0.138804   0.061538  -0.000452
    17  C    0.254419   0.001647  -0.024285   0.095792   0.002639  -0.002234
    18  C    0.030307   0.259056  -0.007343  -0.016347  -0.024267  -0.244681
    19  H    0.514965  -0.000138  -0.006706   0.000140   0.000118   0.000000
    20  H   -0.000138   0.521086   0.000085   0.000000  -0.018430   0.008574
    21  O   -0.006706   0.000085   8.346433   0.209841  -0.002388   0.000033
    22  H    0.000140   0.000000   0.209841   0.325327  -0.000056   0.000000
    23  O    0.000118  -0.018430  -0.002388  -0.000056   8.345267   0.199543
    24  H    0.000000   0.008574   0.000033   0.000000   0.199543   0.363099
    25  O   -0.000021   0.000002  -0.014785   0.036222  -0.000516  -0.000006
    26  H    0.000000   0.000000  -0.000502   0.000040  -0.000050   0.000000
    27  C   -0.000005  -0.000001   0.011918  -0.009903  -0.003785  -0.000016
    28  H    0.000000   0.000000  -0.000002  -0.000006   0.000000   0.000000
    29  H    0.000000   0.000000   0.000039  -0.000021   0.000000   0.000000
    30  H    0.000000   0.000000   0.000008   0.000000   0.000000   0.000000
    31  O    0.000000   0.000000   0.001144  -0.000495  -0.001288  -0.000002
    32  H    0.000000   0.000000   0.000020   0.000000   0.000008   0.000000
    33  H    0.000000   0.000000   0.000001   0.000000   0.000097   0.000000
    34  C   -0.001738   0.000934  -0.016986   0.005503  -0.009194   0.004239
    35  C   -0.000180   0.000260  -0.002122   0.000669  -0.001614  -0.001729
    36  H    0.000000   0.000000  -0.000040   0.000000  -0.000084   0.000000
    37  H    0.000000  -0.000001   0.000001   0.000000   0.000450  -0.000011
    38  C    0.001187   0.000252  -0.023979  -0.001955  -0.004603   0.000093
    39  H    0.000000   0.000000   0.000557  -0.000009  -0.000029   0.000000
    40  H    0.000000   0.000000  -0.000105  -0.000001  -0.000013   0.000000
    41  H   -0.000009   0.000000   0.001710   0.000016   0.000110   0.000000
    42  C   -0.037336  -0.026546   0.012264  -0.001262  -0.003599   0.000319
    43  H    0.001957   0.000073  -0.000018   0.000000   0.000038   0.000000
    44  H    0.000073   0.002392   0.000035   0.000000  -0.000113   0.000007
    45  C    0.005275   0.006857  -0.000221  -0.000038  -0.000098   0.000174
    46  H   -0.000026  -0.000027   0.000000   0.000000  -0.000002   0.000000
    47  H    0.000137   0.000013   0.000005   0.000000  -0.000001   0.000000
    48  H    0.000006   0.000202   0.000003   0.000000   0.000028   0.000000
             25         26         27         28         29         30
     1  C    0.052064  -0.055541  -2.744505  -0.140919  -0.100232  -0.058618
     2  C   -0.024621   0.015246   0.037521   0.030316   0.018867  -0.014812
     3  H   -0.000499  -0.000010  -0.063533   0.000330  -0.000052   0.002414
     4  H    0.000106  -0.000026   0.040859   0.001050   0.000106   0.000090
     5  C    0.016516  -0.005532  -0.344694   0.005971  -0.010611   0.007827
     6  H   -0.000246  -0.000009   0.005231  -0.000001   0.000003   0.000000
     7  C    0.065256   0.020405   0.326440  -0.004667   0.007124  -0.003959
     8  H   -0.000420  -0.000006  -0.000039   0.000000   0.000000   0.000000
     9  C   -0.305079  -0.026302  -2.254815   0.015542  -0.011604  -0.000345
    10  H   -0.015882   0.003467   0.006787  -0.000003   0.000009   0.000001
    11  C    0.390367   0.050705   1.857852   0.066216  -0.032173   0.022932
[...]
    15  C   -0.154666   0.017079  -0.113393   0.000203  -0.000532   0.000148
    16  C    0.167300  -0.017825   0.186984   0.002085   0.001875  -0.001408
    17  C    0.066571  -0.004145  -0.000775  -0.000163   0.000134  -0.000064
    18  C   -0.049796   0.005283  -0.002989   0.000026  -0.000010   0.000012
    19  H    0.000002   0.000000  -0.000032   0.000000   0.000000   0.000000
    20  H    0.000000   0.000000  -0.000001   0.000000   0.000000   0.000000
    21  O   -0.018140   0.001064   0.015442  -0.000049   0.000090   0.000000
    22  H    0.036066  -0.000335  -0.007925  -0.000006  -0.000033   0.000000
    23  O   -0.000930  -0.000039  -0.003146   0.000000   0.000000   0.000000
    24  H   -0.000003   0.000000  -0.000002   0.000000   0.000000   0.000000
    25  O    8.425981   0.240956   0.007486  -0.002645   0.004351  -0.000698
    26  H    0.240956   0.320802   0.008002   0.000155   0.000260   0.000019
    27  C    0.007486   0.008002   8.205428   0.435581   0.509208   0.453776
    28  H   -0.002645   0.000155   0.435581   0.530533  -0.026151  -0.026098
    29  H    0.004351   0.000260   0.509208  -0.026151   0.532458  -0.029802
    30  H   -0.000698   0.000019   0.453776  -0.026098  -0.029802   0.534594
    31  O   -0.002501   0.021040  -0.224231   0.008299  -0.000194  -0.011345
    32  H   -0.000181  -0.000481  -0.008652   0.000045  -0.000591   0.003075
    33  H    0.000036   0.000000  -0.008556  -0.000004   0.000002  -0.000004
    34  C   -0.027805  -0.001622   0.033502  -0.003741  -0.001825   0.000329
    35  C    0.000661   0.000161   0.050271  -0.001271  -0.000173  -0.000008
    36  H   -0.000001   0.000000   0.000110   0.000000   0.000000   0.000000
    37  H    0.000007   0.000000  -0.000146   0.000000   0.000000   0.000000
    38  C    0.001990  -0.000079  -0.073131   0.003098   0.000632  -0.000351
    39  H    0.000166  -0.000003   0.014770   0.000117   0.000003   0.000004
    40  H    0.000040   0.000000  -0.000146   0.000000   0.000000   0.000000
    41  H   -0.000755  -0.000003  -0.004051  -0.000001   0.000000   0.000000
    42  C   -0.001808  -0.000014  -0.000637   0.000000   0.000000   0.000000
    43  H    0.000001   0.000000   0.000000   0.000000   0.000000   0.000000
    44  H    0.000000   0.000000   0.000000   0.000000   0.000000   0.000000
    45  C    0.000031   0.000000  -0.000017   0.000000   0.000000   0.000000
    46  H    0.000000   0.000000   0.000000   0.000000   0.000000   0.000000
    47  H    0.000000   0.000000   0.000000   0.000000   0.000000   0.000000
    48  H    0.000000   0.000000   0.000000   0.000000   0.000000   0.000000
             31         32         33         34         35         36
     1  C    0.355012   0.021342   0.056248  -0.269169   0.182765   0.000394
     2  C    0.105831  -0.057157  -0.104254   0.029333  -0.107139  -0.001517
     3  H   -0.017101   0.004549  -0.001608  -0.001818  -0.007799   0.000000
     4  H    0.008324   0.000080  -0.004795   0.005881   0.015595   0.000001
     5  C   -0.066875   0.010813   0.538042  -0.500722   0.261941   0.002053
     6  H    0.009246  -0.000049  -0.031406  -0.013183   0.001857   0.000004
     7  C    0.064979  -0.006947  -0.165323  -0.486261  -0.194385   0.025377
     8  H   -0.000491  -0.000006  -0.002656  -0.096627   0.102253   0.000454
     9  C    0.118570  -0.019329   0.038312  -0.442421  -0.338352  -0.010406
    10  H    0.006405  -0.000194  -0.000041   0.025506   0.005533   0.000002
    11  C   -0.427020   0.066986   0.017729  -0.652478  -0.215999  -0.001387
    12  H    0.006738  -0.000176   0.000012  -0.013874   0.007493   0.000000
    13  C   -0.003396  -0.002922   0.001828   0.289590  -0.351881  -0.001537
    14  C   -0.000250  -0.000023   0.000048   0.140457   0.051592   0.000394
    15  C    0.011512  -0.002472  -0.010034   0.359627   0.089025   0.004891
    16  C   -0.016701   0.000089  -0.003670   0.501010   0.065273  -0.001706
    17  C   -0.002440  -0.000043  -0.000279   0.274217   0.128064  -0.000089
    18  C    0.002906  -0.000137  -0.000879  -0.158279   0.088683   0.005347
    19  H    0.000000   0.000000   0.000000  -0.001072  -0.000087   0.000000
    20  H    0.000000   0.000000   0.000000   0.000512   0.000073   0.000000
    21  O    0.001002   0.000008   0.000010  -0.029542  -0.009772  -0.000039
    22  H   -0.000394   0.000000   0.000000   0.007027   0.001111   0.000000
    23  O   -0.001327   0.000004   0.000135  -0.025458   0.005331  -0.000063
    24  H   -0.000003   0.000000   0.000000   0.001658  -0.001537   0.000000
    25  O   -0.002501  -0.000181   0.000036  -0.027805   0.000661  -0.000001
    26  H    0.021040  -0.000481   0.000000  -0.001622   0.000161   0.000000
    27  C   -0.224231  -0.008652  -0.008556   0.033502   0.050271   0.000110
    28  H    0.008299   0.000045  -0.000004  -0.003741  -0.001271   0.000000
    29  H   -0.000194  -0.000591   0.000002  -0.001825  -0.000173   0.000000
    30  H   -0.011345   0.003075  -0.000004   0.000329  -0.000008   0.000000
    31  O    8.486370   0.244216  -0.001184  -0.007238   0.016637   0.000001
    32  H    0.244216   0.328179   0.000007   0.001062  -0.000460   0.000000
    33  H   -0.001184   0.000007   0.566731  -0.013989  -0.022607  -0.000117
    34  C   -0.007238   0.001062  -0.013989  11.043417  -3.512235  -0.220703
    35  C    0.016637  -0.000460  -0.022607  -3.512235  10.219307   0.565161
    36  H    0.000001   0.000000  -0.000117  -0.220703   0.565161   0.536045
    37  H   -0.000002   0.000000   0.000059  -0.270037   0.652202  -0.036006
    38  C   -0.004205  -0.000165   0.001154  -0.068289  -1.099574  -0.017459
    39  H   -0.000186   0.000001   0.000182  -0.042610  -0.011799   0.000137
    40  H    0.000004   0.000000  -0.000025  -0.148143  -0.024543   0.002973
    41  H    0.000044   0.000000   0.000011  -0.087665  -0.086853   0.000194
    42  C    0.000065   0.000000   0.000008   0.008009   0.030829   0.000021
    43  H    0.000000   0.000000   0.000000  -0.000035  -0.000032   0.000000
    44  H    0.000000   0.000000   0.000000   0.000125  -0.000007   0.000000
    45  C    0.000000   0.000000   0.000000  -0.002123  -0.003320   0.000027
    46  H    0.000000   0.000000   0.000000   0.000020   0.000001   0.000000
    47  H    0.000000   0.000000   0.000000   0.000264  -0.000177   0.000000
    48  H    0.000000   0.000000   0.000000  -0.000135   0.000085   0.000000
             37         38         39         40         41         42
     1  C    0.002410   0.036181  -0.018007  -0.000152  -0.002502   0.004473
     2  C   -0.001770  -0.025212  -0.028873   0.002364   0.011472  -0.001276
     3  H    0.000000   0.008003   0.000125  -0.000001  -0.000001   0.000001
     4  H   -0.000003  -0.033428   0.001006   0.000102   0.000097  -0.000003
     5  C   -0.005696  -0.038178   0.070030   0.002424  -0.036071   0.000701
     6  H   -0.000076   0.006178  -0.000042   0.000004   0.000005   0.000005
     7  C   -0.014880   0.198495  -0.057881   0.027292  -0.017977  -0.053035
     8  H    0.005424  -0.030102  -0.000117  -0.000116  -0.000090  -0.000226
     9  C   -0.020117   0.145687  -0.033390  -0.009754   0.047648  -0.061684
    10  H    0.000000   0.005110  -0.000013   0.000003  -0.000058  -0.000710
    11  C   -0.015139  -0.472305   0.070127  -0.003195  -0.000708  -0.089216
    12  H   -0.000001   0.001120  -0.001101   0.000170  -0.000949  -0.000130
    13  C    0.009514   0.504468  -0.041721   0.001387   0.054166  -0.633405
    14  C   -0.000899  -0.005778  -0.000193  -0.000726  -0.002855  -1.010921
    15  C    0.017015   0.112205  -0.004548   0.000354  -0.005903   0.272810
    16  C   -0.000373  -0.508481   0.012067  -0.001015  -0.031297  -0.282330
    17  C    0.001228  -0.259438  -0.000644  -0.001086  -0.018153  -0.196487
    18  C    0.000965   0.110664  -0.001313   0.000832   0.003227   0.154721
    19  H    0.000000   0.000875   0.000000   0.000000  -0.000006  -0.049987
    20  H   -0.000001   0.000141   0.000000   0.000000   0.000000  -0.031651
    21  O   -0.000002  -0.008651   0.000748   0.000233  -0.001394   0.009084
    22  H    0.000000  -0.003856  -0.000009  -0.000002   0.000115  -0.000898
    23  O    0.000652  -0.004771  -0.000049  -0.000014   0.000193   0.001385
    24  H   -0.000014   0.000080   0.000000   0.000000   0.000000  -0.000806
    25  O    0.000007   0.001990   0.000166   0.000040  -0.000755  -0.001808
    26  H    0.000000  -0.000079  -0.000003   0.000000  -0.000003  -0.000014
    27  C   -0.000146  -0.073131   0.014770  -0.000146  -0.004051  -0.000637
    28  H    0.000000   0.003098   0.000117   0.000000  -0.000001   0.000000
    29  H    0.000000   0.000632   0.000003   0.000000   0.000000   0.000000
    30  H    0.000000  -0.000351   0.000004   0.000000   0.000000   0.000000
    31  O   -0.000002  -0.004205  -0.000186   0.000004   0.000044   0.000065
    32  H    0.000000  -0.000165   0.000001   0.000000   0.000000   0.000000
    33  H    0.000059   0.001154   0.000182  -0.000025   0.000011   0.000008
    34  C   -0.270037  -0.068289  -0.042610  -0.148143  -0.087665   0.008009
    35  C    0.652202  -1.099574  -0.011799  -0.024543  -0.086853   0.030829
    36  H   -0.036006  -0.017459   0.000137   0.002973   0.000194   0.000021
    37  H    0.545067  -0.010940  -0.000203   0.000236  -0.000206   0.000124
    38  C   -0.010940   6.795223   0.418989   0.505395   0.521075  -0.002733
    39  H   -0.000203   0.418989   0.541470  -0.028190  -0.028555  -0.000069
    40  H    0.000236   0.505395  -0.028190   0.546625  -0.026627  -0.000091
    41  H   -0.000206   0.521075  -0.028555  -0.026627   0.533970   0.000962
    42  C    0.000124  -0.002733  -0.000069  -0.000091   0.000962   6.891538
    43  H    0.000000   0.000051   0.000000   0.000000   0.000000   0.480164
    44  H    0.000000   0.000003   0.000000   0.000000   0.000000   0.536744
    45  C    0.000001   0.002096  -0.000006   0.000010   0.000128   0.209041
    46  H    0.000000   0.000003   0.000000   0.000000   0.000000  -0.076828
    47  H    0.000000   0.000000   0.000000   0.000000   0.000000  -0.024748
    48  H    0.000000  -0.000007   0.000000   0.000000   0.000000  -0.051022
             43         44         45         46         47         48
     1  C    0.000004  -0.000004  -0.000412   0.000000  -0.000006  -0.000001
     2  C    0.000000   0.000000   0.000157   0.000000   0.000000  -0.000001
     3  H    0.000000   0.000000   0.000000   0.000000   0.000000   0.000000
     4  H    0.000000   0.000000   0.000000   0.000000   0.000000   0.000000
     5  C   -0.000001  -0.000013  -0.000959  -0.000001  -0.000007   0.000007
     6  H    0.000000   0.000000   0.000001   0.000000   0.000000   0.000000
     7  C    0.000055  -0.000195   0.000368  -0.000058  -0.000090   0.000178
     8  H    0.000000   0.000000   0.000022   0.000000   0.000000   0.000000
     9  C   -0.000493  -0.002091  -0.006215  -0.000003  -0.000708  -0.000441
    10  H    0.000000   0.000000  -0.000001   0.000000   0.000000   0.000000
    11  C   -0.000243  -0.000481  -0.003355   0.000006  -0.000243  -0.000044
    12  H    0.000000   0.000000   0.000006   0.000000   0.000000   0.000000
    13  C   -0.005653  -0.018733  -0.005768   0.000007  -0.008787  -0.000234
    14  C   -0.149489  -0.188673  -0.004443  -0.001794   0.016487   0.027193
    15  C   -0.015643   0.041776   0.000826   0.001249   0.012451  -0.017418
    16  C    0.018104  -0.032603   0.005080   0.000771  -0.036956   0.005056
    17  C    0.079953  -0.071522   0.013383   0.005560  -0.060562   0.038809
    18  C   -0.067070   0.074650  -0.005612   0.004941   0.041701  -0.064424
    19  H    0.002319   0.000103   0.003211  -0.000032   0.000155   0.000010
    20  H    0.000107   0.002642   0.003730  -0.000031   0.000016   0.000212
    21  O   -0.000024   0.000020  -0.000304  -0.000002   0.000015   0.000007
    22  H    0.000000   0.000000  -0.000038   0.000000   0.000000   0.000000
    23  O    0.000023  -0.000089  -0.000094  -0.000004   0.000000   0.000052
    24  H    0.000000   0.000004   0.000171   0.000000   0.000000  -0.000001
    25  O    0.000001   0.000000   0.000031   0.000000   0.000000   0.000000
    26  H    0.000000   0.000000   0.000000   0.000000   0.000000   0.000000
    27  C    0.000000   0.000000  -0.000017   0.000000   0.000000   0.000000
    28  H    0.000000   0.000000   0.000000   0.000000   0.000000   0.000000
    29  H    0.000000   0.000000   0.000000   0.000000   0.000000   0.000000
    30  H    0.000000   0.000000   0.000000   0.000000   0.000000   0.000000
    31  O    0.000000   0.000000   0.000000   0.000000   0.000000   0.000000
    32  H    0.000000   0.000000   0.000000   0.000000   0.000000   0.000000
    33  H    0.000000   0.000000   0.000000   0.000000   0.000000   0.000000
    34  C   -0.000035   0.000125  -0.002123   0.000020   0.000264  -0.000135
    35  C   -0.000032  -0.000007  -0.003320   0.000001  -0.000177   0.000085
    36  H    0.000000   0.000000   0.000027   0.000000   0.000000   0.000000
    37  H    0.000000   0.000000   0.000001   0.000000   0.000000   0.000000
    38  C    0.000051   0.000003   0.002096   0.000003   0.000000  -0.000007
    39  H    0.000000   0.000000  -0.000006   0.000000   0.000000   0.000000
    40  H    0.000000   0.000000   0.000010   0.000000   0.000000   0.000000
    41  H    0.000000   0.000000   0.000128   0.000000   0.000000   0.000000
    42  C    0.480164   0.536744   0.209041  -0.076828  -0.024748  -0.051022
    43  H    0.565411  -0.033554  -0.021985  -0.003324  -0.005042   0.004841
    44  H   -0.033554   0.567630  -0.023124  -0.003417   0.004891  -0.004945
    45  C   -0.021985  -0.023124   5.185112   0.425744   0.417231   0.418184
    46  H   -0.003324  -0.003417   0.425744   0.549120  -0.027251  -0.027121
    47  H   -0.005042   0.004891   0.417231  -0.027251   0.542480  -0.028532
    48  H    0.004841  -0.004945   0.418184  -0.027121  -0.028532   0.542042
 Mulliken atomic charges:
              1
     1  C    0.207199
     2  C   -0.351103
     3  H    0.158093
     4  H    0.163041
     5  C   -0.412272
     6  H    0.156628
     7  C    0.047552
     8  H    0.145670
     9  C    0.086689
    10  H    0.167052
    11  C   -0.030360
    12  H    0.188675
    13  C    0.488826
    14  C   -0.054978
    15  C    0.340173
    16  C   -0.295368
    17  C   -0.832784
    18  C   -0.033520
    19  H    0.147373
    20  H    0.149825
    21  O   -0.624231
    22  H    0.450647
    23  O   -0.606991
    24  H    0.447935
    25  O   -0.652956
    26  H    0.417548
    27  C   -0.292075
    28  H    0.166637
    29  H    0.164746
    30  H    0.163604
    31  O   -0.680116
    32  H    0.419529
    33  H    0.150876
    34  C    0.377553
    35  C   -0.551896
    36  H    0.147444
    37  H    0.141603
    38  C   -0.711783
    39  H    0.169583
    40  H    0.153378
    41  H    0.179372
    42  C   -0.029970
    43  H    0.151557
    44  H    0.150865
    45  C   -0.606783
    46  H    0.152445
    47  H    0.157417
    48  H    0.157650
 Sum of Mulliken atomic charges =   0.00000
 Mulliken charges with hydrogens summed into heavy atoms:
              1
     1  C    0.207199
     2  C   -0.029969
     5  C   -0.104768
     7  C    0.193222
     9  C    0.253741
    11  C    0.158315
    13  C    0.488826
    14  C   -0.054978
    15  C    0.340173
    16  C   -0.295368
    17  C   -0.685410
    18  C    0.116304
    21  O   -0.173584
    23  O   -0.159056
    25  O   -0.235408
    27  C    0.202912
    31  O   -0.260587
    34  C    0.377553
    35  C   -0.262849
    38  C   -0.209450
    42  C    0.272453
    45  C   -0.139270
 Sum of Mulliken charges with hydrogens summed into heavy atoms =   0.00000
 Electronic spatial extent (au):  <R**2>=           7117.6828
 Charge=              0.0000 electrons
 Dipole moment (field-independent basis, Debye):
    X=              2.8707    Y=              2.3381    Z=              2.4048  Tot=              4.4148
 Quadrupole moment (field-independent basis, Debye-Ang):
   XX=           -101.4413   YY=           -142.7223   ZZ=           -131.8821
   XY=             -3.2583   XZ=             -6.8441   YZ=              0.3750
 Traceless Quadrupole moment (field-independent basis, Debye-Ang):
   XX=             23.9073   YY=            -17.3737   ZZ=             -6.5335
   XY=             -3.2583   XZ=             -6.8441   YZ=              0.3750
 Octapole moment (field-independent basis, Debye-Ang**2):
  XXX=             72.9354  YYY=            -10.6288  ZZZ=             30.6852  XYY=              1.5467
  XXY=             -7.2876  XXZ=             40.5608  XZZ=             -6.1561  YZZ=             16.2077
  YYZ=             21.2721  XYZ=            -14.6674
 Hexadecapole moment (field-independent basis, Debye-Ang**3):
 XXXX=          -5776.8650 YYYY=          -1981.5669 ZZZZ=          -1110.5781 XXXY=            -28.4260
 XXXZ=             68.8957 YYYX=            -67.4370 YYYZ=              5.7071 ZZZX=            -63.6095
 ZZZY=             31.7158 XXYY=          -1439.4302 XXZZ=          -1209.3370 YYZZ=           -497.1455
 XXYZ=             52.8138 YYXZ=              8.5183 ZZXY=            -54.7330
 N-N= 1.986785238619D+03 E-N=-6.306613800599D+03  KE= 9.931609006313D+02

 Test job not archived.
 1\1\GINC-COMPUTE-8-17\SP\RB3LYP\6-31+G(d,p)\C18H26O4\LPASSAGLIA.IQUIR\
 23-Dec-2022\0\\# B3LYP/6-31+G** geom=allcheck test scrf=(pcm,solvent=w
 ater,smd,dovacuum)\\comment\\0,1\C,0,1.694658744,2.406103712,-1.615710
 107\C,0,0.9733507,3.427592342,-0.733446834\H,0,1.533144357,4.371800522
 ,-0.723398766\H,0,-0.013216925,3.658889877,-1.146393832\C,0,0.83308517
 9,2.953655901,0.708061057\H,0,1.832306432,2.94891786,1.164916552\C,0,0
 .224800854,1.544571168,0.874050375\H,0,0.491196037,1.28276551,1.907002
 642\C,0,0.949407514,0.492905323,-0.038136117\H,0,1.995892767,0.4466707
 36,0.303854909\C,0,1.042426815,1.006715764,-1.500446692\H,0,0.05547476
 ,1.045442126,-1.968243718\C,0,0.439536695,-0.943724477,0.193916369\C,0
 ,-0.61033828,-3.528391237,0.834537362\C,0,0.612798485,-1.53268271,1.46
 4561597\C,0,-0.210975079,-1.740198122,-0.761411886\C,0,-0.752906398,-2
 .991015843,-0.445214365\C,0,0.091474508,-2.791635372,1.789187479\H,0,-
 1.271083977,-3.550469838,-1.221046686\H,0,0.227239537,-3.205174707,2.7
 84382295\O,0,-0.332940375,-1.392566144,-2.077668307\H,0,0.547480133,-1
 .046878983,-2.348918092\O,0,1.339704054,-0.865025728,2.417282043\H,0,1
 .37395358,-1.406920219,3.221843848\O,0,1.836110119,0.074707909,-2.2697
 80718\H,0,2.760281789,0.26855778,-2.001048446\C,0,1.719644221,2.887977
 623,-3.071306052\H,0,0.710028617,2.955285284,-3.489376423\H,0,2.315043
 461,2.219402428,-3.702775872\H,0,2.189273076,3.875702111,-3.145277332\
 O,0,3.062863173,2.28270091,-1.18897943\H,0,3.470549545,3.165808672,-1.
 241070668\H,0,0.251307836,3.691325514,1.275205775\C,0,-1.310818101,1.5
 72077266,0.857716264\C,0,-1.992209541,1.562223488,2.019448606\H,0,-3.0
 77763199,1.566088678,2.046150119\H,0,-1.484335127,1.538226026,2.978957
 88\C,0,-2.074260618,1.587194466,-0.43623583\H,0,-1.766652254,2.4179860
 42,-1.072945278\H,0,-3.15165882,1.704493218,-0.271349888\H,0,-1.942102
 61,0.650376713,-0.981021879\C,0,-1.205947748,-4.868688901,1.174813243\
 H,0,-1.200439683,-5.512557402,0.286854204\H,0,-0.578052052,-5.37390409
 7,1.918824319\C,0,-2.625490836,-4.736812222,1.704922542\H,0,-3.0334405
 72,-5.724001664,1.943934744\H,0,-3.283587209,-4.267472572,0.965764484\
 H,0,-2.654813582,-4.128044733,2.615014508\\Version=EM64L-G09RevC.01\St
 ate=1-A\HF=-1002.5421835\RMSD=4.034e-09\Dipole=0.7746262,1.3135137,0.8
 315537\Quadrupole=-5.9900913,9.3211319,-3.3310406,5.9164429,-0.5571197
 ,-13.5196325\PG=C01 [X(C18H26O4)]\\@


 Everywhere is walking distance if you have the time.
                                    -- Steven Wright
 Job cpu time:  0 days  2 hours 20 minutes 49.5 seconds.
 File lengths (MBytes):  RWF=    239 Int=      0 D2E=      0 Chk=     19 Scr=      1
 Normal termination of Gaussian 09 at Fri Dec 23 15:44:51 2022.
