 Entering Gaussian System, Link 0=g09
 Input=/home/lpassaglia.iquir/Link1/04_RSSR_THC_004.gjc
 Output=/home/lpassaglia.iquir/Link1/04_RSSR_THC_004.log
 Initial command:
 /share/apps/Gaussian09/EM64T.SSE4.2-enabled/g09/l1.exe /tmp/Gau-21307.inp -scrdir=/tmp/
 Entering Link 1 = /share/apps/Gaussian09/EM64T.SSE4.2-enabled/g09/l1.exe PID=     21313.
  
 Copyright (c) 1988,1990,1992,1993,1995,1998,2003,2009,2011,
            Gaussian, Inc.  All Rights Reserved.
  
 This is part of the Gaussian(R) 09 program.  It is based on
 the Gaussian(R) 03 system (copyright 2003, Gaussian, Inc.),
 the Gaussian(R) 98 system (copyright 1998, Gaussian, Inc.),
 the Gaussian(R) 94 system (copyright 1995, Gaussian, Inc.),
 the Gaussian 92(TM) system (copyright 1992, Gaussian, Inc.),
 the Gaussian 90(TM) system (copyright 1990, Gaussian, Inc.),
 the Gaussian 88(TM) system (copyright 1988, Gaussian, Inc.),
 the Gaussian 86(TM) system (copyright 1986, Carnegie Mellon
 University), and the Gaussian 82(TM) system (copyright 1983,
 Carnegie Mellon University). Gaussian is a federally registered
 trademark of Gaussian, Inc.
  
 This software contains proprietary and confidential information,
 including trade secrets, belonging to Gaussian, Inc.
  
 This software is provided under written license and may be
 used, copied, transmitted, or stored only in accord with that
 written license.
  
 The following legend is applicable only to US Government
 contracts under FAR:
  
                    RESTRICTED RIGHTS LEGEND
  
 Use, reproduction and disclosure by the US Government is
 subject to restrictions as set forth in subparagraphs (a)
 and (c) of the Commercial Computer Software - Restricted
 Rights clause in FAR 52.227-19.
  
 Gaussian, Inc.
 340 Quinnipiac St., Bldg. 40, Wallingford CT 06492
  
  
 ---------------------------------------------------------------
 Warning -- This program may not be used in any manner that
 competes with the business of Gaussian, Inc. or will provide
 assistance to any competitor of Gaussian, Inc.  The licensee
 of this program is prohibited from giving any competitor of
 Gaussian, Inc. access to this program.  By using this program,
 the user acknowledges that Gaussian, Inc. is engaged in the
 business of creating and licensing software in the field of
 computational chemistry and represents and warrants to the
 licensee that it is not a competitor of Gaussian, Inc. and that
 it will not use this program in any manner prohibited above.
 ---------------------------------------------------------------
  

 Cite this work as:
 Gaussian 09, Revision C.01,
 M. J. Frisch, G. W. Trucks, H. B. Schlegel, G. E. Scuseria, 
 M. A. Robb, J. R. Cheeseman, G. Scalmani, V. Barone, B. Mennucci, 
 G. A. Petersson, H. Nakatsuji, M. Caricato, X. Li, H. P. Hratchian, 
 A. F. Izmaylov, J. Bloino, G. Zheng, J. L. Sonnenberg, M. Hada, 
 M. Ehara, K. Toyota, R. Fukuda, J. Hasegawa, M. Ishida, T. Nakajima, 
 Y. Honda, O. Kitao, H. Nakai, T. Vreven, J. A. Montgomery, Jr., 
 J. E. Peralta, F. Ogliaro, M. Bearpark, J. J. Heyd, E. Brothers, 
 K. N. Kudin, V. N. Staroverov, T. Keith, R. Kobayashi, J. Normand, 
 K. Raghavachari, A. Rendell, J. C. Burant, S. S. Iyengar, J. Tomasi, 
 M. Cossi, N. Rega, J. M. Millam, M. Klene, J. E. Knox, J. B. Cross, 
 V. Bakken, C. Adamo, J. Jaramillo, R. Gomperts, R. E. Stratmann, 
 O. Yazyev, A. J. Austin, R. Cammi, C. Pomelli, J. W. Ochterski, 
 R. L. Martin, K. Morokuma, V. G. Zakrzewski, G. A. Voth, 
 P. Salvador, J. J. Dannenberg, S. Dapprich, A. D. Daniels, 
 O. Farkas, J. B. Foresman, J. V. Ortiz, J. Cioslowski, 
 and D. J. Fox, Gaussian, Inc., Wallingford CT, 2010.
 
 ******************************************
 Gaussian 09:  EM64L-G09RevC.01 23-Sep-2011
                23-Dec-2022 
 ******************************************
 %chk=04_RSSR_THC_004_optB_NMR
 %nprocshared=4
 Will use up to    4 processors via shared memory.
 ------------------------------------------------
 # mPW1PW91/6-31+G** scrf=(PCM,solvent=water) nmr
 ------------------------------------------------
 1/38=1/1;
 2/12=2,17=6,18=5,40=1/2;
 3/5=1,6=6,7=111,11=2,16=1,25=1,30=1,70=2201,72=1,74=-7/1,2,8,3;
 4//1;
 5/5=2,38=5,53=1/2;
 8/6=1,10=90,11=11/1;
 10/13=100,45=16/2;
 6/7=2,8=2,9=2,10=2,28=1/1;
 99/9=1/99;
 -------
 comment
 -------
 Charge =  0 Multiplicity = 1
 Symbolic Z-Matrix:
 6                     1.87575   2.41427  -1.51629 
 6                     1.05624   3.46856  -0.76835 
 1                     1.61733   4.41131  -0.72607 
 1                     0.13569   3.68227  -1.31937 
 6                     0.72758   3.06098   0.66821 
 1                     1.65988   3.08864   1.24891 
 6                     0.1124    1.65434   0.8224 
 1                     0.27104   1.41566   1.88616 
 6                     0.93193   0.5897    0.02641 
 1                     1.93604   0.58012   0.47853 
 6                     1.2116    1.01534  -1.43806 
 1                     0.30656   1.03661  -2.04708 
 6                     0.40673  -0.83566   0.26181 
 6                    -0.54279  -3.45817   0.84649 
 6                     0.77064  -1.51255   1.44244 
 6                    -0.46136  -1.51123  -0.6071 
 6                    -0.92997  -2.80078  -0.32514 
 6                     0.30941  -2.79938   1.73543 
 1                    -1.5985   -3.30529  -1.01807 
 1                     0.60508  -3.29354   2.65678 
 8                    -0.86784  -0.91785  -1.76835 
 1                    -1.613    -1.42284  -2.13468 
 8                     1.59754  -0.8876    2.33851 
 1                     1.78798  -1.49143   3.074 
 8                     2.12572   0.07847  -2.04607 
 1                     1.64584  -0.77085  -2.06876 
 6                     2.08547   2.85024  -2.9718 
 1                     1.1362    2.91128  -3.51384 
 1                     2.74653   2.15835  -3.50535 
 1                     2.57238   3.83141  -3.01567 
 8                     3.17964   2.34363  -0.91799 
 1                     3.55753   1.50335  -1.25103 
 1                     0.07348   3.81678   1.12074 
 6                    -1.41183   1.6271    0.63201 
 6                    -2.19738   1.05287   1.563 
 1                    -3.27791   1.02512   1.46435 
 1                    -1.77813   0.58396   2.44871 
 6                    -2.04446   2.26212  -0.57274 
 1                    -1.93766   3.3499   -0.53441 
 1                    -3.1185    2.05044  -0.62799 
 1                    -1.60584   1.8903   -1.49977 
 6                    -1.06185  -4.83768   1.16043 
 1                    -1.20722  -5.3982    0.22891 
 1                    -0.31008  -5.39357   1.73393 
 6                    -2.36763  -4.7863    1.93881 
 1                    -2.72071  -5.80001   2.15284 
 1                    -3.14816  -4.26773   1.37176 
 1                    -2.24138  -4.26246   2.89242 
 
                          Input orientation:                          
 ---------------------------------------------------------------------
 Center     Atomic      Atomic             Coordinates (Angstroms)
 Number     Number       Type             X           Y           Z
 ---------------------------------------------------------------------
      1          6           0        1.875746    2.414267   -1.516294
      2          6           0        1.056242    3.468559   -0.768348
      3          1           0        1.617334    4.411310   -0.726070
      4          1           0        0.135686    3.682273   -1.319365
      5          6           0        0.727584    3.060981    0.668213
      6          1           0        1.659882    3.088641    1.248912
      7          6           0        0.112397    1.654343    0.822402
      8          1           0        0.271041    1.415658    1.886157
      9          6           0        0.931934    0.589703    0.026414
     10          1           0        1.936039    0.580122    0.478526
     11          6           0        1.211597    1.015342   -1.438056
     12          1           0        0.306559    1.036613   -2.047083
     13          6           0        0.406728   -0.835659    0.261809
     14          6           0       -0.542795   -3.458167    0.846487
     15          6           0        0.770644   -1.512553    1.442440
     16          6           0       -0.461364   -1.511231   -0.607100
     17          6           0       -0.929972   -2.800780   -0.325142
     18          6           0        0.309406   -2.799384    1.735428
     19          1           0       -1.598500   -3.305285   -1.018072
     20          1           0        0.605078   -3.293540    2.656777
     21          8           0       -0.867843   -0.917849   -1.768346
     22          1           0       -1.613004   -1.422842   -2.134677
     23          8           0        1.597540   -0.887600    2.338505
     24          1           0        1.787976   -1.491428    3.074003
     25          8           0        2.125722    0.078465   -2.046074
     26          1           0        1.645837   -0.770851   -2.068758
     27          6           0        2.085474    2.850241   -2.971802
     28          1           0        1.136201    2.911285   -3.513837
     29          1           0        2.746527    2.158349   -3.505354
     30          1           0        2.572380    3.831414   -3.015667
     31          8           0        3.179638    2.343632   -0.917990
     32          1           0        3.557530    1.503353   -1.251026
     33          1           0        0.073482    3.816777    1.120743
     34          6           0       -1.411825    1.627095    0.632009
     35          6           0       -2.197379    1.052867    1.563000
     36          1           0       -3.277905    1.025117    1.464345
     37          1           0       -1.778128    0.583957    2.448705
     38          6           0       -2.044456    2.262122   -0.572737
     39          1           0       -1.937662    3.349901   -0.534410
     40          1           0       -3.118496    2.050439   -0.627994
     41          1           0       -1.605839    1.890304   -1.499772
     42          6           0       -1.061850   -4.837681    1.160432
     43          1           0       -1.207215   -5.398204    0.228912
     44          1           0       -0.310083   -5.393571    1.733926
     45          6           0       -2.367632   -4.786301    1.938815
     46          1           0       -2.720712   -5.800015    2.152838
     47          1           0       -3.148162   -4.267728    1.371757
     48          1           0       -2.241382   -4.262461    2.892416
 ---------------------------------------------------------------------
                    Distance matrix (angstroms):
                    1          2          3          4          5
     1  C    0.000000
     2  C    1.530537   0.000000
     3  H    2.163195   1.097904   0.000000
     4  H    2.162042   1.093945   1.754644   0.000000
     5  C    2.551193   1.529000   2.135197   2.164905   0.000000
     6  H    2.854425   2.139639   2.377355   3.044933   1.098706
     7  C    3.025952   2.590889   3.501924   2.949612   1.543004
     8  H    3.892169   3.446351   4.196447   3.928262   2.097358
     9  C    2.569000   2.989132   3.954831   3.465418   2.561422
    10  H    2.710541   3.266772   4.028725   4.012109   2.766045
    11  C    1.550550   2.547728   3.493443   2.878227   2.975781
    12  H    2.154533   2.848077   3.853801   2.749233   3.412939
    13  C    3.985183   4.473185   5.474683   4.794297   3.930893
    14  C    6.776249   7.290003   8.310702   7.492472   6.644166
    15  C    5.039373   5.457162   6.364863   5.917513   4.638803
    16  C    4.658138   5.208400   6.277869   5.276009   4.893377
    17  C    6.040498   6.591364   7.659227   6.644854   6.172073
    18  C    6.341079   6.790712   7.730703   7.167553   5.971407
    19  H    6.710580   7.279765   8.364968   7.205841   6.984524
    20  H    7.183884   7.593485   8.475437   8.043134   6.659530
    21  O    4.323633   4.893124   5.971798   4.729669   4.930851
    22  H    5.222755   5.737379   6.815907   5.457549   5.782665
    23  O    5.083227   5.377886   6.121312   6.033305   4.374699
    24  H    6.027684   6.316688   7.022249   6.985622   5.257060
    25  O    2.408137   3.777447   4.557895   4.180404   4.268201
    26  H    3.240840   4.473397   5.353355   4.761560   4.797617
    27  C    1.533806   2.509351   2.774779   2.687841   3.890755
    28  H    2.187265   2.802616   3.202063   2.532026   4.204630
    29  H    2.186347   3.473459   3.751710   3.730600   4.723297
    30  H    2.177550   2.735102   2.547675   2.972735   4.191397
    31  O    1.436347   2.407627   2.598638   3.349433   3.007191
    32  H    1.930940   3.217367   3.534989   4.057262   3.757429
    33  H    3.488431   2.157715   2.479449   2.444604   1.097206
    34  C    4.005368   3.382801   4.332671   3.228995   2.575735
    35  C    5.284487   4.675125   5.574138   4.545877   3.659040
    36  H    6.113434   5.453454   6.342523   5.144136   4.563170
    37  H    5.694036   5.167592   6.021378   5.240286   3.947707
    38  C    4.035026   3.332879   4.248674   2.706900   3.140436
    39  H    4.047418   3.005373   3.715013   2.241740   2.938250
    40  H    5.085657   4.411258   5.292582   3.705480   4.182545
    41  H    3.520830   3.180022   4.164485   2.505316   3.393451
    42  C    8.269527   8.786360   9.812275   8.953943   8.113767
    43  H    8.578175   9.205283  10.252640   9.308899   8.688743
    44  H    8.735222   9.309433  10.290880   9.586044   8.584401
    45  C    9.043904   9.337791  10.371963   9.412709   8.530805
    46  H   10.102692  10.426177  11.462021  10.494236   9.623519
    47  H    8.844747   9.061302  10.121094   9.012675   8.320238
    48  H    8.998120   9.167561  10.159599   9.300987   8.209425
                    6          7          8          9         10
     6  H    0.000000
     7  C    2.152634   0.000000
     8  H    2.265797   1.101687   0.000000
     9  C    2.875605   1.561633   2.139540   0.000000
    10  H    2.638640   2.144264   2.334901   1.101237   0.000000
    11  C    3.423350   2.593498   3.477829   1.550500   2.094641
    12  H    4.111676   2.941637   3.951621   2.211382   3.040113
    13  C    4.236142   2.569242   2.779451   1.537176   2.095279
    14  C    6.919135   5.154378   5.049497   4.385498   4.752662
    15  C    4.690329   3.293473   3.003483   2.539808   2.581969
    16  C    5.394746   3.520445   3.914004   2.599335   3.361530
    17  C    6.623464   4.717151   4.910257   3.884026   4.504487
    18  C    6.060472   4.550617   4.217911   3.846321   3.955604
    19  H    7.525859   5.559894   5.849533   4.760775   5.461608
    20  H    6.620191   5.299926   4.783512   4.701619   4.639127
    21  O    5.616511   3.780081   4.483046   2.955177   3.892827
    22  H    6.520271   4.603302   5.270087   3.898379   4.841116
    23  O    4.123299   3.311449   2.696149   2.823335   2.393389
    24  H    4.931976   4.215820   3.487580   3.788365   3.324115
    25  O    4.487214   3.842528   4.548667   2.445751   2.580939
    26  H    5.089480   4.073304   4.723583   2.598174   2.897931
    27  C    4.248810   4.440629   5.380517   3.928102   4.132860
    28  H    4.794734   4.629368   5.669686   4.238495   4.691804
    29  H    4.964805   5.091378   5.978964   4.269283   4.361077
    30  H    4.423912   5.051923   5.929580   4.738566   4.815103
    31  O    2.749575   3.593334   4.145397   3.003388   2.570362
    32  H    3.516232   4.023784   4.544295   3.059471   2.544197
    33  H    1.750221   2.183264   2.527896   3.514044   3.789128
    34  C    3.457177   1.536309   2.109415   2.633655   3.511111
    35  C    4.372812   2.499064   2.515779   3.516848   4.299385
    36  H    5.355958   3.507444   3.595200   4.469897   5.324948
    37  H    4.419599   2.713793   2.281946   3.634827   4.204361
    38  C    4.209948   2.639663   3.481980   3.466247   4.447316
    39  H    4.023781   2.986402   3.805103   4.020921   4.868601
    40  H    5.237704   3.563595   4.267653   4.355225   5.379084
    41  H    4.433532   2.898362   3.900318   3.234363   4.263231
    42  C    8.381064   6.606019   6.434868   5.892170   6.229360
    43  H    9.015940   7.199446   7.166618   6.361760   6.758901
    44  H    8.721463   7.119161   6.835677   6.344901   6.504314
    45  C    8.871953   6.991338   6.740153   6.591345   7.032249
    46  H    9.950622   8.084801   7.815858   7.661070   8.074329
    47  H    8.789115   6.782622   6.652551   6.484734   7.081569
    48  H    8.482905   6.695805   6.290140   6.467411   6.835812
                   11         12         13         14         15
    11  C    0.000000
    12  H    1.091082   0.000000
    13  C    2.638856   2.974293   0.000000
    14  C    5.320649   5.412688   2.849735   0.000000
    15  C    3.857713   4.346308   1.408727   2.421920   0.000000
    16  C    3.142111   3.025685   1.401778   2.431071   2.391330
    17  C    4.515272   4.384025   2.448056   1.398134   2.770554
    18  C    5.043519   5.387232   2.457080   1.396588   1.398040
    19  H    5.171155   4.851824   3.429006   2.148131   3.857570
    20  H    5.975114   6.400441   3.437499   2.149852   2.161930
    21  O    2.858389   2.297136   2.398502   3.660085   3.653417
    22  H    3.795839   3.121107   3.188611   3.765002   4.299487
    23  O    4.246475   4.960102   2.394452   3.662645   1.370130
    24  H    5.193725   5.900093   3.200986   3.776557   1.922864
    25  O    1.443277   2.056065   3.019418   5.291093   4.066609
    26  H    1.943408   2.249680   2.640290   4.528844   3.693860
    27  C    2.546152   2.703496   5.182691   7.828355   6.344154
    28  H    2.812321   2.520728   5.369099   7.899454   6.653469
    29  H    2.817125   3.055861   5.350725   7.829649   6.469954
    30  H    3.502977   3.725991   6.100284   8.818080   7.188808
    31  O    2.430639   3.352273   4.380508   7.115529   5.122992
    32  H    2.403442   3.379403   4.205616   6.769705   4.910925
    33  H    3.961161   4.221226   4.742782   7.306150   5.384355
    34  C    3.397316   3.237135   3.083722   5.163439   3.908626
    35  C    4.541900   4.393480   3.470014   4.858031   3.924929
    36  H    5.345995   5.017832   4.299430   5.287950   4.778179
    37  H    4.922546   4.976236   3.401679   4.520168   3.450241
    38  C    3.592370   3.033618   4.037452   6.082014   5.121903
    39  H    4.023006   3.560338   4.863028   7.085360   5.906464
    40  H    4.525189   3.843522   4.642038   6.257241   5.666305
    41  H    2.950816   2.164626   3.818961   5.936425   5.087605
    42  C    6.795482   6.831400   4.356652   1.506996   3.807103
    43  H    7.054290   6.991319   4.839701   2.141634   4.525799
    44  H    7.311029   7.484887   4.843088   2.141842   4.039212
    45  C    7.607443   7.546191   5.110478   2.507419   4.562081
    46  H    8.649085   8.575732   6.164552   3.454581   5.574635
    47  H    7.403606   7.194415   5.064418   2.778352   4.790932
    48  H    7.650572   7.679247   5.067105   2.778113   4.328594
                   16         17         18         19         20
    16  C    0.000000
    17  C    1.400725   0.000000
    18  C    2.782241   2.404581   0.000000
    19  H    2.163471   1.087017   3.387891   0.000000
    20  H    3.868697   3.389843   1.086506   4.284905   0.000000
    21  O    1.365950   2.373210   4.147592   2.607033   5.234035
    22  H    1.915093   2.374798   4.535223   2.188747   5.601557
    23  O    3.647546   4.140482   2.382837   5.227474   2.621989
    24  H    4.313981   4.544868   2.385099   5.612786   2.195662
    25  O    3.360178   4.537503   5.087316   5.135794   5.983276
    26  H    2.669252   3.714243   4.513627   4.248884   5.456906
    27  C    5.576795   6.930495   7.565098   7.435000   8.462773
    28  H    5.528108   6.860360   7.800648   7.235549   8.766894
    29  H    5.670649   6.944303   7.614754   7.410609   8.501809
    30  H    6.599140   7.968148   8.465308   8.504063   9.317289
    31  O    5.311640   6.611001   6.459836   7.399384   7.154371
    32  H    5.064965   6.286533   6.163016   7.054212   6.855515
    33  H    5.626648   6.847595   6.648841   7.621930   7.293737
    34  C    3.505404   4.555699   4.875848   5.204420   5.690363
    35  C    3.781226   4.474594   4.599298   5.100400   5.285959
    36  H    4.319357   4.832447   5.250628   5.266420   5.928765
    37  H    3.932127   4.457583   4.039005   5.213158   4.556089
    38  C    4.092133   5.190024   6.040458   5.602965   6.950912
    39  H    5.080880   6.236194   6.929300   6.681352   7.796443
    40  H    4.443678   5.330636   6.391953   5.580889   7.294713
    41  H    3.698260   4.882911   6.010646   5.217877   7.002664
    42  C    3.814449   2.524537   2.523017   2.717004   2.720674
    43  H    4.045216   2.670290   3.365055   2.467465   3.688976
    44  H    4.536061   3.368469   2.667128   3.687065   2.469677
    45  C    4.565262   3.336863   3.340020   3.395313   3.403059
    46  H    5.578134   4.282820   4.284814   4.187805   4.194907
    47  H    4.328168   3.154643   3.773999   3.006499   4.084988
    48  H    4.794198   3.769481   3.160021   4.076935   3.016068
                   21         22         23         24         25
    21  O    0.000000
    22  H    0.971844   0.000000
    23  O    4.790120   5.532037   0.000000
    24  H    5.552540   6.221070   0.970479   0.000000
    25  O    3.167208   4.029869   4.520707   5.365987   0.000000
    26  H    2.535832   3.324076   4.409074   5.194942   0.975778
    27  C    4.936485   5.713033   6.512211   7.449184   2.922556
    28  H    4.661030   5.314589   6.992443   7.950366   3.340411
    29  H    5.054093   5.805961   6.689444   7.584696   2.615495
    30  H    5.995534   6.775011   7.203233   8.126008   3.901825
    31  O    5.267111   6.215792   4.852695   5.707925   2.741220
    32  H    5.070874   6.006486   4.737399   5.550307   2.170825
    33  H    5.625798   6.394966   5.092824   5.910308   5.311816
    34  C    3.540389   4.122759   4.276926   5.091880   4.699428
    35  C    4.092584   4.488144   4.332232   4.963830   5.715249
    36  H    4.475914   4.660189   5.309671   5.881083   6.512940
    37  H    4.568102   5.006187   3.684123   4.173166   5.974831
    38  C    3.595290   4.025514   5.626741   6.486553   4.932491
    39  H    4.569551   5.044337   6.221552   7.095032   5.431253
    40  H    3.895712   4.074344   6.298666   7.093875   5.779399
    41  H    2.915903   3.373439   5.719332   6.623707   4.183988
    42  C    4.896985   4.777305   4.905441   4.793815   6.679131
    43  H    4.917092   4.642707   5.715119   5.685825   6.802789
    44  H    5.710437   5.694768   4.930346   4.628647   7.082706
    45  C    5.563931   5.336259   5.575142   5.423460   7.728875
    46  H    6.530265   6.226512   6.543210   6.304025   8.699156
    47  H    5.126577   4.769190   5.906061   5.913623   7.640996
    48  H    5.898791   5.807750   5.141384   4.893600   7.893283
                   26         27         28         29         30
    26  H    0.000000
    27  C    3.757802   0.000000
    28  H    3.988246   1.094827   0.000000
    29  H    3.443187   1.095621   1.777676   0.000000
    30  H    4.789150   1.096221   1.776912   1.751932   0.000000
    31  O    3.657433   2.381594   3.352057   2.629899   2.642444
    32  H    3.081438   2.634792   3.600752   2.483695   3.082912
    33  H    5.804441   4.661676   4.840312   5.594312   4.832659
    34  C    4.732186   5.168620   5.032854   5.889983   5.834248
    35  C    5.593381   6.491364   6.351436   7.166066   7.171827
    36  H    6.320724   7.195576   6.915509   7.891509   7.884900
    37  H    5.828080   7.031739   7.032900   7.642122   7.702743
    38  C    5.005524   4.812247   4.380419   5.618232   5.453967
    39  H    5.672414   4.730344   4.303255   5.673441   5.170007
    40  H    5.721394   5.763195   5.212638   6.533708   6.423311
    41  H    4.240152   4.088293   3.552133   4.799718   4.850088
    42  C    5.856479   9.278208   9.312716   9.231344  10.285943
    43  H    5.901830   9.440510   9.409961   9.310118  10.488016
    44  H    6.297267   9.789944   9.929822   9.686300  10.768823
    45  C    6.949274  10.112422  10.062856  10.199105  11.100253
    46  H    7.885500  11.143980  11.084842  11.191130  12.144739
    47  H    6.859134   9.844945   9.683131   9.991398  10.842979
    48  H    7.205211  10.183382  10.193663  10.345892  11.117039
                   31         32         33         34         35
    31  O    0.000000
    32  H    0.979685   0.000000
    33  H    3.996848   4.807889   0.000000
    34  C    4.898720   5.315602   2.690670   0.000000
    35  C    6.060833   6.421888   3.604386   1.346691   0.000000
    36  H    7.008129   7.370558   4.375297   2.130121   1.085376
    37  H    6.245841   6.557632   3.955131   2.126664   1.086334
    38  C    5.236125   5.693685   3.125778   1.501630   2.459076
    39  H    5.229386   5.841268   2.646168   2.145950   3.121370
    40  H    6.311621   6.727317   4.045585   2.163228   2.577608
    41  H    4.841980   5.183820   3.660398   2.156713   3.229828
    42  C    8.595424   8.207467   8.728699   6.495771   6.012490
    43  H    8.971950   8.516132   9.346198   7.039828   6.661571
    44  H    8.892419   8.451978   9.238702   7.191509   6.719200
    45  C    9.474675   9.210992   8.980046   6.614602   5.853725
    46  H   10.514899  10.214783  10.067543   7.693378   6.898099
    47  H    9.433667   9.227713   8.706390   6.189591   5.408261
    48  H    9.356662   9.167339   8.589034   6.362741   5.479233
                   36         37         38         39         40
    36  H    0.000000
    37  H    1.847409   0.000000
    38  C    2.683520   3.466450   0.000000
    39  H    3.346027   4.071225   1.093681   0.000000
    40  H    2.335504   3.662408   1.096095   1.758332   0.000000
    41  H    3.511459   4.162535   1.090884   1.781138   1.753217
    42  C    6.275003   5.618439   7.374048   8.406904   7.407729
    43  H    6.860984   6.406222   7.747529   8.811672   7.737542
    44  H    7.076736   6.196524   8.181587   9.178380   8.299345
    45  C    5.901381   5.426525   7.489499   8.514664   7.341207
    46  H    6.882362   6.459962   8.537220   9.568460   8.337918
    47  H    5.295244   5.155159   6.902041   7.945254   6.627150
    48  H    5.574249   4.888687   7.390281   8.353649   7.281162
                   41         42         43         44         45
    41  H    0.000000
    42  C    7.255232   0.000000
    43  H    7.501307   1.096835   0.000000
    44  H    8.074071   1.096841   1.752123   0.000000
    45  C    7.548593   1.521048   2.155170   2.155055   0.000000
    46  H    8.586356   2.159347   2.480648   2.480285   1.094572
    47  H    6.967482   2.173063   2.520188   3.074635   1.095308
    48  H    7.586287   2.173003   3.074681   2.520202   1.095309
                   46         47         48
    46  H    0.000000
    47  H    1.772203   0.000000
    48  H    1.772231   1.770503   0.000000
 Stoichiometry    C18H26O4
 Framework group  C1[X(C18H26O4)]
 Deg. of freedom   138
 Full point group                 C1      NOp   1
 Largest Abelian subgroup         C1      NOp   1
 Largest concise Abelian subgroup C1      NOp   1
                         Standard orientation:                         
 ---------------------------------------------------------------------
 Center     Atomic      Atomic             Coordinates (Angstroms)
 Number     Number       Type             X           Y           Z
 ---------------------------------------------------------------------
      1          6           0        3.248512   -0.744969   -0.078042
      2          6           0        3.621751    0.702456    0.250889
      3          1           0        4.623339    0.733087    0.699527
      4          1           0        3.678754    1.289295   -0.670570
      5          6           0        2.653728    1.359972    1.234985
      6          1           0        2.800705    0.891118    2.217700
      7          6           0        1.161140    1.232292    0.865198
      8          1           0        0.639216    1.437388    1.813483
      9          6           0        0.795579   -0.240024    0.494595
     10          1           0        0.979757   -0.835663    1.402348
     11          6           0        1.771968   -0.862539   -0.536517
     12          1           0        1.686923   -0.403322   -1.522594
     13          6           0       -0.710187   -0.412683    0.238143
     14          6           0       -3.527402   -0.680456   -0.097391
     15          6           0       -1.582848   -0.526634    1.338137
     16          6           0       -1.298989   -0.421351   -1.033950
     17          6           0       -2.682950   -0.554000   -1.204499
     18          6           0       -2.965706   -0.659128    1.181085
     19          1           0       -3.114415   -0.563052   -2.202177
     20          1           0       -3.612975   -0.740905    2.049907
     21          8           0       -0.520595   -0.306048   -2.150475
     22          1           0       -1.092536   -0.120304   -2.913931
     23          8           0       -1.061892   -0.498809    2.605058
     24          1           0       -1.776774   -0.628270    3.248496
     25          8           0        1.485334   -2.269430   -0.683305
     26          1           0        0.586575   -2.310484   -1.061047
     27          6           0        4.206450   -1.304606   -1.137157
     28          1           0        4.117388   -0.764358   -2.085231
     29          1           0        4.019225   -2.367814   -1.324031
     30          1           0        5.245580   -1.233931   -0.795231
     31          8           0        3.433110   -1.541461    1.102897
     32          1           0        2.948504   -2.372356    0.917013
     33          1           0        2.927147    2.414536    1.365360
     34          6           0        0.673011    2.322479   -0.100962
     35          6           0       -0.423648    3.045231    0.196602
     36          1           0       -0.789636    3.829136   -0.458826
     37          1           0       -0.993546    2.864813    1.103679
     38          6           0        1.424060    2.614928   -1.367964
     39          1           0        2.395199    3.065232   -1.143790
     40          1           0        0.885089    3.324362   -2.006431
     41          1           0        1.574748    1.713074   -1.962925
     42          6           0       -5.018370   -0.803474   -0.278830
     43          1           0       -5.233707   -1.343980   -1.208631
     44          1           0       -5.439899   -1.412768    0.529956
     45          6           0       -5.698312    0.556876   -0.305499
     46          1           0       -6.778275    0.437575   -0.437925
     47          1           0       -5.321526    1.173408   -1.128676
     48          1           0       -5.529239    1.103932    0.628227
 ---------------------------------------------------------------------
 Rotational constants (GHZ):      0.5024350      0.1832598      0.1729253
 Standard basis: 6-31+G(d,p) (6D, 7F)
 There are   548 symmetry adapted basis functions of A   symmetry.
 Integral buffers will be    131072 words long.
 Raffenetti 2 integral format.
 Two-electron integral symmetry is turned on.
   548 basis functions,   886 primitive gaussians,   548 cartesian basis functions
    83 alpha electrons       83 beta electrons
       nuclear repulsion energy      1987.8112121114 Hartrees.
 NAtoms=   48 NActive=   48 NUniq=   48 SFac= 1.00D+00 NAtFMM=   60 NAOKFM=F Big=F
 ------------------------------------------------------------------------------
 Polarizable Continuum Model (PCM)
 =================================
 Model                : PCM.
 Atomic radii         : UFF (Universal Force Field).
 Polarization charges : Total charges.
 Charge compensation  : None.
 Solution method      : Matrix inversion.
 Cavity type          : Scaled VdW (van der Waals Surface) (Alpha=1.100).
 Cavity algorithm     : GePol (No added spheres)
                        Default sphere list used, NSphG=   48.
                        Lebedev-Laikov grids with approx.  5.0 points / Ang**2.
                        Smoothing algorithm: Karplus/York (Gamma=1.0000).
                        Polarization charges: spherical gaussians, with
                                              point-specific exponents (IZeta= 3).
                        Self-potential: point-specific (ISelfS= 7).
                        Self-field    : sphere-specific E.n sum rule (ISelfD= 2).
 Solvent              : Water, Eps=  78.355300 Eps(inf)=   1.777849
 ------------------------------------------------------------------------------
 One-electron integrals computed using PRISM.
 NBasis=   548 RedAO= T  NBF=   548
 NBsUse=   546 1.00D-06 NBFU=   546
 Harris functional with IExCor=  908 diagonalized for initial guess.
 ExpMin= 4.38D-02 ExpMax= 5.48D+03 ExpMxC= 8.25D+02 IAcc=2 IRadAn=         4 AccDes= 0.00D+00
 HarFok:  IExCor=  908 AccDes= 0.00D+00 IRadAn=         4 IDoV= 1
 ScaDFX=  1.000000  1.000000  1.000000  1.000000
 FoFCou: FMM=F IPFlag=           0 FMFlag=      100000 FMFlg1=           0
         NFxFlg=           0 DoJE=T BraDBF=F KetDBF=T FulRan=T
         Omega=  0.000000  0.000000  1.000000  0.000000  0.000000 ICntrl=     500 IOpCl=  0
         NMat0=    1 NMatS0=    1 NMatT0=    0 NMatD0=    1 NMtDS0=    0 NMtDT0=    0
         I1Cent=           4 NGrid=           0.
 Petite list used in FoFCou.
 Initial guess orbital symmetries:
       Occupied  (A) (A) (A) (A) (A) (A) (A) (A) (A) (A) (A) (A)
                 (A) (A) (A) (A) (A) (A) (A) (A) (A) (A) (A) (A)
                 (A) (A) (A) (A) (A) (A) (A) (A) (A) (A) (A) (A)
                 (A) (A) (A) (A) (A) (A) (A) (A) (A) (A) (A) (A)
                 (A) (A) (A) (A) (A) (A) (A) (A) (A) (A) (A) (A)
                 (A) (A) (A) (A) (A) (A) (A) (A) (A) (A) (A) (A)
                 (A) (A) (A) (A) (A) (A) (A) (A) (A) (A) (A)
       Virtual   (A) (A) (A) (A) (A) (A) (A) (A) (A) (A) (A) (A)
                 (A) (A) (A) (A) (A) (A) (A) (A) (A) (A) (A) (A)
                 (A) (A) (A) (A) (A) (A) (A) (A) (A) (A) (A) (A)
                 (A) (A) (A) (A) (A) (A) (A) (A) (A) (A) (A) (A)
                 (A) (A) (A) (A) (A) (A) (A) (A) (A) (A) (A) (A)
                 (A) (A) (A) (A) (A) (A) (A) (A) (A) (A) (A) (A)
                 (A) (A) (A) (A) (A) (A) (A) (A) (A) (A) (A) (A)
                 (A) (A) (A) (A) (A) (A) (A) (A) (A) (A) (A) (A)
                 (A) (A) (A) (A) (A) (A) (A) (A) (A) (A) (A) (A)
                 (A) (A) (A) (A) (A) (A) (A) (A) (A) (A) (A) (A)
                 (A) (A) (A) (A) (A) (A) (A) (A) (A) (A) (A) (A)
                 (A) (A) (A) (A) (A) (A) (A) (A) (A) (A) (A) (A)
                 (A) (A) (A) (A) (A) (A) (A) (A) (A) (A) (A) (A)
                 (A) (A) (A) (A) (A) (A) (A) (A) (A) (A) (A) (A)
                 (A) (A) (A) (A) (A) (A) (A) (A) (A) (A) (A) (A)
                 (A) (A) (A) (A) (A) (A) (A) (A) (A) (A) (A) (A)
                 (A) (A) (A) (A) (A) (A) (A) (A) (A) (A) (A) (A)
                 (A) (A) (A) (A) (A) (A) (A) (A) (A) (A) (A) (A)
                 (A) (A) (A) (A) (A) (A) (A) (A) (A) (A) (A) (A)
                 (A) (A) (A) (A) (A) (A) (A) (A) (A) (A) (A) (A)
                 (A) (A) (A) (A) (A) (A) (A) (A) (A) (A) (A) (A)
                 (A) (A) (A) (A) (A) (A) (A) (A) (A) (A) (A) (A)
                 (A) (A) (A) (A) (A) (A) (A) (A) (A) (A) (A) (A)
                 (A) (A) (A) (A) (A) (A) (A) (A) (A) (A) (A) (A)
                 (A) (A) (A) (A) (A) (A) (A) (A) (A) (A) (A) (A)
                 (A) (A) (A) (A) (A) (A) (A) (A) (A) (A) (A) (A)
                 (A) (A) (A) (A) (A) (A) (A) (A) (A) (A) (A) (A)
                 (A) (A) (A) (A) (A) (A) (A) (A) (A) (A) (A) (A)
                 (A) (A) (A) (A) (A) (A) (A) (A) (A) (A) (A) (A)
                 (A) (A) (A) (A) (A) (A) (A) (A) (A) (A) (A) (A)
                 (A) (A) (A) (A) (A) (A) (A) (A) (A) (A) (A) (A)
                 (A) (A) (A) (A) (A) (A) (A) (A) (A) (A) (A) (A)
                 (A) (A) (A) (A) (A) (A) (A) (A) (A) (A) (A) (A)
                 (A) (A) (A) (A) (A) (A) (A) (A) (A) (A) (A) (A)
                 (A) (A) (A) (A) (A) (A) (A) (A) (A) (A) (A) (A)
                 (A) (A) (A) (A) (A) (A) (A) (A) (A) (A) (A) (A)
                 (A) (A) (A) (A) (A) (A) (A) (A) (A) (A) (A) (A)
                 (A) (A) (A) (A) (A) (A) (A) (A) (A) (A) (A) (A)
                 (A) (A) (A) (A) (A) (A) (A)
 The electronic state of the initial guess is 1-A.
 Requested convergence on RMS density matrix=1.00D-08 within 128 cycles.
 Requested convergence on MAX density matrix=1.00D-06.
 Requested convergence on             energy=1.00D-06.
 No special actions if energy rises.
 CoulSu:  requested number of processors reduced to:   2 ShMem   1 Linda.
 CoulSu:  requested number of processors reduced to:   2 ShMem   1 Linda.
 Error on total polarization charges =  0.01940
 SCF Done:  E(RmPW1PW91) =  -1002.30528303     A.U. after   14 cycles
             Convg  =    0.5415D-08             -V/T =  2.0094
 Range of M.O.s used for correlation:     1   546
 NBasis=   548 NAE=    83 NBE=    83 NFC=     0 NFV=     0
 NROrb=    546 NOA=    83 NOB=    83 NVA=   463 NVB=   463

 **** Warning!!: The largest alpha MO coefficient is  0.18060880D+03

 NEqPCM:  Using equilibrium solvation (IEInf=0, Eps=  78.3553, EpsInf=   1.7778)
          Differentiating once with respect to magnetic field using GIAOs.
          Electric field/nuclear overlap derivatives assumed to be zero.
 FoFCou: FMM=F IPFlag=           0 FMFlag=    10101102 FMFlg1=           0
         NFxFlg=    40000000 DoJE=F BraDBF=F KetDBF=T FulRan=T
         Omega=  0.000000  0.000000  1.000000  0.000000  0.000000 ICntrl=    6100 IOpCl=  0
         NMat0=    1 NMatS0=    1 NMatT0=    0 NMatD0=    1 NMtDS0=    0 NMtDT0=    0
         I1Cent=           7 NGrid=        3005.
 Symmetry not used in FoFCou.
          There are     3 degrees of freedom in the 1st order CPHF.  IDoFFX=0.
      3 vectors produced by pass  0 Test12= 1.28D-12 3.33D-08 XBig12= 6.79D+02 4.02D+00.
 AX will form     3 AO Fock derivatives at one time.
      3 vectors produced by pass  1 Test12= 1.28D-12 3.33D-08 XBig12= 1.49D+00 3.66D-01.
      3 vectors produced by pass  2 Test12= 1.28D-12 3.33D-08 XBig12= 6.15D-03 3.57D-02.
      3 vectors produced by pass  3 Test12= 1.28D-12 3.33D-08 XBig12= 3.15D-05 1.82D-03.
      3 vectors produced by pass  4 Test12= 1.28D-12 3.33D-08 XBig12= 9.59D-08 5.04D-05.
      3 vectors produced by pass  5 Test12= 1.28D-12 3.33D-08 XBig12= 2.62D-10 2.66D-06.
      3 vectors produced by pass  6 Test12= 1.28D-12 3.33D-08 XBig12= 1.09D-12 1.20D-07.
 Inverted reduced A of dimension    21 with in-core refinement.
 Calculating GIAO nuclear magnetic shielding tensors.
 SCF GIAO Magnetic shielding tensor (ppm):
      1  C    Isotropic =   122.9540   Anisotropy =    42.6528
   XX=   108.0370   YX=    -6.3614   ZX=     4.8131
   XY=    -6.6955   YY=   118.6029   ZY=   -19.4256
   XZ=     5.4955   YZ=   -12.0101   ZZ=   142.2221
   Eigenvalues:   104.7149   112.7579   151.3891
      2  C    Isotropic =   161.1957   Anisotropy =    25.6299
   XX=   156.9039   YX=     1.0985   ZX=    -1.8156
   XY=    -1.9647   YY=   174.9955   ZY=     7.3526
   XZ=    -0.9648   YZ=    11.2332   ZZ=   151.6879
   Eigenvalues:   148.2774   157.0275   178.2823
      3  H    Isotropic =    29.8585   Anisotropy =     9.2555
   XX=    35.6678   YX=     0.5367   ZX=     1.3126
   XY=     1.1402   YY=    27.4694   ZY=     1.9618
   XZ=     1.4630   YZ=     2.2039   ZZ=    26.4384
   Eigenvalues:    24.7762    28.7705    36.0289
      4  H    Isotropic =    29.4892   Anisotropy =     6.1572
   XX=    28.5458   YX=    -0.5762   ZX=    -2.4865
   XY=    -0.0276   YY=    31.0751   ZY=    -3.1693
   XZ=    -1.7504   YZ=    -3.2966   ZZ=    28.8466
   Eigenvalues:    25.3624    29.5111    33.5940
      5  C    Isotropic =   167.7952   Anisotropy =    23.6773
   XX=   183.0853   YX=     1.7486   ZX=     4.2915
   XY=    -0.4258   YY=   160.5808   ZY=     6.7910
   XZ=     2.1713   YZ=     0.1806   ZZ=   159.7195
   Eigenvalues:   156.4845   163.3211   183.5801
      6  H    Isotropic =    29.2332   Anisotropy =     8.3070
   XX=    28.3442   YX=    -1.1883   ZX=     2.1429
   XY=    -0.2330   YY=    25.1739   ZY=     1.0823
   XZ=     1.7393   YZ=    -0.2919   ZZ=    34.1815
   Eigenvalues:    24.9463    27.9821    34.7712
      7  C    Isotropic =   149.0510   Anisotropy =    21.9568
   XX=   147.8330   YX=    -3.4764   ZX=     8.8570
   XY=    -4.4108   YY=   152.5993   ZY=    -8.4421
   XZ=     5.7085   YZ=   -11.4054   ZZ=   146.7207
   Eigenvalues:   137.7167   145.7475   163.6889
      8  H    Isotropic =    28.2441   Anisotropy =     5.8691
   XX=    28.9274   YX=    -0.8169   ZX=    -2.3052
   XY=     1.4815   YY=    26.7231   ZY=     2.7901
   XZ=    -3.0262   YZ=     2.1054   ZZ=    29.0816
   Eigenvalues:    24.4259    28.1495    32.1568
      9  C    Isotropic =   149.2145   Anisotropy =    30.8883
   XX=   146.9869   YX=    -5.4517   ZX=    -5.3287
   XY=     3.1739   YY=   164.0541   ZY=    12.2845
   XZ=     0.8689   YZ=    14.9070   ZZ=   136.6026
   Eigenvalues:   130.8436   146.9933   169.8067
     10  H    Isotropic =    27.8662   Anisotropy =     6.2531
   XX=    30.9485   YX=    -0.1356   ZX=    -2.0103
   XY=    -2.1837   YY=    24.5401   ZY=    -2.6564
   XZ=    -2.1159   YZ=    -2.1718   ZZ=    28.1099
   Eigenvalues:    22.8311    28.7325    32.0349
     11  C    Isotropic =   121.9216   Anisotropy =    36.9567
   XX=   116.6649   YX=     2.6691   ZX=    -3.2136
   XY=     8.9329   YY=   145.0678   ZY=     7.1117
   XZ=    -0.9686   YZ=     1.5754   ZZ=   104.0321
   Eigenvalues:   103.0199   116.1855   146.5594
     12  H    Isotropic =    26.4348   Anisotropy =     3.8335
   XX=    26.8350   YX=    -0.0999   ZX=     1.1080
   XY=    -1.3295   YY=    25.8437   ZY=    -2.1131
   XZ=     1.8162   YZ=    -0.9149   ZZ=    26.6256
   Eigenvalues:    24.5956    25.7183    28.9904
     13  C    Isotropic =    89.9172   Anisotropy =   121.0405
   XX=    48.7687   YX=   -10.3531   ZX=     0.0819
   XY=   -22.0893   YY=   168.3964   ZY=     1.0284
   XZ=    -1.4072   YZ=     3.8870   ZZ=    52.5866
   Eigenvalues:    46.5896    52.5512   170.6109
     14  C    Isotropic =    50.2113   Anisotropy =   190.6644
   XX=   -29.2408   YX=   -24.0018   ZX=    -6.0384
   XY=   -26.5804   YY=   174.1067   ZY=     3.1205
   XZ=    -5.4490   YZ=     4.4498   ZZ=     5.7680
   Eigenvalues:   -33.0485     6.3615   177.3209
     15  C    Isotropic =    43.3815   Anisotropy =   124.6642
   XX=    34.0510   YX=    -7.7849   ZX=   -25.3676
   XY=    -7.8675   YY=   125.8178   ZY=    -2.5360
   XZ=   -19.2765   YZ=     1.2722   ZZ=   -29.7244
   Eigenvalues:   -36.8149    40.4684   126.4909
     16  C    Isotropic =    43.5930   Anisotropy =   121.1274
   XX=    20.7045   YX=   -11.8985   ZX=    36.5119
   XY=   -12.1427   YY=   122.3716   ZY=    15.4265
   XZ=    27.8810   YZ=     9.1643   ZZ=   -12.2973
   Eigenvalues:   -33.7762    40.2105   124.3446
     17  C    Isotropic =    89.3250   Anisotropy =    98.3070
   XX=    83.8393   YX=    -3.4956   ZX=   -27.2669
   XY=     1.7476   YY=   154.8210   ZY=    -0.1157
   XZ=   -29.2594   YZ=     3.1967   ZZ=    29.3146
   Eigenvalues:    17.2997    95.8123   154.8630
     18  C    Isotropic =    90.6384   Anisotropy =    99.2921
   XX=    70.2048   YX=    -6.9316   ZX=    33.9525
   XY=     1.1129   YY=   156.5868   ZY=     5.0631
   XZ=    36.2518   YZ=     4.9063   ZZ=    45.1236
   Eigenvalues:    20.1468    94.9353   156.8331
     19  H    Isotropic =    25.2004   Anisotropy =     7.5682
   XX=    29.6090   YX=     0.7446   ZX=    -1.8638
   XY=     0.8885   YY=    21.1443   ZY=     0.7692
   XZ=    -1.7046   YZ=     0.2205   ZZ=    24.8478
   Eigenvalues:    20.9431    24.4122    30.2458
     20  H    Isotropic =    25.1322   Anisotropy =     7.2191
   XX=    28.3155   YX=     0.5728   ZX=     2.4721
   XY=     0.3463   YY=    21.0915   ZY=    -0.5341
   XZ=     2.6018   YZ=    -0.4585   ZZ=    25.9896
   Eigenvalues:    20.9596    24.4920    29.9449
     21  O    Isotropic =   227.6583   Anisotropy =    47.0449
   XX=   211.9385   YX=     6.2867   ZX=   -20.9406
   XY=   -18.0666   YY=   238.4618   ZY=    12.6351
   XZ=   -43.1078   YZ=    -1.4140   ZZ=   232.5745
   Eigenvalues:   188.5677   235.3855   259.0215
     22  H    Isotropic =    26.6080   Anisotropy =    15.3598
   XX=    27.9088   YX=    -0.4057   ZX=     4.5207
   XY=    -0.5334   YY=    18.7070   ZY=    -3.5161
   XZ=     5.9566   YZ=    -2.3574   ZZ=    33.2084
   Eigenvalues:    18.0985    24.8777    36.8479
     23  O    Isotropic =   226.6005   Anisotropy =    54.7148
   XX=   192.5475   YX=    -7.9703   ZX=    20.0231
   XY=    -6.0144   YY=   244.0840   ZY=   -22.2501
   XZ=    36.6331   YZ=     2.8806   ZZ=   243.1700
   Eigenvalues:   179.7759   236.9486   263.0770
     24  H    Isotropic =    26.5486   Anisotropy =    15.6249
   XX=    29.4738   YX=     1.8639   ZX=    -4.8666
   XY=     2.5203   YY=    18.1930   ZY=    -2.3768
   XZ=    -6.4083   YZ=    -1.6688   ZZ=    31.9790
   Eigenvalues:    17.7030    24.9776    36.9652
     25  O    Isotropic =   292.1625   Anisotropy =    21.3660
   XX=   299.0127   YX=     2.9475   ZX=     9.0374
   XY=    -2.9087   YY=   300.2114   ZY=    10.9000
   XZ=     8.9215   YZ=    10.3118   ZZ=   277.2634
   Eigenvalues:   270.6254   299.4556   306.4065
     26  H    Isotropic =    29.5249   Anisotropy =    17.4651
   XX=    38.1094   YX=     1.4930   ZX=     7.5590
   XY=    -0.7495   YY=    27.8621   ZY=     4.2069
   XZ=     6.8447   YZ=     3.2801   ZZ=    22.6032
   Eigenvalues:    18.5528    28.8537    41.1683
     27  C    Isotropic =   167.3531   Anisotropy =    46.1191
   XX=   164.1513   YX=   -12.6160   ZX=   -21.5841
   XY=   -14.3937   YY=   154.1697   ZY=     4.8135
   XZ=   -16.3566   YZ=     4.1746   ZZ=   183.7383
   Eigenvalues:   143.0511   160.9090   198.0991
     28  H    Isotropic =    30.6450   Anisotropy =     9.6680
   XX=    28.7007   YX=    -0.4737   ZX=    -3.3759
   XY=    -0.7339   YY=    27.4130   ZY=    -1.1216
   XZ=    -2.5133   YZ=    -2.3156   ZZ=    35.8212
   Eigenvalues:    26.2641    28.5805    37.0903
     29  H    Isotropic =    29.8036   Anisotropy =     8.4780
   XX=    29.7749   YX=    -2.0034   ZX=    -2.1462
   XY=    -1.2425   YY=    32.3286   ZY=     3.2457
   XZ=    -2.0603   YZ=     4.4130   ZZ=    27.3072
   Eigenvalues:    24.9609    28.9943    35.4556
     30  H    Isotropic =    30.4515   Anisotropy =     9.2342
   XX=    36.2193   YX=    -1.2215   ZX=    -0.2312
   XY=    -1.9857   YY=    27.3887   ZY=     0.4762
   XZ=    -1.4474   YZ=     1.1494   ZZ=    27.7465
   Eigenvalues:    26.6695    28.0774    36.6076
     31  O    Isotropic =   287.4221   Anisotropy =    35.4559
   XX=   275.3352   YX=    18.5587   ZX=   -10.2613
   XY=    13.0626   YY=   300.2800   ZY=    -3.6929
   XZ=    -3.1445   YZ=    -9.0880   ZZ=   286.6510
   Eigenvalues:   267.0764   284.1305   311.0594
     32  H    Isotropic =    29.0155   Anisotropy =    14.4002
   XX=    26.8120   YX=     5.2498   ZX=     5.1363
   XY=     5.4424   YY=    36.1880   ZY=    -2.0974
   XZ=     3.4081   YZ=    -2.3470   ZZ=    24.0467
   Eigenvalues:    19.4047    29.0262    38.6157
     33  H    Isotropic =    30.1512   Anisotropy =     9.4188
   XX=    29.5428   YX=     2.4196   ZX=     1.2936
   XY=     2.7448   YY=    33.6708   ZY=     3.5476
   XZ=     1.7586   YZ=     3.2729   ZZ=    27.2401
   Eigenvalues:    25.7189    28.3044    36.4304
     34  C    Isotropic =    43.6645   Anisotropy =   181.1599
   XX=    76.5937   YX=    40.6222   ZX=    48.3770
   XY=    39.7719   YY=    67.2269   ZY=    84.1382
   XZ=    49.9880   YZ=    88.1163   ZZ=   -12.8272
   Eigenvalues:   -70.8369    37.3926   164.4377
     35  C    Isotropic =    84.7661   Anisotropy =    98.0935
   XX=   123.5241   YX=     4.4949   ZX=    21.0937
   XY=     9.7806   YY=    95.2869   ZY=    68.3580
   XZ=    23.4825   YZ=    62.3262   ZZ=    35.4873
   Eigenvalues:    -8.1853   112.3218   150.1618
     36  H    Isotropic =    26.7154   Anisotropy =     5.8497
   XX=    28.1154   YX=    -3.5950   ZX=     0.8959
   XY=    -0.8073   YY=    28.5673   ZY=     0.0512
   XZ=    -1.1118   YZ=     1.5297   ZZ=    23.4634
   Eigenvalues:    23.3311    26.1999    30.6151
     37  H    Isotropic =    27.1877   Anisotropy =     7.8082
   XX=    28.3436   YX=    -1.7100   ZX=    -2.4695
   XY=    -2.0977   YY=    29.9522   ZY=     4.0995
   XZ=    -0.4916   YZ=     1.7943   ZZ=    23.2674
   Eigenvalues:    22.0647    27.1053    32.3932
     38  C    Isotropic =   170.7268   Anisotropy =    26.6548
   XX=   166.8023   YX=    -3.8153   ZX=   -12.1201
   XY=     2.5075   YY=   166.3010   ZY=    -9.6231
   XZ=   -12.1436   YZ=    -6.3972   ZZ=   179.0772
   Eigenvalues:   156.6165   167.0673   188.4967
     39  H    Isotropic =    29.5650   Anisotropy =     7.6583
   XX=    32.3086   YX=     2.4514   ZX=     0.1213
   XY=     3.4590   YY=    29.8604   ZY=    -2.7875
   XZ=    -0.7455   YZ=    -2.4366   ZZ=    26.5260
   Eigenvalues:    24.8841    29.1404    34.6705
     40  H    Isotropic =    29.7334   Anisotropy =     8.2057
   XX=    28.4385   YX=    -1.3991   ZX=     0.0787
   XY=    -2.1082   YY=    30.6019   ZY=    -3.9492
   XZ=     1.1462   YZ=    -4.8306   ZZ=    30.1596
   Eigenvalues:    25.7398    28.2564    35.2038
     41  H    Isotropic =    29.6886   Anisotropy =     3.3965
   XX=    26.6236   YX=    -1.2507   ZX=    -0.4054
   XY=    -0.2388   YY=    31.7260   ZY=    -0.4875
   XZ=    -1.1632   YZ=     1.0106   ZZ=    30.7162
   Eigenvalues:    26.3900    30.7229    31.9529
     42  C    Isotropic =   164.0487   Anisotropy =    29.8621
   XX=   183.5659   YX=     8.8622   ZX=     3.2905
   XY=    -6.2815   YY=   151.1951   ZY=    -1.2140
   XZ=     2.7356   YZ=     0.8564   ZZ=   157.3850
   Eigenvalues:   151.1289   157.0603   183.9567
     43  H    Isotropic =    29.1819   Anisotropy =     7.3653
   XX=    29.6904   YX=     0.9962   ZX=     2.1105
   XY=     1.9614   YY=    28.1620   ZY=     4.5127
   XZ=     0.7605   YZ=     3.7651   ZZ=    29.6934
   Eigenvalues:    24.7079    28.7458    34.0921
     44  H    Isotropic =    29.3229   Anisotropy =     7.6573
   XX=    30.3331   YX=     1.9657   ZX=    -1.9540
   XY=     2.9109   YY=    29.0849   ZY=    -4.1774
   XZ=    -0.5373   YZ=    -3.5895   ZZ=    28.5506
   Eigenvalues:    24.8032    28.7378    34.4278
     45  C    Isotropic =   178.1984   Anisotropy =    29.4000
   XX=   181.9828   YX=    -7.5818   ZX=     1.3402
   XY=   -19.1505   YY=   186.4185   ZY=    -0.9750
   XZ=     1.2154   YZ=    -0.1146   ZZ=   166.1939
   Eigenvalues:   166.0608   170.7360   197.7984
     46  H    Isotropic =    30.2273   Anisotropy =    12.1306
   XX=    37.7045   YX=    -1.1301   ZX=     1.3523
   XY=    -3.4201   YY=    27.0734   ZY=    -0.4881
   XZ=     1.2442   YZ=    -0.1345   ZZ=    25.9041
   Eigenvalues:    25.7584    26.6092    38.3144
     47  H    Isotropic =    30.6278   Anisotropy =     7.2231
   XX=    29.7116   YX=    -0.9904   ZX=    -0.7330
   XY=    -1.7329   YY=    31.2500   ZY=    -5.1280
   XZ=    -0.8613   YZ=    -3.5134   ZZ=    30.9217
   Eigenvalues:    26.1169    30.3232    35.4431
     48  H    Isotropic =    30.6368   Anisotropy =     7.4245
   XX=    29.3987   YX=    -1.8417   ZX=     0.0490
   XY=    -2.9354   YY=    30.6869   ZY=     4.6178
   XZ=     0.0551   YZ=     3.1580   ZZ=    31.8249
   Eigenvalues:    26.1813    30.1427    35.5865
 End of Minotr Frequency-dependent properties file   721 does not exist.
 End of Minotr Frequency-dependent properties file   722 does not exist.

 **********************************************************************

            Population analysis using the SCF density.

 **********************************************************************

 Orbital symmetries:
       Occupied  (A) (A) (A) (A) (A) (A) (A) (A) (A) (A) (A) (A)
                 (A) (A) (A) (A) (A) (A) (A) (A) (A) (A) (A) (A)
                 (A) (A) (A) (A) (A) (A) (A) (A) (A) (A) (A) (A)
                 (A) (A) (A) (A) (A) (A) (A) (A) (A) (A) (A) (A)
                 (A) (A) (A) (A) (A) (A) (A) (A) (A) (A) (A) (A)
                 (A) (A) (A) (A) (A) (A) (A) (A) (A) (A) (A) (A)
                 (A) (A) (A) (A) (A) (A) (A) (A) (A) (A) (A)
       Virtual   (A) (A) (A) (A) (A) (A) (A) (A) (A) (A) (A) (A)
                 (A) (A) (A) (A) (A) (A) (A) (A) (A) (A) (A) (A)
                 (A) (A) (A) (A) (A) (A) (A) (A) (A) (A) (A) (A)
                 (A) (A) (A) (A) (A) (A) (A) (A) (A) (A) (A) (A)
                 (A) (A) (A) (A) (A) (A) (A) (A) (A) (A) (A) (A)
                 (A) (A) (A) (A) (A) (A) (A) (A) (A) (A) (A) (A)
                 (A) (A) (A) (A) (A) (A) (A) (A) (A) (A) (A) (A)
                 (A) (A) (A) (A) (A) (A) (A) (A) (A) (A) (A) (A)
                 (A) (A) (A) (A) (A) (A) (A) (A) (A) (A) (A) (A)
                 (A) (A) (A) (A) (A) (A) (A) (A) (A) (A) (A) (A)
                 (A) (A) (A) (A) (A) (A) (A) (A) (A) (A) (A) (A)
                 (A) (A) (A) (A) (A) (A) (A) (A) (A) (A) (A) (A)
                 (A) (A) (A) (A) (A) (A) (A) (A) (A) (A) (A) (A)
                 (A) (A) (A) (A) (A) (A) (A) (A) (A) (A) (A) (A)
                 (A) (A) (A) (A) (A) (A) (A) (A) (A) (A) (A) (A)
                 (A) (A) (A) (A) (A) (A) (A) (A) (A) (A) (A) (A)
                 (A) (A) (A) (A) (A) (A) (A) (A) (A) (A) (A) (A)
                 (A) (A) (A) (A) (A) (A) (A) (A) (A) (A) (A) (A)
                 (A) (A) (A) (A) (A) (A) (A) (A) (A) (A) (A) (A)
                 (A) (A) (A) (A) (A) (A) (A) (A) (A) (A) (A) (A)
                 (A) (A) (A) (A) (A) (A) (A) (A) (A) (A) (A) (A)
                 (A) (A) (A) (A) (A) (A) (A) (A) (A) (A) (A) (A)
                 (A) (A) (A) (A) (A) (A) (A) (A) (A) (A) (A) (A)
                 (A) (A) (A) (A) (A) (A) (A) (A) (A) (A) (A) (A)
                 (A) (A) (A) (A) (A) (A) (A) (A) (A) (A) (A) (A)
                 (A) (A) (A) (A) (A) (A) (A) (A) (A) (A) (A) (A)
                 (A) (A) (A) (A) (A) (A) (A) (A) (A) (A) (A) (A)
                 (A) (A) (A) (A) (A) (A) (A) (A) (A) (A) (A) (A)
                 (A) (A) (A) (A) (A) (A) (A) (A) (A) (A) (A) (A)
                 (A) (A) (A) (A) (A) (A) (A) (A) (A) (A) (A) (A)
                 (A) (A) (A) (A) (A) (A) (A) (A) (A) (A) (A) (A)
                 (A) (A) (A) (A) (A) (A) (A) (A) (A) (A) (A) (A)
                 (A) (A) (A) (A) (A) (A) (A) (A) (A) (A) (A) (A)
                 (A) (A) (A) (A) (A) (A) (A) (A) (A) (A) (A) (A)
                 (A) (A) (A) (A) (A) (A) (A) (A) (A) (A) (A) (A)
                 (A) (A) (A) (A) (A) (A) (A) (A) (A) (A) (A) (A)
                 (A) (A) (A) (A) (A) (A) (A) (A) (A) (A) (A) (A)
                 (A) (A) (A) (A) (A) (A) (A) (A) (A) (A) (A) (A)
                 (A) (A) (A) (A) (A) (A) (A)
 The electronic state is 1-A.
 Alpha  occ. eigenvalues --  -19.28576 -19.28460 -19.25765 -19.24552 -10.32378
 Alpha  occ. eigenvalues --  -10.32371 -10.30861 -10.30105 -10.26898 -10.26516
 Alpha  occ. eigenvalues --  -10.26491 -10.26274 -10.25864 -10.25064 -10.24915
 Alpha  occ. eigenvalues --  -10.24884 -10.24316 -10.24290 -10.23804 -10.23770
 Alpha  occ. eigenvalues --  -10.23419 -10.23228  -1.10406  -1.09966  -1.06967
 Alpha  occ. eigenvalues --   -1.04237  -0.88951  -0.86481  -0.82296  -0.81638
 Alpha  occ. eigenvalues --   -0.78333  -0.76685  -0.76192  -0.74018  -0.71175
 Alpha  occ. eigenvalues --   -0.69478  -0.66926  -0.66370  -0.63549  -0.61928
 Alpha  occ. eigenvalues --   -0.59839  -0.58069  -0.57744  -0.54970  -0.53755
 Alpha  occ. eigenvalues --   -0.52969  -0.51337  -0.50379  -0.48903  -0.47732
 Alpha  occ. eigenvalues --   -0.47197  -0.46444  -0.45646  -0.45396  -0.44880
 Alpha  occ. eigenvalues --   -0.43946  -0.43542  -0.43120  -0.42363  -0.41831
 Alpha  occ. eigenvalues --   -0.41387  -0.40926  -0.40328  -0.39952  -0.39821
 Alpha  occ. eigenvalues --   -0.38867  -0.38822  -0.38194  -0.37935  -0.37030
 Alpha  occ. eigenvalues --   -0.35996  -0.35684  -0.34965  -0.34764  -0.33444
 Alpha  occ. eigenvalues --   -0.32631  -0.32478  -0.31328  -0.29589  -0.28201
 Alpha  occ. eigenvalues --   -0.25779  -0.24462  -0.23661
 Alpha virt. eigenvalues --   -0.00661  -0.00269  -0.00011   0.00796   0.01209
 Alpha virt. eigenvalues --    0.01600   0.01744   0.02507   0.02910   0.03150
 Alpha virt. eigenvalues --    0.03734   0.04496   0.04654   0.04752   0.05144
 Alpha virt. eigenvalues --    0.05905   0.06226   0.06992   0.07103   0.07275
 Alpha virt. eigenvalues --    0.08092   0.08151   0.08412   0.08968   0.09186
 Alpha virt. eigenvalues --    0.09601   0.09931   0.10177   0.10555   0.11396
 Alpha virt. eigenvalues --    0.11603   0.11760   0.12391   0.12608   0.13138
 Alpha virt. eigenvalues --    0.13440   0.13680   0.13969   0.14276   0.14503
 Alpha virt. eigenvalues --    0.14853   0.15048   0.15361   0.16228   0.16404
 Alpha virt. eigenvalues --    0.16696   0.17256   0.17562   0.17716   0.17806
 Alpha virt. eigenvalues --    0.18039   0.18463   0.18753   0.19365   0.19746
 Alpha virt. eigenvalues --    0.19885   0.20213   0.20444   0.20705   0.20834
 Alpha virt. eigenvalues --    0.20966   0.21245   0.21349   0.21475   0.21956
 Alpha virt. eigenvalues --    0.22185   0.22385   0.22889   0.23159   0.23331
 Alpha virt. eigenvalues --    0.23919   0.23961   0.24129   0.24533   0.24734
 Alpha virt. eigenvalues --    0.25037   0.25454   0.25844   0.26091   0.26684
 Alpha virt. eigenvalues --    0.26720   0.27296   0.27722   0.27973   0.28032
 Alpha virt. eigenvalues --    0.28389   0.28726   0.28830   0.29158   0.29260
 Alpha virt. eigenvalues --    0.30108   0.30351   0.30593   0.30777   0.31497
 Alpha virt. eigenvalues --    0.31791   0.32353   0.32663   0.32849   0.33119
 Alpha virt. eigenvalues --    0.33622   0.34044   0.34416   0.34801   0.35424
 Alpha virt. eigenvalues --    0.35567   0.36329   0.36653   0.36783   0.37242
 Alpha virt. eigenvalues --    0.37750   0.38585   0.38684   0.39689   0.40077
 Alpha virt. eigenvalues --    0.40509   0.40645   0.41023   0.42478   0.43154
 Alpha virt. eigenvalues --    0.43308   0.44024   0.44371   0.44962   0.45473
 Alpha virt. eigenvalues --    0.46186   0.46605   0.47852   0.48287   0.48964
 Alpha virt. eigenvalues --    0.49509   0.50040   0.50612   0.51316   0.53046
 Alpha virt. eigenvalues --    0.53261   0.55256   0.59704   0.63720   0.65335
 Alpha virt. eigenvalues --    0.68210   0.68463   0.69503   0.70515   0.71639
 Alpha virt. eigenvalues --    0.72204   0.72378   0.72879   0.73495   0.73785
 Alpha virt. eigenvalues --    0.75053   0.75447   0.75600   0.76700   0.76792
 Alpha virt. eigenvalues --    0.77786   0.77973   0.78271   0.79295   0.80329
 Alpha virt. eigenvalues --    0.80740   0.81044   0.81337   0.82974   0.84177
 Alpha virt. eigenvalues --    0.84541   0.84720   0.85359   0.86430   0.87523
 Alpha virt. eigenvalues --    0.88010   0.88873   0.89257   0.90255   0.91278
 Alpha virt. eigenvalues --    0.91489   0.92363   0.93191   0.94254   0.95356
 Alpha virt. eigenvalues --    0.95463   0.95927   0.96828   0.98720   0.98944
 Alpha virt. eigenvalues --    0.99622   1.01052   1.01437   1.01782   1.03163
 Alpha virt. eigenvalues --    1.03966   1.04413   1.05897   1.07538   1.08321
 Alpha virt. eigenvalues --    1.09511   1.09625   1.11175   1.11905   1.11989
 Alpha virt. eigenvalues --    1.12678   1.13040   1.13801   1.15121   1.15679
 Alpha virt. eigenvalues --    1.16085   1.16320   1.17352   1.17978   1.19239
 Alpha virt. eigenvalues --    1.20220   1.20348   1.21427   1.21959   1.22476
 Alpha virt. eigenvalues --    1.23523   1.24384   1.24738   1.25749   1.26581
 Alpha virt. eigenvalues --    1.27564   1.27876   1.28780   1.29083   1.30380
 Alpha virt. eigenvalues --    1.31089   1.32301   1.33046   1.33673   1.34044
 Alpha virt. eigenvalues --    1.35748   1.36165   1.36861   1.37278   1.38997
 Alpha virt. eigenvalues --    1.39279   1.39674   1.40124   1.42070   1.42969
 Alpha virt. eigenvalues --    1.43682   1.45451   1.46971   1.47365   1.49101
 Alpha virt. eigenvalues --    1.50924   1.51731   1.52787   1.53821   1.54330
 Alpha virt. eigenvalues --    1.54749   1.56087   1.57582   1.58518   1.59927
 Alpha virt. eigenvalues --    1.61020   1.61937   1.63210   1.65131   1.65507
 Alpha virt. eigenvalues --    1.66384   1.67790   1.68823   1.69754   1.73475
 Alpha virt. eigenvalues --    1.74186   1.74349   1.76255   1.77659   1.78983
 Alpha virt. eigenvalues --    1.79565   1.80228   1.81535   1.82370   1.84012
 Alpha virt. eigenvalues --    1.85133   1.86334   1.86757   1.86841   1.88493
 Alpha virt. eigenvalues --    1.89416   1.90288   1.90390   1.91233   1.92045
 Alpha virt. eigenvalues --    1.93097   1.94197   1.94579   1.95033   1.95492
 Alpha virt. eigenvalues --    1.96071   1.96590   1.96876   1.98648   1.99746
 Alpha virt. eigenvalues --    2.00614   2.01780   2.03702   2.04138   2.06306
 Alpha virt. eigenvalues --    2.06535   2.06905   2.07522   2.08538   2.09275
 Alpha virt. eigenvalues --    2.10741   2.10821   2.11714   2.13253   2.13595
 Alpha virt. eigenvalues --    2.14541   2.15421   2.15735   2.16480   2.17119
 Alpha virt. eigenvalues --    2.17328   2.18046   2.18682   2.19278   2.20070
 Alpha virt. eigenvalues --    2.20929   2.23076   2.23783   2.25144   2.25826
 Alpha virt. eigenvalues --    2.26394   2.27406   2.29208   2.29791   2.30210
 Alpha virt. eigenvalues --    2.31228   2.32665   2.33317   2.33551   2.35530
 Alpha virt. eigenvalues --    2.36456   2.37306   2.38783   2.39142   2.40408
 Alpha virt. eigenvalues --    2.41017   2.43436   2.45126   2.45571   2.46516
 Alpha virt. eigenvalues --    2.47632   2.49766   2.50107   2.50670   2.51893
 Alpha virt. eigenvalues --    2.52597   2.52781   2.53185   2.54286   2.55750
 Alpha virt. eigenvalues --    2.56363   2.56720   2.58196   2.58969   2.59185
 Alpha virt. eigenvalues --    2.60844   2.61092   2.62249   2.62894   2.64241
 Alpha virt. eigenvalues --    2.65596   2.66442   2.67673   2.68468   2.68840
 Alpha virt. eigenvalues --    2.69492   2.71057   2.71690   2.72576   2.73343
 Alpha virt. eigenvalues --    2.74000   2.74431   2.75556   2.76227   2.77161
 Alpha virt. eigenvalues --    2.77997   2.78429   2.79364   2.80083   2.80608
 Alpha virt. eigenvalues --    2.82541   2.84021   2.84414   2.85447   2.86712
 Alpha virt. eigenvalues --    2.87083   2.88714   2.89293   2.90189   2.91283
 Alpha virt. eigenvalues --    2.92156   2.93002   2.95160   2.95332   2.95860
 Alpha virt. eigenvalues --    2.97430   3.00835   3.02224   3.03419   3.05517
 Alpha virt. eigenvalues --    3.08343   3.09876   3.10914   3.12426   3.17531
 Alpha virt. eigenvalues --    3.19127   3.20369   3.26396   3.27492   3.29354
 Alpha virt. eigenvalues --    3.31473   3.32197   3.36121   3.36300   3.39539
 Alpha virt. eigenvalues --    3.40620   3.42185   3.45260   3.48154   3.48449
 Alpha virt. eigenvalues --    3.49899   3.51448   3.51612   3.51836   3.53502
 Alpha virt. eigenvalues --    3.54802   3.55630   3.56930   3.59571   3.60078
 Alpha virt. eigenvalues --    3.60460   3.61715   3.62211   3.65341   3.66262
 Alpha virt. eigenvalues --    3.76791   4.36649   4.37613   4.39790   4.46939
 Alpha virt. eigenvalues --    4.48701   4.49877   4.52341   4.55313   4.56156
 Alpha virt. eigenvalues --    4.56625   4.63532   4.64768   4.67761   4.70782
 Alpha virt. eigenvalues --    4.72336   4.75839   4.79053   4.86352   4.89294
 Alpha virt. eigenvalues --    4.94782   5.04117   5.06158
          Condensed to atoms (all electrons):
              1          2          3          4          5          6
     1  C   13.950192  -1.845749   0.013688  -0.097684   0.523584  -0.007449
     2  C   -1.845749   7.792203   0.308443   0.409032   0.081618  -0.063994
     3  H    0.013688   0.308443   0.528879  -0.026177  -0.006585  -0.005574
     4  H   -0.097684   0.409032  -0.026177   0.530721  -0.120261   0.004673
     5  C    0.523584   0.081618  -0.006585  -0.120261   6.706938   0.386462
     6  H   -0.007449  -0.063994  -0.005574   0.004673   0.386462   0.527284
     7  C    0.397342  -1.009070   0.033316   0.091914  -1.010709   0.011123
     8  H   -0.011620   0.037228  -0.000173  -0.000129   0.014411  -0.007864
     9  C    1.349320   0.206434   0.006530  -0.045647   0.656019  -0.044934
    10  H   -0.072041   0.011792  -0.000064   0.000091  -0.103586   0.002826
    11  C   -5.784522   0.315330   0.025875   0.039250  -0.431266   0.021595
    12  H   -0.136306   0.025970  -0.000054   0.001316  -0.024280   0.000035
    13  C    1.498330  -0.319693   0.001416  -0.010353   0.446129  -0.022843
    14  C    0.003568   0.018964  -0.000008  -0.000083  -0.014990   0.000090
    15  C   -0.107824   0.028645  -0.001445   0.002842  -0.152370   0.021226
    16  C   -0.662133   0.305027   0.001805   0.004222  -0.326510  -0.003555
    17  C   -0.641071   0.037459   0.000076   0.000609  -0.174380   0.000572
    18  C    0.060408   0.004278  -0.000112   0.000330  -0.011051   0.004169
    19  H   -0.000196  -0.000014   0.000000   0.000000   0.000068   0.000000
    20  H   -0.000148   0.000008   0.000000   0.000000  -0.000034   0.000000
    21  O   -0.007443   0.014875  -0.000005  -0.000441  -0.001120  -0.000062
    22  H    0.002091  -0.000457   0.000000   0.000000   0.001233   0.000000
    23  O   -0.008526   0.000268  -0.000007  -0.000015   0.006703  -0.000472
    24  H    0.002111  -0.000412   0.000000   0.000000  -0.001063  -0.000001
    25  O   -0.264542   0.089370  -0.000386   0.000289  -0.001612  -0.000113
    26  H    0.042368  -0.015227   0.000004   0.000001  -0.000761   0.000001
    27  C   -2.482685  -0.130018  -0.047214   0.037376  -0.208402   0.005578
    28  H   -0.173355   0.030853   0.000311   0.001385   0.001337  -0.000001
    29  H   -0.055997   0.017712  -0.000029   0.000133  -0.006546   0.000002
    30  H   -0.125684   0.016480   0.002244   0.000042   0.003432   0.000003
    31  O    0.146371  -0.116190  -0.004018   0.009878   0.002690   0.007157
    32  H    0.040873   0.061438   0.000031  -0.000250  -0.010340  -0.000210
    33  H    0.019384  -0.040293  -0.001552  -0.004863   0.473686  -0.027607
    34  C   -0.011449   0.167393  -0.005376   0.008153   0.151870   0.003096
    35  C   -0.110337  -0.067517  -0.001597   0.022079  -0.295099   0.012526
    36  H    0.000348   0.000357   0.000000   0.000001  -0.008650   0.000003
    37  H   -0.001313  -0.001995   0.000000  -0.000001   0.000302  -0.000008
    38  C    0.236207  -0.048730   0.002202  -0.031078   0.074426  -0.001862
    39  H   -0.018724  -0.004662   0.000119  -0.000749   0.005183   0.000000
    40  H    0.001593  -0.002916  -0.000003   0.000162  -0.003730   0.000002
    41  H    0.014682   0.012480   0.000047  -0.000808   0.001578  -0.000029
    42  C   -0.001269   0.002051   0.000000  -0.000003   0.000052   0.000007
    43  H    0.000007  -0.000001   0.000000   0.000000   0.000004   0.000000
    44  H    0.000004   0.000000   0.000000   0.000000  -0.000007   0.000000
    45  C    0.000103  -0.000027   0.000000   0.000000   0.000038   0.000000
    46  H    0.000000   0.000000   0.000000   0.000000   0.000000   0.000000
    47  H    0.000000  -0.000001   0.000000   0.000000  -0.000007   0.000000
    48  H    0.000001  -0.000001   0.000000   0.000000   0.000002   0.000000
              7          8          9         10         11         12
     1  C    0.397342  -0.011620   1.349320  -0.072041  -5.784522  -0.136306
     2  C   -1.009070   0.037228   0.206434   0.011792   0.315330   0.025970
     3  H    0.033316  -0.000173   0.006530  -0.000064   0.025875  -0.000054
     4  H    0.091914  -0.000129  -0.045647   0.000091   0.039250   0.001316
     5  C   -1.010709   0.014411   0.656019  -0.103586  -0.431266  -0.024280
     6  H    0.011123  -0.007864  -0.044934   0.002826   0.021595   0.000035
     7  C   14.132388   0.046687  -2.449021   0.191670  -1.743484   0.130468
     8  H    0.046687   0.569709   0.109578  -0.009349   0.025156  -0.000247
     9  C   -2.449021   0.109578  14.809822   0.241615  -4.575970  -0.034074
    10  H    0.191670  -0.009349   0.241615   0.544808  -0.039396   0.004801
    11  C   -1.743484   0.025156  -4.575970  -0.039396  20.040575   0.308991
    12  H    0.130468  -0.000247  -0.034074   0.004801   0.308991   0.570811
    13  C   -0.858600   0.062413   4.532530  -0.261781  -4.144135   0.075749
    14  C   -0.335920   0.000465  -0.405562   0.003595   0.004223  -0.005121
    15  C    0.940273   0.012378  -1.243278   0.155636  -1.452617   0.059938
    16  C   -1.757465  -0.021220  -3.693014  -0.032942   2.897500  -0.093993
    17  C    1.317475  -0.024725  -1.542851   0.039609   0.554665   0.038606
    18  C    0.389260   0.010510  -1.217515   0.065380  -0.435594   0.009617
    19  H   -0.000650   0.000000   0.001263   0.000002  -0.000114   0.000000
    20  H   -0.001865   0.000005   0.002787  -0.000002   0.001609   0.000000
    21  O   -0.013677   0.000112  -0.045753  -0.001800   0.124438  -0.026159
    22  H    0.003159   0.000000   0.021999   0.000004   0.001175   0.000142
    23  O   -0.057497   0.000545  -0.000571   0.005405  -0.048625   0.000041
    24  H   -0.002734  -0.000033   0.062166   0.000104   0.003798   0.000000
    25  O    0.140846  -0.000934  -0.151273   0.000230   0.262019  -0.045799
    26  H   -0.002011   0.000001  -0.136912  -0.001066   0.123032  -0.007327
    27  C   -0.115201   0.000375  -0.736697   0.025188   1.804255  -0.011101
    28  H    0.002900   0.000000  -0.004540   0.000000   0.047522   0.002122
    29  H    0.003627   0.000000   0.016042   0.000007  -0.039937   0.000380
    30  H   -0.006725   0.000000   0.000582   0.000004   0.041600   0.000056
    31  O   -0.042372  -0.000384   0.012236   0.012312   0.168168   0.007807
    32  H    0.022693  -0.000004   0.005346   0.000330  -0.068671   0.000634
    33  H   -0.155876  -0.001783   0.021350  -0.000047   0.012808  -0.000003
    34  C   -3.094088  -0.004499   0.260575   0.014797  -1.271725  -0.030230
    35  C    0.501062   0.040456   0.087949   0.009874   0.506415   0.014050
    36  H    0.038887   0.000377   0.004511   0.000003   0.001789   0.000000
    37  H    0.014521   0.004218   0.013184  -0.000039  -0.001123  -0.000002
    38  C   -0.067285  -0.018218  -0.017784   0.006546  -0.812669  -0.010657
    39  H    0.015388  -0.000102  -0.050453   0.000002   0.052150   0.000048
    40  H    0.025629  -0.000109  -0.010871   0.000003   0.003527   0.000081
    41  H    0.004244  -0.000110   0.059267  -0.000056  -0.089520   0.000849
    42  C   -0.007111  -0.000538  -0.061440  -0.000039  -0.067122   0.000258
    43  H   -0.000030   0.000000   0.000008   0.000000   0.000091   0.000000
    44  H   -0.000150   0.000000  -0.000111   0.000000  -0.000249   0.000000
    45  C    0.000762  -0.000001   0.000052   0.000011  -0.001230   0.000000
    46  H   -0.000039   0.000000   0.000038   0.000000   0.000010   0.000000
    47  H   -0.000236   0.000000  -0.000319   0.000000  -0.000178   0.000000
    48  H    0.000088   0.000000   0.000031   0.000000   0.000027   0.000000
             13         14         15         16         17         18
     1  C    1.498330   0.003568  -0.107824  -0.662133  -0.641071   0.060408
     2  C   -0.319693   0.018964   0.028645   0.305027   0.037459   0.004278
     3  H    0.001416  -0.000008  -0.001445   0.001805   0.000076  -0.000112
     4  H   -0.010353  -0.000083   0.002842   0.004222   0.000609   0.000330
     5  C    0.446129  -0.014990  -0.152370  -0.326510  -0.174380  -0.011051
     6  H   -0.022843   0.000090   0.021226  -0.003555   0.000572   0.004169
     7  C   -0.858600  -0.335920   0.940273  -1.757465   1.317475   0.389260
     8  H    0.062413   0.000465   0.012378  -0.021220  -0.024725   0.010510
     9  C    4.532530  -0.405562  -1.243278  -3.693014  -1.542851  -1.217515
    10  H   -0.261781   0.003595   0.155636  -0.032942   0.039609   0.065380
    11  C   -4.144135   0.004223  -1.452617   2.897500   0.554665  -0.435594
    12  H    0.075749  -0.005121   0.059938  -0.093993   0.038606   0.009617
    13  C   23.998997  -2.699302  -0.016830  -9.936538  -3.196609  -2.751621
    14  C   -2.699302   9.477124  -1.201687   2.501221  -0.830103   0.598239
    15  C   -0.016830  -1.201687  10.192342  -3.708588   1.431133   0.562117
    16  C   -9.936538   2.501221  -3.708588  36.070306 -14.151091  -0.791421
    17  C   -3.196609  -0.830103   1.431133 -14.151091  24.825409  -1.711430
    18  C   -2.751621   0.598239   0.562117  -0.791421  -1.711430  11.458185
    19  H   -0.005063   0.119110  -0.014740   0.073979   0.142573   0.019102
    20  H    0.071176   0.056846  -0.053532  -0.063119   0.071063   0.255850
    21  O   -0.828106   0.118899  -0.147618   0.868122   0.023610  -0.031320
    22  H    0.209149  -0.013742   0.005307  -0.119500  -0.109234   0.005736
    23  O   -0.129496   0.022406   0.227233  -0.087571   0.089558  -0.002330
    24  H    0.128482  -0.000724   0.034733  -0.000945  -0.013513  -0.207328
    25  O   -0.206292   0.012754  -0.040344   0.197627   0.054310   0.000195
    26  H   -0.052933   0.005691  -0.011015   0.052228   0.042614   0.001834
    27  C   -0.417048  -0.011130  -0.036536   0.094544   0.070400  -0.009079
    28  H   -0.003826   0.000098  -0.000511   0.007452   0.000439  -0.000038
    29  H    0.000791   0.000027   0.000233   0.001275   0.000431  -0.000019
    30  H   -0.002401  -0.000015  -0.000030  -0.000400  -0.000045  -0.000002
    31  O   -0.136029  -0.002535  -0.009091  -0.002043   0.010012  -0.002260
    32  H   -0.009398  -0.000013   0.002851  -0.006414   0.001227  -0.000112
    33  H    0.004949   0.000292  -0.005527   0.004245   0.000391  -0.000862
    34  C    0.626447   0.093238  -0.114541   0.680645  -0.687418  -0.297312
    35  C   -0.100266  -0.001500   0.056855  -0.276040   0.351770   0.070165
    36  H   -0.006151   0.000403   0.005159   0.009476  -0.005133   0.005324
    37  H    0.015183   0.010135   0.008864   0.011680  -0.000484  -0.006754
    38  C    0.404839  -0.008619   0.095224  -0.260595  -0.271964   0.076712
    39  H   -0.024807   0.000270  -0.004002   0.022215   0.005638  -0.000714
    40  H   -0.005431   0.001056   0.000251   0.010467   0.001706   0.000516
    41  H    0.040659  -0.001618   0.008140  -0.025454  -0.023049   0.002248
    42  C   -0.803443  -1.192245   0.043716  -0.220993   0.373211   0.088553
    43  H    0.011077  -0.221379  -0.023634   0.042135   0.174829  -0.102620
    44  H   -0.009512  -0.214632   0.050534  -0.003581  -0.143842   0.171013
    45  C    0.000416  -0.064432   0.011415  -0.017428   0.051540   0.014420
    46  H    0.002480   0.034428   0.001828   0.005580   0.003948   0.007680
    47  H   -0.009138  -0.023987   0.002812   0.000272  -0.041456   0.025761
    48  H    0.000673  -0.031693  -0.004251  -0.000644   0.025782  -0.024359
             19         20         21         22         23         24
     1  C   -0.000196  -0.000148  -0.007443   0.002091  -0.008526   0.002111
     2  C   -0.000014   0.000008   0.014875  -0.000457   0.000268  -0.000412
     3  H    0.000000   0.000000  -0.000005   0.000000  -0.000007   0.000000
     4  H    0.000000   0.000000  -0.000441   0.000000  -0.000015   0.000000
     5  C    0.000068  -0.000034  -0.001120   0.001233   0.006703  -0.001063
     6  H    0.000000   0.000000  -0.000062   0.000000  -0.000472  -0.000001
     7  C   -0.000650  -0.001865  -0.013677   0.003159  -0.057497  -0.002734
     8  H    0.000000   0.000005   0.000112   0.000000   0.000545  -0.000033
     9  C    0.001263   0.002787  -0.045753   0.021999  -0.000571   0.062166
    10  H    0.000002  -0.000002  -0.001800   0.000004   0.005405   0.000104
    11  C   -0.000114   0.001609   0.124438   0.001175  -0.048625   0.003798
    12  H    0.000000   0.000000  -0.026159   0.000142   0.000041   0.000000
    13  C   -0.005063   0.071176  -0.828106   0.209149  -0.129496   0.128482
    14  C    0.119110   0.056846   0.118899  -0.013742   0.022406  -0.000724
    15  C   -0.014740  -0.053532  -0.147618   0.005307   0.227233   0.034733
    16  C    0.073979  -0.063119   0.868122  -0.119500  -0.087571  -0.000945
    17  C    0.142573   0.071063   0.023610  -0.109234   0.089558  -0.013513
    18  C    0.019102   0.255850  -0.031320   0.005736  -0.002330  -0.207328
    19  H    0.522072  -0.000146  -0.021305   0.008383   0.000081   0.000000
    20  H   -0.000146   0.518416   0.000147  -0.000001  -0.017382   0.007900
    21  O   -0.021305   0.000147   8.359501   0.209140  -0.003466   0.000046
    22  H    0.008383  -0.000001   0.209140   0.349362   0.000059   0.000000
    23  O    0.000081  -0.017382  -0.003466   0.000059   8.300863   0.199462
    24  H    0.000000   0.007900   0.000046   0.000000   0.199462   0.361331
    25  O   -0.000007  -0.000002   0.010551   0.000592  -0.001004  -0.000046
    26  H   -0.000015  -0.000001  -0.004166  -0.000199   0.000118   0.000000
    27  C    0.000008   0.000004   0.002297  -0.000539  -0.002507   0.000067
    28  H    0.000000   0.000000  -0.000232  -0.000001   0.000000   0.000000
    29  H    0.000000   0.000000   0.000002   0.000000   0.000001   0.000000
    30  H    0.000000   0.000000   0.000003   0.000000   0.000000   0.000000
    31  O    0.000000   0.000000  -0.000836   0.000000  -0.000935   0.000016
    32  H    0.000000   0.000000   0.000036   0.000000   0.000073  -0.000001
    33  H    0.000000   0.000000  -0.000011   0.000000   0.000029   0.000000
    34  C   -0.000927   0.000035   0.002744  -0.004265   0.035920   0.005139
    35  C    0.000994  -0.000164  -0.058736  -0.001891  -0.020943  -0.000435
    36  H    0.000000   0.000000  -0.000127  -0.000004  -0.000067   0.000000
    37  H    0.000000  -0.000003  -0.000153   0.000000   0.000995  -0.000001
    38  C   -0.000064  -0.000019  -0.012704   0.004652   0.004605   0.000458
    39  H    0.000000   0.000000   0.000151   0.000001  -0.000023   0.000000
    40  H    0.000000   0.000000  -0.000043  -0.000012  -0.000002   0.000000
    41  H    0.000000   0.000000   0.000768  -0.000148   0.000058   0.000000
    42  C   -0.015917  -0.024578  -0.014014   0.002939  -0.000656   0.001129
    43  H    0.002121   0.000079  -0.000030   0.000005   0.000039   0.000000
    44  H    0.000094   0.002125   0.000018   0.000000  -0.000049   0.000003
    45  C    0.006812   0.006747  -0.000394   0.000211  -0.000024   0.000099
    46  H   -0.000028  -0.000028  -0.000002   0.000000  -0.000001   0.000000
    47  H    0.000209   0.000010  -0.000007   0.000001   0.000000   0.000000
    48  H    0.000011   0.000173   0.000003   0.000000   0.000027   0.000001
             25         26         27         28         29         30
     1  C   -0.264542   0.042368  -2.482685  -0.173355  -0.055997  -0.125684
     2  C    0.089370  -0.015227  -0.130018   0.030853   0.017712   0.016480
     3  H   -0.000386   0.000004  -0.047214   0.000311  -0.000029   0.002244
     4  H    0.000289   0.000001   0.037376   0.001385   0.000133   0.000042
     5  C   -0.001612  -0.000761  -0.208402   0.001337  -0.006546   0.003432
     6  H   -0.000113   0.000001   0.005578  -0.000001   0.000002   0.000003
     7  C    0.140846  -0.002011  -0.115201   0.002900   0.003627  -0.006725
     8  H   -0.000934   0.000001   0.000375   0.000000   0.000000   0.000000
     9  C   -0.151273  -0.136912  -0.736697  -0.004540   0.016042   0.000582
    10  H    0.000230  -0.001066   0.025188   0.000000   0.000007   0.000004
    11  C    0.262019   0.123032   1.804255   0.047522  -0.039937   0.041600
[...]
    15  C   -0.051256  -0.012232  -0.045203  -0.000151   0.000038  -0.000280
    16  C    0.140968   0.081100   0.213313   0.007977   0.001329  -0.000460
    17  C    0.094185   0.043779   0.035738   0.000624   0.000334  -0.000022
    18  C   -0.010537  -0.001050  -0.005113  -0.000027  -0.000001  -0.000016
    19  H   -0.000015  -0.000011   0.000008   0.000000   0.000000   0.000000
    20  H   -0.000008   0.000000   0.000006   0.000000   0.000000   0.000000
    21  O    0.008657  -0.004561   0.001952  -0.000204   0.000028  -0.000010
    22  H    0.000475  -0.000211  -0.000714  -0.000001   0.000000   0.000000
    23  O   -0.000337   0.000018  -0.002712   0.000000   0.000002   0.000000
    24  H   -0.000035   0.000000   0.000073   0.000000   0.000000   0.000000
    25  O    8.520914   0.211768  -0.049225  -0.000430   0.004159  -0.000017
    26  H    0.211768   0.342116   0.002511  -0.000042  -0.000212   0.000004
    27  C   -0.049225   0.002511   7.539687   0.459859   0.462558   0.472383
    28  H   -0.000430  -0.000042   0.459859   0.538319  -0.027232  -0.026525
    29  H    0.004159  -0.000212   0.462558  -0.027232   0.536040  -0.029640
    30  H   -0.000017   0.000004   0.472383  -0.026525  -0.029640   0.538204
    31  O   -0.000502   0.000187   0.014533   0.008790  -0.008147  -0.001330
    32  H    0.017957  -0.000727  -0.026854  -0.000033   0.002115  -0.000071
    33  H    0.000029   0.000000  -0.009277  -0.000004   0.000002  -0.000004
    34  C   -0.044816  -0.005539   0.084386  -0.000961  -0.001689   0.001427
    35  C   -0.003973   0.000659   0.022979  -0.000664  -0.000237   0.000045
    36  H   -0.000002   0.000000   0.000158   0.000000   0.000000   0.000000
    37  H   -0.000011   0.000000  -0.000173   0.000000   0.000000   0.000000
    38  C    0.004249   0.000224  -0.050525   0.003828   0.000364  -0.000619
    39  H    0.000056   0.000000   0.008335  -0.000009   0.000000   0.000000
    40  H   -0.000011   0.000000  -0.000345   0.000000   0.000000   0.000000
    41  H    0.000249   0.000010  -0.014039   0.000107   0.000004  -0.000002
    42  C    0.000465  -0.000488  -0.001711   0.000002   0.000001   0.000000
    43  H    0.000000   0.000000  -0.000001   0.000000   0.000000   0.000000
    44  H    0.000000   0.000000   0.000000   0.000000   0.000000   0.000000
    45  C    0.000012   0.000013  -0.000019   0.000000   0.000000   0.000000
    46  H    0.000000   0.000000   0.000000   0.000000   0.000000   0.000000
    47  H    0.000000   0.000000   0.000000   0.000000   0.000000   0.000000
    48  H    0.000000   0.000000   0.000000   0.000000   0.000000   0.000000
             31         32         33         34         35         36
     1  C    0.039632   0.045634   0.027535   0.092580  -0.117588   0.000707
     2  C   -0.053393   0.026991  -0.095842   0.150206   0.034436  -0.000183
     3  H   -0.003754   0.000108  -0.001214  -0.002551  -0.002578   0.000000
     4  H    0.008453  -0.000235  -0.005137  -0.009100   0.012840   0.000001
     5  C    0.006034  -0.006603   0.562724   0.123781  -0.395829  -0.008334
     6  H    0.005976  -0.000202  -0.031802  -0.001923  -0.009371   0.000003
     7  C   -0.070997   0.023927  -0.148594  -2.476941   0.391911   0.030800
     8  H   -0.000196  -0.000010  -0.002137  -0.045502   0.066668   0.000411
     9  C    0.062742  -0.014406   0.014244  -0.129295   0.226605   0.001869
    10  H    0.011509  -0.000090  -0.000021   0.022642   0.005756   0.000004
    11  C    0.076993  -0.039113   0.042648  -1.008037   0.421689   0.001285
    12  H    0.006450   0.000600   0.000000  -0.034478   0.011502   0.000000
    13  C   -0.102134  -0.008797  -0.000941   0.273808  -0.135536  -0.002527
    14  C   -0.002792   0.000015   0.000268   0.022445   0.060298   0.000180
    15  C    0.001267   0.000986  -0.005984  -0.163497   0.037347   0.006918
    16  C   -0.022006  -0.005722   0.000461   1.002425  -0.049265   0.001096
    17  C    0.003180   0.001324   0.000686  -0.775401   0.365103  -0.003876
    18  C    0.001587  -0.000332  -0.000898  -0.094743  -0.023124   0.006575
    19  H    0.000000   0.000000   0.000000   0.000059   0.000425   0.000000
    20  H    0.000001   0.000000   0.000000  -0.000053   0.000019   0.000000
    21  O   -0.000387   0.000085   0.000003  -0.009058  -0.061114  -0.000153
    22  H   -0.000002   0.000000   0.000000  -0.005512  -0.000525  -0.000005
    23  O   -0.001139   0.000097   0.000016   0.021464  -0.017754  -0.000039
    24  H    0.000007   0.000000   0.000000   0.003682  -0.000250   0.000000
    25  O   -0.000502   0.017957   0.000029  -0.044816  -0.003973  -0.000002
    26  H    0.000187  -0.000727   0.000000  -0.005539   0.000659   0.000000
    27  C    0.014533  -0.026854  -0.009277   0.084386   0.022979   0.000158
    28  H    0.008790  -0.000033  -0.000004  -0.000961  -0.000664   0.000000
    29  H   -0.008147   0.002115   0.000002  -0.001689  -0.000237   0.000000
    30  H   -0.001330  -0.000071  -0.000004   0.001427   0.000045   0.000000
    31  O    8.421406   0.238649  -0.000843  -0.018243   0.014780   0.000001
    32  H    0.238649   0.342599   0.000009   0.000421  -0.000813   0.000000
    33  H   -0.000843   0.000009   0.568244  -0.021077  -0.025853  -0.000042
    34  C   -0.018243   0.000421  -0.021077  11.922070  -2.633145  -0.205387
    35  C    0.014780  -0.000813  -0.025853  -2.633145   8.731088   0.539816
    36  H    0.000001   0.000000  -0.000042  -0.205387   0.539816   0.538688
    37  H   -0.000002   0.000000  -0.000008  -0.238121   0.590181  -0.035607
    38  C   -0.013030   0.000635  -0.019834   0.086209  -1.335618  -0.022305
    39  H    0.000007   0.000000   0.000722  -0.087950   0.000148   0.000171
    40  H    0.000001   0.000000  -0.000012  -0.118116  -0.069375   0.003205
    41  H   -0.000213   0.000002   0.000255  -0.118040  -0.061353   0.000120
    42  C   -0.000194   0.000019   0.000017  -0.014429  -0.015806   0.000399
    43  H    0.000000   0.000000   0.000000   0.000072  -0.000076   0.000000
    44  H    0.000000   0.000000   0.000000   0.000105  -0.000028   0.000000
    45  C   -0.000002   0.000000   0.000000   0.002344  -0.001846  -0.000026
    46  H    0.000000   0.000000   0.000000   0.000062  -0.000032   0.000000
    47  H    0.000000   0.000000   0.000000   0.000009  -0.000017   0.000000
    48  H    0.000000   0.000000   0.000000  -0.000557   0.000257   0.000000
             37         38         39         40         41         42
     1  C   -0.001602   0.208052  -0.016655   0.005286   0.015339  -0.002813
     2  C   -0.002752  -0.128578   0.007826  -0.005722   0.002630   0.000013
     3  H    0.000000   0.000714   0.000126  -0.000003   0.000069   0.000000
     4  H   -0.000001  -0.016353  -0.000845   0.000169  -0.000660  -0.000003
     5  C   -0.002993   0.094154   0.001256   0.000861  -0.002683   0.004226
     6  H   -0.000011   0.010901   0.000013   0.000003  -0.000025   0.000018
     7  C   -0.025947  -0.138885   0.029986  -0.001402   0.002673  -0.003782
     8  H    0.004856  -0.027810  -0.000110  -0.000117  -0.000138  -0.000358
     9  C    0.014728  -0.162509  -0.043428  -0.009350   0.041008  -0.047086
    10  H   -0.000047   0.011219   0.000001   0.000003  -0.000049  -0.000458
    11  C    0.001443  -0.905657   0.041471  -0.002345  -0.089521  -0.058385
    12  H   -0.000003  -0.007836   0.000058   0.000095   0.001030   0.000147
    13  C    0.018972   0.429856  -0.018965   0.001793   0.022607  -0.695824
    14  C    0.008929  -0.032379  -0.000074   0.001125   0.000010  -1.270949
    15  C    0.004962   0.192076  -0.003261   0.001272   0.004765   0.042197
    16  C   -0.003004  -0.423771   0.013982   0.001468  -0.012195  -0.728316
    17  C    0.006824  -0.280887   0.001996   0.003410  -0.014223   0.647298
    18  C   -0.009830   0.134004  -0.000274   0.000523   0.001462   0.133656
    19  H    0.000000  -0.000007   0.000000   0.000000   0.000000  -0.016604
    20  H   -0.000002   0.000038   0.000000   0.000000   0.000000  -0.027853
    21  O   -0.000007  -0.008811   0.000239  -0.000009   0.002705  -0.010951
    22  H    0.000000   0.003616   0.000001  -0.000012  -0.000122   0.002502
    23  O    0.001242   0.004445  -0.000022   0.000001   0.000055   0.008245
    24  H   -0.000010   0.000375   0.000000   0.000000   0.000000  -0.000302
    25  O   -0.000011   0.004249   0.000056  -0.000011   0.000249   0.000465
    26  H    0.000000   0.000224   0.000000   0.000000   0.000010  -0.000488
    27  C   -0.000173  -0.050525   0.008335  -0.000345  -0.014039  -0.001711
    28  H    0.000000   0.003828  -0.000009   0.000000   0.000107   0.000002
    29  H    0.000000   0.000364   0.000000   0.000000   0.000004   0.000001
    30  H    0.000000  -0.000619   0.000000   0.000000  -0.000002   0.000000
    31  O   -0.000002  -0.013030   0.000007   0.000001  -0.000213  -0.000194
    32  H    0.000000   0.000635   0.000000   0.000000   0.000002   0.000019
    33  H   -0.000008  -0.019834   0.000722  -0.000012   0.000255   0.000017
    34  C   -0.238121   0.086209  -0.087950  -0.118116  -0.118040  -0.014429
    35  C    0.590181  -1.335618   0.000148  -0.069375  -0.061353  -0.015806
    36  H   -0.035607  -0.022305   0.000171   0.003205   0.000120   0.000399
    37  H    0.549424  -0.024264  -0.000186   0.000246  -0.000209   0.001623
    38  C   -0.024264   7.518737   0.409389   0.539930   0.565539   0.005173
    39  H   -0.000186   0.409389   0.535136  -0.026499  -0.027979  -0.000017
    40  H    0.000246   0.539930  -0.026499   0.547898  -0.027729   0.000154
    41  H   -0.000209   0.565539  -0.027979  -0.027729   0.537850   0.000069
    42  C    0.001623   0.005173  -0.000017   0.000154   0.000069   7.057147
    43  H    0.000000   0.000022   0.000000   0.000000   0.000000   0.466308
    44  H    0.000000   0.000007   0.000000   0.000000   0.000000   0.492825
    45  C   -0.000084   0.001210   0.000000   0.000001   0.000002   0.209757
    46  H    0.000000   0.000006   0.000000   0.000000   0.000000  -0.075069
    47  H    0.000000   0.000040   0.000000   0.000000   0.000000  -0.048820
    48  H    0.000000  -0.000032   0.000000   0.000000   0.000000  -0.057333
             43         44         45         46         47         48
     1  C    0.000008   0.000003   0.000188   0.000000   0.000000  -0.000001
     2  C   -0.000002  -0.000001  -0.000072   0.000000   0.000000  -0.000001
     3  H    0.000000   0.000000   0.000000   0.000000   0.000000   0.000000
     4  H    0.000000   0.000000   0.000000   0.000000   0.000000   0.000000
     5  C    0.000002  -0.000007  -0.000020  -0.000001  -0.000005   0.000006
     6  H    0.000000   0.000000   0.000000   0.000000   0.000000   0.000000
     7  C   -0.000107  -0.000095  -0.000534  -0.000050  -0.000197   0.000080
     8  H    0.000000   0.000000   0.000000   0.000000   0.000000   0.000000
     9  C   -0.000529  -0.000988  -0.004790  -0.000037  -0.000476  -0.000168
    10  H    0.000000   0.000000   0.000003   0.000000   0.000000   0.000000
    11  C    0.000031  -0.000281  -0.002479   0.000006  -0.000134   0.000038
    12  H    0.000000   0.000000  -0.000001   0.000000   0.000000   0.000000
    13  C   -0.000821  -0.011493  -0.000650   0.001022  -0.015178   0.002943
    14  C   -0.152075  -0.162233   0.025972  -0.007918   0.062696   0.029317
    15  C   -0.021648   0.031204  -0.000643  -0.000247   0.011286  -0.022313
    16  C    0.046648  -0.011132   0.019230   0.003907   0.002455   0.002693
    17  C    0.065978  -0.092324  -0.033978   0.009876  -0.137726   0.057047
    18  C   -0.064597   0.092283  -0.008118   0.003484   0.062054  -0.075558
    19  H    0.002517   0.000115   0.003866  -0.000037   0.000283   0.000013
    20  H    0.000113   0.002417   0.003411  -0.000034   0.000014   0.000209
    21  O   -0.000042   0.000007  -0.000662  -0.000003  -0.000020   0.000006
    22  H    0.000003   0.000000   0.000179   0.000000   0.000001   0.000000
    23  O    0.000027  -0.000027   0.000048  -0.000003   0.000001   0.000048
    24  H    0.000000   0.000001   0.000074   0.000000   0.000000   0.000000
    25  O    0.000000   0.000000   0.000012   0.000000   0.000000   0.000000
    26  H    0.000000   0.000000   0.000013   0.000000   0.000000   0.000000
    27  C   -0.000001   0.000000  -0.000019   0.000000   0.000000   0.000000
    28  H    0.000000   0.000000   0.000000   0.000000   0.000000   0.000000
    29  H    0.000000   0.000000   0.000000   0.000000   0.000000   0.000000
    30  H    0.000000   0.000000   0.000000   0.000000   0.000000   0.000000
    31  O    0.000000   0.000000  -0.000002   0.000000   0.000000   0.000000
    32  H    0.000000   0.000000   0.000000   0.000000   0.000000   0.000000
    33  H    0.000000   0.000000   0.000000   0.000000   0.000000   0.000000
    34  C    0.000072   0.000105   0.002344   0.000062   0.000009  -0.000557
    35  C   -0.000076  -0.000028  -0.001846  -0.000032  -0.000017   0.000257
    36  H    0.000000   0.000000  -0.000026   0.000000   0.000000   0.000000
    37  H    0.000000   0.000000  -0.000084   0.000000   0.000000   0.000000
    38  C    0.000022   0.000007   0.001210   0.000006   0.000040  -0.000032
    39  H    0.000000   0.000000   0.000000   0.000000   0.000000   0.000000
    40  H    0.000000   0.000000   0.000001   0.000000   0.000000   0.000000
    41  H    0.000000   0.000000   0.000002   0.000000   0.000000   0.000000
    42  C    0.466308   0.492825   0.209757  -0.075069  -0.048820  -0.057333
    43  H    0.564802  -0.033532  -0.021385  -0.003341  -0.005088   0.004845
    44  H   -0.033532   0.565555  -0.020946  -0.003400   0.004887  -0.005054
    45  C   -0.021385  -0.020946   5.176551   0.424606   0.420014   0.419869
    46  H   -0.003341  -0.003400   0.424606   0.548688  -0.027102  -0.027120
    47  H   -0.005088   0.004887   0.420014  -0.027102   0.541453  -0.028713
    48  H    0.004845  -0.005054   0.419869  -0.027120  -0.028713   0.540821
 Mulliken atomic charges:
              1
     1  C    0.402689
     2  C   -0.327328
     3  H    0.155991
     4  H    0.166374
     5  C   -0.586565
     6  H    0.158173
     7  C    0.288318
     8  H    0.145474
     9  C    0.014499
    10  H    0.157540
    11  C   -0.127312
    12  H    0.162012
    13  C    0.717941
    14  C   -0.071753
    15  C    0.607168
    16  C   -1.430711
    17  C   -0.307743
    18  C   -0.177215
    19  H    0.148612
    20  H    0.150652
    21  O   -0.591610
    22  H    0.454348
    23  O   -0.591995
    24  H    0.450904
    25  O   -0.679808
    26  H    0.424221
    27  C   -0.336563
    28  H    0.161080
    29  H    0.160296
    30  H    0.160837
    31  O   -0.622877
    32  H    0.401834
    33  H    0.151662
    34  C    0.453962
    35  C   -0.572785
    36  H    0.146078
    37  H    0.141441
    38  C   -0.625302
    39  H    0.175356
    40  H    0.153606
    41  H    0.170621
    42  C    0.005288
    43  H    0.151870
    44  H    0.152133
    45  C   -0.611094
    46  H    0.152736
    47  H    0.158282
    48  H    0.158662
 Sum of Mulliken atomic charges =   0.00000
 Mulliken charges with hydrogens summed into heavy atoms:
              1
     1  C    0.402689
     2  C   -0.004964
     5  C   -0.276729
     7  C    0.433792
     9  C    0.172039
    11  C    0.034701
    13  C    0.717941
    14  C   -0.071753
    15  C    0.607168
    16  C   -1.430711
    17  C   -0.159131
    18  C   -0.026564
    21  O   -0.137262
    23  O   -0.141091
    25  O   -0.255587
    27  C    0.145650
    31  O   -0.221043
    34  C    0.453962
    35  C   -0.285266
    38  C   -0.125719
    42  C    0.309290
    45  C   -0.141414
 Sum of Mulliken charges with hydrogens summed into heavy atoms =   0.00000
 Electronic spatial extent (au):  <R**2>=           7102.7162
 Charge=              0.0000 electrons
 Dipole moment (field-independent basis, Debye):
    X=             -6.0894    Y=              1.4418    Z=             -2.9930  Tot=              6.9367
 Quadrupole moment (field-independent basis, Debye-Ang):
   XX=           -127.2346   YY=           -142.0000   ZZ=           -120.9684
   XY=             12.1861   XZ=             -8.3589   YZ=             -1.7893
 Traceless Quadrupole moment (field-independent basis, Debye-Ang):
   XX=              2.8331   YY=            -11.9323   ZZ=              9.0993
   XY=             12.1861   XZ=             -8.3589   YZ=             -1.7893
 Octapole moment (field-independent basis, Debye-Ang**2):
  XXX=            -83.6598  YYY=            -18.0403  ZZZ=             -6.8577  XYY=              0.2933
  XXY=             10.9241  XXZ=            -15.5778  XZZ=            -55.4775  YZZ=             -7.1331
  YYZ=             -4.7532  XYZ=              7.3298
 Hexadecapole moment (field-independent basis, Debye-Ang**3):
 XXXX=          -6538.6421 YYYY=          -1833.4596 ZZZZ=          -1011.4941 XXXY=            163.0423
 XXXZ=           -119.8072 YYYX=            -32.6721 YYYZ=            -50.3793 ZZZX=            -54.7010
 ZZZY=            -27.1393 XXYY=          -1452.4000 XXZZ=          -1250.7713 YYZZ=           -504.5170
 XXYZ=             16.4554 YYXZ=              0.8131 ZZXY=             36.9785
 N-N= 1.987824406623D+03 E-N=-6.308741413205D+03  KE= 9.931260934838D+02

 Test job not archived.
 1\1\GINC-COMPUTE-8-17\SP\RB3LYP\6-31+G(d,p)\C18H26O4\LPASSAGLIA.IQUIR\
 23-Dec-2022\0\\# B3LYP/6-31+G** geom=allcheck test scrf=(pcm,solvent=w
 ater,smd,dovacuum)\\comment\\0,1\C,0,1.875745887,2.414266769,-1.516294
 425\C,0,1.056241761,3.468558509,-0.768347771\H,0,1.617334265,4.4113101
 ,-0.726070272\H,0,0.13568642,3.682272865,-1.319365418\C,0,0.727584345,
 3.060981154,0.668212606\H,0,1.659881989,3.088640927,1.248911792\C,0,0.
 112396888,1.65434287,0.822402\H,0,0.27104055,1.415658122,1.886157279\C
 ,0,0.931934407,0.589702617,0.026413649\H,0,1.936038787,0.580122273,0.4
 78526374\C,0,1.211597193,1.015341946,-1.438055856\H,0,0.306559015,1.03
 6613182,-2.047082551\C,0,0.40672757,-0.835659082,0.261808769\C,0,-0.54
 2794831,-3.458167177,0.846486933\C,0,0.770643645,-1.512553031,1.442440
 233\C,0,-0.461364304,-1.511230908,-0.607099546\C,0,-0.929972359,-2.800
 77998,-0.325142012\C,0,0.309406057,-2.7993843,1.735428354\H,0,-1.59849
 9575,-3.305285147,-1.018072058\H,0,0.605077912,-3.293540133,2.65677742
 5\O,0,-0.867843003,-0.917848528,-1.768345503\H,0,-1.613003725,-1.42284
 1531,-2.134677277\O,0,1.597540211,-0.887600063,2.338505007\H,0,1.78797
 5538,-1.491427546,3.074002553\O,0,2.12572234,0.07846543,-2.046073507\H
 ,0,1.645837035,-0.770850653,-2.068757898\C,0,2.085473532,2.850241498,-
 2.971801622\H,0,1.136201495,2.911284782,-3.513836783\H,0,2.746526852,2
 .158348583,-3.505354011\H,0,2.572379569,3.831413643,-3.015667183\O,0,3
 .179638172,2.343631707,-0.917989958\H,0,3.557529871,1.503353385,-1.251
 025578\H,0,0.073482268,3.816776794,1.120742879\C,0,-1.411825049,1.6270
 95008,0.632009137\C,0,-2.197378825,1.052866701,1.562999703\H,0,-3.2779
 05271,1.025116738,1.464345408\H,0,-1.778127673,0.583957392,2.448705399
 \C,0,-2.04445626,2.262121836,-0.572736555\H,0,-1.937662083,3.349901271
 ,-0.534409962\H,0,-3.118496342,2.050438567,-0.627994237\H,0,-1.6058391
 08,1.890304145,-1.499771924\C,0,-1.061849575,-4.83768076,1.16043221\H,
 0,-1.207215063,-5.398203992,0.228912147\H,0,-0.310083238,-5.393570556,
 1.733925874\C,0,-2.367631584,-4.786300977,1.938814667\H,0,-2.720711733
 ,-5.800014852,2.152838495\H,0,-3.148162274,-4.267728131,1.371757268\H,
 0,-2.241381698,-4.262461465,2.892415744\\Version=EM64L-G09RevC.01\Stat
 e=1-A\HF=-1002.5476932\RMSD=3.939e-09\Dipole=-1.8938846,-1.9634992,0.0
 770016\Quadrupole=-9.2882468,5.6917175,3.5965293,-3.5896487,9.2404308,
 -4.7807827\PG=C01 [X(C18H26O4)]\\@


 Mondays are the potholes in the road of life.
                                -- Tom Wilson
 Job cpu time:  0 days  2 hours 13 minutes  1.7 seconds.
 File lengths (MBytes):  RWF=    241 Int=      0 D2E=      0 Chk=     19 Scr=      1
 Normal termination of Gaussian 09 at Fri Dec 23 15:49:53 2022.
