 Entering Gaussian System, Link 0=g09
 Input=/home/fbruno.iquir/MPW_A_SMD/1_MMFF_001_NMR_MPW_A_SMD.gjc
 Output=/home/fbruno.iquir/MPW_A_SMD/1_MMFF_001_NMR_MPW_A_SMD.log
 Initial command:
 /share/apps/Gaussian09/EM64T.SSE4.2-enabled/g09/l1.exe /tmp/Gau-58725.inp -scrdir=/tmp/
 Entering Link 1 = /share/apps/Gaussian09/EM64T.SSE4.2-enabled/g09/l1.exe PID=     58726.
  
 Copyright (c) 1988,1990,1992,1993,1995,1998,2003,2009,2011,
            Gaussian, Inc.  All Rights Reserved.
  
 This is part of the Gaussian(R) 09 program.  It is based on
 the Gaussian(R) 03 system (copyright 2003, Gaussian, Inc.),
 the Gaussian(R) 98 system (copyright 1998, Gaussian, Inc.),
 the Gaussian(R) 94 system (copyright 1995, Gaussian, Inc.),
 the Gaussian 92(TM) system (copyright 1992, Gaussian, Inc.),
 the Gaussian 90(TM) system (copyright 1990, Gaussian, Inc.),
 the Gaussian 88(TM) system (copyright 1988, Gaussian, Inc.),
 the Gaussian 86(TM) system (copyright 1986, Carnegie Mellon
 University), and the Gaussian 82(TM) system (copyright 1983,
 Carnegie Mellon University). Gaussian is a federally registered
 trademark of Gaussian, Inc.
  
 This software contains proprietary and confidential information,
 including trade secrets, belonging to Gaussian, Inc.
  
 This software is provided under written license and may be
 used, copied, transmitted, or stored only in accord with that
 written license.
  
 The following legend is applicable only to US Government
 contracts under FAR:
  
                    RESTRICTED RIGHTS LEGEND
  
 Use, reproduction and disclosure by the US Government is
 subject to restrictions as set forth in subparagraphs (a)
 and (c) of the Commercial Computer Software - Restricted
 Rights clause in FAR 52.227-19.
  
 Gaussian, Inc.
 340 Quinnipiac St., Bldg. 40, Wallingford CT 06492
  
  
 ---------------------------------------------------------------
 Warning -- This program may not be used in any manner that
 competes with the business of Gaussian, Inc. or will provide
 assistance to any competitor of Gaussian, Inc.  The licensee
 of this program is prohibited from giving any competitor of
 Gaussian, Inc. access to this program.  By using this program,
 the user acknowledges that Gaussian, Inc. is engaged in the
 business of creating and licensing software in the field of
 computational chemistry and represents and warrants to the
 licensee that it is not a competitor of Gaussian, Inc. and that
 it will not use this program in any manner prohibited above.
 ---------------------------------------------------------------
  

 Cite this work as:
 Gaussian 09, Revision C.01,
 M. J. Frisch, G. W. Trucks, H. B. Schlegel, G. E. Scuseria, 
 M. A. Robb, J. R. Cheeseman, G. Scalmani, V. Barone, B. Mennucci, 
 G. A. Petersson, H. Nakatsuji, M. Caricato, X. Li, H. P. Hratchian, 
 A. F. Izmaylov, J. Bloino, G. Zheng, J. L. Sonnenberg, M. Hada, 
 M. Ehara, K. Toyota, R. Fukuda, J. Hasegawa, M. Ishida, T. Nakajima, 
 Y. Honda, O. Kitao, H. Nakai, T. Vreven, J. A. Montgomery, Jr., 
 J. E. Peralta, F. Ogliaro, M. Bearpark, J. J. Heyd, E. Brothers, 
 K. N. Kudin, V. N. Staroverov, T. Keith, R. Kobayashi, J. Normand, 
 K. Raghavachari, A. Rendell, J. C. Burant, S. S. Iyengar, J. Tomasi, 
 M. Cossi, N. Rega, J. M. Millam, M. Klene, J. E. Knox, J. B. Cross, 
 V. Bakken, C. Adamo, J. Jaramillo, R. Gomperts, R. E. Stratmann, 
 O. Yazyev, A. J. Austin, R. Cammi, C. Pomelli, J. W. Ochterski, 
 R. L. Martin, K. Morokuma, V. G. Zakrzewski, G. A. Voth, 
 P. Salvador, J. J. Dannenberg, S. Dapprich, A. D. Daniels, 
 O. Farkas, J. B. Foresman, J. V. Ortiz, J. Cioslowski, 
 and D. J. Fox, Gaussian, Inc., Wallingford CT, 2010.
 
 ******************************************
 Gaussian 09:  EM64L-G09RevC.01 23-Sep-2011
                16-Oct-2021 
 ******************************************
 %nprocshared=4
 Will use up to    4 processors via shared memory.
 -----------------------------------------------------------------
 # mPW1PW91/6-31g** scrf=(pcm,solvent=chloroform,smd,dovacuum) nmr
 -----------------------------------------------------------------
 1/38=1/1;
 2/12=2,17=6,18=5,40=1/2;
 3/5=1,6=6,7=101,11=2,16=1,25=1,30=1,70=32101,72=7,74=-7/1,2,8,3;
 4//1;
 5/5=2,38=5,53=7/2;
 8/6=1,10=90,11=11/1;
 10/13=100,45=16/2;
 6/7=2,8=2,9=2,10=2,28=1/1;
 99/9=1/99;
 -------
 comment
 -------
 Charge =  0 Multiplicity = 1
 Symbolic Z-Matrix:
 8                    -0.56719  -1.15988   0.72763 
 6                    -0.93269   0.22685   0.69354 
 6                     0.14405  -1.2814   -0.51734 
 6                     0.3253    1.02973   0.94908 
 1                     0.23433   1.96264   1.49626 
 6                     1.53662  -0.65812  -0.27268 
 6                     1.52735   0.61017   0.51766 
 1                     2.46109   1.13036   0.67457 
 8                     2.59408  -1.11207  -0.69948 
 1                     0.23196  -2.3311   -0.80913 
 8                    -0.56784  -0.51537  -1.49949 
 6                    -1.43461   0.34764  -0.73642 
 1                    -1.40774   1.36405  -1.13951 
 1                    -2.44963  -0.05222  -0.83245 
 1                    -1.69507   0.43872   1.44776 
 
                          Input orientation:                          
 ---------------------------------------------------------------------
 Center     Atomic      Atomic             Coordinates (Angstroms)
 Number     Number       Type             X           Y           Z
 ---------------------------------------------------------------------
      1          8           0       -0.567194   -1.159876    0.727627
      2          6           0       -0.932692    0.226845    0.693544
      3          6           0        0.144051   -1.281396   -0.517335
      4          6           0        0.325297    1.029730    0.949082
      5          1           0        0.234328    1.962641    1.496255
      6          6           0        1.536623   -0.658121   -0.272680
      7          6           0        1.527348    0.610165    0.517660
      8          1           0        2.461087    1.130363    0.674567
      9          8           0        2.594082   -1.112065   -0.699481
     10          1           0        0.231961   -2.331103   -0.809130
     11          8           0       -0.567843   -0.515370   -1.499491
     12          6           0       -1.434606    0.347641   -0.736425
     13          1           0       -1.407741    1.364049   -1.139512
     14          1           0       -2.449628   -0.052224   -0.832446
     15          1           0       -1.695072    0.438721    1.447765
 ---------------------------------------------------------------------
                    Distance matrix (angstroms):
                    1          2          3          4          5
     1  O    0.000000
     2  C    1.434484   0.000000
     3  C    1.438947   2.213683   0.000000
     4  C    2.374859   1.514088   2.743089   0.000000
     5  H    3.314112   2.240373   3.819225   1.085356   0.000000
     6  C    2.382943   2.795401   1.545181   2.410156   3.419576
     7  C    2.750315   2.495930   2.561783   1.344279   2.111573
     8  H    3.797169   3.512042   3.550475   2.155709   2.515216
     9  O    3.468802   4.021359   2.462621   3.528800   4.454606
    10  H    2.090943   3.187090   1.093049   3.794104   4.873505
    11  O    2.318501   2.343800   1.434650   3.029942   3.969700
    12  C    2.273425   1.520302   2.279017   2.530502   3.221557
    13  H    3.250065   2.208845   3.129463   2.734487   3.162590
    14  H    2.684079   2.169705   2.887443   3.470545   4.084869
    15  H    2.084759   1.093144   3.194181   2.163300   2.459120
                    6          7          8          9         10
     6  C    0.000000
     7  C    1.494414   0.000000
     8  H    2.224991   1.080322   0.000000
     9  O    1.227373   2.363351   2.633283   0.000000
    10  H    2.188330   3.476989   4.376312   2.660393   0.000000
    11  O    2.440127   3.118582   4.075461   3.315695   2.100756
    12  C    3.170933   3.227200   4.216631   4.285141   3.155694
    13  H    3.675574   3.453883   4.279407   4.726453   4.056097
    14  H    4.070706   4.251809   5.271122   5.155575   3.519198
    15  H    3.821890   3.358345   4.283674   5.041075   4.059428
                   11         12         13         14         15
    11  O    0.000000
    12  C    1.441644   0.000000
    13  H    2.089791   1.093748   0.000000
    14  H    2.049529   1.095163   1.784838   0.000000
    15  H    3.296552   2.201550   2.762751   2.451478   0.000000
 Stoichiometry    C6H6O3
 Framework group  C1[X(C6H6O3)]
 Deg. of freedom    39
 Full point group                 C1      NOp   1
 Largest Abelian subgroup         C1      NOp   1
 Largest concise Abelian subgroup C1      NOp   1
                         Standard orientation:                         
 ---------------------------------------------------------------------
 Center     Atomic      Atomic             Coordinates (Angstroms)
 Number     Number       Type             X           Y           Z
 ---------------------------------------------------------------------
      1          8           0       -0.642577   -0.203793    1.297612
      2          6           0       -1.308100    0.658115    0.363836
      3          6           0        0.157113   -1.000743    0.405461
      4          6           0       -0.282680    1.651139   -0.141020
      5          1           0       -0.616854    2.656746   -0.375706
      6          6           0        1.354538   -0.111880    0.000884
      7          6           0        1.008419    1.310979   -0.297353
      8          1           0        1.788728    1.972929   -0.643813
      9          8           0        2.512522   -0.502572   -0.112590
     10          1           0        0.498034   -1.911554    0.904414
     11          8           0       -0.643701   -1.295381   -0.747842
     12          6           0       -1.730319   -0.349532   -0.693377
     13          1           0       -1.907009    0.082030   -1.682730
     14          1           0       -2.620712   -0.902847   -0.376480
     15          1           0       -2.145969    1.168191    0.846291
 ---------------------------------------------------------------------
 Rotational constants (GHZ):      2.9324651      1.8263173      1.4617628
 Standard basis: 6-31G(d,p) (6D, 7F)
 There are   165 symmetry adapted basis functions of A   symmetry.
 Integral buffers will be    131072 words long.
 Raffenetti 2 integral format.
 Two-electron integral symmetry is turned on.
   165 basis functions,   294 primitive gaussians,   165 cartesian basis functions
    33 alpha electrons       33 beta electrons
       nuclear repulsion energy       461.3244104724 Hartrees.
 NAtoms=   15 NActive=   15 NUniq=   15 SFac= 1.00D+00 NAtFMM=   60 NAOKFM=F Big=F
 ------------------------------------------------------------------------------
 Polarizable Continuum Model (PCM)
 =================================
 Model                : C-PCM.
 Atomic radii         : SMD-Coulomb.
 Polarization charges : Total charges.
 Charge compensation  : None.
 Solution method      : Matrix inversion.
 Cavity type          : VdW (van der Waals Surface) (Alpha=1.000).
 Cavity algorithm     : GePol (No added spheres)
                        Default sphere list used, NSphG=   15.
                        Lebedev-Laikov grids with approx.  5.0 points / Ang**2.
                        Smoothing algorithm: Karplus/York (Gamma=1.0000).
                        Polarization charges: spherical gaussians, with
                                              point-specific exponents (IZeta= 3).
                        Self-potential: point-specific (ISelfS= 7).
                        Self-field    : sphere-specific E.n sum rule (ISelfD= 2).
 Solvent              : Chloroform, Eps=   4.711300 Eps(inf)=   2.090627
 ------------------------------------------------------------------------------
 Spheres list:
 ISph  on   Nord    Re0     Alpha      Xe            Ye            Ze
    1   O      1    2.024   1.000     -0.642577     -0.203793      1.297612
    2   C      2    1.850   1.000     -1.308100      0.658115      0.363836
    3   C      3    1.850   1.000      0.157113     -1.000743      0.405461
    4   C      4    1.850   1.000     -0.282680      1.651139     -0.141020
    5   H      5    1.200   1.000     -0.616854      2.656746     -0.375706
    6   C      6    1.850   1.000      1.354538     -0.111880      0.000884
    7   C      7    1.850   1.000      1.008419      1.310979     -0.297353
    8   H      8    1.200   1.000      1.788728      1.972929     -0.643813
    9   O      9    2.024   1.000      2.512522     -0.502572     -0.112590
   10   H     10    1.200   1.000      0.498034     -1.911554      0.904414
   11   O     11    2.024   1.000     -0.643701     -1.295381     -0.747842
   12   C     12    1.850   1.000     -1.730319     -0.349532     -0.693377
   13   H     13    1.200   1.000     -1.907009      0.082030     -1.682730
   14   H     14    1.200   1.000     -2.620712     -0.902847     -0.376480
   15   H     15    1.200   1.000     -2.145969      1.168191      0.846291
 ------------------------------------------------------------------------------
 ------------------------------------------------------------------------------
 Atomic radii for non-electrostatic terms: SMD-CDS.
 ------------------------------------------------------------------------------
 Nuclear repulsion after PCM non-electrostatic terms =      461.3222368547 Hartrees.
 One-electron integrals computed using PRISM.
 NBasis=   165 RedAO= T  NBF=   165
 NBsUse=   165 1.00D-06 NBFU=   165
 Harris functional with IExCor=  908 diagonalized for initial guess.
 ExpMin= 1.61D-01 ExpMax= 5.48D+03 ExpMxC= 8.25D+02 IAcc=1 IRadAn=         1 AccDes= 0.00D+00
 HarFok:  IExCor=  908 AccDes= 0.00D+00 IRadAn=         1 IDoV= 1
 ScaDFX=  1.000000  1.000000  1.000000  1.000000
 FoFCou: FMM=F IPFlag=           0 FMFlag=      100000 FMFlg1=           0
         NFxFlg=           0 DoJE=T BraDBF=F KetDBF=T FulRan=T
         Omega=  0.000000  0.000000  1.000000  0.000000  0.000000 ICntrl=     500 IOpCl=  0
         NMat0=    1 NMatS0=    1 NMatT0=    0 NMatD0=    1 NMtDS0=    0 NMtDT0=    0
         I1Cent=           4 NGrid=           0.
 Petite list used in FoFCou.
 Initial guess orbital symmetries:
       Occupied  (A) (A) (A) (A) (A) (A) (A) (A) (A) (A) (A) (A)
                 (A) (A) (A) (A) (A) (A) (A) (A) (A) (A) (A) (A)
                 (A) (A) (A) (A) (A) (A) (A) (A) (A)
       Virtual   (A) (A) (A) (A) (A) (A) (A) (A) (A) (A) (A) (A)
                 (A) (A) (A) (A) (A) (A) (A) (A) (A) (A) (A) (A)
                 (A) (A) (A) (A) (A) (A) (A) (A) (A) (A) (A) (A)
                 (A) (A) (A) (A) (A) (A) (A) (A) (A) (A) (A) (A)
                 (A) (A) (A) (A) (A) (A) (A) (A) (A) (A) (A) (A)
                 (A) (A) (A) (A) (A) (A) (A) (A) (A) (A) (A) (A)
                 (A) (A) (A) (A) (A) (A) (A) (A) (A) (A) (A) (A)
                 (A) (A) (A) (A) (A) (A) (A) (A) (A) (A) (A) (A)
                 (A) (A) (A) (A) (A) (A) (A) (A) (A) (A) (A) (A)
                 (A) (A) (A) (A) (A) (A) (A) (A) (A) (A) (A) (A)
                 (A) (A) (A) (A) (A) (A) (A) (A) (A) (A) (A) (A)
 The electronic state of the initial guess is 1-A.
 Requested convergence on RMS density matrix=1.00D-08 within 128 cycles.
 Requested convergence on MAX density matrix=1.00D-06.
 Requested convergence on             energy=1.00D-06.
 No special actions if energy rises.
 Error on total polarization charges =  0.01427
 SCF Done:  E(RmPW1PW91) =  -457.774508532     A.U. after   13 cycles
             Convg  =    0.4505D-08             -V/T =  2.0089
 SMD-CDS (non-electrostatic) energy       (kcal/mol) =      -1.36
 (included in total energy above)
 Range of M.O.s used for correlation:     1   165
 NBasis=   165 NAE=    33 NBE=    33 NFC=     0 NFV=     0
 NROrb=    165 NOA=    33 NOB=    33 NVA=   132 NVB=   132
 NEqPCM:  Using equilibrium solvation (IEInf=0, Eps=   4.7113, EpsInf=   2.0906)
          Differentiating once with respect to magnetic field using GIAOs.
          Electric field/nuclear overlap derivatives assumed to be zero.
 FoFCou: FMM=F IPFlag=           0 FMFlag=    10101102 FMFlg1=           0
         NFxFlg=    40000000 DoJE=F BraDBF=F KetDBF=T FulRan=T
         Omega=  0.000000  0.000000  1.000000  0.000000  0.000000 ICntrl=    6100 IOpCl=  0
         NMat0=    1 NMatS0=    1 NMatT0=    0 NMatD0=    1 NMtDS0=    0 NMtDT0=    0
         I1Cent=           7 NGrid=        1241.
 Symmetry not used in FoFCou.
          There are     3 degrees of freedom in the 1st order CPHF.  IDoFFX=0.
      3 vectors produced by pass  0 Test12= 1.45D-13 3.33D-08 XBig12= 9.02D+00 1.20D+00.
 AX will form     3 AO Fock derivatives at one time.
      3 vectors produced by pass  1 Test12= 1.45D-13 3.33D-08 XBig12= 7.18D-02 1.73D-01.
      3 vectors produced by pass  2 Test12= 1.45D-13 3.33D-08 XBig12= 6.26D-04 7.93D-03.
      3 vectors produced by pass  3 Test12= 1.45D-13 3.33D-08 XBig12= 3.71D-06 7.38D-04.
      3 vectors produced by pass  4 Test12= 1.45D-13 3.33D-08 XBig12= 1.29D-08 2.20D-05.
      3 vectors produced by pass  5 Test12= 1.45D-13 3.33D-08 XBig12= 4.97D-11 1.53D-06.
      1 vectors produced by pass  6 Test12= 1.45D-13 3.33D-08 XBig12= 2.04D-13 9.22D-08.
 Inverted reduced A of dimension    19 with in-core refinement.
 Calculating GIAO nuclear magnetic shielding tensors.
 SCF GIAO Magnetic shielding tensor (ppm):
      1  O    Isotropic =   204.2668   Anisotropy =    70.4518
   XX=   235.4314   YX=   -53.5555   ZX=    -5.3474
   XY=     0.9931   YY=   175.3567   ZY=     7.7409
   XZ=    43.1108   YZ=    -3.5156   ZZ=   202.0123
   Eigenvalues:   163.3688   198.1970   251.2347
      2  C    Isotropic =   123.8910   Anisotropy =    45.7357
   XX=   108.0240   YX=    -6.5281   ZX=    20.3535
   XY=   -12.7138   YY=   125.3496   ZY=    -6.0727
   XZ=    16.8642   YZ=   -16.7207   ZZ=   138.2993
   Eigenvalues:    98.5349   118.7566   154.3814
      3  C    Isotropic =    91.9985   Anisotropy =    26.8274
   XX=   102.2231   YX=   -19.0056   ZX=    10.6063
   XY=    -7.9894   YY=    77.1107   ZY=    12.9912
   XZ=     8.0265   YZ=    11.5935   ZZ=    96.6616
   Eigenvalues:    64.2373   101.8747   109.8834
      4  C    Isotropic =    45.9319   Anisotropy =   188.3093
   XX=    56.3000   YX=     8.7988   ZX=    26.4033
   XY=    14.5650   YY=   -61.9488   ZY=    63.7935
   XZ=    57.8786   YZ=    35.8789   ZZ=   143.4445
   Eigenvalues:   -73.4334    39.7577   171.4715
      5  H    Isotropic =    24.0321   Anisotropy =     3.9458
   XX=    25.9496   YX=     1.1316   ZX=    -0.9345
   XY=     1.9071   YY=    22.3805   ZY=     0.7151
   XZ=     0.0656   YZ=    -2.1802   ZZ=    23.7662
   Eigenvalues:    21.6769    23.7568    26.6627
      6  C    Isotropic =     3.4515   Anisotropy =   167.7857
   XX=   -34.1388   YX=    -4.1524   ZX=    25.4474
   XY=   -18.5240   YY=   -51.2095   ZY=    47.4948
   XZ=    -8.7260   YZ=    66.3863   ZZ=    95.7027
   Eigenvalues:   -75.1097   -29.8445   115.3086
      7  C    Isotropic =    68.1743   Anisotropy =   133.7109
   XX=    71.4727   YX=   -20.6850   ZX=    20.8045
   XY=   -32.1142   YY=     2.6332   ZY=    46.1749
   XZ=    50.2644   YZ=    60.2119   ZZ=   130.4170
   Eigenvalues:   -30.4328    77.6409   157.3149
      8  H    Isotropic =    25.0397   Anisotropy =     4.0716
   XX=    27.3587   YX=    -0.6416   ZX=    -0.1461
   XY=    -1.3258   YY=    24.3926   ZY=     0.4347
   XZ=     1.9543   YZ=     1.1500   ZZ=    23.3680
   Eigenvalues:    22.5952    24.7699    27.7541
      9  O    Isotropic =  -240.2647   Anisotropy =   903.8696
   XX=  -723.2115   YX=   157.2362   ZX=   159.3026
   XY=   150.0651   YY=  -299.4908   ZY=   136.3238
   XZ=    36.3000   YZ=   199.4398   ZZ=   301.9082
   Eigenvalues:  -774.7488  -308.3604   362.3150
     10  H    Isotropic =    26.1704   Anisotropy =     7.4658
   XX=    26.4313   YX=    -3.0769   ZX=     1.9200
   XY=    -3.5148   YY=    26.8510   ZY=    -0.9303
   XZ=     2.1440   YZ=    -2.5712   ZZ=    25.2290
   Eigenvalues:    23.2507    24.1130    31.1476
     11  O    Isotropic =   274.5825   Anisotropy =   119.0258
   XX=   277.3663   YX=   -23.4748   ZX=    48.2338
   XY=   -28.7840   YY=   237.1272   ZY=    55.7865
   XZ=    22.1298   YZ=    79.1542   ZZ=   309.2539
   Eigenvalues:   179.6193   290.1951   353.9330
     12  C    Isotropic =   128.7345   Anisotropy =    54.6551
   XX=   139.8430   YX=   -31.9266   ZX=     1.4804
   XY=   -23.1404   YY=   134.0271   ZY=    15.7283
   XZ=     3.2875   YZ=     5.4347   ZZ=   112.3335
   Eigenvalues:   101.0177   120.0146   165.1713
     13  H    Isotropic =    27.6436   Anisotropy =     8.1023
   XX=    26.6391   YX=    -1.7163   ZX=     2.8735
   XY=    -2.0058   YY=    26.3534   ZY=    -2.7326
   XZ=     4.0356   YZ=    -0.7923   ZZ=    29.9383
   Eigenvalues:    24.1740    25.7118    33.0451
     14  H    Isotropic =    27.5440   Anisotropy =    10.2724
   XX=    34.0762   YX=     1.9916   ZX=    -0.2829
   XY=     0.9861   YY=    25.9957   ZY=     0.7687
   XZ=    -1.4202   YZ=    -0.0137   ZZ=    22.5602
   Eigenvalues:    22.4279    25.8119    34.3923
     15  H    Isotropic =    26.6542   Anisotropy =     8.1394
   XX=    27.8670   YX=    -3.7873   ZX=    -2.4946
   XY=    -3.2899   YY=    27.6212   ZY=     1.2966
   XZ=    -1.9463   YZ=     1.1620   ZZ=    24.4743
   Eigenvalues:    23.2639    24.6182    32.0805
 End of Minotr Frequency-dependent properties file   721 does not exist.
 End of Minotr Frequency-dependent properties file   722 does not exist.

 **********************************************************************

            Population analysis using the SCF density.

 **********************************************************************

 Orbital symmetries:
       Occupied  (A) (A) (A) (A) (A) (A) (A) (A) (A) (A) (A) (A)
                 (A) (A) (A) (A) (A) (A) (A) (A) (A) (A) (A) (A)
                 (A) (A) (A) (A) (A) (A) (A) (A) (A)
       Virtual   (A) (A) (A) (A) (A) (A) (A) (A) (A) (A) (A) (A)
                 (A) (A) (A) (A) (A) (A) (A) (A) (A) (A) (A) (A)
                 (A) (A) (A) (A) (A) (A) (A) (A) (A) (A) (A) (A)
                 (A) (A) (A) (A) (A) (A) (A) (A) (A) (A) (A) (A)
                 (A) (A) (A) (A) (A) (A) (A) (A) (A) (A) (A) (A)
                 (A) (A) (A) (A) (A) (A) (A) (A) (A) (A) (A) (A)
                 (A) (A) (A) (A) (A) (A) (A) (A) (A) (A) (A) (A)
                 (A) (A) (A) (A) (A) (A) (A) (A) (A) (A) (A) (A)
                 (A) (A) (A) (A) (A) (A) (A) (A) (A) (A) (A) (A)
                 (A) (A) (A) (A) (A) (A) (A) (A) (A) (A) (A) (A)
                 (A) (A) (A) (A) (A) (A) (A) (A) (A) (A) (A) (A)
 The electronic state is 1-A.
 Alpha  occ. eigenvalues --  -19.26686 -19.26476 -19.23557 -10.35556 -10.33896
 Alpha  occ. eigenvalues --  -10.31814 -10.30242 -10.27576 -10.26126  -1.13213
 Alpha  occ. eigenvalues --   -1.06524  -1.03517  -0.83753  -0.80163  -0.68173
 Alpha  occ. eigenvalues --   -0.67580  -0.62175  -0.57085  -0.54970  -0.50070
 Alpha  occ. eigenvalues --   -0.48261  -0.47587  -0.45822  -0.44681  -0.42552
 Alpha  occ. eigenvalues --   -0.40518  -0.39641  -0.37447  -0.36762  -0.32057
 Alpha  occ. eigenvalues --   -0.29755  -0.28715  -0.24735
 Alpha virt. eigenvalues --   -0.05388   0.04166   0.10570   0.13273   0.14873
 Alpha virt. eigenvalues --    0.15741   0.16182   0.17637   0.19082   0.19766
 Alpha virt. eigenvalues --    0.21479   0.22721   0.25262   0.27503   0.29634
 Alpha virt. eigenvalues --    0.31808   0.39034   0.41876   0.50918   0.52896
 Alpha virt. eigenvalues --    0.54047   0.56248   0.57298   0.58903   0.60324
 Alpha virt. eigenvalues --    0.62776   0.63726   0.64948   0.66820   0.67869
 Alpha virt. eigenvalues --    0.69916   0.71969   0.78368   0.79523   0.82744
 Alpha virt. eigenvalues --    0.83386   0.85632   0.86890   0.87441   0.89709
 Alpha virt. eigenvalues --    0.91361   0.92413   0.93064   0.95334   0.99124
 Alpha virt. eigenvalues --    1.02400   1.06112   1.07217   1.12925   1.14970
 Alpha virt. eigenvalues --    1.16250   1.19973   1.23803   1.28236   1.31781
 Alpha virt. eigenvalues --    1.33501   1.37046   1.39928   1.43119   1.47590
 Alpha virt. eigenvalues --    1.51448   1.54909   1.58661   1.61901   1.67711
 Alpha virt. eigenvalues --    1.68252   1.72918   1.77232   1.82008   1.82237
 Alpha virt. eigenvalues --    1.85070   1.87012   1.87549   1.89871   1.91890
 Alpha virt. eigenvalues --    1.93541   1.95146   1.95881   1.97717   1.99389
 Alpha virt. eigenvalues --    2.04593   2.05745   2.09847   2.12515   2.14126
 Alpha virt. eigenvalues --    2.15258   2.20271   2.25447   2.28738   2.32627
 Alpha virt. eigenvalues --    2.37052   2.39363   2.40698   2.43176   2.46555
 Alpha virt. eigenvalues --    2.46938   2.51026   2.52161   2.54801   2.57490
 Alpha virt. eigenvalues --    2.60516   2.63391   2.64503   2.68123   2.69144
 Alpha virt. eigenvalues --    2.73926   2.76829   2.79470   2.83503   2.88403
 Alpha virt. eigenvalues --    2.90670   2.93005   2.97405   2.98774   3.02589
 Alpha virt. eigenvalues --    3.04720   3.21970   3.30543   3.31321   3.39577
 Alpha virt. eigenvalues --    3.41832   3.48045   3.65712   3.91841   3.99046
 Alpha virt. eigenvalues --    4.19017   4.25447   4.48194   4.50824   4.60135
 Alpha virt. eigenvalues --    4.77594   4.87254
          Condensed to atoms (all electrons):
              1          2          3          4          5          6
     1  O    8.356508   0.197587   0.176398  -0.058390   0.003071  -0.023459
     2  C    0.197587   4.955078  -0.026155   0.336063  -0.036266  -0.037214
     3  C    0.176398  -0.026155   4.967252  -0.005810  -0.000717   0.254219
     4  C   -0.058390   0.336063  -0.005810   5.086737   0.369236  -0.007614
     5  H    0.003071  -0.036266  -0.000717   0.369236   0.515617   0.003360
     6  C   -0.023459  -0.037214   0.254219  -0.007614   0.003360   4.619899
     7  C   -0.009167  -0.023763  -0.081196   0.495909  -0.024877   0.355462
     8  H   -0.000244   0.003534   0.004134  -0.034700  -0.004766  -0.032418
     9  O    0.001245   0.000281  -0.055413   0.005967  -0.000088   0.517548
    10  H   -0.025843   0.005512   0.389457  -0.000902   0.000018  -0.058636
    11  O   -0.045881  -0.033879   0.186673  -0.011134   0.000047  -0.046970
    12  C   -0.054156   0.338319  -0.069182  -0.057076   0.002864  -0.001394
    13  H    0.003253  -0.029395   0.005111  -0.003359   0.000074   0.001086
    14  H   -0.000048  -0.032654   0.000041   0.005126  -0.000095  -0.000468
    15  H   -0.026068   0.396866   0.005302  -0.040490  -0.002818  -0.000276
              7          8          9         10         11         12
     1  O   -0.009167  -0.000244   0.001245  -0.025843  -0.045881  -0.054156
     2  C   -0.023763   0.003534   0.000281   0.005512  -0.033879   0.338319
     3  C   -0.081196   0.004134  -0.055413   0.389457   0.186673  -0.069182
     4  C    0.495909  -0.034700   0.005967  -0.000902  -0.011134  -0.057076
     5  H   -0.024877  -0.004766  -0.000088   0.000018   0.000047   0.002864
     6  C    0.355462  -0.032418   0.517548  -0.058636  -0.046970  -0.001394
     7  C    5.130278   0.384768  -0.072182   0.005911   0.009389  -0.002020
     8  H    0.384768   0.503763  -0.000274  -0.000076  -0.000064  -0.000120
     9  O   -0.072182  -0.000274   8.107982   0.004508   0.000280  -0.000069
    10  H    0.005911  -0.000076   0.004508   0.526778  -0.029709   0.003173
    11  O    0.009389  -0.000064   0.000280  -0.029709   8.335461   0.226329
    12  C   -0.002020  -0.000120  -0.000069   0.003173   0.226329   4.849847
    13  H   -0.000350  -0.000020   0.000004  -0.000265  -0.031756   0.380651
    14  H    0.000201   0.000003  -0.000001   0.000449  -0.041415   0.385203
    15  H    0.003698  -0.000099   0.000004  -0.000052   0.002616  -0.028656
             13         14         15
     1  O    0.003253  -0.000048  -0.026068
     2  C   -0.029395  -0.032654   0.396866
     3  C    0.005111   0.000041   0.005302
     4  C   -0.003359   0.005126  -0.040490
     5  H    0.000074  -0.000095  -0.002818
     6  C    0.001086  -0.000468  -0.000276
     7  C   -0.000350   0.000201   0.003698
     8  H   -0.000020   0.000003  -0.000099
     9  O    0.000004  -0.000001   0.000004
    10  H   -0.000265   0.000449  -0.000052
    11  O   -0.031756  -0.041415   0.002616
    12  C    0.380651   0.385203  -0.028656
    13  H    0.544229  -0.039328   0.001785
    14  H   -0.039328   0.558777  -0.003082
    15  H    0.001785  -0.003082   0.501369
 Mulliken atomic charges:
              1
     1  O   -0.494808
     2  C   -0.013913
     3  C    0.249886
     4  C   -0.079562
     5  H    0.175341
     6  C    0.456875
     7  C   -0.172062
     8  H    0.176581
     9  O   -0.509791
    10  H    0.179679
    11  O   -0.519987
    12  C    0.026287
    13  H    0.168280
    14  H    0.167292
    15  H    0.189902
 Sum of Mulliken atomic charges =   0.00000
 Mulliken charges with hydrogens summed into heavy atoms:
              1
     1  O   -0.494808
     2  C    0.175989
     3  C    0.429564
     4  C    0.095779
     6  C    0.456875
     7  C    0.004520
     9  O   -0.509791
    11  O   -0.519987
    12  C    0.361859
 Sum of Mulliken charges with hydrogens summed into heavy atoms =   0.00000
 Electronic spatial extent (au):  <R**2>=            895.6526
 Charge=              0.0000 electrons
 Dipole moment (field-independent basis, Debye):
    X=             -4.5521    Y=              3.1574    Z=             -0.5030  Tot=              5.5627
 Quadrupole moment (field-independent basis, Debye-Ang):
   XX=            -53.0340   YY=            -46.2383   ZZ=            -53.0076
   XY=             -0.2134   XZ=              1.7879   YZ=             -3.1866
 Traceless Quadrupole moment (field-independent basis, Debye-Ang):
   XX=             -2.2741   YY=              4.5217   ZZ=             -2.2476
   XY=             -0.2134   XZ=              1.7879   YZ=             -3.1866
 Octapole moment (field-independent basis, Debye-Ang**2):
  XXX=            -40.8262  YYY=              4.4541  ZZZ=             -3.3471  XYY=              0.3553
  XXY=              9.7795  XXZ=             -0.5265  XZZ=              0.8919  YZZ=             -1.2492
  YYZ=              3.2670  XYZ=             -3.1175
 Hexadecapole moment (field-independent basis, Debye-Ang**3):
 XXXX=           -627.4238 YYYY=           -325.8762 ZZZZ=           -170.3657 XXXY=             20.5800
 XXXZ=              1.5374 YYYX=             -8.3864 YYYZ=            -14.9992 ZZZX=              5.5426
 ZZZY=              1.2435 XXYY=           -147.3960 XXZZ=           -117.9182 YYZZ=            -87.8490
 XXYZ=              0.6382 YYXZ=             -5.1575 ZZXY=             -4.7831
 N-N= 4.613222368547D+02 E-N=-1.992581468521D+03  KE= 4.537390246231D+02
 1\1\GINC-COMPUTE-8-9\SP\RmPW1PW91\6-31G(d,p)\C6H6O3\FBRUNO.IQUIR\16-Oc
 t-2021\0\\# mPW1PW91/6-31g** scrf=(pcm,solvent=chloroform,smd,dovacuum
 ) nmr\\comment\\0,1\O,0,-0.567193717,-1.159875886,0.727627222\C,0,-0.9
 32691998,0.226845064,0.69354368\C,0,0.1440505,-1.28139628,-0.517335311
 \C,0,0.325297251,1.029730261,0.949082423\H,0,0.234328109,1.962641218,1
 .496255485\C,0,1.536622702,-0.658120749,-0.272680204\C,0,1.527347696,0
 .610165082,0.517659849\H,0,2.461086751,1.130363176,0.674567446\O,0,2.5
 94081753,-1.112065282,-0.699480603\H,0,0.231961417,-2.331103237,-0.809
 129812\O,0,-0.567842909,-0.515369617,-1.49949141\C,0,-1.43460608,0.347
 641051,-0.736424905\H,0,-1.407741281,1.364048641,-1.139512087\H,0,-2.4
 49628038,-0.052224275,-0.832446456\H,0,-1.695072156,0.438720831,1.4477
 64685\\Version=EM64L-G09RevC.01\State=1-A\HF=-457.7745085\RMSD=4.505e-
 09\Dipole=-1.4622503,1.3998747,0.8317434\Quadrupole=-1.7156506,3.45359
 64,-1.7379458,0.2912238,1.3839136,2.2216611\PG=C01 [X(C6H6O3)]\\@


 I MET A TRAVELLER FROM AN ANTIQUE LAND
 WHO SAID... TWO VAST AND TRUNKLESS LEGS OF STONE
 STAND IN THE DESERT..... NEAR THEM,  ON THE SAND,
 HALF SUNK,  A SHATTERED VISAGE LIES,  WHOSE FROWN,
 AND WRINKLED LIP,  AND SNEER OF COLD COMMAND
 TELL THAT ITS SCULPTOR WELL THOSE PASSIONS READ
 WHICH YET SURVIVE,  STAMPED ON THESE LIFELESS THINGS
 THE HAND THAT MOCKED THEM,  AND THE HEART THAT FED-
 AND ON THE PEDESTAL THESE WORDS APPEAR 
 MY NAME IS OZYMANDIAS, KING OF KINGS--   
 LOOK ON MY WORKS YE MIGHTY AND DESPAIR. 
 NOTHING BESIDE REMAINS,  ROUND THE DECAY 
 OF THAT COLOSSAL WRECK,  BOUNDLESS AND BARE
 THE LONE AND LEVEL SANDS STRETCH FAR AWAY.
                                    SHELLEY
 Job cpu time:  0 days  0 hours  6 minutes 13.7 seconds.
 File lengths (MBytes):  RWF=     33 Int=      0 D2E=      0 Chk=      3 Scr=      1
 Normal termination of Gaussian 09 at Sat Oct 16 10:33:54 2021.
