 Entering Gaussian System, Link 0=g09
 Input=/home/fbruno.iquir/MPW_A_SMD/51_MMFF_001_NMR_MPW_A_SMD.gjc
 Output=/home/fbruno.iquir/MPW_A_SMD/51_MMFF_001_NMR_MPW_A_SMD.log
 Initial command:
 /share/apps/Gaussian09/EM64T.SSE4.2-enabled/g09/l1.exe /tmp/Gau-54375.inp -scrdir=/tmp/
 Entering Link 1 = /share/apps/Gaussian09/EM64T.SSE4.2-enabled/g09/l1.exe PID=     54376.
  
 Copyright (c) 1988,1990,1992,1993,1995,1998,2003,2009,2011,
            Gaussian, Inc.  All Rights Reserved.
  
 This is part of the Gaussian(R) 09 program.  It is based on
 the Gaussian(R) 03 system (copyright 2003, Gaussian, Inc.),
 the Gaussian(R) 98 system (copyright 1998, Gaussian, Inc.),
 the Gaussian(R) 94 system (copyright 1995, Gaussian, Inc.),
 the Gaussian 92(TM) system (copyright 1992, Gaussian, Inc.),
 the Gaussian 90(TM) system (copyright 1990, Gaussian, Inc.),
 the Gaussian 88(TM) system (copyright 1988, Gaussian, Inc.),
 the Gaussian 86(TM) system (copyright 1986, Carnegie Mellon
 University), and the Gaussian 82(TM) system (copyright 1983,
 Carnegie Mellon University). Gaussian is a federally registered
 trademark of Gaussian, Inc.
  
 This software contains proprietary and confidential information,
 including trade secrets, belonging to Gaussian, Inc.
  
 This software is provided under written license and may be
 used, copied, transmitted, or stored only in accord with that
 written license.
  
 The following legend is applicable only to US Government
 contracts under FAR:
  
                    RESTRICTED RIGHTS LEGEND
  
 Use, reproduction and disclosure by the US Government is
 subject to restrictions as set forth in subparagraphs (a)
 and (c) of the Commercial Computer Software - Restricted
 Rights clause in FAR 52.227-19.
  
 Gaussian, Inc.
 340 Quinnipiac St., Bldg. 40, Wallingford CT 06492
  
  
 ---------------------------------------------------------------
 Warning -- This program may not be used in any manner that
 competes with the business of Gaussian, Inc. or will provide
 assistance to any competitor of Gaussian, Inc.  The licensee
 of this program is prohibited from giving any competitor of
 Gaussian, Inc. access to this program.  By using this program,
 the user acknowledges that Gaussian, Inc. is engaged in the
 business of creating and licensing software in the field of
 computational chemistry and represents and warrants to the
 licensee that it is not a competitor of Gaussian, Inc. and that
 it will not use this program in any manner prohibited above.
 ---------------------------------------------------------------
  

 Cite this work as:
 Gaussian 09, Revision C.01,
 M. J. Frisch, G. W. Trucks, H. B. Schlegel, G. E. Scuseria, 
 M. A. Robb, J. R. Cheeseman, G. Scalmani, V. Barone, B. Mennucci, 
 G. A. Petersson, H. Nakatsuji, M. Caricato, X. Li, H. P. Hratchian, 
 A. F. Izmaylov, J. Bloino, G. Zheng, J. L. Sonnenberg, M. Hada, 
 M. Ehara, K. Toyota, R. Fukuda, J. Hasegawa, M. Ishida, T. Nakajima, 
 Y. Honda, O. Kitao, H. Nakai, T. Vreven, J. A. Montgomery, Jr., 
 J. E. Peralta, F. Ogliaro, M. Bearpark, J. J. Heyd, E. Brothers, 
 K. N. Kudin, V. N. Staroverov, T. Keith, R. Kobayashi, J. Normand, 
 K. Raghavachari, A. Rendell, J. C. Burant, S. S. Iyengar, J. Tomasi, 
 M. Cossi, N. Rega, J. M. Millam, M. Klene, J. E. Knox, J. B. Cross, 
 V. Bakken, C. Adamo, J. Jaramillo, R. Gomperts, R. E. Stratmann, 
 O. Yazyev, A. J. Austin, R. Cammi, C. Pomelli, J. W. Ochterski, 
 R. L. Martin, K. Morokuma, V. G. Zakrzewski, G. A. Voth, 
 P. Salvador, J. J. Dannenberg, S. Dapprich, A. D. Daniels, 
 O. Farkas, J. B. Foresman, J. V. Ortiz, J. Cioslowski, 
 and D. J. Fox, Gaussian, Inc., Wallingford CT, 2010.
 
 ******************************************
 Gaussian 09:  EM64L-G09RevC.01 23-Sep-2011
                16-Oct-2021 
 ******************************************
 %nprocshared=4
 Will use up to    4 processors via shared memory.
 -----------------------------------------------------------------
 # mPW1PW91/6-31g** scrf=(pcm,solvent=chloroform,smd,dovacuum) nmr
 -----------------------------------------------------------------
 1/38=1/1;
 2/12=2,17=6,18=5,40=1/2;
 3/5=1,6=6,7=101,11=2,16=1,25=1,30=1,70=32101,72=7,74=-7/1,2,8,3;
 4//1;
 5/5=2,38=5,53=7/2;
 8/6=1,10=90,11=11/1;
 10/13=100,45=16/2;
 6/7=2,8=2,9=2,10=2,28=1/1;
 99/9=1/99;
 -------
 comment
 -------
 Charge =  0 Multiplicity = 1
 Symbolic Z-Matrix:
 1                     2.31614   1.09442  -0.98563 
 6                     2.32335   0.33807  -0.19292 
 1                     2.56286  -0.61885  -0.67218 
 6                     3.45055   0.71594   0.7576 
 1                     3.64568  -0.04864   1.51331 
 1                     4.37467   0.82999   0.17827 
 6                     1.78829   2.21322   2.11818 
 6                     0.65359   1.65663   1.18236 
 6                     0.92848   0.26822   0.48703 
 6                     3.16324   2.02779   1.44829 
 8                     4.05527   2.87455   1.53896 
 6                     1.57462   3.73839   2.31561 
 1                     1.54571   4.26284   1.3535 
 1                     2.38802   4.18656   2.89928 
 1                     0.6472    3.95832   2.85264 
 6                     1.84907   1.59193   3.52154 
 1                     2.12127   0.53728   3.51425 
 1                     0.90015   1.69752   4.05633 
 1                     2.61644   2.0887    4.12894 
 6                    -0.75638   1.69848   1.81677 
 1                    -0.81513   1.01448   2.67003 
 1                    -0.97368   2.69636   2.21026 
 6                    -0.22604  -0.01899  -0.59421 
 6                    -1.86511   1.34782   0.82129 
 1                    -1.96227   2.15441   0.08485 
 1                    -2.82144   1.30389   1.35679 
 6                    -1.60315   0.01492   0.12214 
 1                     0.6211    2.3862    0.3612 
 6                     0.96004  -0.91887   1.49653 
 1                     0.9965   -1.88324   0.97807 
 1                     0.091    -0.93903   2.15781 
 1                     1.83739  -0.91406   2.14107 
 6                    -0.16583   0.95973  -1.79884 
 1                    -0.97293   0.77897  -2.51611 
 1                     0.74814   0.81139  -2.38337 
 1                    -0.22957   2.00992  -1.50827 
 1                    -1.61273  -0.76753   0.89359 
 8                     0.0037   -1.33922  -1.14383 
 6                    -1.05729  -1.98926  -1.75019 
 6                    -2.32718  -1.55594  -1.65 
 6                    -2.73479  -0.37004  -0.83458 
 1                    -3.62979  -0.60305  -0.24416 
 1                    -2.99897   0.4623   -1.4973 
 8                    -0.71539  -3.11897  -2.47975 
 6                    -1.69374  -3.8345   -3.14513 
 6                    -1.17813  -5.02379  -3.88993 
 1                    -0.44565  -4.71112  -4.64101 
 1                    -1.9785   -5.5653   -4.40474 
 1                    -0.69027  -5.71964  -3.19987 
 6                    -2.98622  -3.48944  -3.12336 
 1                    -3.76411  -4.03646  -3.63887 
 6                    -3.39164  -2.29999  -2.35873 
 8                    -4.55072  -1.90061  -2.39713 
 
 Stoichiometry    C21H28O4
 Framework group  C1[X(C21H28O4)]
 Deg. of freedom   153
 Full point group                 C1      NOp   1
 Largest Abelian subgroup         C1      NOp   1
 Largest concise Abelian subgroup C1      NOp   1
                         Standard orientation:                         
 ---------------------------------------------------------------------
 Center     Atomic      Atomic             Coordinates (Angstroms)
 Number     Number       Type             X           Y           Z
 ---------------------------------------------------------------------
      1          1           0        1.739596   -1.632104   -1.595276
      2          6           0        1.718153   -1.769589   -0.508478
      3          1           0        0.984881   -2.559278   -0.304857
      4          6           0        3.102241   -2.257922   -0.105139
      5          1           0        3.157543   -2.566438    0.941528
      6          1           0        3.352654   -3.139432   -0.707515
      7          6           0        3.889257    0.224899    0.163829
      8          6           0        2.398183    0.639053   -0.115945
      9          6           0        1.294630   -0.446203    0.185896
     10          6           0        4.148802   -1.199893   -0.361741
     11          8           0        5.213398   -1.516147   -0.897983
     12          6           0        4.831807    1.181544   -0.615392
     13          1           0        4.602102    1.178859   -1.687200
     14          1           0        5.882329    0.883030   -0.513208
     15          1           0        4.763535    2.211864   -0.253905
     16          6           0        4.323819    0.281348    1.635930
     17          1           0        3.812548   -0.446893    2.264183
     18          1           0        4.171452    1.274789    2.068894
     19          1           0        5.392742    0.050970    1.730282
     20          6           0        2.010311    2.014889    0.474704
     21          1           0        2.031826    1.983925    1.569212
     22          1           0        2.733038    2.780944    0.176974
     23          6           0       -0.121377    0.070436   -0.373112
     24          6           0        0.627989    2.487862    0.017849
     25          1           0        0.663135    2.740165   -1.048671
     26          1           0        0.378992    3.416883    0.545286
     27          6           0       -0.450259    1.438567    0.283240
     28          1           0        2.373194    0.776790   -1.205919
     29          6           0        1.140311   -0.745951    1.707608
     30          1           0        0.269519   -1.381218    1.903287
     31          1           0        1.024376    0.157570    2.310216
     32          1           0        1.984230   -1.290279    2.127995
     33          6           0       -0.156056    0.139272   -1.924465
     34          1           0       -1.111843    0.520964   -2.297768
     35          1           0       -0.077279   -0.859519   -2.366317
     36          1           0        0.625295    0.772738   -2.348272
     37          1           0       -0.509025    1.296628    1.371292
     38          8           0       -1.125409   -0.903263    0.003340
     39          6           0       -2.449407   -0.500561    0.031236
     40          6           0       -2.817212    0.791193   -0.049517
     41          6           0       -1.844654    1.925465   -0.120096
     42          1           0       -2.146914    2.729560    0.562533
     43          1           0       -1.843328    2.350180   -1.130736
     44          8           0       -3.374703   -1.528933    0.139233
     45          6           0       -4.727426   -1.242961    0.154866
     46          6           0       -5.603464   -2.448621    0.272905
     47          1           0       -5.430610   -3.125542   -0.569888
     48          1           0       -6.666268   -2.185466    0.281280
     49          1           0       -5.382420   -2.987232    1.199962
     50          6           0       -5.206468    0.003393    0.070252
     51          1           0       -6.260810    0.245014    0.079548
     52          6           0       -4.259030    1.123000   -0.042178
     53          8           0       -4.665208    2.266745   -0.219145
 ---------------------------------------------------------------------
 Rotational constants (GHZ):      0.5382036      0.1223510      0.1083717
 Standard basis: 6-31G(d,p) (6D, 7F)
 There are   515 symmetry adapted basis functions of A   symmetry.
 Integral buffers will be    131072 words long.
 Raffenetti 2 integral format.
 Two-electron integral symmetry is turned on.
   515 basis functions,   896 primitive gaussians,   515 cartesian basis functions
    93 alpha electrons       93 beta electrons
       nuclear repulsion energy      2388.4990330464 Hartrees.
 NAtoms=   53 NActive=   53 NUniq=   53 SFac= 1.00D+00 NAtFMM=   60 NAOKFM=F Big=F
 ------------------------------------------------------------------------------
 Polarizable Continuum Model (PCM)
 =================================
 Model                : C-PCM.
 Atomic radii         : SMD-Coulomb.
 Polarization charges : Total charges.
 Charge compensation  : None.
 Solution method      : Matrix inversion.
 Cavity type          : VdW (van der Waals Surface) (Alpha=1.000).
 Cavity algorithm     : GePol (No added spheres)
                        Default sphere list used, NSphG=   53.
                        Lebedev-Laikov grids with approx.  5.0 points / Ang**2.
                        Smoothing algorithm: Karplus/York (Gamma=1.0000).
                        Polarization charges: spherical gaussians, with
                                              point-specific exponents (IZeta= 3).
                        Self-potential: point-specific (ISelfS= 7).
                        Self-field    : sphere-specific E.n sum rule (ISelfD= 2).
 Solvent              : Chloroform, Eps=   4.711300 Eps(inf)=   2.090627
 ------------------------------------------------------------------------------
 ------------------------------------------------------------------------------
 Atomic radii for non-electrostatic terms: SMD-CDS.
 ------------------------------------------------------------------------------
 Nuclear repulsion after PCM non-electrostatic terms =     2388.4906297170 Hartrees.
 One-electron integrals computed using PRISM.
 NBasis=   515 RedAO= T  NBF=   515
 NBsUse=   515 1.00D-06 NBFU=   515
 Harris functional with IExCor=  908 diagonalized for initial guess.
 ExpMin= 1.61D-01 ExpMax= 5.48D+03 ExpMxC= 8.25D+02 IAcc=1 IRadAn=         1 AccDes= 0.00D+00
 HarFok:  IExCor=  908 AccDes= 0.00D+00 IRadAn=         1 IDoV= 1
 ScaDFX=  1.000000  1.000000  1.000000  1.000000
 FoFCou: FMM=F IPFlag=           0 FMFlag=      100000 FMFlg1=           0
         NFxFlg=           0 DoJE=T BraDBF=F KetDBF=T FulRan=T
         Omega=  0.000000  0.000000  1.000000  0.000000  0.000000 ICntrl=     500 IOpCl=  0
         NMat0=    1 NMatS0=    1 NMatT0=    0 NMatD0=    1 NMtDS0=    0 NMtDT0=    0
         I1Cent=           4 NGrid=           0.
 Petite list used in FoFCou.
 Initial guess orbital symmetries:
       Occupied  (A) (A) (A) (A) (A) (A) (A) (A) (A) (A) (A) (A)
                 (A) (A) (A) (A) (A) (A) (A) (A) (A) (A) (A) (A)
                 (A) (A) (A) (A) (A) (A) (A) (A) (A) (A) (A) (A)
                 (A) (A) (A) (A) (A) (A) (A) (A) (A) (A) (A) (A)
                 (A) (A) (A) (A) (A) (A) (A) (A) (A) (A) (A) (A)
                 (A) (A) (A) (A) (A) (A) (A) (A) (A) (A) (A) (A)
                 (A) (A) (A) (A) (A) (A) (A) (A) (A) (A) (A) (A)
                 (A) (A) (A) (A) (A) (A) (A) (A) (A)
       Virtual   (A) (A) (A) (A) (A) (A) (A) (A) (A) (A) (A) (A)
                 (A) (A) (A) (A) (A) (A) (A) (A) (A) (A) (A) (A)
                 (A) (A) (A) (A) (A) (A) (A) (A) (A) (A) (A) (A)
                 (A) (A) (A) (A) (A) (A) (A) (A) (A) (A) (A) (A)
                 (A) (A) (A) (A) (A) (A) (A) (A) (A) (A) (A) (A)
                 (A) (A) (A) (A) (A) (A) (A) (A) (A) (A) (A) (A)
                 (A) (A) (A) (A) (A) (A) (A) (A) (A) (A) (A) (A)
                 (A) (A) (A) (A) (A) (A) (A) (A) (A) (A) (A) (A)
                 (A) (A) (A) (A) (A) (A) (A) (A) (A) (A) (A) (A)
                 (A) (A) (A) (A) (A) (A) (A) (A) (A) (A) (A) (A)
                 (A) (A) (A) (A) (A) (A) (A) (A) (A) (A) (A) (A)
                 (A) (A) (A) (A) (A) (A) (A) (A) (A) (A) (A) (A)
                 (A) (A) (A) (A) (A) (A) (A) (A) (A) (A) (A) (A)
                 (A) (A) (A) (A) (A) (A) (A) (A) (A) (A) (A) (A)
                 (A) (A) (A) (A) (A) (A) (A) (A) (A) (A) (A) (A)
                 (A) (A) (A) (A) (A) (A) (A) (A) (A) (A) (A) (A)
                 (A) (A) (A) (A) (A) (A) (A) (A) (A) (A) (A) (A)
                 (A) (A) (A) (A) (A) (A) (A) (A) (A) (A) (A) (A)
                 (A) (A) (A) (A) (A) (A) (A) (A) (A) (A) (A) (A)
                 (A) (A) (A) (A) (A) (A) (A) (A) (A) (A) (A) (A)
                 (A) (A) (A) (A) (A) (A) (A) (A) (A) (A) (A) (A)
                 (A) (A) (A) (A) (A) (A) (A) (A) (A) (A) (A) (A)
                 (A) (A) (A) (A) (A) (A) (A) (A) (A) (A) (A) (A)
                 (A) (A) (A) (A) (A) (A) (A) (A) (A) (A) (A) (A)
                 (A) (A) (A) (A) (A) (A) (A) (A) (A) (A) (A) (A)
                 (A) (A) (A) (A) (A) (A) (A) (A) (A) (A) (A) (A)
                 (A) (A) (A) (A) (A) (A) (A) (A) (A) (A) (A) (A)
                 (A) (A) (A) (A) (A) (A) (A) (A) (A) (A) (A) (A)
                 (A) (A) (A) (A) (A) (A) (A) (A) (A) (A) (A) (A)
                 (A) (A) (A) (A) (A) (A) (A) (A) (A) (A) (A) (A)
                 (A) (A) (A) (A) (A) (A) (A) (A) (A) (A) (A) (A)
                 (A) (A) (A) (A) (A) (A) (A) (A) (A) (A) (A) (A)
                 (A) (A) (A) (A) (A) (A) (A) (A) (A) (A) (A) (A)
                 (A) (A) (A) (A) (A) (A) (A) (A) (A) (A) (A) (A)
                 (A) (A) (A) (A) (A) (A) (A) (A) (A) (A) (A) (A)
                 (A) (A)
 The electronic state of the initial guess is 1-A.
 Requested convergence on RMS density matrix=1.00D-08 within 128 cycles.
 Requested convergence on MAX density matrix=1.00D-06.
 Requested convergence on             energy=1.00D-06.
 No special actions if energy rises.
 Error on total polarization charges =  0.03696
 SCF Done:  E(RmPW1PW91) =  -1117.79907681     A.U. after   13 cycles
             Convg  =    0.5711D-08             -V/T =  2.0096
 SMD-CDS (non-electrostatic) energy       (kcal/mol) =      -5.27
 (included in total energy above)
 Range of M.O.s used for correlation:     1   515
 NBasis=   515 NAE=    93 NBE=    93 NFC=     0 NFV=     0
 NROrb=    515 NOA=    93 NOB=    93 NVA=   422 NVB=   422
 NEqPCM:  Using equilibrium solvation (IEInf=0, Eps=   4.7113, EpsInf=   2.0906)
          Differentiating once with respect to magnetic field using GIAOs.
          Electric field/nuclear overlap derivatives assumed to be zero.
 FoFCou: FMM=F IPFlag=           0 FMFlag=    10101102 FMFlg1=           0
         NFxFlg=    40000000 DoJE=F BraDBF=F KetDBF=T FulRan=T
         Omega=  0.000000  0.000000  1.000000  0.000000  0.000000 ICntrl=    6100 IOpCl=  0
         NMat0=    1 NMatS0=    1 NMatT0=    0 NMatD0=    1 NMtDS0=    0 NMtDT0=    0
         I1Cent=           7 NGrid=        3348.
 Symmetry not used in FoFCou.
          There are     3 degrees of freedom in the 1st order CPHF.  IDoFFX=0.
      3 vectors produced by pass  0 Test12= 1.31D-12 3.33D-08 XBig12= 1.13D+02 3.62D+00.
 AX will form     3 AO Fock derivatives at one time.
      3 vectors produced by pass  1 Test12= 1.31D-12 3.33D-08 XBig12= 4.10D-01 3.00D-01.
      3 vectors produced by pass  2 Test12= 1.31D-12 3.33D-08 XBig12= 2.22D-03 2.38D-02.
      3 vectors produced by pass  3 Test12= 1.31D-12 3.33D-08 XBig12= 1.20D-05 1.09D-03.
      3 vectors produced by pass  4 Test12= 1.31D-12 3.33D-08 XBig12= 6.60D-08 5.23D-05.
      3 vectors produced by pass  5 Test12= 1.31D-12 3.33D-08 XBig12= 2.01D-10 2.54D-06.
      3 vectors produced by pass  6 Test12= 1.31D-12 3.33D-08 XBig12= 9.90D-13 1.90D-07.
 Inverted reduced A of dimension    21 with in-core refinement.
 Calculating GIAO nuclear magnetic shielding tensors.
 SCF GIAO Magnetic shielding tensor (ppm):
      1  H    Isotropic =    29.5827   Anisotropy =     6.0291
   XX=    29.0453   YX=    -3.8409   ZX=     1.4689
   XY=    -3.2108   YY=    27.1152   ZY=     2.7969
   XZ=     2.0874   YZ=     2.1507   ZZ=    32.5875
   Eigenvalues:    23.4137    31.7322    33.6021
      2  C    Isotropic =   163.7511   Anisotropy =    28.7215
   XX=   157.4243   YX=   -10.0562   ZX=     1.2158
   XY=    -0.6151   YY=   175.4306   ZY=    15.2181
   XZ=     3.8163   YZ=    10.6564   ZZ=   158.3983
   Eigenvalues:   148.7236   159.6309   182.8987
      3  H    Isotropic =    29.6858   Anisotropy =     8.7398
   XX=    31.3547   YX=     1.4296   ZX=    -0.0046
   XY=     2.5382   YY=    34.3241   ZY=     1.1747
   XZ=     0.8683   YZ=     1.8312   ZZ=    23.3787
   Eigenvalues:    23.1727    30.3724    35.5123
      4  C    Isotropic =   159.1715   Anisotropy =    35.1591
   XX=   166.3382   YX=    16.5226   ZX=     4.2410
   XY=    13.9426   YY=   167.8946   ZY=     3.7754
   XZ=    -2.6136   YZ=     3.1782   ZZ=   143.2816
   Eigenvalues:   142.6874   152.2162   182.6109
      5  H    Isotropic =    28.7614   Anisotropy =     6.6467
   XX=    27.0417   YX=    -3.1944   ZX=     1.5915
   XY=    -2.3058   YY=    30.3538   ZY=    -2.7241
   XZ=    -0.0163   YZ=    -1.7728   ZZ=    28.8887
   Eigenvalues:    25.4201    27.6717    33.1926
      6  H    Isotropic =    29.2931   Anisotropy =     9.7787
   XX=    29.7032   YX=    -1.8850   ZX=    -0.5293
   XY=    -4.6097   YY=    32.5072   ZY=     3.9554
   XZ=    -1.3162   YZ=     3.0123   ZZ=    25.6690
   Eigenvalues:    24.1692    27.8979    35.8123
      7  C    Isotropic =   145.1236   Anisotropy =    24.9421
   XX=   137.9779   YX=    -9.9111   ZX=     4.2126
   XY=    -1.7386   YY=   159.8205   ZY=    -4.9165
   XZ=     2.9623   YZ=    -0.2288   ZZ=   137.5724
   Eigenvalues:   133.9656   139.6535   161.7517
      8  C    Isotropic =   146.6934   Anisotropy =    18.5324
   XX=   156.5183   YX=    12.6140   ZX=     2.9517
   XY=    -3.7868   YY=   151.1653   ZY=    -3.4204
   XZ=     0.2502   YZ=    -6.5051   ZZ=   132.3966
   Eigenvalues:   130.8904   150.1414   159.0483
      9  C    Isotropic =   147.8869   Anisotropy =    19.7544
   XX=   153.5063   YX=     0.8405   ZX=     7.8492
   XY=    -2.7849   YY=   143.1220   ZY=    -8.2105
   XZ=    10.3855   YZ=    -4.0951   ZZ=   147.0324
   Eigenvalues:   136.9025   145.7017   161.0565
     10  C    Isotropic =   -22.0591   Anisotropy =   201.9901
   XX=   -55.0833   YX=   -20.4111   ZX=    71.3224
   XY=   -23.5545   YY=   -78.3631   ZY=   -34.0858
   XZ=    78.9284   YZ=   -39.9341   ZZ=    67.2692
   Eigenvalues:   -93.5066   -85.2716   112.6010
     11  O    Isotropic =  -270.4149   Anisotropy =   926.7163
   XX=  -539.2783   YX=    48.4145   ZX=   414.6900
   XY=    47.8777   YY=  -357.2209   ZY=  -188.0840
   XZ=   465.5658   YZ=  -209.8947   ZZ=    85.2547
   Eigenvalues:  -808.4961  -350.1445   347.3960
     12  C    Isotropic =   169.1210   Anisotropy =    37.4244
   XX=   170.1679   YX=     8.8218   ZX=    -8.8687
   XY=    13.7470   YY=   160.2595   ZY=   -20.2735
   XZ=    -5.8973   YZ=   -13.8950   ZZ=   176.9355
   Eigenvalues:   147.8598   165.4325   194.0706
     13  H    Isotropic =    31.0022   Anisotropy =     9.4737
   XX=    30.0384   YX=     0.8313   ZX=    -2.5373
   XY=     1.0642   YY=    27.1111   ZY=    -3.1050
   XZ=    -1.6070   YZ=    -2.2825   ZZ=    35.8572
   Eigenvalues:    26.3108    29.3779    37.3180
     14  H    Isotropic =    30.0537   Anisotropy =    10.5782
   XX=    36.8326   YX=    -0.8359   ZX=    -1.7907
   XY=     0.7970   YY=    27.1973   ZY=    -0.3788
   XZ=    -1.6723   YZ=    -0.0475   ZZ=    26.1312
   Eigenvalues:    25.8247    27.2305    37.1058
     15  H    Isotropic =    30.6134   Anisotropy =     7.1793
   XX=    31.2781   YX=     2.3821   ZX=    -1.5715
   XY=     1.9664   YY=    34.2035   ZY=     0.5206
   XZ=    -1.7594   YZ=    -0.0447   ZZ=    26.3586
   Eigenvalues:    25.7516    30.6890    35.3996
     16  C    Isotropic =   174.3808   Anisotropy =    28.8646
   XX=   171.4289   YX=     2.2059   ZX=     9.2211
   XY=     3.2818   YY=   160.2193   ZY=    -2.4249
   XZ=     4.1268   YZ=    -3.2557   ZZ=   191.4943
   Eigenvalues:   158.9729   170.5456   193.6239
     17  H    Isotropic =    30.2191   Anisotropy =     6.7704
   XX=    30.8413   YX=     2.5179   ZX=     2.3029
   XY=     2.9623   YY=    27.7739   ZY=    -3.7583
   XZ=    -0.5549   YZ=    -4.5562   ZZ=    32.0422
   Eigenvalues:    24.0739    31.8508    34.7327
     18  H    Isotropic =    30.3633   Anisotropy =     7.2452
   XX=    29.5223   YX=     0.2448   ZX=     2.7529
   XY=    -0.5133   YY=    30.4496   ZY=     3.4251
   XZ=     1.5360   YZ=     4.5443   ZZ=    31.1181
   Eigenvalues:    26.0406    29.8560    35.1934
     19  H    Isotropic =    30.9636   Anisotropy =    10.9492
   XX=    36.4422   YX=    -1.0009   ZX=     3.2175
   XY=    -1.2219   YY=    26.2529   ZY=    -1.0960
   XZ=     4.0229   YZ=    -0.7629   ZZ=    30.1959
   Eigenvalues:    26.0327    28.5951    38.2631
     20  C    Isotropic =   172.0477   Anisotropy =    11.1001
   XX=   178.5208   YX=    -0.9244   ZX=     2.3898
   XY=    -3.9342   YY=   173.0762   ZY=     4.7137
   XZ=    -0.4840   YZ=    -0.2666   ZZ=   164.5461
   Eigenvalues:   163.8422   172.8531   179.4478
     21  H    Isotropic =    29.8684   Anisotropy =     6.0131
   XX=    29.2236   YX=    -0.7214   ZX=     2.7202
   XY=    -0.6548   YY=    28.4010   ZY=     2.9583
   XZ=     1.9379   YZ=     1.6942   ZZ=    31.9806
   Eigenvalues:    26.1990    29.5291    33.8771
     22  H    Isotropic =    30.1223   Anisotropy =    10.0083
   XX=    34.3197   YX=     3.0544   ZX=    -1.2666
   XY=     2.6699   YY=    33.1705   ZY=    -0.7266
   XZ=    -0.5613   YZ=    -1.2883   ZZ=    22.8767
   Eigenvalues:    22.7417    30.8307    36.7945
     23  C    Isotropic =   107.0365   Anisotropy =    51.6229
   XX=   117.2999   YX=    20.5670   ZX=    -9.1214
   XY=    23.2283   YY=   108.7232   ZY=   -12.7307
   XZ=    -9.9691   YZ=   -16.7953   ZZ=    95.0865
   Eigenvalues:    84.7544    94.9035   141.4518
     24  C    Isotropic =   165.6183   Anisotropy =    22.4426
   XX=   179.4574   YX=     0.2296   ZX=     2.8278
   XY=     7.7031   YY=   163.1262   ZY=    -2.4862
   XZ=     3.3258   YZ=    -3.5697   ZZ=   154.2714
   Eigenvalues:   152.6859   163.5890   180.5800
     25  H    Isotropic =    30.3426   Anisotropy =     6.7840
   XX=    29.3523   YX=     0.6914   ZX=     0.6096
   XY=     0.2139   YY=    30.8780   ZY=    -4.2146
   XZ=     0.2613   YZ=    -3.8398   ZZ=    30.7976
   Eigenvalues:    26.6637    29.4989    34.8652
     26  H    Isotropic =    29.8078   Anisotropy =    10.3241
   XX=    29.6801   YX=    -1.7413   ZX=     0.0323
   XY=    -1.5921   YY=    35.3664   ZY=     3.8113
   XZ=     0.7306   YZ=     3.1246   ZZ=    24.3769
   Eigenvalues:    23.2639    29.4690    36.6905
     27  C    Isotropic =   161.4835   Anisotropy =     5.5943
   XX=   160.4141   YX=     1.3416   ZX=    -0.2754
   XY=     4.2953   YY=   160.0518   ZY=     7.9386
   XZ=    -3.8025   YZ=    -7.7968   ZZ=   163.9847
   Eigenvalues:   157.0892   162.1484   165.2131
     28  H    Isotropic =    29.6231   Anisotropy =     4.9897
   XX=    32.8169   YX=     0.6737   ZX=    -0.0386
   XY=     1.0924   YY=    26.1145   ZY=    -1.5112
   XZ=     0.8228   YZ=    -1.0433   ZZ=    29.9379
   Eigenvalues:    25.5996    30.3201    32.9496
     29  C    Isotropic =   181.5427   Anisotropy =    16.0547
   XX=   177.7804   YX=     2.3931   ZX=    -2.5539
   XY=     1.7342   YY=   176.8008   ZY=    -7.2629
   XZ=    -3.9579   YZ=    -1.2346   ZZ=   190.0467
   Eigenvalues:   174.9777   177.4045   192.2458
     30  H    Isotropic =    30.3919   Anisotropy =     9.2365
   XX=    32.8504   YX=     3.6531   ZX=    -1.1437
   XY=     3.6289   YY=    28.5129   ZY=    -4.2121
   XZ=    -0.8506   YZ=    -4.5585   ZZ=    29.8123
   Eigenvalues:    24.1507    30.4753    36.5495
     31  H    Isotropic =    30.1395   Anisotropy =     6.3016
   XX=    26.9700   YX=    -0.6309   ZX=    -0.2731
   XY=    -0.4449   YY=    30.3547   ZY=     1.4275
   XZ=    -0.0705   YZ=     2.9767   ZZ=    33.0939
   Eigenvalues:    26.8808    29.1972    34.3406
     32  H    Isotropic =    30.1281   Anisotropy =     9.0831
   XX=    31.6521   YX=    -2.6786   ZX=     2.6372
   XY=    -2.8680   YY=    28.0531   ZY=    -3.3742
   XZ=     2.6829   YZ=    -3.4427   ZZ=    30.6791
   Eigenvalues:    25.5677    28.6331    36.1835
     33  C    Isotropic =   181.5677   Anisotropy =    22.1764
   XX=   172.1571   YX=     4.3406   ZX=     0.1238
   XY=     8.1353   YY=   176.7415   ZY=    -0.7989
   XZ=    -6.1660   YZ=    -1.1455   ZZ=   195.8044
   Eigenvalues:   167.6701   180.6809   196.3520
     34  H    Isotropic =    30.4182   Anisotropy =     7.8400
   XX=    32.3955   YX=    -2.7274   ZX=     2.8910
   XY=    -2.4919   YY=    26.0608   ZY=     0.0051
   XZ=     2.2657   YZ=    -0.7608   ZZ=    32.7983
   Eigenvalues:    25.0858    30.5239    35.6449
     35  H    Isotropic =    30.4582   Anisotropy =     8.4755
   XX=    28.0691   YX=    -1.3347   ZX=     1.7882
   XY=    -1.6743   YY=    31.3387   ZY=     3.7450
   XZ=     0.7150   YZ=     5.1413   ZZ=    31.9668
   Eigenvalues:    25.6315    29.6346    36.1086
     36  H    Isotropic =    30.3225   Anisotropy =     8.0066
   XX=    30.4717   YX=     2.7464   ZX=    -1.2703
   XY=     3.2498   YY=    27.9011   ZY=    -2.4243
   XZ=    -2.5333   YZ=    -2.9341   ZZ=    32.5947
   Eigenvalues:    25.6689    29.6384    35.6603
     37  H    Isotropic =    29.3576   Anisotropy =     4.1879
   XX=    29.7937   YX=    -2.4179   ZX=    -0.3829
   XY=    -2.1418   YY=    26.4774   ZY=     0.3763
   XZ=     1.7947   YZ=    -0.3843   ZZ=    31.8017
   Eigenvalues:    25.3008    30.6224    32.1495
     38  O    Isotropic =   182.3886   Anisotropy =    86.0070
   XX=   161.7522   YX=   -36.4431   ZX=     5.8956
   XY=   -39.0996   YY=   150.8514   ZY=    11.5999
   XZ=    28.4164   YZ=   -14.7874   ZZ=   234.5620
   Eigenvalues:   117.2631   190.1760   239.7266
     39  C    Isotropic =    31.4287   Anisotropy =    79.6315
   XX=   -36.6002   YX=   -35.1332   ZX=     9.0066
   XY=   -16.4817   YY=    47.5880   ZY=     3.4548
   XZ=     4.4964   YZ=     9.7090   ZZ=    83.2984
   Eigenvalues:   -44.4199    54.1897    84.5164
     40  C    Isotropic =    90.4345   Anisotropy =   107.2915
   XX=    61.2944   YX=    -6.4114   ZX=     3.7818
   XY=   -21.0558   YY=    49.8859   ZY=     6.3123
   XZ=    -0.1762   YZ=    22.4007   ZZ=   160.1231
   Eigenvalues:    39.3170    70.0243   161.9621
     41  C    Isotropic =   169.8701   Anisotropy =    20.6939
   XX=   182.8522   YX=     6.3007   ZX=     1.9264
   XY=    -1.8555   YY=   156.6687   ZY=     1.4914
   XZ=     3.7042   YZ=     1.0513   ZZ=   170.0893
   Eigenvalues:   156.4019   169.5423   183.6660
     42  H    Isotropic =    29.3182   Anisotropy =     9.8115
   XX=    31.1349   YX=    -2.9932   ZX=    -1.4474
   XY=    -3.1744   YY=    30.8121   ZY=     3.9933
   XZ=    -0.8594   YZ=     5.2780   ZZ=    26.0077
   Eigenvalues:    23.1345    28.9610    35.8592
     43  H    Isotropic =    29.6978   Anisotropy =     7.1496
   XX=    29.4423   YX=    -1.1034   ZX=     1.1541
   XY=    -1.7455   YY=    29.0334   ZY=    -3.4286
   XZ=     0.4140   YZ=    -4.7799   ZZ=    30.6177
   Eigenvalues:    25.5465    29.0828    34.4642
     44  O    Isotropic =   125.5345   Anisotropy =   224.4065
   XX=    44.0985   YX=    17.9589   ZX=     8.0321
   XY=     4.2888   YY=    58.2456   ZY=    17.6069
   XZ=     5.2202   YZ=     6.1812   ZZ=   274.2594
   Eigenvalues:    37.9896    63.4750   275.1388
     45  C    Isotropic =    34.7613   Anisotropy =   109.6176
   XX=   -46.2934   YX=   -25.5073   ZX=     6.8490
   XY=   -36.5204   YY=    43.3191   ZY=     5.4913
   XZ=     9.8530   YZ=     3.3534   ZZ=   107.2582
   Eigenvalues:   -56.5069    52.9511   107.8397
     46  C    Isotropic =   175.1939   Anisotropy =    35.6426
   XX=   180.4778   YX=    12.4467   ZX=    -1.4980
   XY=    14.2948   YY=   188.8698   ZY=    -3.0221
   XZ=    -1.7108   YZ=    -3.0190   ZZ=   156.2342
   Eigenvalues:   155.9495   170.6766   198.9556
     47  H    Isotropic =    29.4032   Anisotropy =     8.4749
   XX=    28.0940   YX=     2.1048   ZX=    -0.1084
   XY=     1.2541   YY=    31.5314   ZY=     4.7399
   XZ=     0.0723   YZ=     4.2488   ZZ=    28.5841
   Eigenvalues:    24.9858    28.1705    35.0531
     48  H    Isotropic =    29.4868   Anisotropy =     8.9842
   XX=    35.4646   YX=    -0.6232   ZX=    -0.2516
   XY=     0.9639   YY=    28.3211   ZY=    -0.3420
   XZ=    -0.3095   YZ=    -0.2407   ZZ=    24.6747
   Eigenvalues:    24.6450    28.3391    35.4763
     49  H    Isotropic =    29.3844   Anisotropy =     8.4474
   XX=    28.0676   YX=     1.8294   ZX=    -0.1349
   XY=     0.9569   YY=    30.0244   ZY=    -5.0873
   XZ=    -0.1230   YZ=    -4.5227   ZZ=    30.0611
   Eigenvalues:    24.9686    28.1687    35.0160
     50  C    Isotropic =    81.9440   Anisotropy =    98.8029
   XX=     2.2228   YX=     1.3225   ZX=     2.9605
   XY=    17.0001   YY=    96.2572   ZY=     2.7538
   XZ=     0.1465   YZ=     6.5660   ZZ=   147.3520
   Eigenvalues:     1.3303    96.6891   147.8126
     51  H    Isotropic =    25.3050   Anisotropy =     5.2613
   XX=    24.5098   YX=     0.2753   ZX=    -0.0496
   XY=     1.6245   YY=    28.5338   ZY=    -0.5598
   XZ=    -0.3964   YZ=    -0.6209   ZZ=    22.8712
   Eigenvalues:    22.8004    24.3021    28.8125
     52  C    Isotropic =    21.9103   Anisotropy =   149.1047
   XX=   -41.0771   YX=   -17.1328   ZX=     3.2814
   XY=   -12.0148   YY=   -11.7981   ZY=    17.3822
   XZ=     1.3936   YZ=    20.5829   ZZ=   118.6060
   Eigenvalues:   -47.6487    -7.9340   121.3134
     53  O    Isotropic =  -116.4884   Anisotropy =   752.6178
   XX=  -212.8195   YX=    78.3541   ZX=    -6.2154
   XY=   117.9503   YY=  -500.6420   ZY=   118.1496
   XZ=   -26.0886   YZ=   156.3198   ZZ=   363.9962
   Eigenvalues:  -551.1447  -183.5773   385.2567
 End of Minotr Frequency-dependent properties file   721 does not exist.
 End of Minotr Frequency-dependent properties file   722 does not exist.

 **********************************************************************

            Population analysis using the SCF density.

 **********************************************************************

 Orbital symmetries:
       Occupied  (A) (A) (A) (A) (A) (A) (A) (A) (A) (A) (A) (A)
                 (A) (A) (A) (A) (A) (A) (A) (A) (A) (A) (A) (A)
                 (A) (A) (A) (A) (A) (A) (A) (A) (A) (A) (A) (A)
                 (A) (A) (A) (A) (A) (A) (A) (A) (A) (A) (A) (A)
                 (A) (A) (A) (A) (A) (A) (A) (A) (A) (A) (A) (A)
                 (A) (A) (A) (A) (A) (A) (A) (A) (A) (A) (A) (A)
                 (A) (A) (A) (A) (A) (A) (A) (A) (A) (A) (A) (A)
                 (A) (A) (A) (A) (A) (A) (A) (A) (A)
       Virtual   (A) (A) (A) (A) (A) (A) (A) (A) (A) (A) (A) (A)
                 (A) (A) (A) (A) (A) (A) (A) (A) (A) (A) (A) (A)
                 (A) (A) (A) (A) (A) (A) (A) (A) (A) (A) (A) (A)
                 (A) (A) (A) (A) (A) (A) (A) (A) (A) (A) (A) (A)
                 (A) (A) (A) (A) (A) (A) (A) (A) (A) (A) (A) (A)
                 (A) (A) (A) (A) (A) (A) (A) (A) (A) (A) (A) (A)
                 (A) (A) (A) (A) (A) (A) (A) (A) (A) (A) (A) (A)
                 (A) (A) (A) (A) (A) (A) (A) (A) (A) (A) (A) (A)
                 (A) (A) (A) (A) (A) (A) (A) (A) (A) (A) (A) (A)
                 (A) (A) (A) (A) (A) (A) (A) (A) (A) (A) (A) (A)
                 (A) (A) (A) (A) (A) (A) (A) (A) (A) (A) (A) (A)
                 (A) (A) (A) (A) (A) (A) (A) (A) (A) (A) (A) (A)
                 (A) (A) (A) (A) (A) (A) (A) (A) (A) (A) (A) (A)
                 (A) (A) (A) (A) (A) (A) (A) (A) (A) (A) (A) (A)
                 (A) (A) (A) (A) (A) (A) (A) (A) (A) (A) (A) (A)
                 (A) (A) (A) (A) (A) (A) (A) (A) (A) (A) (A) (A)
                 (A) (A) (A) (A) (A) (A) (A) (A) (A) (A) (A) (A)
                 (A) (A) (A) (A) (A) (A) (A) (A) (A) (A) (A) (A)
                 (A) (A) (A) (A) (A) (A) (A) (A) (A) (A) (A) (A)
                 (A) (A) (A) (A) (A) (A) (A) (A) (A) (A) (A) (A)
                 (A) (A) (A) (A) (A) (A) (A) (A) (A) (A) (A) (A)
                 (A) (A) (A) (A) (A) (A) (A) (A) (A) (A) (A) (A)
                 (A) (A) (A) (A) (A) (A) (A) (A) (A) (A) (A) (A)
                 (A) (A) (A) (A) (A) (A) (A) (A) (A) (A) (A) (A)
                 (A) (A) (A) (A) (A) (A) (A) (A) (A) (A) (A) (A)
                 (A) (A) (A) (A) (A) (A) (A) (A) (A) (A) (A) (A)
                 (A) (A) (A) (A) (A) (A) (A) (A) (A) (A) (A) (A)
                 (A) (A) (A) (A) (A) (A) (A) (A) (A) (A) (A) (A)
                 (A) (A) (A) (A) (A) (A) (A) (A) (A) (A) (A) (A)
                 (A) (A) (A) (A) (A) (A) (A) (A) (A) (A) (A) (A)
                 (A) (A) (A) (A) (A) (A) (A) (A) (A) (A) (A) (A)
                 (A) (A) (A) (A) (A) (A) (A) (A) (A) (A) (A) (A)
                 (A) (A) (A) (A) (A) (A) (A) (A) (A) (A) (A) (A)
                 (A) (A) (A) (A) (A) (A) (A) (A) (A) (A) (A) (A)
                 (A) (A) (A) (A) (A) (A) (A) (A) (A) (A) (A) (A)
                 (A) (A)
 The electronic state is 1-A.
 Alpha  occ. eigenvalues --  -19.32554 -19.28713 -19.22437 -19.19656 -10.38487
 Alpha  occ. eigenvalues --  -10.33746 -10.32908 -10.32433 -10.31793 -10.27049
 Alpha  occ. eigenvalues --  -10.26653 -10.25411 -10.25107 -10.25080 -10.24895
 Alpha  occ. eigenvalues --  -10.24578 -10.24422 -10.24087 -10.24025 -10.23808
 Alpha  occ. eigenvalues --  -10.23552 -10.23420 -10.23346 -10.22619 -10.22593
 Alpha  occ. eigenvalues --   -1.15096  -1.09139  -1.05476  -1.04040  -0.88071
 Alpha  occ. eigenvalues --   -0.84772  -0.84006  -0.82552  -0.81107  -0.77587
 Alpha  occ. eigenvalues --   -0.76728  -0.74385  -0.72779  -0.70390  -0.69383
 Alpha  occ. eigenvalues --   -0.67639  -0.67209  -0.66393  -0.62917  -0.62319
 Alpha  occ. eigenvalues --   -0.59085  -0.58364  -0.55794  -0.54153  -0.52367
 Alpha  occ. eigenvalues --   -0.51324  -0.50619  -0.49759  -0.48671  -0.48171
 Alpha  occ. eigenvalues --   -0.47255  -0.46371  -0.45948  -0.44701  -0.44496
 Alpha  occ. eigenvalues --   -0.43993  -0.43406  -0.42787  -0.42526  -0.41959
 Alpha  occ. eigenvalues --   -0.41481  -0.41362  -0.40971  -0.40428  -0.40065
 Alpha  occ. eigenvalues --   -0.39856  -0.39264  -0.38858  -0.38675  -0.38058
 Alpha  occ. eigenvalues --   -0.37622  -0.37246  -0.36622  -0.36019  -0.35578
 Alpha  occ. eigenvalues --   -0.35051  -0.34384  -0.34319  -0.33278  -0.33123
 Alpha  occ. eigenvalues --   -0.32666  -0.30863  -0.29889  -0.29089  -0.26494
 Alpha  occ. eigenvalues --   -0.24648  -0.24546  -0.23902
 Alpha virt. eigenvalues --   -0.01836  -0.00909   0.01401   0.08587   0.09406
 Alpha virt. eigenvalues --    0.10714   0.11340   0.12146   0.12624   0.13227
 Alpha virt. eigenvalues --    0.13911   0.14374   0.14859   0.15407   0.15691
 Alpha virt. eigenvalues --    0.16402   0.16442   0.16808   0.17074   0.17859
 Alpha virt. eigenvalues --    0.18094   0.18285   0.19266   0.19419   0.19466
 Alpha virt. eigenvalues --    0.19704   0.20181   0.20655   0.20742   0.21317
 Alpha virt. eigenvalues --    0.21369   0.22037   0.22576   0.23412   0.23752
 Alpha virt. eigenvalues --    0.24266   0.24594   0.25114   0.25377   0.25922
 Alpha virt. eigenvalues --    0.26202   0.26577   0.27737   0.28499   0.28688
 Alpha virt. eigenvalues --    0.29003   0.30378   0.30412   0.31513   0.32286
 Alpha virt. eigenvalues --    0.32871   0.33109   0.34590   0.36006   0.36906
 Alpha virt. eigenvalues --    0.38564   0.40133   0.43255   0.47251   0.48369
 Alpha virt. eigenvalues --    0.49729   0.50903   0.51546   0.51925   0.52518
 Alpha virt. eigenvalues --    0.53358   0.53869   0.54653   0.54884   0.55388
 Alpha virt. eigenvalues --    0.55891   0.57080   0.57759   0.58084   0.58288
 Alpha virt. eigenvalues --    0.58619   0.59849   0.61046   0.63083   0.63420
 Alpha virt. eigenvalues --    0.64063   0.64545   0.64795   0.65877   0.66051
 Alpha virt. eigenvalues --    0.66295   0.66905   0.67799   0.68260   0.68990
 Alpha virt. eigenvalues --    0.69782   0.70559   0.71077   0.71758   0.72807
 Alpha virt. eigenvalues --    0.73510   0.74298   0.74749   0.76287   0.77120
 Alpha virt. eigenvalues --    0.78139   0.78391   0.79857   0.80998   0.81318
 Alpha virt. eigenvalues --    0.81777   0.82049   0.82458   0.83626   0.85075
 Alpha virt. eigenvalues --    0.85880   0.86221   0.86844   0.87463   0.87952
 Alpha virt. eigenvalues --    0.88322   0.88616   0.89069   0.89939   0.90539
 Alpha virt. eigenvalues --    0.90735   0.90894   0.91063   0.91578   0.91947
 Alpha virt. eigenvalues --    0.92681   0.93699   0.94008   0.94530   0.94658
 Alpha virt. eigenvalues --    0.94893   0.95514   0.95538   0.96360   0.97656
 Alpha virt. eigenvalues --    0.98925   0.99457   1.00682   1.00785   1.01093
 Alpha virt. eigenvalues --    1.01351   1.02305   1.03072   1.03436   1.03840
 Alpha virt. eigenvalues --    1.04698   1.05023   1.06231   1.06652   1.07033
 Alpha virt. eigenvalues --    1.08483   1.09086   1.11113   1.11553   1.12505
 Alpha virt. eigenvalues --    1.14147   1.15002   1.16325   1.16746   1.18053
 Alpha virt. eigenvalues --    1.18731   1.20701   1.23369   1.24309   1.25781
 Alpha virt. eigenvalues --    1.26516   1.27363   1.29069   1.30085   1.30539
 Alpha virt. eigenvalues --    1.30890   1.33461   1.33697   1.34539   1.37287
 Alpha virt. eigenvalues --    1.37872   1.39292   1.42666   1.43333   1.45130
 Alpha virt. eigenvalues --    1.45792   1.47269   1.47957   1.49824   1.51326
 Alpha virt. eigenvalues --    1.52818   1.53622   1.54062   1.56019   1.56606
 Alpha virt. eigenvalues --    1.60421   1.61716   1.62974   1.64044   1.66609
 Alpha virt. eigenvalues --    1.67635   1.67898   1.68945   1.69253   1.69839
 Alpha virt. eigenvalues --    1.70967   1.71993   1.73348   1.73629   1.74711
 Alpha virt. eigenvalues --    1.75909   1.76454   1.77060   1.78476   1.78960
 Alpha virt. eigenvalues --    1.80045   1.80461   1.81363   1.81998   1.83048
 Alpha virt. eigenvalues --    1.83776   1.84585   1.84783   1.85320   1.86824
 Alpha virt. eigenvalues --    1.87351   1.88016   1.88068   1.88254   1.89174
 Alpha virt. eigenvalues --    1.89512   1.90558   1.90966   1.91791   1.92520
 Alpha virt. eigenvalues --    1.93091   1.94793   1.94986   1.95550   1.95934
 Alpha virt. eigenvalues --    1.97256   1.97553   1.98653   1.99027   2.00303
 Alpha virt. eigenvalues --    2.01140   2.01952   2.02830   2.03276   2.04852
 Alpha virt. eigenvalues --    2.04974   2.05500   2.06120   2.06373   2.06626
 Alpha virt. eigenvalues --    2.07159   2.08103   2.08542   2.09937   2.10227
 Alpha virt. eigenvalues --    2.10947   2.12000   2.12461   2.13300   2.13703
 Alpha virt. eigenvalues --    2.14434   2.14739   2.15299   2.16471   2.17402
 Alpha virt. eigenvalues --    2.18303   2.18826   2.19650   2.19890   2.20651
 Alpha virt. eigenvalues --    2.21059   2.21596   2.22003   2.23607   2.24474
 Alpha virt. eigenvalues --    2.25138   2.26065   2.26599   2.27626   2.28168
 Alpha virt. eigenvalues --    2.31363   2.32047   2.33008   2.34032   2.35089
 Alpha virt. eigenvalues --    2.35806   2.36006   2.37163   2.38262   2.39297
 Alpha virt. eigenvalues --    2.40158   2.41548   2.41664   2.42311   2.43347
 Alpha virt. eigenvalues --    2.44325   2.45065   2.46861   2.47682   2.48703
 Alpha virt. eigenvalues --    2.49696   2.50403   2.52106   2.53160   2.53772
 Alpha virt. eigenvalues --    2.54945   2.56623   2.57017   2.58931   2.59576
 Alpha virt. eigenvalues --    2.60597   2.61093   2.62638   2.62952   2.64077
 Alpha virt. eigenvalues --    2.64677   2.65595   2.66734   2.67662   2.68228
 Alpha virt. eigenvalues --    2.68988   2.69585   2.70749   2.71800   2.72373
 Alpha virt. eigenvalues --    2.74299   2.75163   2.75644   2.77364   2.77820
 Alpha virt. eigenvalues --    2.78188   2.78866   2.79026   2.79991   2.81604
 Alpha virt. eigenvalues --    2.82350   2.82819   2.84295   2.86001   2.86450
 Alpha virt. eigenvalues --    2.86898   2.87279   2.88408   2.88976   2.89774
 Alpha virt. eigenvalues --    2.90164   2.90629   2.91184   2.92170   2.92533
 Alpha virt. eigenvalues --    2.92614   2.93311   2.93905   2.95060   2.95923
 Alpha virt. eigenvalues --    2.97662   2.99010   3.00424   3.02396   3.02825
 Alpha virt. eigenvalues --    3.03488   3.06272   3.08521   3.10666   3.13859
 Alpha virt. eigenvalues --    3.15220   3.20794   3.21868   3.23394   3.25220
 Alpha virt. eigenvalues --    3.27104   3.27713   3.30375   3.31059   3.33072
 Alpha virt. eigenvalues --    3.34309   3.37259   3.37377   3.39593   3.43978
 Alpha virt. eigenvalues --    3.44373   3.46160   3.47234   3.48663   3.48956
 Alpha virt. eigenvalues --    3.49494   3.51365   3.51992   3.52630   3.52712
 Alpha virt. eigenvalues --    3.54160   3.54542   3.54979   3.56165   3.57881
 Alpha virt. eigenvalues --    3.62029   3.64771   4.00668   4.12825   4.16102
 Alpha virt. eigenvalues --    4.23050   4.24807   4.31397   4.39486   4.42544
 Alpha virt. eigenvalues --    4.45205   4.47274   4.52440   4.55832   4.58331
 Alpha virt. eigenvalues --    4.61527   4.62244   4.65193   4.68386   4.69107
 Alpha virt. eigenvalues --    4.77084   4.77793   4.80601   4.81298   4.90515
 Alpha virt. eigenvalues --    4.92155   4.93583
          Condensed to atoms (all electrons):
 Mulliken atomic charges:
              1
     1  H    0.144532
     2  C   -0.256918
     3  H    0.145387
     4  C   -0.332336
     5  H    0.174294
     6  H    0.159182
     7  C   -0.094842
     8  C   -0.092814
     9  C   -0.019125
    10  C    0.472199
    11  O   -0.509811
    12  C   -0.387784
    13  H    0.135237
    14  H    0.145426
    15  H    0.135751
    16  C   -0.394660
    17  H    0.142310
    18  H    0.151916
    19  H    0.146054
    20  C   -0.258862
    21  H    0.136687
    22  H    0.137007
    23  C    0.257336
    24  C   -0.253327
    25  H    0.135940
    26  H    0.140961
    27  C   -0.145388
    28  H    0.135386
    29  C   -0.409039
    30  H    0.145864
    31  H    0.139917
    32  H    0.139307
    33  C   -0.415680
    34  H    0.150505
    35  H    0.156119
    36  H    0.156144
    37  H    0.152844
    38  O   -0.566123
    39  C    0.601994
    40  C   -0.088479
    41  C   -0.270213
    42  H    0.162285
    43  H    0.156709
    44  O   -0.545452
    45  C    0.331945
    46  C   -0.461920
    47  H    0.179655
    48  H    0.180198
    49  H    0.180209
    50  C   -0.231561
    51  H    0.172046
    52  C    0.412345
    53  O   -0.579360
 Sum of Mulliken atomic charges =   0.00000
 Mulliken charges with hydrogens summed into heavy atoms:
              1
     2  C    0.033002
     4  C    0.001140
     7  C   -0.094842
     8  C    0.042572
     9  C   -0.019125
    10  C    0.472199
    11  O   -0.509811
    12  C    0.028630
    16  C    0.045620
    20  C    0.014833
    23  C    0.257336
    24  C    0.023575
    27  C    0.007456
    29  C    0.016050
    33  C    0.047088
    38  O   -0.566123
    39  C    0.601994
    40  C   -0.088479
    41  C    0.048782
    44  O   -0.545452
    45  C    0.331945
    46  C    0.078143
    50  C   -0.059515
    52  C    0.412345
    53  O   -0.579360
 Sum of Mulliken charges with hydrogens summed into heavy atoms =   0.00000
 Electronic spatial extent (au):  <R**2>=           9942.6404
 Charge=              0.0000 electrons
 Dipole moment (field-independent basis, Debye):
    X=             -0.5225    Y=             -2.1179    Z=              1.7522  Tot=              2.7980
 Quadrupole moment (field-independent basis, Debye-Ang):
   XX=           -171.9895   YY=           -151.6583   ZZ=           -145.1633
   XY=             34.3207   XZ=              6.1899   YZ=             -1.3550
 Traceless Quadrupole moment (field-independent basis, Debye-Ang):
   XX=            -15.7191   YY=              4.6120   ZZ=             11.1071
   XY=             34.3207   XZ=              6.1899   YZ=             -1.3550
 Octapole moment (field-independent basis, Debye-Ang**2):
  XXX=           -215.8561  YYY=            -37.1921  ZZZ=             -4.3342  XYY=             18.7036
  XXY=            -89.9747  XXZ=             69.2175  XZZ=             -2.7654  YZZ=             -1.5276
  YYZ=              9.2475  XYZ=            -16.9233
 Hexadecapole moment (field-independent basis, Debye-Ang**3):
 XXXX=         -10604.4275 YYYY=          -2107.8823 ZZZZ=           -757.2550 XXXY=           1070.6605
 XXXZ=            176.6075 YYYX=            171.5730 YYYZ=             11.1301 ZZZX=             -6.2061
 ZZZY=             -2.5349 XXYY=          -2219.5623 XXZZ=          -1862.5695 YYZZ=           -463.6124
 XXYZ=            -65.7078 YYXZ=             -0.1906 ZZXY=              5.9099
 N-N= 2.388490629717D+03 E-N=-7.375132493399D+03  KE= 1.107168404373D+03
 1\1\GINC-COMPUTE-8-11\SP\RmPW1PW91\6-31G(d,p)\C21H28O4\FBRUNO.IQUIR\16
 -Oct-2021\0\\# mPW1PW91/6-31g** scrf=(pcm,solvent=chloroform,smd,dovac
 uum) nmr\\comment\\0,1\H,0,2.316139343,1.09442058,-0.985625159\C,0,2.3
 23347531,0.338072396,-0.19292175\H,0,2.562859112,-0.618853944,-0.67217
 6577\C,0,3.450547276,0.715938879,0.757597925\H,0,3.645679673,-0.048638
 281,1.51330785\H,0,4.374665639,0.82999149,0.178272442\C,0,1.788292234,
 2.213224703,2.118179897\C,0,0.653591834,1.656628535,1.182362697\C,0,0.
 928478666,0.268221678,0.487033096\C,0,3.163238594,2.027793957,1.448285
 543\O,0,4.055270278,2.874549732,1.538959079\C,0,1.574624013,3.73838816
 6,2.315609106\H,0,1.545714844,4.262836812,1.353495773\H,0,2.388020597,
 4.186561081,2.899281739\H,0,0.647197229,3.958321754,2.852639082\C,0,1.
 849067421,1.591932628,3.521538707\H,0,2.121266225,0.537281537,3.514252
 809\H,0,0.900150787,1.697524945,4.056332103\H,0,2.616440483,2.08869747
 ,4.128940782\C,0,-0.75637604,1.698483776,1.816770016\H,0,-0.815127859,
 1.014479416,2.67003185\H,0,-0.973678059,2.696363294,2.210258047\C,0,-0
 .226038199,-0.01898847,-0.594207951\C,0,-1.865107108,1.347823987,0.821
 285914\H,0,-1.962268686,2.1544122,0.084854452\H,0,-2.82144065,1.303892
 827,1.356791713\C,0,-1.603152959,0.01491756,0.122135068\H,0,0.62109631
 4,2.386202325,0.361201947\C,0,0.960035707,-0.918874698,1.496526541\H,0
 ,0.996499227,-1.883242523,0.978068428\H,0,0.090999472,-0.939025355,2.1
 57811629\H,0,1.837391823,-0.91405952,2.141074115\C,0,-0.165832011,0.95
 972942,-1.79883502\H,0,-0.972934353,0.77896879,-2.516110671\H,0,0.7481
 35707,0.811386532,-2.383367492\H,0,-0.229568935,2.009924284,-1.5082690
 14\H,0,-1.612726827,-0.767530308,0.893589481\O,0,0.003698373,-1.339223
 673,-1.143830748\C,0,-1.057288398,-1.989262566,-1.750192266\C,0,-2.327
 180646,-1.555942836,-1.650001487\C,0,-2.734786549,-0.370039167,-0.8345
 78855\H,0,-3.629787438,-0.603049919,-0.244162075\H,0,-2.998966738,0.46
 2301421,-1.497296261\O,0,-0.715388682,-3.118971051,-2.479745088\C,0,-1
 .693737668,-3.834496814,-3.145131995\C,0,-1.178125605,-5.023787234,-3.
 889930441\H,0,-0.445649763,-4.711122476,-4.641009303\H,0,-1.978500317,
 -5.565304317,-4.404743597\H,0,-0.690268663,-5.719642345,-3.199874408\C
 ,0,-2.986215935,-3.489438498,-3.123359181\H,0,-3.764111175,-4.03646475
 9,-3.638865258\C,0,-3.391640258,-2.299994449,-2.358732864\O,0,-4.55071
 9734,-1.900606237,-2.397126695\\Version=EM64L-G09RevC.01\State=1-A\HF=
 -1117.7990768\RMSD=5.711e-09\Dipole=0.5212515,-0.9524006,0.181731\Quad
 rupole=-24.8494432,11.5145759,13.3348673,-13.7896593,-10.509247,4.1241
 101\PG=C01 [X(C21H28O4)]\\@


 LOVE IS BLIND, THAT'S WHY ALL THE WORLD LOVES A LOUVER.
 Job cpu time:  0 days  2 hours 37 minutes 53.9 seconds.
 File lengths (MBytes):  RWF=    246 Int=      0 D2E=      0 Chk=     16 Scr=      1
 Normal termination of Gaussian 09 at Sat Oct 16 15:08:04 2021.
