 Entering Gaussian System, Link 0=g09
 Input=/home/lpassaglia.iquir/OPTB/OPTB_Ethyl_Bromide_nmr_B3L_A_GAS.gjc
 Output=/home/lpassaglia.iquir/OPTB/OPTB_Ethyl_Bromide_nmr_B3L_A_GAS.log
 Initial command:
 /opt/ohpc/pub/apps/software/Gaussian/09/AMD64.SSE4a-enabled/g09/l1.exe /local/lpassaglia.iquir/Gau-143530.inp -scrdir=/local/lpassaglia.iquir/
 Entering Link 1 = /opt/ohpc/pub/apps/software/Gaussian/09/AMD64.SSE4a-enabled/g09/l1.exe PID=    143531.
  
 Copyright (c) 1988,1990,1992,1993,1995,1998,2003,2009,2011,
            Gaussian, Inc.  All Rights Reserved.
  
 This is part of the Gaussian(R) 09 program.  It is based on
 the Gaussian(R) 03 system (copyright 2003, Gaussian, Inc.),
 the Gaussian(R) 98 system (copyright 1998, Gaussian, Inc.),
 the Gaussian(R) 94 system (copyright 1995, Gaussian, Inc.),
 the Gaussian 92(TM) system (copyright 1992, Gaussian, Inc.),
 the Gaussian 90(TM) system (copyright 1990, Gaussian, Inc.),
 the Gaussian 88(TM) system (copyright 1988, Gaussian, Inc.),
 the Gaussian 86(TM) system (copyright 1986, Carnegie Mellon
 University), and the Gaussian 82(TM) system (copyright 1983,
 Carnegie Mellon University). Gaussian is a federally registered
 trademark of Gaussian, Inc.
  
 This software contains proprietary and confidential information,
 including trade secrets, belonging to Gaussian, Inc.
  
 This software is provided under written license and may be
 used, copied, transmitted, or stored only in accord with that
 written license.
  
 The following legend is applicable only to US Government
 contracts under FAR:
  
                    RESTRICTED RIGHTS LEGEND
  
 Use, reproduction and disclosure by the US Government is
 subject to restrictions as set forth in subparagraphs (a)
 and (c) of the Commercial Computer Software - Restricted
 Rights clause in FAR 52.227-19.
  
 Gaussian, Inc.
 340 Quinnipiac St., Bldg. 40, Wallingford CT 06492
  
  
 ---------------------------------------------------------------
 Warning -- This program may not be used in any manner that
 competes with the business of Gaussian, Inc. or will provide
 assistance to any competitor of Gaussian, Inc.  The licensee
 of this program is prohibited from giving any competitor of
 Gaussian, Inc. access to this program.  By using this program,
 the user acknowledges that Gaussian, Inc. is engaged in the
 business of creating and licensing software in the field of
 computational chemistry and represents and warrants to the
 licensee that it is not a competitor of Gaussian, Inc. and that
 it will not use this program in any manner prohibited above.
 ---------------------------------------------------------------
  

 Cite this work as:
 Gaussian 09, Revision C.01,
 M. J. Frisch, G. W. Trucks, H. B. Schlegel, G. E. Scuseria, 
 M. A. Robb, J. R. Cheeseman, G. Scalmani, V. Barone, B. Mennucci, 
 G. A. Petersson, H. Nakatsuji, M. Caricato, X. Li, H. P. Hratchian, 
 A. F. Izmaylov, J. Bloino, G. Zheng, J. L. Sonnenberg, M. Hada, 
 M. Ehara, K. Toyota, R. Fukuda, J. Hasegawa, M. Ishida, T. Nakajima, 
 Y. Honda, O. Kitao, H. Nakai, T. Vreven, J. A. Montgomery, Jr., 
 J. E. Peralta, F. Ogliaro, M. Bearpark, J. J. Heyd, E. Brothers, 
 K. N. Kudin, V. N. Staroverov, T. Keith, R. Kobayashi, J. Normand, 
 K. Raghavachari, A. Rendell, J. C. Burant, S. S. Iyengar, J. Tomasi, 
 M. Cossi, N. Rega, J. M. Millam, M. Klene, J. E. Knox, J. B. Cross, 
 V. Bakken, C. Adamo, J. Jaramillo, R. Gomperts, R. E. Stratmann, 
 O. Yazyev, A. J. Austin, R. Cammi, C. Pomelli, J. W. Ochterski, 
 R. L. Martin, K. Morokuma, V. G. Zakrzewski, G. A. Voth, 
 P. Salvador, J. J. Dannenberg, S. Dapprich, A. D. Daniels, 
 O. Farkas, J. B. Foresman, J. V. Ortiz, J. Cioslowski, 
 and D. J. Fox, Gaussian, Inc., Wallingford CT, 2010.
 
 ******************************************
 Gaussian 09:  AM64L-G09RevC.01 23-Sep-2011
                 1-Nov-2024 
 ******************************************
 %nprocshared=4
 Will use up to    4 processors via shared memory.
 -------------------
 # b3lyp/6-31g** nmr
 -------------------
 1/38=1/1;
 2/12=2,17=6,18=5,40=1/2;
 3/5=1,6=6,7=101,11=2,16=1,25=1,30=1,74=-5/1,2,8,3;
 4//1;
 5/5=2,38=5/2;
 8/6=1,10=90,11=11/1;
 10/13=100,45=16/2;
 6/7=2,8=2,9=2,10=2,28=1/1;
 99/9=1/99;
 -------
 comment
 -------
 Charge =  0 Multiplicity = 1
 Symbolic Z-Matrix:
 6                     0.60275  -1.08957   0. 
 1                     1.22374  -1.18818   0.89044 
 1                     1.22374  -1.18818  -0.89044 
 6                    -0.57619  -2.04462   0. 
 1                    -1.20018  -1.90186   0.88693 
 1                    -0.20648  -3.07852   0. 
 1                    -1.20018  -1.90186  -0.88693 
 35                    0.        0.80182   0. 
 
                          Input orientation:                          
 ---------------------------------------------------------------------
 Center     Atomic      Atomic             Coordinates (Angstroms)
 Number     Number       Type             X           Y           Z
 ---------------------------------------------------------------------
      1          6           0        0.602751   -1.089566    0.000000
      2          1           0        1.223741   -1.188180    0.890439
      3          1           0        1.223741   -1.188180   -0.890439
      4          6           0       -0.576192   -2.044623    0.000000
      5          1           0       -1.200177   -1.901863    0.886926
      6          1           0       -0.206481   -3.078525    0.000000
      7          1           0       -1.200177   -1.901863   -0.886926
      8         35           0        0.000000    0.801821    0.000000
 ---------------------------------------------------------------------
                    Distance matrix (angstroms):
                    1          2          3          4          5
     1  C    0.000000
     2  H    1.090062   0.000000
     3  H    1.090062   1.780878   0.000000
     4  C    1.517248   2.183148   2.183148   0.000000
     5  H    2.167259   2.526803   3.089296   1.093789   0.000000
     6  H    2.147281   2.532157   2.532157   1.098016   1.777246
     7  H    2.167259   3.089296   2.526803   1.093789   1.773852
     8  Br   1.985108   2.500106   2.500106   2.904176   3.088198
                    6          7          8
     6  H    0.000000
     7  H    1.777246   0.000000
     8  Br   3.885836   3.088198   0.000000
 Stoichiometry    C2H5Br
 Framework group  CS[SG(C2HBr),X(H4)]
 Deg. of freedom    11
 Full point group                 CS      NOp   2
 Largest Abelian subgroup         CS      NOp   2
 Largest concise Abelian subgroup CS      NOp   2
                         Standard orientation:                         
 ---------------------------------------------------------------------
 Center     Atomic      Atomic             Coordinates (Angstroms)
 Number     Number       Type             X           Y           Z
 ---------------------------------------------------------------------
      1          6           0        0.602751   -1.089566    0.000000
      2          1           0        1.223741   -1.188180    0.890439
      3          1           0        1.223741   -1.188180   -0.890439
      4          6           0       -0.576192   -2.044623    0.000000
      5          1           0       -1.200177   -1.901863    0.886926
      6          1           0       -0.206481   -3.078525    0.000000
      7          1           0       -1.200177   -1.901863   -0.886926
      8         35           0        0.000000    0.801821    0.000000
 ---------------------------------------------------------------------
 Rotational constants (GHZ):     29.9447069      3.7115472      3.4456048
 Standard basis: 6-31G(d,p) (6D, 7F)
 There are    58 symmetry adapted basis functions of A'  symmetry.
 There are    27 symmetry adapted basis functions of A"  symmetry.
 Integral buffers will be    131072 words long.
 Raffenetti 2 integral format.
 Two-electron integral symmetry is turned on.
    85 basis functions,   174 primitive gaussians,    85 cartesian basis functions
    26 alpha electrons       26 beta electrons
       nuclear repulsion energy       162.5889140800 Hartrees.
 NAtoms=    8 NActive=    8 NUniq=    6 SFac= 1.78D+00 NAtFMM=   60 NAOKFM=F Big=F
 One-electron integrals computed using PRISM.
 NBasis=    85 RedAO= T  NBF=    58    27
 NBsUse=    85 1.00D-06 NBFU=    58    27
 Harris functional with IExCor=  402 diagonalized for initial guess.
 ExpMin= 1.43D-01 ExpMax= 5.74D+05 ExpMxC= 5.74D+03 IAcc=2 IRadAn=         4 AccDes= 0.00D+00
 HarFok:  IExCor=  402 AccDes= 0.00D+00 IRadAn=         4 IDoV= 1
 ScaDFX=  1.000000  1.000000  1.000000  1.000000
 FoFCou: FMM=F IPFlag=           0 FMFlag=      100000 FMFlg1=           0
         NFxFlg=           0 DoJE=T BraDBF=F KetDBF=T FulRan=T
         Omega=  0.000000  0.000000  1.000000  0.000000  0.000000 ICntrl=     500 IOpCl=  0
         NMat0=    1 NMatS0=    1 NMatT0=    0 NMatD0=    1 NMtDS0=    0 NMtDT0=    0
         I1Cent=           4 NGrid=           0.
 Petite list used in FoFCou.
 Initial guess orbital symmetries:
       Occupied  (A') (A') (A') (A') (A") (A') (A') (A') (A') (A')
                 (A") (A') (A') (A") (A") (A') (A') (A') (A') (A")
                 (A') (A') (A") (A') (A') (A")
       Virtual   (A') (A') (A") (A') (A') (A') (A") (A') (A') (A")
                 (A') (A") (A') (A') (A") (A') (A") (A') (A') (A')
                 (A") (A') (A") (A') (A") (A') (A') (A') (A') (A")
                 (A') (A') (A") (A') (A') (A') (A") (A") (A') (A")
                 (A") (A') (A") (A') (A') (A") (A') (A') (A") (A')
                 (A') (A') (A") (A') (A") (A') (A') (A') (A')
 The electronic state of the initial guess is 1-A'.
 Requested convergence on RMS density matrix=1.00D-08 within 128 cycles.
 Requested convergence on MAX density matrix=1.00D-06.
 Requested convergence on             energy=1.00D-06.
 No special actions if energy rises.
 Keep R1 ints in memory in canonical form, NReq=7696893.
 Integral accuracy reduced to 1.0D-05 until final iterations.
 Initial convergence to 1.0D-05 achieved.  Increase integral accuracy.
 SCF Done:  E(RB3LYP) =  -2650.94191364     A.U. after   13 cycles
             Convg  =    0.5736D-08             -V/T =  2.0063
 Range of M.O.s used for correlation:     1    85
 NBasis=    85 NAE=    26 NBE=    26 NFC=     0 NFV=     0
 NROrb=     85 NOA=    26 NOB=    26 NVA=    59 NVB=    59

 **** Warning!!: The largest alpha MO coefficient is  0.19676570D+02

          Differentiating once with respect to magnetic field using GIAOs.
          Electric field/nuclear overlap derivatives assumed to be zero.
          Keep R3 ints in memory in canonical form, NReq=7503782.
 FoFCou: FMM=F IPFlag=           0 FMFlag=           0 FMFlg1=           0
         NFxFlg=           0 DoJE=F BraDBF=F KetDBF=T FulRan=T
         Omega=  0.000000  0.000000  1.000000  0.000000  0.000000 ICntrl=    6100 IOpCl=  0
         NMat0=    1 NMatS0=    1 NMatT0=    0 NMatD0=    1 NMtDS0=    0 NMtDT0=    0
         I1Cent=           7 NGrid=           8.
 Symmetry not used in FoFCou.
          There are     3 degrees of freedom in the 1st order CPHF.  IDoFFX=0.
      3 vectors produced by pass  0 Test12= 5.11D-14 3.33D-08 XBig12= 2.97D+00 6.31D-01.
 AX will form     3 AO Fock derivatives at one time.
      3 vectors produced by pass  1 Test12= 5.11D-14 3.33D-08 XBig12= 4.76D-03 4.59D-02.
      3 vectors produced by pass  2 Test12= 5.11D-14 3.33D-08 XBig12= 2.50D-05 2.88D-03.
      3 vectors produced by pass  3 Test12= 5.11D-14 3.33D-08 XBig12= 4.89D-08 7.86D-05.
      3 vectors produced by pass  4 Test12= 5.11D-14 3.33D-08 XBig12= 1.57D-10 4.44D-06.
      2 vectors produced by pass  5 Test12= 5.11D-14 3.33D-08 XBig12= 2.18D-13 1.13D-07.
 Inverted reduced A of dimension    17 with in-core refinement.
 Calculating GIAO nuclear magnetic shielding tensors.
 SCF GIAO Magnetic shielding tensor (ppm):
      1  C    Isotropic =   150.6714   Anisotropy =    49.0411
   XX=   153.5914   YX=    -8.0430   ZX=     0.0000
   XY=   -10.8960   YY=   180.3538   ZY=     0.0000
   XZ=     0.0000   YZ=     0.0000   ZZ=   118.0691
   Eigenvalues:   118.0691   150.5797   183.3655
      2  H    Isotropic =    28.2335   Anisotropy =    10.9797
   XX=    28.6752   YX=    -2.7444   ZX=     6.2942
   XY=    -2.9055   YY=    30.0969   ZY=    -2.5696
   XZ=     4.8681   YZ=    -2.2039   ZZ=    25.9283
   Eigenvalues:    21.5516    27.5956    35.5533
      3  H    Isotropic =    28.2335   Anisotropy =    10.9797
   XX=    28.6752   YX=    -2.7444   ZX=    -6.2942
   XY=    -2.9055   YY=    30.0969   ZY=     2.5696
   XZ=    -4.8681   YZ=     2.2039   ZZ=    25.9283
   Eigenvalues:    21.5516    27.5956    35.5533
      4  C    Isotropic =   171.0409   Anisotropy =    32.4235
   XX=   171.8665   YX=    13.6628   ZX=     0.0000
   XY=     6.3384   YY=   187.8460   ZY=     0.0000
   XZ=     0.0000   YZ=     0.0000   ZZ=   153.4102
   Eigenvalues:   153.4102   167.0559   192.6565
      5  H    Isotropic =    30.2376   Anisotropy =     7.9097
   XX=    30.5103   YX=     1.7485   ZX=    -4.6140
   XY=     2.7607   YY=    29.5896   ZY=    -1.1215
   XZ=    -3.5861   YZ=    -0.6708   ZZ=    30.6129
   Eigenvalues:    26.1314    29.0706    35.5107
      6  H    Isotropic =    30.4051   Anisotropy =    11.4623
   XX=    27.4071   YX=     0.5745   ZX=     0.0000
   XY=    -0.8064   YY=    38.0454   ZY=     0.0000
   XZ=     0.0000   YZ=     0.0000   ZZ=    25.7628
   Eigenvalues:    25.7628    27.4059    38.0466
      7  H    Isotropic =    30.2376   Anisotropy =     7.9097
   XX=    30.5103   YX=     1.7485   ZX=     4.6140
   XY=     2.7607   YY=    29.5896   ZY=     1.1215
   XZ=     3.5861   YZ=     0.6708   ZZ=    30.6129
   Eigenvalues:    26.1314    29.0706    35.5107
      8  Br   Isotropic =  2341.5877   Anisotropy =  1051.8985
   XX=  2156.9457   YX=  -250.8893   ZX=     0.0000
   XY=  -192.2566   YY=  2987.4361   ZY=     0.0000
   XZ=     0.0000   YZ=     0.0000   ZZ=  1880.3813
   Eigenvalues:  1880.3813  2101.5284  3042.8533
 End of Minotr Frequency-dependent properties file   721 does not exist.
 End of Minotr Frequency-dependent properties file   722 does not exist.

 **********************************************************************

            Population analysis using the SCF density.

 **********************************************************************

 Orbital symmetries:
       Occupied  (A') (A') (A') (A') (A") (A') (A') (A') (A') (A')
                 (A") (A') (A') (A") (A") (A') (A') (A') (A') (A")
                 (A') (A') (A") (A') (A') (A")
       Virtual   (A') (A') (A") (A') (A') (A") (A') (A') (A') (A")
                 (A') (A') (A") (A') (A") (A') (A") (A') (A') (A')
                 (A") (A') (A") (A') (A") (A') (A') (A') (A') (A")
                 (A') (A') (A") (A') (A') (A') (A") (A") (A') (A")
                 (A") (A") (A') (A') (A') (A") (A') (A') (A") (A')
                 (A') (A') (A") (A') (A") (A') (A') (A') (A')
 The electronic state is 1-A'.
 Alpha  occ. eigenvalues -- -482.89083 -61.85346 -56.37417 -56.37048 -56.37042
 Alpha  occ. eigenvalues --  -10.24547 -10.19575  -8.56516  -6.51887  -6.50641
 Alpha  occ. eigenvalues --   -6.50628  -2.63455  -2.63108  -2.63097  -2.62103
 Alpha  occ. eigenvalues --   -2.62102  -0.81044  -0.72319  -0.61797  -0.47272
 Alpha  occ. eigenvalues --   -0.44147  -0.40390  -0.37491  -0.34959  -0.26916
 Alpha  occ. eigenvalues --   -0.26809
 Alpha virt. eigenvalues --    0.00393   0.09526   0.13706   0.13936   0.15982
 Alpha virt. eigenvalues --    0.17381   0.20673   0.29270   0.41963   0.43740
 Alpha virt. eigenvalues --    0.46122   0.47021   0.47859   0.51108   0.51706
 Alpha virt. eigenvalues --    0.55320   0.56269   0.56363   0.67000   0.74851
 Alpha virt. eigenvalues --    0.76611   0.79775   0.84397   0.86059   0.90939
 Alpha virt. eigenvalues --    0.92206   0.93947   1.14700   1.34970   1.41863
 Alpha virt. eigenvalues --    1.46808   1.57502   1.64955   1.77932   1.85409
 Alpha virt. eigenvalues --    2.01192   2.03202   2.03648   2.07595   2.08253
 Alpha virt. eigenvalues --    2.21365   2.33131   2.33802   2.42078   2.55713
 Alpha virt. eigenvalues --    2.61674   2.70225   2.78560   2.84623   2.87390
 Alpha virt. eigenvalues --    3.16920   3.24439   3.38012   3.43621   3.49532
 Alpha virt. eigenvalues --    4.28087   4.53711   8.62499  72.84705
          Condensed to atoms (all electrons):
              1          2          3          4          5          6
     1  C    4.923374   0.384683   0.384683   0.353845  -0.034924  -0.028592
     2  H    0.384683   0.580917  -0.036144  -0.036486  -0.005056  -0.001927
     3  H    0.384683  -0.036144   0.580917  -0.036486   0.004935  -0.001927
     4  C    0.353845  -0.036486  -0.036486   4.939243   0.390833   0.365725
     5  H   -0.034924  -0.005056   0.004935   0.390833   0.571761  -0.028741
     6  H   -0.028592  -0.001927  -0.001927   0.365725  -0.028741   0.605640
     7  H   -0.034924   0.004935  -0.005056   0.390833  -0.029957  -0.028741
     8  Br   0.254576  -0.041405  -0.041405  -0.054256  -0.000060   0.004797
              7          8
     1  C   -0.034924   0.254576
     2  H    0.004935  -0.041405
     3  H   -0.005056  -0.041405
     4  C    0.390833  -0.054256
     5  H   -0.029957  -0.000060
     6  H   -0.028741   0.004797
     7  H    0.571761  -0.000060
     8  Br  -0.000060  35.038992
 Mulliken atomic charges:
              1
     1  C   -0.202721
     2  H    0.150484
     3  H    0.150484
     4  C   -0.313250
     5  H    0.131208
     6  H    0.113766
     7  H    0.131208
     8  Br  -0.161179
 Sum of Mulliken atomic charges =   0.00000
 Mulliken charges with hydrogens summed into heavy atoms:
              1
     1  C    0.098247
     4  C    0.062932
     8  Br  -0.161179
 Sum of Mulliken charges with hydrogens summed into heavy atoms =   0.00000
 Electronic spatial extent (au):  <R**2>=            381.4492
 Charge=              0.0000 electrons
 Dipole moment (field-independent basis, Debye):
    X=              0.4606    Y=             -2.1221    Z=              0.0000  Tot=              2.1715
 Quadrupole moment (field-independent basis, Debye-Ang):
   XX=            -31.4372   YY=            -29.5446   ZZ=            -31.8367
   XY=             -0.9794   XZ=              0.0000   YZ=              0.0000
 Traceless Quadrupole moment (field-independent basis, Debye-Ang):
   XX=             -0.4977   YY=              1.3949   ZZ=             -0.8972
   XY=             -0.9794   XZ=              0.0000   YZ=              0.0000
 Octapole moment (field-independent basis, Debye-Ang**2):
  XXX=              0.9815  YYY=             23.2440  ZZZ=              0.0000  XYY=             -0.5441
  XXY=              6.4440  XXZ=              0.0000  XZZ=              0.5168  YZZ=              6.4510
  YYZ=              0.0000  XYZ=              0.0000
 Hexadecapole moment (field-independent basis, Debye-Ang**3):
 XXXX=            -81.4780 YYYY=           -337.7846 ZZZZ=            -47.7171 XXXY=            -14.7263
 XXXZ=              0.0000 YYYX=            -17.6182 YYYZ=              0.0000 ZZZX=              0.0000
 ZZZY=              0.0000 XXYY=            -72.2548 XXZZ=            -19.2968 YYZZ=            -67.2854
 XXYZ=              0.0000 YYXZ=              0.0000 ZZXY=             -4.7384
 N-N= 1.625889140800D+02 E-N=-6.642204891181D+03  KE= 2.634451766626D+03
 Symmetry A'   KE= 2.253389249103D+03
 Symmetry A"   KE= 3.810625175229D+02
 1\1\GINC-COMPUTE-1-9\SP\RB3LYP\6-31G(d,p)\C2H5Br1\LPASSAGLIA.IQUIR\01-
 Nov-2024\0\\# b3lyp/6-31g** nmr\\comment\\0,1\C,0,0.602751,-1.089566,0
 .\H,0,1.223741,-1.18818,0.890439\H,0,1.223741,-1.18818,-0.890439\C,0,-
 0.576192,-2.044623,0.\H,0,-1.200177,-1.901863,0.886926\H,0,-0.206481,-
 3.078525,0.\H,0,-1.200177,-1.901863,-0.886926\Br,0,0.,0.801821,0.\\Ver
 sion=AM64L-G09RevC.01\State=1-A'\HF=-2650.9419136\RMSD=5.736e-09\Dipol
 e=0.1812127,-0.834884,0.\Quadrupole=-0.3700577,1.0370804,-0.6670228,-0
 .7281507,0.,0.\PG=CS [SG(C2H1Br1),X(H4)]\\@


 You don't have to suffer to be a poet.
 Adolescence is enough suffering for anyone.
                             -- John Ciardi
 Job cpu time:  0 days  0 hours  2 minutes 14.3 seconds.
 File lengths (MBytes):  RWF=      9 Int=      0 D2E=      0 Chk=      1 Scr=      1
 Normal termination of Gaussian 09 at Fri Nov  1 16:11:40 2024.
