 Entering Gaussian System, Link 0=g09
 Input=/home/lpassaglia.iquir/OPTB/OPTB_trans-1-bromopropene_001_nmr_B3L_A_GAS.gjc
 Output=/home/lpassaglia.iquir/OPTB/OPTB_trans-1-bromopropene_001_nmr_B3L_A_GAS.log
 Initial command:
 /opt/ohpc/pub/apps/software/Gaussian/09/AMD64.SSE4a-enabled/g09/l1.exe /local/lpassaglia.iquir/Gau-145098.inp -scrdir=/local/lpassaglia.iquir/
 Entering Link 1 = /opt/ohpc/pub/apps/software/Gaussian/09/AMD64.SSE4a-enabled/g09/l1.exe PID=    145099.
  
 Copyright (c) 1988,1990,1992,1993,1995,1998,2003,2009,2011,
            Gaussian, Inc.  All Rights Reserved.
  
 This is part of the Gaussian(R) 09 program.  It is based on
 the Gaussian(R) 03 system (copyright 2003, Gaussian, Inc.),
 the Gaussian(R) 98 system (copyright 1998, Gaussian, Inc.),
 the Gaussian(R) 94 system (copyright 1995, Gaussian, Inc.),
 the Gaussian 92(TM) system (copyright 1992, Gaussian, Inc.),
 the Gaussian 90(TM) system (copyright 1990, Gaussian, Inc.),
 the Gaussian 88(TM) system (copyright 1988, Gaussian, Inc.),
 the Gaussian 86(TM) system (copyright 1986, Carnegie Mellon
 University), and the Gaussian 82(TM) system (copyright 1983,
 Carnegie Mellon University). Gaussian is a federally registered
 trademark of Gaussian, Inc.
  
 This software contains proprietary and confidential information,
 including trade secrets, belonging to Gaussian, Inc.
  
 This software is provided under written license and may be
 used, copied, transmitted, or stored only in accord with that
 written license.
  
 The following legend is applicable only to US Government
 contracts under FAR:
  
                    RESTRICTED RIGHTS LEGEND
  
 Use, reproduction and disclosure by the US Government is
 subject to restrictions as set forth in subparagraphs (a)
 and (c) of the Commercial Computer Software - Restricted
 Rights clause in FAR 52.227-19.
  
 Gaussian, Inc.
 340 Quinnipiac St., Bldg. 40, Wallingford CT 06492
  
  
 ---------------------------------------------------------------
 Warning -- This program may not be used in any manner that
 competes with the business of Gaussian, Inc. or will provide
 assistance to any competitor of Gaussian, Inc.  The licensee
 of this program is prohibited from giving any competitor of
 Gaussian, Inc. access to this program.  By using this program,
 the user acknowledges that Gaussian, Inc. is engaged in the
 business of creating and licensing software in the field of
 computational chemistry and represents and warrants to the
 licensee that it is not a competitor of Gaussian, Inc. and that
 it will not use this program in any manner prohibited above.
 ---------------------------------------------------------------
  

 Cite this work as:
 Gaussian 09, Revision C.01,
 M. J. Frisch, G. W. Trucks, H. B. Schlegel, G. E. Scuseria, 
 M. A. Robb, J. R. Cheeseman, G. Scalmani, V. Barone, B. Mennucci, 
 G. A. Petersson, H. Nakatsuji, M. Caricato, X. Li, H. P. Hratchian, 
 A. F. Izmaylov, J. Bloino, G. Zheng, J. L. Sonnenberg, M. Hada, 
 M. Ehara, K. Toyota, R. Fukuda, J. Hasegawa, M. Ishida, T. Nakajima, 
 Y. Honda, O. Kitao, H. Nakai, T. Vreven, J. A. Montgomery, Jr., 
 J. E. Peralta, F. Ogliaro, M. Bearpark, J. J. Heyd, E. Brothers, 
 K. N. Kudin, V. N. Staroverov, T. Keith, R. Kobayashi, J. Normand, 
 K. Raghavachari, A. Rendell, J. C. Burant, S. S. Iyengar, J. Tomasi, 
 M. Cossi, N. Rega, J. M. Millam, M. Klene, J. E. Knox, J. B. Cross, 
 V. Bakken, C. Adamo, J. Jaramillo, R. Gomperts, R. E. Stratmann, 
 O. Yazyev, A. J. Austin, R. Cammi, C. Pomelli, J. W. Ochterski, 
 R. L. Martin, K. Morokuma, V. G. Zakrzewski, G. A. Voth, 
 P. Salvador, J. J. Dannenberg, S. Dapprich, A. D. Daniels, 
 O. Farkas, J. B. Foresman, J. V. Ortiz, J. Cioslowski, 
 and D. J. Fox, Gaussian, Inc., Wallingford CT, 2010.
 
 ******************************************
 Gaussian 09:  AM64L-G09RevC.01 23-Sep-2011
                 1-Nov-2024 
 ******************************************
 %nprocshared=4
 Will use up to    4 processors via shared memory.
 -------------------
 # b3lyp/6-31g** nmr
 -------------------
 1/38=1/1;
 2/12=2,17=6,18=5,40=1/2;
 3/5=1,6=6,7=101,11=2,16=1,25=1,30=1,74=-5/1,2,8,3;
 4//1;
 5/5=2,38=5/2;
 8/6=1,10=90,11=11/1;
 10/13=100,45=16/2;
 6/7=2,8=2,9=2,10=2,28=1/1;
 99/9=1/99;
 -------
 comment
 -------
 Charge =  0 Multiplicity = 1
 Symbolic Z-Matrix:
 1                    -1.18008   3.13451   0. 
 6                    -1.93594   2.34262   0. 
 1                    -2.57539   2.48099   0.88161 
 1                    -2.57539   2.48099  -0.88161 
 6                    -1.31337   0.97488   0. 
 1                    -1.98796   0.12078   0. 
 6                     0.        0.767     0. 
 1                     0.74519   1.55449   0. 
 35                    0.77341  -0.97939   0. 
 
                          Input orientation:                          
 ---------------------------------------------------------------------
 Center     Atomic      Atomic             Coordinates (Angstroms)
 Number     Number       Type             X           Y           Z
 ---------------------------------------------------------------------
      1          1           0       -1.180083    3.134513    0.000000
      2          6           0       -1.935937    2.342621    0.000000
      3          1           0       -2.575385    2.480986    0.881612
      4          1           0       -2.575385    2.480986   -0.881612
      5          6           0       -1.313367    0.974884    0.000000
      6          1           0       -1.987955    0.120778    0.000000
      7          6           0        0.000000    0.766996    0.000000
      8          1           0        0.745185    1.554489    0.000000
      9         35           0        0.773413   -0.979393    0.000000
 ---------------------------------------------------------------------
                    Distance matrix (angstroms):
                    1          2          3          4          5
     1  H    0.000000
     2  C    1.094718   0.000000
     3  H    1.775163   1.097852   0.000000
     4  H    1.775163   1.097852   1.763224   0.000000
     5  C    2.163738   1.502763   2.153665   2.153665   0.000000
     6  H    3.120137   2.222452   2.587063   2.587063   1.088378
     7  C    2.645323   2.496086   3.216770   3.216770   1.329718
     8  H    2.490609   2.794560   3.558345   3.558345   2.138593
     9  Br   4.554160   4.286765   4.895499   4.895499   2.858994
                    6          7          8          9
     6  H    0.000000
     7  C    2.090350   0.000000
     8  H    3.086354   1.084180   0.000000
     9  Br   2.972462   1.909985   2.534039   0.000000
 Stoichiometry    C3H5Br
 Framework group  CS[SG(C3H3Br),X(H2)]
 Deg. of freedom    14
 Full point group                 CS      NOp   2
 Largest Abelian subgroup         CS      NOp   2
 Largest concise Abelian subgroup CS      NOp   2
                         Standard orientation:                         
 ---------------------------------------------------------------------
 Center     Atomic      Atomic             Coordinates (Angstroms)
 Number     Number       Type             X           Y           Z
 ---------------------------------------------------------------------
      1          1           0       -1.180083    3.134513    0.000000
      2          6           0       -1.935937    2.342621    0.000000
      3          1           0       -2.575385    2.480986    0.881612
      4          1           0       -2.575385    2.480986   -0.881612
      5          6           0       -1.313367    0.974884    0.000000
      6          1           0       -1.987955    0.120778    0.000000
      7          6           0        0.000000    0.766996    0.000000
      8          1           0        0.745185    1.554489    0.000000
      9         35           0        0.773413   -0.979393    0.000000
 ---------------------------------------------------------------------
 Rotational constants (GHZ):     40.6228170      1.6673596      1.6176846
 Standard basis: 6-31G(d,p) (6D, 7F)
 There are    72 symmetry adapted basis functions of A'  symmetry.
 There are    28 symmetry adapted basis functions of A"  symmetry.
 Integral buffers will be    131072 words long.
 Raffenetti 2 integral format.
 Two-electron integral symmetry is turned on.
   100 basis functions,   202 primitive gaussians,   100 cartesian basis functions
    29 alpha electrons       29 beta electrons
       nuclear repulsion energy       212.6291725730 Hartrees.
 NAtoms=    9 NActive=    9 NUniq=    8 SFac= 1.27D+00 NAtFMM=   60 NAOKFM=F Big=F
 One-electron integrals computed using PRISM.
 NBasis=   100 RedAO= T  NBF=    72    28
 NBsUse=   100 1.00D-06 NBFU=    72    28
 Harris functional with IExCor=  402 diagonalized for initial guess.
 ExpMin= 1.43D-01 ExpMax= 5.74D+05 ExpMxC= 5.74D+03 IAcc=2 IRadAn=         4 AccDes= 0.00D+00
 HarFok:  IExCor=  402 AccDes= 0.00D+00 IRadAn=         4 IDoV= 1
 ScaDFX=  1.000000  1.000000  1.000000  1.000000
 FoFCou: FMM=F IPFlag=           0 FMFlag=      100000 FMFlg1=           0
         NFxFlg=           0 DoJE=T BraDBF=F KetDBF=T FulRan=T
         Omega=  0.000000  0.000000  1.000000  0.000000  0.000000 ICntrl=     500 IOpCl=  0
         NMat0=    1 NMatS0=    1 NMatT0=    0 NMatD0=    1 NMtDS0=    0 NMtDT0=    0
         I1Cent=           4 NGrid=           0.
 Petite list used in FoFCou.
 Initial guess orbital symmetries:
       Occupied  (A') (A') (A') (A') (A") (A') (A') (A') (A') (A')
                 (A') (A") (A') (A') (A") (A') (A") (A') (A') (A')
                 (A') (A') (A') (A") (A') (A') (A") (A') (A")
       Virtual   (A") (A') (A') (A') (A') (A") (A') (A') (A') (A')
                 (A') (A") (A") (A') (A') (A') (A") (A') (A") (A')
                 (A") (A') (A") (A') (A') (A') (A") (A') (A') (A')
                 (A') (A') (A') (A') (A") (A') (A") (A') (A') (A")
                 (A') (A") (A') (A') (A") (A') (A") (A') (A") (A')
                 (A') (A") (A') (A') (A") (A") (A') (A') (A') (A")
                 (A') (A') (A') (A") (A') (A') (A') (A') (A') (A')
                 (A')
 The electronic state of the initial guess is 1-A'.
 Requested convergence on RMS density matrix=1.00D-08 within 128 cycles.
 Requested convergence on MAX density matrix=1.00D-06.
 Requested convergence on             energy=1.00D-06.
 No special actions if energy rises.
 Keep R1 ints in memory in canonical form, NReq=13803085.
 Integral accuracy reduced to 1.0D-05 until final iterations.
 EnCoef did   100 forward-backward iterations
 Initial convergence to 1.0D-05 achieved.  Increase integral accuracy.
 SCF Done:  E(RB3LYP) =  -2689.02029125     A.U. after   14 cycles
             Convg  =    0.4102D-08             -V/T =  2.0063
 Range of M.O.s used for correlation:     1   100
 NBasis=   100 NAE=    29 NBE=    29 NFC=     0 NFV=     0
 NROrb=    100 NOA=    29 NOB=    29 NVA=    71 NVB=    71

 **** Warning!!: The largest alpha MO coefficient is  0.19658572D+02

          Differentiating once with respect to magnetic field using GIAOs.
          Electric field/nuclear overlap derivatives assumed to be zero.
          Keep R3 ints in memory in canonical form, NReq=13576525.
 FoFCou: FMM=F IPFlag=           0 FMFlag=           0 FMFlg1=           0
         NFxFlg=           0 DoJE=F BraDBF=F KetDBF=T FulRan=T
         Omega=  0.000000  0.000000  1.000000  0.000000  0.000000 ICntrl=    6100 IOpCl=  0
         NMat0=    1 NMatS0=    1 NMatT0=    0 NMatD0=    1 NMtDS0=    0 NMtDT0=    0
         I1Cent=           7 NGrid=           9.
 Symmetry not used in FoFCou.
          There are     3 degrees of freedom in the 1st order CPHF.  IDoFFX=0.
      3 vectors produced by pass  0 Test12= 6.86D-14 3.33D-08 XBig12= 4.70D+00 1.03D+00.
 AX will form     3 AO Fock derivatives at one time.
      3 vectors produced by pass  1 Test12= 6.86D-14 3.33D-08 XBig12= 8.44D-03 4.82D-02.
      3 vectors produced by pass  2 Test12= 6.86D-14 3.33D-08 XBig12= 3.78D-05 2.43D-03.
      3 vectors produced by pass  3 Test12= 6.86D-14 3.33D-08 XBig12= 5.08D-08 1.37D-04.
      3 vectors produced by pass  4 Test12= 6.86D-14 3.33D-08 XBig12= 2.52D-10 6.43D-06.
      2 vectors produced by pass  5 Test12= 6.86D-14 3.33D-08 XBig12= 4.30D-13 1.73D-07.
 Inverted reduced A of dimension    17 with in-core refinement.
 Calculating GIAO nuclear magnetic shielding tensors.
 SCF GIAO Magnetic shielding tensor (ppm):
      1  H    Isotropic =    30.1085   Anisotropy =     6.0733
   XX=    30.1535   YX=     0.3360   ZX=     0.0000
   XY=     2.5585   YY=    33.6342   ZY=     0.0000
   XZ=     0.0000   YZ=     0.0000   ZZ=    26.5378
   Eigenvalues:    26.5378    29.6303    34.1573
      2  C    Isotropic =   172.6981   Anisotropy =    27.6829
   XX=   165.0132   YX=    -9.8240   ZX=     0.0000
   XY=   -11.3093   YY=   186.8820   ZY=     0.0000
   XZ=     0.0000   YZ=     0.0000   ZZ=   166.1990
   Eigenvalues:   160.7419   166.1990   191.1534
      3  H    Isotropic =    29.9455   Anisotropy =     8.7684
   XX=    30.3636   YX=    -2.0789   ZX=    -3.8243
   XY=    -2.8029   YY=    28.6890   ZY=     1.9543
   XZ=    -4.2339   YZ=     1.3806   ZZ=    30.7839
   Eigenvalues:    26.2666    27.7788    35.7911
      4  H    Isotropic =    29.9455   Anisotropy =     8.7684
   XX=    30.3636   YX=    -2.0789   ZX=     3.8243
   XY=    -2.8029   YY=    28.6890   ZY=    -1.9543
   XZ=     4.2339   YZ=    -1.3806   ZZ=    30.7839
   Eigenvalues:    26.2666    27.7788    35.7911
      5  C    Isotropic =    62.9606   Anisotropy =   132.5703
   XX=    69.9496   YX=   -23.6715   ZX=     0.0000
   XY=   -27.1014   YY=   -32.4087   ZY=     0.0000
   XZ=     0.0000   YZ=     0.0000   ZZ=   151.3408
   Eigenvalues:   -38.3591    75.8999   151.3408
      6  H    Isotropic =    25.6626   Anisotropy =     7.7654
   XX=    29.2948   YX=    -2.1408   ZX=     0.0000
   XY=    -3.9225   YY=    24.8898   ZY=     0.0000
   XZ=     0.0000   YZ=     0.0000   ZZ=    22.8034
   Eigenvalues:    22.8034    23.3450    30.8396
      7  C    Isotropic =    71.5414   Anisotropy =    83.4560
   XX=    93.9738   YX=   -23.5594   ZX=     0.0000
   XY=   -12.6261   YY=    -6.5283   ZY=     0.0000
   XZ=     0.0000   YZ=     0.0000   ZZ=   127.1787
   Eigenvalues:    -9.6862    97.1317   127.1787
      8  H    Isotropic =    25.6891   Anisotropy =     7.1849
   XX=    25.9741   YX=    -0.4316   ZX=     0.0000
   XY=    -2.2813   YY=    30.0706   ZY=     0.0000
   XZ=     0.0000   YZ=     0.0000   ZZ=    21.0226
   Eigenvalues:    21.0226    25.5657    30.4790
      9  Br   Isotropic =  2217.7560   Anisotropy =  1069.0318
   XX=  1924.8008   YX=  -351.5663   ZX=     0.0000
   XY=  -453.4823   YY=  2769.3273   ZY=     0.0000
   XZ=     0.0000   YZ=     0.0000   ZZ=  1959.1400
   Eigenvalues:  1763.6842  1959.1400  2930.4439
 End of Minotr Frequency-dependent properties file   721 does not exist.
 End of Minotr Frequency-dependent properties file   722 does not exist.

 **********************************************************************

            Population analysis using the SCF density.

 **********************************************************************

 Orbital symmetries:
       Occupied  (A') (A') (A') (A") (A') (A') (A') (A') (A') (A')
                 (A") (A') (A') (A") (A') (A') (A") (A') (A') (A')
                 (A') (A') (A') (A") (A') (A') (A") (A') (A")
       Virtual   (A") (A') (A') (A') (A') (A") (A') (A') (A') (A')
                 (A') (A') (A") (A") (A') (A") (A') (A') (A") (A')
                 (A") (A") (A') (A') (A') (A') (A") (A') (A') (A')
                 (A') (A') (A') (A') (A") (A') (A") (A') (A') (A")
                 (A') (A") (A') (A') (A") (A') (A") (A') (A") (A')
                 (A') (A") (A') (A') (A") (A") (A') (A') (A') (A")
                 (A') (A') (A') (A") (A') (A') (A') (A') (A') (A')
                 (A')
 The electronic state is 1-A'.
 Alpha  occ. eigenvalues -- -482.90376 -61.86624 -56.38724 -56.38345 -56.38337
 Alpha  occ. eigenvalues --  -10.23668 -10.20642 -10.19743  -8.57826  -6.53210
 Alpha  occ. eigenvalues --   -6.51965  -6.51926  -2.64786  -2.64435  -2.64404
 Alpha  occ. eigenvalues --   -2.63410  -2.63409  -0.82500  -0.76351  -0.67435
 Alpha  occ. eigenvalues --   -0.56692  -0.45830  -0.44672  -0.42363  -0.38235
 Alpha  occ. eigenvalues --   -0.35871  -0.32633  -0.28045  -0.24189
 Alpha virt. eigenvalues --    0.00653   0.01632   0.11345   0.11979   0.15595
 Alpha virt. eigenvalues --    0.16277   0.16621   0.25735   0.27462   0.34731
 Alpha virt. eigenvalues --    0.42235   0.46614   0.46937   0.47378   0.47835
 Alpha virt. eigenvalues --    0.50145   0.51337   0.52741   0.54368   0.58496
 Alpha virt. eigenvalues --    0.63951   0.68133   0.68446   0.74015   0.76361
 Alpha virt. eigenvalues --    0.82847   0.85140   0.85220   0.86872   0.89655
 Alpha virt. eigenvalues --    0.90487   0.92116   1.13776   1.23971   1.28740
 Alpha virt. eigenvalues --    1.31802   1.41072   1.56168   1.59129   1.62792
 Alpha virt. eigenvalues --    1.81239   1.82534   1.88251   1.95993   2.03191
 Alpha virt. eigenvalues --    2.06264   2.06600   2.11190   2.17336   2.23332
 Alpha virt. eigenvalues --    2.35705   2.39786   2.49159   2.52626   2.53693
 Alpha virt. eigenvalues --    2.58079   2.66689   2.78735   2.83685   2.85312
 Alpha virt. eigenvalues --    2.92391   3.16629   3.37844   3.41172   3.43407
 Alpha virt. eigenvalues --    3.48588   4.15565   4.32370   4.55404   8.60315
 Alpha virt. eigenvalues --   72.63974
          Condensed to atoms (all electrons):
              1          2          3          4          5          6
     1  H    0.587236   0.385391  -0.028665  -0.028665  -0.034683   0.004407
     2  C    0.385391   4.930424   0.378317   0.378317   0.366489  -0.047721
     3  H   -0.028665   0.378317   0.592638  -0.035618  -0.031646  -0.001308
     4  H   -0.028665   0.378317  -0.035618   0.592638  -0.031646  -0.001308
     5  C   -0.034683   0.366489  -0.031646  -0.031646   4.818641   0.382858
     6  H    0.004407  -0.047721  -0.001308  -0.001308   0.382858   0.593748
     7  C   -0.006754  -0.032678  -0.000485  -0.000485   0.654537  -0.043297
     8  H    0.005607  -0.007966   0.000103   0.000103  -0.043457   0.005574
     9  Br   0.000037   0.004525  -0.000093  -0.000093  -0.055366  -0.004354
              7          8          9
     1  H   -0.006754   0.005607   0.000037
     2  C   -0.032678  -0.007966   0.004525
     3  H   -0.000485   0.000103  -0.000093
     4  H   -0.000485   0.000103  -0.000093
     5  C    0.654537  -0.043457  -0.055366
     6  H   -0.043297   0.005574  -0.004354
     7  C    4.889661   0.379533   0.268057
     8  H    0.379533   0.580164  -0.049448
     9  Br   0.268057  -0.049448  34.958608
 Mulliken atomic charges:
              1
     1  H    0.116089
     2  C   -0.355098
     3  H    0.126756
     4  H    0.126756
     5  C   -0.025727
     6  H    0.111399
     7  C   -0.108090
     8  H    0.129787
     9  Br  -0.121872
 Sum of Mulliken atomic charges =   0.00000
 Mulliken charges with hydrogens summed into heavy atoms:
              1
     2  C    0.014503
     5  C    0.085672
     7  C    0.021697
     9  Br  -0.121872
 Sum of Mulliken charges with hydrogens summed into heavy atoms =   0.00000
 Electronic spatial extent (au):  <R**2>=            703.7988
 Charge=              0.0000 electrons
 Dipole moment (field-independent basis, Debye):
    X=             -1.1451    Y=              1.6451    Z=              0.0000  Tot=              2.0044
 Quadrupole moment (field-independent basis, Debye-Ang):
   XX=            -34.5691   YY=            -33.9330   ZZ=            -38.5762
   XY=             -0.9377   XZ=              0.0000   YZ=              0.0000
 Traceless Quadrupole moment (field-independent basis, Debye-Ang):
   XX=              1.1237   YY=              1.7598   ZZ=             -2.8834
   XY=             -0.9377   XZ=              0.0000   YZ=              0.0000
 Octapole moment (field-independent basis, Debye-Ang**2):
  XXX=             17.2844  YYY=            -27.7287  ZZZ=              0.0000  XYY=              8.0951
  XXY=             -6.7509  XXZ=              0.0000  XZZ=              7.3669  YZZ=            -10.2490
  YYZ=              0.0000  XYZ=              0.0000
 Hexadecapole moment (field-independent basis, Debye-Ang**3):
 XXXX=           -343.7506 YYYY=           -445.6400 ZZZZ=            -48.2065 XXXY=            156.0076
 XXXZ=              0.0000 YYYX=            155.4926 YYYZ=              0.0000 ZZZX=              0.0000
 ZZZY=              0.0000 XXYY=           -126.0108 XXZZ=            -65.2733 YYZZ=            -86.5091
 XXYZ=              0.0000 YYXZ=              0.0000 ZZXY=             53.3087
 N-N= 2.126291725730D+02 E-N=-6.830212106408D+03  KE= 2.672162083163D+03
 Symmetry A'   KE= 2.290967041935D+03
 Symmetry A"   KE= 3.811950412280D+02
 1\1\GINC-COMPUTE-1-9\SP\RB3LYP\6-31G(d,p)\C3H5Br1\LPASSAGLIA.IQUIR\01-
 Nov-2024\0\\# b3lyp/6-31g** nmr\\comment\\0,1\H,0,-1.180083,3.134513,0
 .\C,0,-1.935937,2.342621,0.\H,0,-2.575385,2.480986,0.881612\H,0,-2.575
 385,2.480986,-0.881612\C,0,-1.313367,0.974884,0.\H,0,-1.987955,0.12077
 8,0.\C,0,0.,0.766996,0.\H,0,0.745185,1.554489,0.\Br,0,0.773413,-0.9793
 93,0.\\Version=AM64L-G09RevC.01\State=1-A'\HF=-2689.0202912\RMSD=4.102
 e-09\Dipole=-0.4505338,0.6472132,0.\Quadrupole=0.8354125,1.3083585,-2.
 1437711,-0.6971319,0.,0.\PG=CS [SG(C3H3Br1),X(H2)]\\@


 IF YOU BELIEVE CERTAIN WORDS, YOU BELIEVE THEIR HIDDEN ARGUMENTS.
 WHEN YOU BELIEVE SOMETHING IS RIGHT OR WRONG, TRUE OR FALSE, 
 YOU BELIEVE THE ASSUMPTIONS IN THE WORDS WHICH EXPRESS THE ARGUMENTS.
 SUCH ASSUMPTIONS ARE OFTEN FULL OF HOLES, BUT REMAIN MOST PRECIOUS 
 TO THE CONVINCED.

                 -- THE OPEN-ENDED PROOF FROM THE PANOPLIA PROPHETICA
                    CHILDREN OF DUNE BY FRANK HERBERT
 Job cpu time:  0 days  0 hours  2 minutes 37.4 seconds.
 File lengths (MBytes):  RWF=      9 Int=      0 D2E=      0 Chk=      2 Scr=      1
 Normal termination of Gaussian 09 at Fri Nov  1 16:21:42 2024.
