 Entering Gaussian System, Link 0=g09
 Input=/home/mamichetti.iquir/Linux/01_Cardona_A1A3_R__S_R_R_005_OptB.gjc
 Output=/home/mamichetti.iquir/Linux/01_Cardona_A1A3_R__S_R_R_005_OptB.log
 Initial command:
 /opt/ohpc/pub/apps/software/Gaussian/09/AMD64.SSE4a-enabled/g09/l1.exe /local/mamichetti.iquir/Gau-404646.inp -scrdir=/local/mamichetti.iquir/
 Entering Link 1 = /opt/ohpc/pub/apps/software/Gaussian/09/AMD64.SSE4a-enabled/g09/l1.exe PID=    404647.
  
 Copyright (c) 1988,1990,1992,1993,1995,1998,2003,2009,2011,
            Gaussian, Inc.  All Rights Reserved.
  
 This is part of the Gaussian(R) 09 program.  It is based on
 the Gaussian(R) 03 system (copyright 2003, Gaussian, Inc.),
 the Gaussian(R) 98 system (copyright 1998, Gaussian, Inc.),
 the Gaussian(R) 94 system (copyright 1995, Gaussian, Inc.),
 the Gaussian 92(TM) system (copyright 1992, Gaussian, Inc.),
 the Gaussian 90(TM) system (copyright 1990, Gaussian, Inc.),
 the Gaussian 88(TM) system (copyright 1988, Gaussian, Inc.),
 the Gaussian 86(TM) system (copyright 1986, Carnegie Mellon
 University), and the Gaussian 82(TM) system (copyright 1983,
 Carnegie Mellon University). Gaussian is a federally registered
 trademark of Gaussian, Inc.
  
 This software contains proprietary and confidential information,
 including trade secrets, belonging to Gaussian, Inc.
  
 This software is provided under written license and may be
 used, copied, transmitted, or stored only in accord with that
 written license.
  
 The following legend is applicable only to US Government
 contracts under FAR:
  
                    RESTRICTED RIGHTS LEGEND
  
 Use, reproduction and disclosure by the US Government is
 subject to restrictions as set forth in subparagraphs (a)
 and (c) of the Commercial Computer Software - Restricted
 Rights clause in FAR 52.227-19.
  
 Gaussian, Inc.
 340 Quinnipiac St., Bldg. 40, Wallingford CT 06492
  
  
 ---------------------------------------------------------------
 Warning -- This program may not be used in any manner that
 competes with the business of Gaussian, Inc. or will provide
 assistance to any competitor of Gaussian, Inc.  The licensee
 of this program is prohibited from giving any competitor of
 Gaussian, Inc. access to this program.  By using this program,
 the user acknowledges that Gaussian, Inc. is engaged in the
 business of creating and licensing software in the field of
 computational chemistry and represents and warrants to the
 licensee that it is not a competitor of Gaussian, Inc. and that
 it will not use this program in any manner prohibited above.
 ---------------------------------------------------------------
  

 Cite this work as:
 Gaussian 09, Revision C.01,
 M. J. Frisch, G. W. Trucks, H. B. Schlegel, G. E. Scuseria, 
 M. A. Robb, J. R. Cheeseman, G. Scalmani, V. Barone, B. Mennucci, 
 G. A. Petersson, H. Nakatsuji, M. Caricato, X. Li, H. P. Hratchian, 
 A. F. Izmaylov, J. Bloino, G. Zheng, J. L. Sonnenberg, M. Hada, 
 M. Ehara, K. Toyota, R. Fukuda, J. Hasegawa, M. Ishida, T. Nakajima, 
 Y. Honda, O. Kitao, H. Nakai, T. Vreven, J. A. Montgomery, Jr., 
 J. E. Peralta, F. Ogliaro, M. Bearpark, J. J. Heyd, E. Brothers, 
 K. N. Kudin, V. N. Staroverov, T. Keith, R. Kobayashi, J. Normand, 
 K. Raghavachari, A. Rendell, J. C. Burant, S. S. Iyengar, J. Tomasi, 
 M. Cossi, N. Rega, J. M. Millam, M. Klene, J. E. Knox, J. B. Cross, 
 V. Bakken, C. Adamo, J. Jaramillo, R. Gomperts, R. E. Stratmann, 
 O. Yazyev, A. J. Austin, R. Cammi, C. Pomelli, J. W. Ochterski, 
 R. L. Martin, K. Morokuma, V. G. Zakrzewski, G. A. Voth, 
 P. Salvador, J. J. Dannenberg, S. Dapprich, A. D. Daniels, 
 O. Farkas, J. B. Foresman, J. V. Ortiz, J. Cioslowski, 
 and D. J. Fox, Gaussian, Inc., Wallingford CT, 2010.
 
 ******************************************
 Gaussian 09:  AM64L-G09RevC.01 23-Sep-2011
                17-May-2024 
 ******************************************
 %nprocshared=4
 Will use up to    4 processors via shared memory.
 ------------------------------------------------
 # mpw1pw91/6-31+G** nmr scrf=(pcm,solvent=water)
 ------------------------------------------------
 1/38=1/1;
 2/12=2,17=6,18=5,40=1/2;
 3/5=1,6=6,7=111,11=2,16=1,25=1,30=1,70=2201,72=1,74=-7/1,2,8,3;
 4//1;
 5/5=2,38=5,53=1/2;
 8/6=1,10=90,11=11/1;
 10/13=100,45=16/2;
 6/7=2,8=2,9=2,10=2,28=1/1;
 99/9=1/99;
 -------
 comment
 -------
 Charge =  0 Multiplicity = 1
 Symbolic Z-Matrix:
 6                     2.17054   0.07219  -0.44595 
 6                     0.70873   0.03249  -0.91936 
 7                     0.06174  -1.09806  -0.17373 
 6                     1.13003  -1.8401    0.54503 
 6                     2.44011  -1.40304  -0.11972 
 6                    -1.01681  -0.55168   0.69487 
 6                    -0.82018   0.97185   0.72418 
 6                    -0.16455   1.27493  -0.62943 
 1                     2.84659   0.48166  -1.20326 
 1                     2.2636    0.67949   0.45954 
 1                     0.69065  -0.18122  -1.9956 
 1                     0.96833  -2.92307   0.48439 
 1                     1.14282  -1.572     1.61123 
 1                     2.61164  -1.97168  -1.04196 
 1                     3.30511  -1.55304   0.53394 
 1                    -0.90985  -0.94097   1.71482 
 1                    -1.76622   1.51467   0.85143 
 1                    -0.95284   1.35175  -1.38641 
 8                     0.54184   2.51259  -0.53535 
 1                     1.06877   2.6204   -1.34464 
 8                     0.071     1.30182   1.79889 
 1                     0.54867   2.10028   1.50816 
 6                    -2.40735  -0.97635   0.21458 
 1                    -2.49782  -2.069     0.2917 
 1                    -3.17229  -0.53167   0.85992 
 8                    -2.71287  -0.54843  -1.11679 
 1                    -2.02231  -0.92872  -1.68639 
 
                          Input orientation:                          
 ---------------------------------------------------------------------
 Center     Atomic      Atomic             Coordinates (Angstroms)
 Number     Number       Type             X           Y           Z
 ---------------------------------------------------------------------
      1          6           0        2.170544    0.072187   -0.445945
      2          6           0        0.708733    0.032491   -0.919359
      3          7           0        0.061742   -1.098055   -0.173732
      4          6           0        1.130025   -1.840096    0.545030
      5          6           0        2.440107   -1.403043   -0.119719
      6          6           0       -1.016808   -0.551682    0.694865
      7          6           0       -0.820175    0.971847    0.724183
      8          6           0       -0.164548    1.274929   -0.629429
      9          1           0        2.846591    0.481660   -1.203259
     10          1           0        2.263596    0.679492    0.459538
     11          1           0        0.690654   -0.181218   -1.995595
     12          1           0        0.968327   -2.923074    0.484388
     13          1           0        1.142817   -1.571996    1.611227
     14          1           0        2.611641   -1.971679   -1.041964
     15          1           0        3.305114   -1.553044    0.533940
     16          1           0       -0.909853   -0.940967    1.714824
     17          1           0       -1.766217    1.514672    0.851431
     18          1           0       -0.952842    1.351754   -1.386412
     19          8           0        0.541843    2.512592   -0.535347
     20          1           0        1.068771    2.620403   -1.344637
     21          8           0        0.071001    1.301816    1.798887
     22          1           0        0.548669    2.100283    1.508157
     23          6           0       -2.407355   -0.976353    0.214578
     24          1           0       -2.497818   -2.069000    0.291703
     25          1           0       -3.172285   -0.531667    0.859919
     26          8           0       -2.712869   -0.548432   -1.116786
     27          1           0       -2.022307   -0.928724   -1.686388
 ---------------------------------------------------------------------
                    Distance matrix (angstroms):
                    1          2          3          4          5
     1  C    0.000000
     2  C    1.537071   0.000000
     3  N    2.427058   1.500897   0.000000
     4  C    2.391974   2.414230   1.486093   0.000000
     5  C    1.534728   2.387014   2.398448   1.532717   0.000000
     6  C    3.442364   2.434023   1.488709   2.508257   3.652208
     7  C    3.335114   2.433347   2.422504   3.426718   4.120887
     8  C    2.633042   1.546070   2.426916   3.571926   3.770354
     9  H    1.094638   2.202905   3.363155   3.375450   2.211650
    10  H    1.094247   2.176595   2.899804   2.764166   2.168789
    11  H    2.157708   1.097398   2.134316   3.065893   2.841189
    12  H    3.358933   3.282264   2.141428   1.096661   2.200358
    13  H    2.826927   3.027651   2.139958   1.099462   2.169719
    14  H    2.174211   2.766367   2.831789   2.175098   1.096953
    15  H    2.211063   3.371527   3.350713   2.193977   1.094535
    16  H    3.896697   3.241352   2.129628   2.517529   3.847245
    17  H    4.388853   3.384957   3.349438   4.442586   5.210504
    18  H    3.503899   2.172424   2.915740   4.272787   4.550332
    19  O    2.935343   2.515197   3.660333   4.523170   4.371310
    20  H    2.918040   2.647221   4.026420   4.844651   4.423698
    21  O    3.310489   3.067042   3.106556   3.544757   4.075534
    22  H    3.249949   3.192839   3.646260   4.097826   4.301257
    23  C    4.742667   3.466062   2.502406   3.656270   4.877674
    24  H    5.188681   4.020560   2.776817   3.643874   4.999587
    25  H    5.533149   4.306554   3.442116   4.507883   5.763500
    26  O    4.968191   3.476177   2.981594   4.381537   5.317675
    27  H    4.485590   2.995137   2.580709   3.968252   4.753164
                    6          7          8          9         10
     6  C    0.000000
     7  C    1.536445   0.000000
     8  C    2.411765   1.534266   0.000000
     9  H    4.426796   4.171389   3.166309   0.000000
    10  H    3.511726   3.108883   2.726954   1.773109   0.000000
    11  H    3.207997   3.318035   2.172129   2.390663   3.040172
    12  H    3.099768   4.292627   4.488566   4.238896   3.828423
    13  H    2.558269   3.333365   3.851587   3.878361   2.766176
    14  H    4.265983   4.853966   4.291605   2.469836   3.066651
    15  H    4.439328   4.840380   4.624869   2.714429   2.464653
    16  H    1.096950   2.155984   3.310770   4.964871   3.777884
    17  H    2.203621   1.098110   2.194486   5.154305   4.134066
    18  H    2.821148   2.148614   1.095597   3.902089   3.768944
    19  O    3.651382   2.411515   1.428163   3.143669   2.704530
    20  H    4.309447   3.250518   1.960331   2.784754   2.906852
    21  O    2.416122   1.434595   2.439862   4.170064   2.643599
    22  H    3.185134   1.939515   2.399825   3.905402   2.461549
    23  C    1.531222   2.564044   3.287978   5.633827   4.961815
    24  H    2.158283   3.499754   4.180250   6.107658   5.500313
    25  H    2.161880   2.794888   3.811618   6.442857   5.583548
    26  O    2.481675   3.046753   3.171136   5.654747   5.362630
    27  H    2.612193   3.296687   3.069938   5.092029   5.055722
                   11         12         13         14         15
    11  H    0.000000
    12  H    3.707451   0.000000
    13  H    3.892028   1.767944   0.000000
    14  H    2.793806   2.436264   3.058858   0.000000
    15  H    3.887911   2.709245   2.415871   1.771901   0.000000
    16  H    4.111697   2.995043   2.149973   4.589463   4.419850
    17  H    4.125265   5.225518   4.308978   5.908065   5.935493
    18  H    2.328559   5.046280   4.682514   4.885631   5.500527
    19  O    3.067749   5.546910   4.653258   4.964817   5.030749
    20  H    2.901000   5.838284   5.130188   4.853790   5.093912
    21  O    4.120856   4.514731   3.072914   5.024048   4.495531
    22  H    4.183501   5.143766   3.721461   5.228752   4.679090
    23  C    3.887771   3.906117   3.861236   5.268766   5.750380
    24  H    4.354516   3.575015   3.904149   5.281544   5.830858
    25  H    4.816542   4.796303   4.501872   6.256564   6.565529
    26  O    3.534278   4.664106   4.832810   5.511954   6.320622
    27  H    2.830995   4.199237   4.615850   4.793382   5.805260
                   16         17         18         19         20
    16  H    0.000000
    17  H    2.740250   0.000000
    18  H    3.856952   2.386643   0.000000
    19  O    4.370098   2.871609   2.075076   0.000000
    20  H    5.094959   3.752667   2.387077   0.971713   0.000000
    21  O    2.449330   2.078064   3.346174   2.671389   3.551895
    22  H    3.379231   2.476475   3.345648   2.084695   2.946093
    23  C    2.120024   2.649876   3.177870   4.629567   5.239395
    24  H    2.412336   3.700168   4.111518   5.560084   6.114627
    25  H    2.452955   2.482862   3.676847   5.000903   5.725571
    26  O    3.379788   3.004401   2.604055   4.505673   4.939052
    27  H    3.578540   3.532179   2.536596   4.443244   4.718883
                   21         22         23         24         25
    21  O    0.000000
    22  H    0.974803   0.000000
    23  C    3.720529   4.458376   0.000000
    24  H    4.498092   5.305070   1.099095   0.000000
    25  H    3.842164   4.603572   1.095139   1.772334   0.000000
    26  O    4.435595   4.954155   1.431428   2.083798   2.029460
    27  H    4.637282   5.098031   1.940155   2.332206   2.822018
                   26         27
    26  O    0.000000
    27  H    0.972597   0.000000
 Stoichiometry    C8H15NO3
 Framework group  C1[X(C8H15NO3)]
 Deg. of freedom    75
 Full point group                 C1      NOp   1
 Largest Abelian subgroup         C1      NOp   1
 Largest concise Abelian subgroup C1      NOp   1
                         Standard orientation:                         
 ---------------------------------------------------------------------
 Center     Atomic      Atomic             Coordinates (Angstroms)
 Number     Number       Type             X           Y           Z
 ---------------------------------------------------------------------
      1          6           0        2.170544    0.072187   -0.445945
      2          6           0        0.708733    0.032491   -0.919359
      3          7           0        0.061742   -1.098055   -0.173732
      4          6           0        1.130025   -1.840096    0.545030
      5          6           0        2.440107   -1.403043   -0.119719
      6          6           0       -1.016808   -0.551682    0.694865
      7          6           0       -0.820175    0.971847    0.724183
      8          6           0       -0.164548    1.274929   -0.629429
      9          1           0        2.846591    0.481660   -1.203259
     10          1           0        2.263596    0.679492    0.459538
     11          1           0        0.690654   -0.181218   -1.995595
     12          1           0        0.968327   -2.923074    0.484388
     13          1           0        1.142817   -1.571996    1.611227
     14          1           0        2.611641   -1.971679   -1.041964
     15          1           0        3.305114   -1.553044    0.533940
     16          1           0       -0.909853   -0.940967    1.714824
     17          1           0       -1.766217    1.514672    0.851431
     18          1           0       -0.952842    1.351754   -1.386412
     19          8           0        0.541844    2.512592   -0.535347
     20          1           0        1.068772    2.620403   -1.344637
     21          8           0        0.071001    1.301816    1.798887
     22          1           0        0.548669    2.100283    1.508157
     23          6           0       -2.407355   -0.976353    0.214578
     24          1           0       -2.497818   -2.069000    0.291703
     25          1           0       -3.172285   -0.531666    0.859919
     26          8           0       -2.712869   -0.548432   -1.116786
     27          1           0       -2.022307   -0.928724   -1.686388
 ---------------------------------------------------------------------
 Rotational constants (GHZ):      1.1654984      0.9078778      0.6987994
 Standard basis: 6-31+G(d,p) (6D, 7F)
 There are   303 symmetry adapted basis functions of A   symmetry.
 Integral buffers will be    131072 words long.
 Raffenetti 2 integral format.
 Two-electron integral symmetry is turned on.
   303 basis functions,   489 primitive gaussians,   303 cartesian basis functions
    47 alpha electrons       47 beta electrons
       nuclear repulsion energy       817.8105525530 Hartrees.
 NAtoms=   27 NActive=   27 NUniq=   27 SFac= 1.00D+00 NAtFMM=   60 NAOKFM=F Big=F
 ------------------------------------------------------------------------------
 Polarizable Continuum Model (PCM)
 =================================
 Model                : PCM.
 Atomic radii         : UFF (Universal Force Field).
 Polarization charges : Total charges.
 Charge compensation  : None.
 Solution method      : Matrix inversion.
 Cavity type          : Scaled VdW (van der Waals Surface) (Alpha=1.100).
 Cavity algorithm     : GePol (No added spheres)
                        Default sphere list used, NSphG=   27.
                        Lebedev-Laikov grids with approx.  5.0 points / Ang**2.
                        Smoothing algorithm: Karplus/York (Gamma=1.0000).
                        Polarization charges: spherical gaussians, with
                                              point-specific exponents (IZeta= 3).
                        Self-potential: point-specific (ISelfS= 7).
                        Self-field    : sphere-specific E.n sum rule (ISelfD= 2).
 Solvent              : Water, Eps=  78.355300 Eps(inf)=   1.777849
 ------------------------------------------------------------------------------
 One-electron integrals computed using PRISM.
 NBasis=   303 RedAO= T  NBF=   303
 NBsUse=   303 1.00D-06 NBFU=   303
 Harris functional with IExCor=  908 diagonalized for initial guess.
 ExpMin= 4.38D-02 ExpMax= 5.48D+03 ExpMxC= 8.25D+02 IAcc=2 IRadAn=         4 AccDes= 0.00D+00
 HarFok:  IExCor=  908 AccDes= 0.00D+00 IRadAn=         4 IDoV= 1
 ScaDFX=  1.000000  1.000000  1.000000  1.000000
 FoFCou: FMM=F IPFlag=           0 FMFlag=      100000 FMFlg1=           0
         NFxFlg=           0 DoJE=T BraDBF=F KetDBF=T FulRan=T
         Omega=  0.000000  0.000000  1.000000  0.000000  0.000000 ICntrl=     500 IOpCl=  0
         NMat0=    1 NMatS0=    1 NMatT0=    0 NMatD0=    1 NMtDS0=    0 NMtDT0=    0
         I1Cent=           4 NGrid=           0.
 Petite list used in FoFCou.
 Initial guess orbital symmetries:
       Occupied  (A) (A) (A) (A) (A) (A) (A) (A) (A) (A) (A) (A)
                 (A) (A) (A) (A) (A) (A) (A) (A) (A) (A) (A) (A)
                 (A) (A) (A) (A) (A) (A) (A) (A) (A) (A) (A) (A)
                 (A) (A) (A) (A) (A) (A) (A) (A) (A) (A) (A)
       Virtual   (A) (A) (A) (A) (A) (A) (A) (A) (A) (A) (A) (A)
                 (A) (A) (A) (A) (A) (A) (A) (A) (A) (A) (A) (A)
                 (A) (A) (A) (A) (A) (A) (A) (A) (A) (A) (A) (A)
                 (A) (A) (A) (A) (A) (A) (A) (A) (A) (A) (A) (A)
                 (A) (A) (A) (A) (A) (A) (A) (A) (A) (A) (A) (A)
                 (A) (A) (A) (A) (A) (A) (A) (A) (A) (A) (A) (A)
                 (A) (A) (A) (A) (A) (A) (A) (A) (A) (A) (A) (A)
                 (A) (A) (A) (A) (A) (A) (A) (A) (A) (A) (A) (A)
                 (A) (A) (A) (A) (A) (A) (A) (A) (A) (A) (A) (A)
                 (A) (A) (A) (A) (A) (A) (A) (A) (A) (A) (A) (A)
                 (A) (A) (A) (A) (A) (A) (A) (A) (A) (A) (A) (A)
                 (A) (A) (A) (A) (A) (A) (A) (A) (A) (A) (A) (A)
                 (A) (A) (A) (A) (A) (A) (A) (A) (A) (A) (A) (A)
                 (A) (A) (A) (A) (A) (A) (A) (A) (A) (A) (A) (A)
                 (A) (A) (A) (A) (A) (A) (A) (A) (A) (A) (A) (A)
                 (A) (A) (A) (A) (A) (A) (A) (A) (A) (A) (A) (A)
                 (A) (A) (A) (A) (A) (A) (A) (A) (A) (A) (A) (A)
                 (A) (A) (A) (A) (A) (A) (A) (A) (A) (A) (A) (A)
                 (A) (A) (A) (A) (A) (A) (A) (A) (A) (A) (A) (A)
                 (A) (A) (A) (A) (A) (A) (A) (A) (A) (A) (A) (A)
                 (A) (A) (A) (A) (A) (A) (A) (A) (A) (A) (A) (A)
                 (A) (A) (A) (A)
 The electronic state of the initial guess is 1-A.
 Requested convergence on RMS density matrix=1.00D-08 within 128 cycles.
 Requested convergence on MAX density matrix=1.00D-06.
 Requested convergence on             energy=1.00D-06.
 No special actions if energy rises.
 Error on total polarization charges =  0.01423
 SCF Done:  E(RmPW1PW91) =  -594.195406619     A.U. after   13 cycles
             Convg  =    0.3626D-08             -V/T =  2.0094
 Range of M.O.s used for correlation:     1   303
 NBasis=   303 NAE=    47 NBE=    47 NFC=     0 NFV=     0
 NROrb=    303 NOA=    47 NOB=    47 NVA=   256 NVB=   256

 **** Warning!!: The largest alpha MO coefficient is  0.70547606D+02

 NEqPCM:  Using equilibrium solvation (IEInf=0, Eps=  78.3553, EpsInf=   1.7778)
          Differentiating once with respect to magnetic field using GIAOs.
          Electric field/nuclear overlap derivatives assumed to be zero.
 FoFCou: FMM=F IPFlag=           0 FMFlag=    10101102 FMFlg1=           0
         NFxFlg=    40000000 DoJE=F BraDBF=F KetDBF=T FulRan=T
         Omega=  0.000000  0.000000  1.000000  0.000000  0.000000 ICntrl=    6100 IOpCl=  0
         NMat0=    1 NMatS0=    1 NMatT0=    0 NMatD0=    1 NMtDS0=    0 NMtDT0=    0
         I1Cent=           7 NGrid=        1811.
 Symmetry not used in FoFCou.
          There are     3 degrees of freedom in the 1st order CPHF.  IDoFFX=0.
      3 vectors produced by pass  0 Test12= 4.01D-13 3.33D-08 XBig12= 2.88D+01 1.18D+00.
 AX will form     3 AO Fock derivatives at one time.
      3 vectors produced by pass  1 Test12= 4.01D-13 3.33D-08 XBig12= 6.86D-02 4.46D-02.
      3 vectors produced by pass  2 Test12= 4.01D-13 3.33D-08 XBig12= 1.55D-04 3.55D-03.
      3 vectors produced by pass  3 Test12= 4.01D-13 3.33D-08 XBig12= 6.37D-07 2.00D-04.
      3 vectors produced by pass  4 Test12= 4.01D-13 3.33D-08 XBig12= 2.10D-09 8.44D-06.
      3 vectors produced by pass  5 Test12= 4.01D-13 3.33D-08 XBig12= 7.69D-12 4.01D-07.
 Inverted reduced A of dimension    18 with in-core refinement.
 Calculating GIAO nuclear magnetic shielding tensors.
 SCF GIAO Magnetic shielding tensor (ppm):
      1  C    Isotropic =   165.6053   Anisotropy =    17.2143
   XX=   174.8873   YX=    -4.3508   ZX=     2.1702
   XY=     1.9157   YY=   169.4441   ZY=   -13.1214
   XZ=     4.7996   YZ=    -6.0506   ZZ=   152.4844
   Eigenvalues:   147.8978   171.8365   177.0815
      2  C    Isotropic =   124.5006   Anisotropy =    55.1555
   XX=   132.0643   YX=     5.2105   ZX=   -17.8088
   XY=    15.4174   YY=   147.2197   ZY=   -22.5461
   XZ=    -3.2759   YZ=   -21.3245   ZZ=    94.2179
   Eigenvalues:    85.3829   126.8481   161.2709
      3  N    Isotropic =   199.2923   Anisotropy =    76.7102
   XX=   215.2498   YX=   -10.7308   ZX=   -40.2596
   XY=   -22.1848   YY=   211.2635   ZY=   -38.8711
   XZ=   -62.6218   YZ=   -31.2899   ZZ=   171.3635
   Eigenvalues:   121.0425   226.4019   250.4324
      4  C    Isotropic =   136.1088   Anisotropy =    64.7954
   XX=   159.9105   YX=   -20.1128   ZX=    12.5001
   XY=   -28.5461   YY=   120.3841   ZY=   -14.5953
   XZ=    11.2141   YZ=   -26.3806   ZZ=   128.0319
   Eigenvalues:   100.6432   128.3776   179.3057
      5  C    Isotropic =   165.9058   Anisotropy =    22.6884
   XX=   177.1174   YX=    -1.2322   ZX=    -2.9438
   XY=    -7.2137   YY=   172.6257   ZY=   -18.8484
   XZ=    -9.7352   YZ=   -13.5636   ZZ=   147.9743
   Eigenvalues:   138.4617   178.2243   181.0314
      6  C    Isotropic =   119.0365   Anisotropy =    31.9509
   XX=   121.6292   YX=    -8.4854   ZX=   -15.5712
   XY=   -14.3348   YY=   112.7182   ZY=     3.2358
   XZ=    -6.2544   YZ=    13.8882   ZZ=   122.7623
   Eigenvalues:   104.8419   111.9306   140.3372
      7  C    Isotropic =   114.8020   Anisotropy =    23.6085
   XX=   113.8107   YX=     5.8427   ZX=    14.3598
   XY=     5.8116   YY=   115.5994   ZY=    10.5349
   XZ=     2.9791   YZ=     7.3185   ZZ=   114.9958
   Eigenvalues:   104.9725   108.8924   130.5410
      8  C    Isotropic =   119.9723   Anisotropy =    50.6229
   XX=   113.8876   YX=    14.6385   ZX=   -13.0081
   XY=    15.8011   YY=   146.2707   ZY=     0.3396
   XZ=   -17.2329   YZ=    -6.5436   ZZ=    99.7586
   Eigenvalues:    89.5231   116.6729   153.7209
      9  H    Isotropic =    30.0530   Anisotropy =    10.4628
   XX=    32.4735   YX=     1.8813   ZX=    -4.5781
   XY=     2.2493   YY=    29.0379   ZY=    -3.1292
   XZ=    -4.6937   YZ=    -2.8316   ZZ=    28.6477
   Eigenvalues:    24.9587    28.1722    37.0283
     10  H    Isotropic =    29.4841   Anisotropy =     6.3731
   XX=    30.0187   YX=    -0.4833   ZX=     1.3360
   XY=    -0.3071   YY=    30.3196   ZY=     4.0366
   XZ=     1.7676   YZ=     4.4806   ZZ=    28.1140
   Eigenvalues:    24.4286    30.2909    33.7329
     11  H    Isotropic =    27.8888   Anisotropy =     7.6893
   XX=    25.7524   YX=     0.6896   ZX=    -0.5553
   XY=     0.6295   YY=    24.9414   ZY=    -0.5380
   XZ=     0.5851   YZ=    -0.6303   ZZ=    32.9725
   Eigenvalues:    24.5408    26.1106    33.0150
     12  H    Isotropic =    28.1190   Anisotropy =     9.8865
   XX=    26.7257   YX=    -1.5942   ZX=     0.3098
   XY=    -0.4563   YY=    34.1157   ZY=    -1.9952
   XZ=     0.5105   YZ=    -2.4468   ZZ=    23.5156
   Eigenvalues:    23.0578    26.5892    34.7101
     13  H    Isotropic =    28.5950   Anisotropy =     7.8600
   XX=    27.4045   YX=    -2.1799   ZX=     1.9865
   XY=    -2.5478   YY=    26.1833   ZY=    -2.7385
   XZ=     0.6886   YZ=    -2.3518   ZZ=    32.1971
   Eigenvalues:    24.1404    27.8095    33.8350
     14  H    Isotropic =    29.7321   Anisotropy =    11.1043
   XX=    28.4804   YX=    -2.8788   ZX=    -3.8950
   XY=    -2.9847   YY=    30.9739   ZY=     3.7789
   XZ=    -4.1267   YZ=     4.1995   ZZ=    29.7420
   Eigenvalues:    25.0066    27.0547    37.1350
     15  H    Isotropic =    29.5336   Anisotropy =    11.5657
   XX=    34.3455   YX=    -2.6414   ZX=     3.8190
   XY=    -3.4725   YY=    27.1850   ZY=    -2.0553
   XZ=     3.8749   YZ=    -1.6021   ZZ=    27.0705
   Eigenvalues:    25.1606    26.1962    37.2441
     16  H    Isotropic =    28.6643   Anisotropy =     5.0420
   XX=    28.5825   YX=     0.7198   ZX=    -2.6024
   XY=     0.4214   YY=    26.8395   ZY=    -1.4967
   XZ=    -0.7682   YZ=    -1.5259   ZZ=    30.5710
   Eigenvalues:    26.3038    27.6636    32.0257
     17  H    Isotropic =    27.3013   Anisotropy =     7.2277
   XX=    31.4205   YX=    -2.6341   ZX=     0.2591
   XY=    -1.6888   YY=    25.4365   ZY=     2.1700
   XZ=     1.3856   YZ=     2.6397   ZZ=    25.0471
   Eigenvalues:    22.3462    27.4380    32.1198
     18  H    Isotropic =    26.8773   Anisotropy =     5.3158
   XX=    27.7141   YX=     0.5148   ZX=     4.8864
   XY=     2.2483   YY=    27.7374   ZY=    -0.6918
   XZ=     2.5984   YZ=    -2.3999   ZZ=    25.1804
   Eigenvalues:    21.7820    28.4287    30.4211
     19  O    Isotropic =   306.4688   Anisotropy =    48.0516
   XX=   292.9805   YX=   -10.7195   ZX=   -14.5074
   XY=     1.5336   YY=   310.2498   ZY=    -5.4963
   XZ=   -41.1501   YZ=   -24.4260   ZZ=   316.1760
   Eigenvalues:   270.5782   310.3248   338.5032
     20  H    Isotropic =    29.8913   Anisotropy =    18.9990
   XX=    27.3797   YX=     4.3918   ZX=    -9.2239
   XY=     4.0977   YY=    28.5794   ZY=    -3.9002
   XZ=    -8.9863   YZ=    -4.1580   ZZ=    33.7147
   Eigenvalues:    20.7021    26.4143    42.5573
     21  O    Isotropic =   302.9808   Anisotropy =    44.1630
   XX=   303.7953   YX=    20.9314   ZX=    11.3822
   XY=     5.3857   YY=   324.6786   ZY=   -13.8375
   XZ=    -5.8190   YZ=    -7.4437   ZZ=   280.4685
   Eigenvalues:   276.7222   299.7974   332.4228
     22  H    Isotropic =    28.6435   Anisotropy =    16.2032
   XX=    23.7810   YX=     9.3681   ZX=    -1.6282
   XY=     9.4201   YY=    33.3727   ZY=    -1.9759
   XZ=     0.2955   YZ=    -1.5489   ZZ=    28.7768
   Eigenvalues:    18.0176    28.4671    39.4456
     23  C    Isotropic =   127.2904   Anisotropy =    36.8136
   XX=   123.6366   YX=     6.9764   ZX=     6.0641
   XY=     2.7352   YY=   112.6686   ZY=    -9.4425
   XZ=    15.4325   YZ=   -12.4980   ZZ=   145.5659
   Eigenvalues:   105.6238   124.4145   151.8328
     24  H    Isotropic =    27.8668   Anisotropy =     8.0669
   XX=    26.6968   YX=     3.5387   ZX=     1.4231
   XY=     3.2078   YY=    29.9891   ZY=    -2.9817
   XZ=     0.7640   YZ=    -4.2543   ZZ=    26.9146
   Eigenvalues:    22.4643    27.8914    33.2447
     25  H    Isotropic =    28.0440   Anisotropy =     7.2026
   XX=    31.0774   YX=     0.6633   ZX=    -2.1337
   XY=     0.2411   YY=    23.9793   ZY=    -0.5380
   XZ=    -2.9917   YZ=     0.4421   ZZ=    29.0754
   Eigenvalues:    23.9475    27.3389    32.8457
     26  O    Isotropic =   314.5957   Anisotropy =    38.9819
   XX=   324.3911   YX=     1.7431   ZX=   -31.2381
   XY=    -7.8272   YY=   302.5558   ZY=    -9.8749
   XZ=    -7.9591   YZ=     4.3368   ZZ=   316.8404
   Eigenvalues:   297.4219   305.7816   340.5837
     27  H    Isotropic =    30.1326   Anisotropy =    13.5607
   XX=    33.2446   YX=    -4.5468   ZX=    -2.8418
   XY=    -2.7785   YY=    23.5799   ZY=     4.7230
   XZ=    -4.2667   YZ=     4.4855   ZZ=    33.5734
   Eigenvalues:    21.3486    29.8762    39.1731
 End of Minotr Frequency-dependent properties file   721 does not exist.
 End of Minotr Frequency-dependent properties file   722 does not exist.

 **********************************************************************

            Population analysis using the SCF density.

 **********************************************************************

 Orbital symmetries:
       Occupied  (A) (A) (A) (A) (A) (A) (A) (A) (A) (A) (A) (A)
                 (A) (A) (A) (A) (A) (A) (A) (A) (A) (A) (A) (A)
                 (A) (A) (A) (A) (A) (A) (A) (A) (A) (A) (A) (A)
                 (A) (A) (A) (A) (A) (A) (A) (A) (A) (A) (A)
       Virtual   (A) (A) (A) (A) (A) (A) (A) (A) (A) (A) (A) (A)
                 (A) (A) (A) (A) (A) (A) (A) (A) (A) (A) (A) (A)
                 (A) (A) (A) (A) (A) (A) (A) (A) (A) (A) (A) (A)
                 (A) (A) (A) (A) (A) (A) (A) (A) (A) (A) (A) (A)
                 (A) (A) (A) (A) (A) (A) (A) (A) (A) (A) (A) (A)
                 (A) (A) (A) (A) (A) (A) (A) (A) (A) (A) (A) (A)
                 (A) (A) (A) (A) (A) (A) (A) (A) (A) (A) (A) (A)
                 (A) (A) (A) (A) (A) (A) (A) (A) (A) (A) (A) (A)
                 (A) (A) (A) (A) (A) (A) (A) (A) (A) (A) (A) (A)
                 (A) (A) (A) (A) (A) (A) (A) (A) (A) (A) (A) (A)
                 (A) (A) (A) (A) (A) (A) (A) (A) (A) (A) (A) (A)
                 (A) (A) (A) (A) (A) (A) (A) (A) (A) (A) (A) (A)
                 (A) (A) (A) (A) (A) (A) (A) (A) (A) (A) (A) (A)
                 (A) (A) (A) (A) (A) (A) (A) (A) (A) (A) (A) (A)
                 (A) (A) (A) (A) (A) (A) (A) (A) (A) (A) (A) (A)
                 (A) (A) (A) (A) (A) (A) (A) (A) (A) (A) (A) (A)
                 (A) (A) (A) (A) (A) (A) (A) (A) (A) (A) (A) (A)
                 (A) (A) (A) (A) (A) (A) (A) (A) (A) (A) (A) (A)
                 (A) (A) (A) (A) (A) (A) (A) (A) (A) (A) (A) (A)
                 (A) (A) (A) (A) (A) (A) (A) (A) (A) (A) (A) (A)
                 (A) (A) (A) (A) (A) (A) (A) (A) (A) (A) (A) (A)
                 (A) (A) (A) (A)
 The electronic state is 1-A.
 Alpha  occ. eigenvalues --  -19.26711 -19.25467 -19.25117 -14.41365 -10.30540
 Alpha  occ. eigenvalues --  -10.30285 -10.29368 -10.28060 -10.27754 -10.26836
 Alpha  occ. eigenvalues --  -10.24561 -10.24334  -1.07937  -1.05655  -1.04718
 Alpha  occ. eigenvalues --   -0.96020  -0.82746  -0.78905  -0.75434  -0.71828
 Alpha  occ. eigenvalues --   -0.66679  -0.60982  -0.60462  -0.59025  -0.54082
 Alpha  occ. eigenvalues --   -0.53367  -0.51919  -0.50784  -0.49482  -0.46663
 Alpha  occ. eigenvalues --   -0.45945  -0.44648  -0.44176  -0.41364  -0.40782
 Alpha  occ. eigenvalues --   -0.39568  -0.38469  -0.37098  -0.36400  -0.35869
 Alpha  occ. eigenvalues --   -0.35503  -0.34301  -0.33105  -0.30815  -0.29688
 Alpha  occ. eigenvalues --   -0.28959  -0.23107
 Alpha virt. eigenvalues --    0.00056   0.01400   0.02073   0.02432   0.03491
 Alpha virt. eigenvalues --    0.04309   0.04718   0.05029   0.05362   0.06863
 Alpha virt. eigenvalues --    0.07820   0.08569   0.08850   0.08996   0.09507
 Alpha virt. eigenvalues --    0.09916   0.10894   0.11916   0.12184   0.12249
 Alpha virt. eigenvalues --    0.13341   0.13667   0.14484   0.15091   0.15793
 Alpha virt. eigenvalues --    0.16012   0.16457   0.17264   0.17553   0.17903
 Alpha virt. eigenvalues --    0.18766   0.18957   0.20508   0.21017   0.21626
 Alpha virt. eigenvalues --    0.21837   0.22181   0.22527   0.22820   0.23137
 Alpha virt. eigenvalues --    0.23555   0.24276   0.24820   0.25489   0.25937
 Alpha virt. eigenvalues --    0.26337   0.27087   0.27543   0.28323   0.29067
 Alpha virt. eigenvalues --    0.29214   0.30023   0.30759   0.31366   0.32073
 Alpha virt. eigenvalues --    0.32176   0.33356   0.34303   0.34421   0.35042
 Alpha virt. eigenvalues --    0.35173   0.36206   0.37468   0.37846   0.38721
 Alpha virt. eigenvalues --    0.39665   0.40014   0.40466   0.41723   0.42133
 Alpha virt. eigenvalues --    0.43475   0.44468   0.44741   0.46025   0.47429
 Alpha virt. eigenvalues --    0.49583   0.64736   0.66123   0.68216   0.69514
 Alpha virt. eigenvalues --    0.69953   0.70984   0.72155   0.72650   0.74012
 Alpha virt. eigenvalues --    0.75247   0.76024   0.79721   0.80339   0.80670
 Alpha virt. eigenvalues --    0.83179   0.83862   0.84609   0.85266   0.88964
 Alpha virt. eigenvalues --    0.91303   0.93129   0.94045   0.95027   0.97163
 Alpha virt. eigenvalues --    0.98914   0.99870   1.01452   1.04280   1.04945
 Alpha virt. eigenvalues --    1.06103   1.07060   1.07952   1.09547   1.10707
 Alpha virt. eigenvalues --    1.11820   1.12133   1.13188   1.13664   1.15385
 Alpha virt. eigenvalues --    1.16887   1.17951   1.19359   1.23051   1.25047
 Alpha virt. eigenvalues --    1.26310   1.29019   1.30785   1.31940   1.33482
 Alpha virt. eigenvalues --    1.34800   1.36175   1.39176   1.40571   1.42284
 Alpha virt. eigenvalues --    1.43018   1.44825   1.50043   1.51661   1.52608
 Alpha virt. eigenvalues --    1.53849   1.55849   1.57778   1.58695   1.61222
 Alpha virt. eigenvalues --    1.65118   1.65805   1.66657   1.68528   1.72316
 Alpha virt. eigenvalues --    1.72852   1.75232   1.76225   1.77649   1.79124
 Alpha virt. eigenvalues --    1.80644   1.83782   1.84909   1.85884   1.87771
 Alpha virt. eigenvalues --    1.88513   1.88856   1.90610   1.92969   1.96131
 Alpha virt. eigenvalues --    1.96793   2.00236   2.01036   2.03848   2.05003
 Alpha virt. eigenvalues --    2.06003   2.06858   2.09953   2.10749   2.11961
 Alpha virt. eigenvalues --    2.14101   2.15446   2.15978   2.16762   2.19401
 Alpha virt. eigenvalues --    2.20675   2.22437   2.24653   2.26915   2.29692
 Alpha virt. eigenvalues --    2.29946   2.33489   2.35129   2.35863   2.40565
 Alpha virt. eigenvalues --    2.41384   2.44038   2.45161   2.46541   2.49501
 Alpha virt. eigenvalues --    2.50385   2.51513   2.52638   2.54080   2.55618
 Alpha virt. eigenvalues --    2.57445   2.59340   2.60580   2.61819   2.63098
 Alpha virt. eigenvalues --    2.64297   2.65859   2.67844   2.68502   2.69542
 Alpha virt. eigenvalues --    2.71491   2.72001   2.75158   2.77545   2.78895
 Alpha virt. eigenvalues --    2.79510   2.80062   2.81778   2.83969   2.84731
 Alpha virt. eigenvalues --    2.86188   2.87256   2.88510   2.90409   2.95496
 Alpha virt. eigenvalues --    2.97107   2.98305   3.00614   3.01463   3.02230
 Alpha virt. eigenvalues --    3.06970   3.08308   3.10820   3.16449   3.32442
 Alpha virt. eigenvalues --    3.34375   3.36780   3.37236   3.44312   3.45508
 Alpha virt. eigenvalues --    3.47507   3.50161   3.50913   3.53029   3.56345
 Alpha virt. eigenvalues --    3.57197   3.58627   3.59411   3.62523   4.29394
 Alpha virt. eigenvalues --    4.33107   4.41940   4.49196   4.53207   4.54549
 Alpha virt. eigenvalues --    4.63200   4.72545   4.79190   4.84141   4.88327
 Alpha virt. eigenvalues --    4.94932
          Condensed to atoms (all electrons):
              1          2          3          4          5          6
     1  C    6.098110  -0.820064   0.126961  -0.203827   0.017808   0.262198
     2  C   -0.820064   8.175117  -0.210762  -0.197180   0.271291  -0.891722
     3  N    0.126961  -0.210762   7.454162   0.130625  -0.198460   0.041740
     4  C   -0.203827  -0.197180   0.130625   5.535149   0.225557  -0.091136
     5  C    0.017808   0.271291  -0.198460   0.225557   5.622328  -0.017442
     6  C    0.262198  -0.891722   0.041740  -0.091136  -0.017442   8.713077
     7  C   -0.382465   0.896559  -0.283941  -0.094755   0.068671  -1.229279
     8  C    0.303370  -0.849121   0.051990   0.132528  -0.104319   0.016075
     9  H    0.373908  -0.050204   0.015119   0.025900  -0.024329   0.000273
    10  H    0.504513  -0.177467   0.028142   0.015820  -0.086749   0.003346
    11  H    0.047777   0.173519  -0.023587   0.000503  -0.032196   0.054374
    12  H    0.027830  -0.008257  -0.056741   0.384093  -0.044685   0.022881
    13  H    0.002984   0.012317  -0.072879   0.435892  -0.021481  -0.042708
    14  H   -0.012403  -0.033181   0.015344  -0.039074   0.386561   0.000773
    15  H   -0.067290   0.048252   0.005529  -0.031331   0.393697  -0.005255
    16  H   -0.006663   0.018089  -0.040315   0.026160   0.006573   0.231187
    17  H    0.000758   0.023123   0.015359  -0.006294  -0.000418  -0.113123
    18  H    0.003933  -0.024154   0.016561   0.002488   0.001503   0.016074
    19  O    0.007212  -0.137676   0.018557  -0.011868   0.025206   0.097206
    20  H    0.001540  -0.038477   0.000683   0.001419   0.002094  -0.009842
    21  O   -0.003813   0.065567   0.028427  -0.022156  -0.022372  -0.108676
    22  H    0.003762  -0.027073  -0.001647   0.001505   0.002064   0.038701
    23  C    0.066866  -0.147411   0.050413  -0.083436  -0.028741  -0.633324
    24  H   -0.000767   0.005402  -0.004472   0.005964   0.003402  -0.078191
    25  H    0.001637   0.004179   0.016170   0.000462  -0.000232  -0.133682
    26  O    0.001161  -0.013463   0.044909   0.011151   0.000583  -0.241309
    27  H    0.007173  -0.002052   0.031723   0.007664  -0.001570  -0.032871
              7          8          9         10         11         12
     1  C   -0.382465   0.303370   0.373908   0.504513   0.047777   0.027830
     2  C    0.896559  -0.849121  -0.050204  -0.177467   0.173519  -0.008257
     3  N   -0.283941   0.051990   0.015119   0.028142  -0.023587  -0.056741
     4  C   -0.094755   0.132528   0.025900   0.015820   0.000503   0.384093
     5  C    0.068671  -0.104319  -0.024329  -0.086749  -0.032196  -0.044685
     6  C   -1.229279   0.016075   0.000273   0.003346   0.054374   0.022881
     7  C    7.052001  -0.445627  -0.007659  -0.000777  -0.021923  -0.009764
     8  C   -0.445627   6.239281   0.005279   0.032540   0.054543   0.002013
     9  H   -0.007659   0.005279   0.521300  -0.024783  -0.003981  -0.000092
    10  H   -0.000777   0.032540  -0.024783   0.516487   0.004279  -0.000056
    11  H   -0.021923   0.054543  -0.003981   0.004279   0.568065   0.000337
    12  H   -0.009764   0.002013  -0.000092  -0.000056   0.000337   0.557872
    13  H    0.018494  -0.003642  -0.000153   0.001302  -0.000449  -0.042955
    14  H    0.001898   0.002484  -0.004915   0.004239   0.001212  -0.006735
    15  H    0.003897  -0.005536   0.000066  -0.005235  -0.000079   0.001417
    16  H    0.072305   0.019632   0.000002  -0.000056  -0.000259  -0.000696
    17  H    0.317163   0.032200   0.000007  -0.000058  -0.000103   0.000007
    18  H   -0.051491   0.357872  -0.000090   0.000008  -0.007288   0.000006
    19  O   -0.216044   0.286904  -0.001274  -0.000250   0.001186   0.000065
    20  H    0.033914   0.017198   0.000132  -0.000154   0.001117   0.000000
    21  O    0.306242  -0.107296   0.000805   0.001261  -0.000886   0.000210
    22  H   -0.016329  -0.022277  -0.000002  -0.000105  -0.000043  -0.000004
    23  C   -0.046200   0.085903   0.000361   0.000706   0.013680   0.013772
    24  H    0.021928  -0.003115   0.000000   0.000000  -0.000010  -0.000002
    25  H   -0.005027   0.004376   0.000000   0.000000  -0.000012  -0.000011
    26  O    0.088527   0.016379   0.000006   0.000008  -0.000649   0.000049
    27  H   -0.030864   0.009067  -0.000002   0.000000  -0.000558  -0.000051
             13         14         15         16         17         18
     1  C    0.002984  -0.012403  -0.067290  -0.006663   0.000758   0.003933
     2  C    0.012317  -0.033181   0.048252   0.018089   0.023123  -0.024154
     3  N   -0.072879   0.015344   0.005529  -0.040315   0.015359   0.016561
     4  C    0.435892  -0.039074  -0.031331   0.026160  -0.006294   0.002488
     5  C   -0.021481   0.386561   0.393697   0.006573  -0.000418   0.001503
     6  C   -0.042708   0.000773  -0.005255   0.231187  -0.113123   0.016074
     7  C    0.018494   0.001898   0.003897   0.072305   0.317163  -0.051491
     8  C   -0.003642   0.002484  -0.005536   0.019632   0.032200   0.357872
     9  H   -0.000153  -0.004915   0.000066   0.000002   0.000007  -0.000090
    10  H    0.001302   0.004239  -0.005235  -0.000056  -0.000058   0.000008
    11  H   -0.000449   0.001212  -0.000079  -0.000259  -0.000103  -0.007288
    12  H   -0.042955  -0.006735   0.001417  -0.000696   0.000007   0.000006
    13  H    0.564605   0.004047  -0.005337   0.007959  -0.000094   0.000010
    14  H    0.004047   0.527011  -0.024781  -0.000011   0.000000   0.000005
    15  H   -0.005337  -0.024781   0.514116  -0.000023   0.000000   0.000002
    16  H    0.007959  -0.000011  -0.000023   0.546115  -0.000158  -0.000178
    17  H   -0.000094   0.000000   0.000000  -0.000158   0.580121  -0.003443
    18  H    0.000010   0.000005   0.000002  -0.000178  -0.003443   0.551360
    19  O    0.000002   0.000125   0.000040  -0.001014   0.002444  -0.035840
    20  H   -0.000001  -0.000002   0.000000   0.000006  -0.000169  -0.004317
    21  O    0.000019  -0.000045   0.000030  -0.006785  -0.047735   0.007379
    22  H    0.000146  -0.000001  -0.000002   0.000417  -0.001003   0.000537
    23  C   -0.014411   0.001014   0.000030  -0.051080   0.041999  -0.014172
    24  H    0.000044   0.000001   0.000000  -0.001304   0.000038  -0.000022
    25  H    0.000013   0.000000   0.000000   0.001185   0.001675   0.000083
    26  O   -0.000037   0.000001   0.000002   0.010697   0.000029  -0.000917
    27  H    0.000016   0.000001   0.000000   0.000050   0.000045  -0.001103
             19         20         21         22         23         24
     1  C    0.007212   0.001540  -0.003813   0.003762   0.066866  -0.000767
     2  C   -0.137676  -0.038477   0.065567  -0.027073  -0.147411   0.005402
     3  N    0.018557   0.000683   0.028427  -0.001647   0.050413  -0.004472
     4  C   -0.011868   0.001419  -0.022156   0.001505  -0.083436   0.005964
     5  C    0.025206   0.002094  -0.022372   0.002064  -0.028741   0.003402
     6  C    0.097206  -0.009842  -0.108676   0.038701  -0.633324  -0.078191
     7  C   -0.216044   0.033914   0.306242  -0.016329  -0.046200   0.021928
     8  C    0.286904   0.017198  -0.107296  -0.022277   0.085903  -0.003115
     9  H   -0.001274   0.000132   0.000805  -0.000002   0.000361   0.000000
    10  H   -0.000250  -0.000154   0.001261  -0.000105   0.000706   0.000000
    11  H    0.001186   0.001117  -0.000886  -0.000043   0.013680  -0.000010
    12  H    0.000065   0.000000   0.000210  -0.000004   0.013772  -0.000002
    13  H    0.000002  -0.000001   0.000019   0.000146  -0.014411   0.000044
    14  H    0.000125  -0.000002  -0.000045  -0.000001   0.001014   0.000001
    15  H    0.000040   0.000000   0.000030  -0.000002   0.000030   0.000000
    16  H   -0.001014   0.000006  -0.006785   0.000417  -0.051080  -0.001304
    17  H    0.002444  -0.000169  -0.047735  -0.001003   0.041999   0.000038
    18  H   -0.035840  -0.004317   0.007379   0.000537  -0.014172  -0.000022
    19  O    8.278176   0.242445  -0.005572   0.023874   0.006472  -0.000030
    20  H    0.242445   0.361211  -0.000500  -0.000830  -0.000635   0.000000
    21  O   -0.005572  -0.000500   8.215823   0.251986   0.011928  -0.000516
    22  H    0.023874  -0.000830   0.251986   0.364503  -0.004873   0.000005
    23  C    0.006472  -0.000635   0.011928  -0.004873   5.848955   0.411149
    24  H   -0.000030   0.000000  -0.000516   0.000005   0.411149   0.572077
    25  H    0.000013   0.000000   0.000040  -0.000009   0.484276  -0.035004
    26  O   -0.002517   0.000146  -0.002266   0.000133   0.212839  -0.049671
    27  H    0.000164  -0.000004  -0.000088   0.000001   0.011236  -0.005483
             25         26         27
     1  C    0.001637   0.001161   0.007173
     2  C    0.004179  -0.013463  -0.002052
     3  N    0.016170   0.044909   0.031723
     4  C    0.000462   0.011151   0.007664
     5  C   -0.000232   0.000583  -0.001570
     6  C   -0.133682  -0.241309  -0.032871
     7  C   -0.005027   0.088527  -0.030864
     8  C    0.004376   0.016379   0.009067
     9  H    0.000000   0.000006  -0.000002
    10  H    0.000000   0.000008   0.000000
    11  H   -0.000012  -0.000649  -0.000558
    12  H   -0.000011   0.000049  -0.000051
    13  H    0.000013  -0.000037   0.000016
    14  H    0.000000   0.000001   0.000001
    15  H    0.000000   0.000002   0.000000
    16  H    0.001185   0.010697   0.000050
    17  H    0.001675   0.000029   0.000045
    18  H    0.000083  -0.000917  -0.001103
    19  O    0.000013  -0.002517   0.000164
    20  H    0.000000   0.000146  -0.000004
    21  O    0.000040  -0.002266  -0.000088
    22  H   -0.000009   0.000133   0.000001
    23  C    0.484276   0.212839   0.011236
    24  H   -0.035004  -0.049671  -0.005483
    25  H    0.543863  -0.055135   0.006654
    26  O   -0.055135   8.273067   0.255371
    27  H    0.006654   0.255371   0.361868
 Mulliken atomic charges:
              1
     1  C   -0.362211
     2  C   -0.065153
     3  N   -0.199607
     4  C   -0.161822
     5  C   -0.444342
     6  C    0.130654
     7  C   -0.039456
     8  C   -0.128702
     9  H    0.174325
    10  H    0.183039
    11  H    0.171430
    12  H    0.159499
    13  H    0.156298
    14  H    0.176433
    15  H    0.177790
    16  H    0.168164
    17  H    0.157631
    18  H    0.185194
    19  O   -0.578007
    20  H    0.393026
    21  O   -0.561011
    22  H    0.386566
    23  C   -0.237316
    24  H    0.158576
    25  H    0.164484
    26  O   -0.549095
    27  H    0.383614
 Sum of Mulliken atomic charges =   0.00000
 Mulliken charges with hydrogens summed into heavy atoms:
              1
     1  C   -0.004847
     2  C    0.106277
     3  N   -0.199607
     4  C    0.153974
     5  C   -0.090119
     6  C    0.298818
     7  C    0.118175
     8  C    0.056492
    19  O   -0.184981
    21  O   -0.174445
    23  C    0.085744
    26  O   -0.165481
 Sum of Mulliken charges with hydrogens summed into heavy atoms =   0.00000
 Electronic spatial extent (au):  <R**2>=           1913.5008
 Charge=              0.0000 electrons
 Dipole moment (field-independent basis, Debye):
    X=              2.9701    Y=             -0.6254    Z=             -1.9466  Tot=              3.6058
 Quadrupole moment (field-independent basis, Debye-Ang):
   XX=            -75.9890   YY=            -72.7855   ZZ=            -72.8684
   XY=              2.0175   XZ=             -7.0033   YZ=             -5.7387
 Traceless Quadrupole moment (field-independent basis, Debye-Ang):
   XX=             -2.1080   YY=              1.0955   ZZ=              1.0126
   XY=              2.0175   XZ=             -7.0033   YZ=             -5.7387
 Octapole moment (field-independent basis, Debye-Ang**2):
  XXX=             28.8011  YYY=              4.7869  ZZZ=            -25.4242  XYY=              5.1012
  XXY=              6.9184  XXZ=             16.8080  XZZ=              4.9411  YZZ=              4.3520
  YYZ=             -4.2674  XYZ=             -3.1299
 Hexadecapole moment (field-independent basis, Debye-Ang**3):
 XXXX=          -1296.6101 YYYY=           -851.8758 ZZZZ=           -430.5171 XXXY=              2.5350
 XXXZ=            -61.3347 YYYX=             34.1857 YYYZ=             -8.5657 ZZZX=              5.4418
 ZZZY=            -21.1111 XXYY=           -320.9646 XXZZ=           -271.8275 YYZZ=           -187.0110
 XXYZ=            -10.4342 YYXZ=             -6.9733 ZZXY=             20.5435
 N-N= 8.178105525530D+02 E-N=-3.021543998516D+03  KE= 5.886584218623D+02
 1\1\GINC-COMPUTE-3-1\SP\RmPW1PW91\6-31+G(d,p)\C8H15N1O3\MAMICHETTI.IQU
 IR\17-May-2024\0\\# mpw1pw91/6-31+G** nmr scrf=(pcm,solvent=water)\\co
 mment\\0,1\C,0,2.170544,0.072187,-0.445945\C,0,0.708733,0.032491,-0.91
 9359\N,0,0.061742,-1.098055,-0.173732\C,0,1.130025,-1.840096,0.54503\C
 ,0,2.440107,-1.403043,-0.119719\C,0,-1.016808,-0.551682,0.694865\C,0,-
 0.820175,0.971847,0.724183\C,0,-0.164548,1.274929,-0.629429\H,0,2.8465
 91,0.48166,-1.203259\H,0,2.263596,0.679492,0.459538\H,0,0.690654,-0.18
 1218,-1.995595\H,0,0.968327,-2.923074,0.484388\H,0,1.142817,-1.571996,
 1.611227\H,0,2.611641,-1.971679,-1.041964\H,0,3.305114,-1.553044,0.533
 94\H,0,-0.909853,-0.940967,1.714824\H,0,-1.766217,1.514672,0.851431\H,
 0,-0.952842,1.351754,-1.386412\O,0,0.541843,2.512592,-0.535347\H,0,1.0
 68771,2.620403,-1.344637\O,0,0.071001,1.301816,1.798887\H,0,0.548669,2
 .100283,1.508157\C,0,-2.407355,-0.976353,0.214578\H,0,-2.497818,-2.069
 ,0.291703\H,0,-3.172285,-0.531667,0.859919\O,0,-2.712869,-0.548432,-1.
 116786\H,0,-2.022307,-0.928724,-1.686388\\Version=AM64L-G09RevC.01\Sta
 te=1-A\HF=-594.1954066\RMSD=3.626e-09\Dipole=1.1685124,-0.246037,-0.76
 58591\Quadrupole=-1.5672816,0.8144624,0.7528192,1.4999686,-5.2067955,-
 4.2665802\PG=C01 [X(C8H15N1O3)]\\@


 OPTIMIST - A PESSIMIST WHO LACKS EXPERIENCE
 Job cpu time:  0 days  0 hours  8 minutes 36.8 seconds.
 File lengths (MBytes):  RWF=    112 Int=      0 D2E=      0 Chk=      7 Scr=      1
 Normal termination of Gaussian 09 at Fri May 17 12:19:26 2024.
