 Entering Gaussian System, Link 0=g09
 Input=/home/mamichetti.iquir/Linux/01_Cardona_A1A3_R__S_R_R_035_OptB.gjc
 Output=/home/mamichetti.iquir/Linux/01_Cardona_A1A3_R__S_R_R_035_OptB.log
 Initial command:
 /opt/ohpc/pub/apps/software/Gaussian/09/AMD64.SSE4a-enabled/g09/l1.exe /local/mamichetti.iquir/Gau-407270.inp -scrdir=/local/mamichetti.iquir/
 Entering Link 1 = /opt/ohpc/pub/apps/software/Gaussian/09/AMD64.SSE4a-enabled/g09/l1.exe PID=    407271.
  
 Copyright (c) 1988,1990,1992,1993,1995,1998,2003,2009,2011,
            Gaussian, Inc.  All Rights Reserved.
  
 This is part of the Gaussian(R) 09 program.  It is based on
 the Gaussian(R) 03 system (copyright 2003, Gaussian, Inc.),
 the Gaussian(R) 98 system (copyright 1998, Gaussian, Inc.),
 the Gaussian(R) 94 system (copyright 1995, Gaussian, Inc.),
 the Gaussian 92(TM) system (copyright 1992, Gaussian, Inc.),
 the Gaussian 90(TM) system (copyright 1990, Gaussian, Inc.),
 the Gaussian 88(TM) system (copyright 1988, Gaussian, Inc.),
 the Gaussian 86(TM) system (copyright 1986, Carnegie Mellon
 University), and the Gaussian 82(TM) system (copyright 1983,
 Carnegie Mellon University). Gaussian is a federally registered
 trademark of Gaussian, Inc.
  
 This software contains proprietary and confidential information,
 including trade secrets, belonging to Gaussian, Inc.
  
 This software is provided under written license and may be
 used, copied, transmitted, or stored only in accord with that
 written license.
  
 The following legend is applicable only to US Government
 contracts under FAR:
  
                    RESTRICTED RIGHTS LEGEND
  
 Use, reproduction and disclosure by the US Government is
 subject to restrictions as set forth in subparagraphs (a)
 and (c) of the Commercial Computer Software - Restricted
 Rights clause in FAR 52.227-19.
  
 Gaussian, Inc.
 340 Quinnipiac St., Bldg. 40, Wallingford CT 06492
  
  
 ---------------------------------------------------------------
 Warning -- This program may not be used in any manner that
 competes with the business of Gaussian, Inc. or will provide
 assistance to any competitor of Gaussian, Inc.  The licensee
 of this program is prohibited from giving any competitor of
 Gaussian, Inc. access to this program.  By using this program,
 the user acknowledges that Gaussian, Inc. is engaged in the
 business of creating and licensing software in the field of
 computational chemistry and represents and warrants to the
 licensee that it is not a competitor of Gaussian, Inc. and that
 it will not use this program in any manner prohibited above.
 ---------------------------------------------------------------
  

 Cite this work as:
 Gaussian 09, Revision C.01,
 M. J. Frisch, G. W. Trucks, H. B. Schlegel, G. E. Scuseria, 
 M. A. Robb, J. R. Cheeseman, G. Scalmani, V. Barone, B. Mennucci, 
 G. A. Petersson, H. Nakatsuji, M. Caricato, X. Li, H. P. Hratchian, 
 A. F. Izmaylov, J. Bloino, G. Zheng, J. L. Sonnenberg, M. Hada, 
 M. Ehara, K. Toyota, R. Fukuda, J. Hasegawa, M. Ishida, T. Nakajima, 
 Y. Honda, O. Kitao, H. Nakai, T. Vreven, J. A. Montgomery, Jr., 
 J. E. Peralta, F. Ogliaro, M. Bearpark, J. J. Heyd, E. Brothers, 
 K. N. Kudin, V. N. Staroverov, T. Keith, R. Kobayashi, J. Normand, 
 K. Raghavachari, A. Rendell, J. C. Burant, S. S. Iyengar, J. Tomasi, 
 M. Cossi, N. Rega, J. M. Millam, M. Klene, J. E. Knox, J. B. Cross, 
 V. Bakken, C. Adamo, J. Jaramillo, R. Gomperts, R. E. Stratmann, 
 O. Yazyev, A. J. Austin, R. Cammi, C. Pomelli, J. W. Ochterski, 
 R. L. Martin, K. Morokuma, V. G. Zakrzewski, G. A. Voth, 
 P. Salvador, J. J. Dannenberg, S. Dapprich, A. D. Daniels, 
 O. Farkas, J. B. Foresman, J. V. Ortiz, J. Cioslowski, 
 and D. J. Fox, Gaussian, Inc., Wallingford CT, 2010.
 
 ******************************************
 Gaussian 09:  AM64L-G09RevC.01 23-Sep-2011
                17-May-2024 
 ******************************************
 %nprocshared=4
 Will use up to    4 processors via shared memory.
 ------------------------------------------------
 # mpw1pw91/6-31+G** nmr scrf=(pcm,solvent=water)
 ------------------------------------------------
 1/38=1/1;
 2/12=2,17=6,18=5,40=1/2;
 3/5=1,6=6,7=111,11=2,16=1,25=1,30=1,70=2201,72=1,74=-7/1,2,8,3;
 4//1;
 5/5=2,38=5,53=1/2;
 8/6=1,10=90,11=11/1;
 10/13=100,45=16/2;
 6/7=2,8=2,9=2,10=2,28=1/1;
 99/9=1/99;
 -------
 comment
 -------
 Charge =  0 Multiplicity = 1
 Symbolic Z-Matrix:
 6                     2.15133  -0.41079  -0.44927 
 6                     0.74342  -0.08662  -1.03707 
 7                    -0.22361  -1.05134  -0.43558 
 6                     0.59625  -2.19043   0.02467 
 6                     1.91289  -1.57908   0.52999 
 6                    -0.97289  -0.36194   0.66511 
 6                    -0.51386   1.10921   0.66314 
 6                     0.13771   1.29755  -0.71497 
 1                     2.82356  -0.71487  -1.25848 
 1                     2.60784   0.45542   0.03709 
 1                     0.7684   -0.22849  -2.12245 
 1                     0.79234  -2.85257  -0.82874 
 1                     0.05347  -2.7716    0.77586 
 1                     2.73574  -2.30114   0.5415 
 1                     1.78203  -1.20346   1.55087 
 1                    -0.73498  -0.8007    1.64217 
 1                    -1.34467   1.80437   0.82494 
 1                    -0.65269   1.50486  -1.44228 
 8                     1.04218   2.39111  -0.7624 
 1                     1.43588   2.43723   0.12843 
 8                     0.51477   1.36357   1.63327 
 1                     0.08562   1.45656   2.49927 
 6                    -2.47531  -0.5322    0.42321 
 1                    -2.75268  -1.58539   0.57984 
 1                    -3.05149   0.07483   1.12931 
 8                    -2.84198  -0.11058  -0.8922 
 1                    -2.1801   -0.54274  -1.46652 
 
                          Input orientation:                          
 ---------------------------------------------------------------------
 Center     Atomic      Atomic             Coordinates (Angstroms)
 Number     Number       Type             X           Y           Z
 ---------------------------------------------------------------------
      1          6           0        2.151330   -0.410785   -0.449270
      2          6           0        0.743415   -0.086618   -1.037070
      3          7           0       -0.223611   -1.051337   -0.435583
      4          6           0        0.596250   -2.190432    0.024671
      5          6           0        1.912886   -1.579082    0.529991
      6          6           0       -0.972894   -0.361937    0.665110
      7          6           0       -0.513860    1.109214    0.663143
      8          6           0        0.137713    1.297554   -0.714970
      9          1           0        2.823563   -0.714874   -1.258475
     10          1           0        2.607835    0.455424    0.037087
     11          1           0        0.768401   -0.228485   -2.122452
     12          1           0        0.792342   -2.852573   -0.828737
     13          1           0        0.053472   -2.771601    0.775855
     14          1           0        2.735736   -2.301143    0.541504
     15          1           0        1.782029   -1.203459    1.550870
     16          1           0       -0.734980   -0.800700    1.642170
     17          1           0       -1.344669    1.804369    0.824941
     18          1           0       -0.652691    1.504863   -1.442282
     19          8           0        1.042183    2.391108   -0.762400
     20          1           0        1.435882    2.437231    0.128431
     21          8           0        0.514773    1.363566    1.633268
     22          1           0        0.085621    1.456560    2.499266
     23          6           0       -2.475309   -0.532200    0.423213
     24          1           0       -2.752677   -1.585393    0.579839
     25          1           0       -3.051488    0.074829    1.129314
     26          8           0       -2.841981   -0.110579   -0.892198
     27          1           0       -2.180097   -0.542744   -1.466519
 ---------------------------------------------------------------------
                    Distance matrix (angstroms):
                    1          2          3          4          5
     1  C    0.000000
     2  C    1.559749   0.000000
     3  N    2.459845   1.492518   0.000000
     4  C    2.410402   2.361141   1.477005   0.000000
     5  C    1.542960   2.459836   2.403220   1.537084   0.000000
     6  C    3.317379   2.432886   1.499407   2.493144   3.134872
     7  C    3.263602   2.429296   2.441193   3.539443   3.624053
     8  C    2.653992   1.544848   2.392886   3.594909   3.602250
     9  H    1.095071   2.184203   3.174213   2.963892   2.185131
    10  H    1.093279   2.218938   3.242041   3.323730   2.205702
    11  H    2.178363   1.094899   2.122899   2.913590   3.188952
    12  H    2.820137   2.774221   2.105037   1.097811   2.173371
    13  H    3.387535   3.312379   2.122184   1.093912   2.222605
    14  H    2.212830   3.371255   3.357745   2.203809   1.094800
    15  H    2.182951   3.003912   2.826965   2.170132   1.095632
    16  H    3.585658   3.142275   2.154385   2.513927   2.975570
    17  H    4.330419   3.376835   3.316738   4.512874   4.705996
    18  H    3.538123   2.155486   2.780595   4.167374   4.470208
    19  O    3.029664   2.510743   3.682319   4.669994   4.265068
    20  H    2.992791   2.864911   3.904118   4.704361   4.064425
    21  O    3.188041   3.047296   3.264523   3.901939   3.439639
    22  H    4.055613   3.914047   3.872791   4.436768   4.053648
    23  C    4.709751   3.562465   2.465193   3.513267   4.512607
    24  H    5.146655   4.133205   2.777134   3.448129   4.665834
    25  H    5.458669   4.372708   3.422578   4.433693   5.266841
    26  O    5.021898   3.588402   2.819465   4.121634   5.175701
    27  H    4.451232   2.989883   2.269214   3.556210   4.670392
                    6          7          8          9         10
     6  C    0.000000
     7  C    1.541104   0.000000
     8  C    2.427340   1.535974   0.000000
     9  H    4.270577   4.261256   3.399861   0.000000
    10  H    3.726139   3.250287   2.715930   1.759152   0.000000
    11  H    3.289441   3.345620   2.169693   2.281824   2.918023
    12  H    3.398662   4.430308   4.202979   2.979982   3.871500
    13  H    2.621483   3.923684   4.334476   4.005250   4.181416
    14  H    4.186853   4.712240   4.612924   2.400810   2.805255
    15  H    3.013691   3.377517   3.754047   3.035775   2.392778
    16  H    1.097161   2.157582   3.274198   4.591768   3.915169
    17  H    2.203780   1.095291   2.196735   5.297298   4.250018
    18  H    2.833474   2.146771   1.093937   4.128603   3.731070
    19  O    3.698321   2.469149   1.419921   3.614765   2.614827
    20  H    3.731698   2.418892   1.922351   3.712807   2.304208
    21  O    2.475448   1.436636   2.379234   4.244126   2.784497
    22  H    2.791328   1.962492   3.218588   5.131478   3.664173
    23  C    1.531259   2.568869   3.386937   5.562328   5.192576
    24  H    2.161422   3.504304   4.282787   5.935626   5.761476
    25  H    2.174121   2.779716   3.881680   6.390727   5.776309
    26  O    2.445787   3.054035   3.300428   5.709441   5.557376
    27  H    2.456394   3.168718   3.053484   5.010940   5.116783
                   11         12         13         14         15
    11  H    0.000000
    12  H    2.925766   0.000000
    13  H    3.921574   1.768389   0.000000
    14  H    3.906786   2.440987   2.733275   0.000000
    15  H    3.933359   3.059671   2.459192   1.770109   0.000000
    16  H    4.093893   3.556442   2.292730   3.938104   2.550664
    17  H    4.157486   5.384104   4.785051   5.795280   4.398891
    18  H    2.342355   4.631609   4.868978   5.468320   4.714003
    19  O    2.964282   5.250049   5.476983   5.156114   4.338145
    20  H    3.552189   5.414087   5.427904   4.930764   3.924000
    21  O    4.087100   4.890229   4.248242   4.422072   2.863974
    22  H    4.966472   5.490327   4.566018   4.997627   3.294383
    23  C    4.134526   4.198697   3.396175   5.504375   4.455011
    24  H    4.641289   4.019576   3.052865   5.535020   4.653207
    25  H    5.025687   5.213317   4.227041   6.283528   5.017431
    26  O    3.816056   4.553116   4.271661   6.161574   5.342699
    27  H    3.036881   3.818045   3.871030   5.593705   5.023905
                   16         17         18         19         20
    16  H    0.000000
    17  H    2.797493   0.000000
    18  H    3.851784   2.389317   0.000000
    19  O    4.373546   2.925915   2.029844   0.000000
    20  H    4.181895   2.935490   2.774633   0.975042   0.000000
    21  O    2.499202   2.074903   3.292711   2.659554   2.065365
    22  H    2.550142   2.229364   4.010391   3.525175   2.899272
    23  C    2.141657   2.626649   3.309325   4.724845   4.919536
    24  H    2.411512   3.678729   4.248364   5.658191   5.824886
    25  H    2.528988   2.448915   3.796358   5.069701   5.169062
    26  O    3.367305   2.976161   2.775831   4.621906   5.082630
    27  H    3.437856   3.384918   2.554653   4.414336   4.949689
                   21         22         23         24         25
    21  O    0.000000
    22  H    0.970964   0.000000
    23  C    3.741491   3.850133   0.000000
    24  H    4.525738   4.581879   1.100309   0.000000
    25  H    3.825314   3.691531   1.095009   1.774133   0.000000
    26  O    4.451840   4.746452   1.429167   2.085652   2.040779
    27  H    4.528247   4.985794   1.912681   2.366970   2.806968
                   26         27
    26  O    0.000000
    27  H    0.977088   0.000000
 Stoichiometry    C8H15NO3
 Framework group  C1[X(C8H15NO3)]
 Deg. of freedom    75
 Full point group                 C1      NOp   1
 Largest Abelian subgroup         C1      NOp   1
 Largest concise Abelian subgroup C1      NOp   1
                         Standard orientation:                         
 ---------------------------------------------------------------------
 Center     Atomic      Atomic             Coordinates (Angstroms)
 Number     Number       Type             X           Y           Z
 ---------------------------------------------------------------------
      1          6           0        2.151330   -0.410784   -0.449270
      2          6           0        0.743415   -0.086618   -1.037070
      3          7           0       -0.223611   -1.051337   -0.435583
      4          6           0        0.596251   -2.190432    0.024671
      5          6           0        1.912886   -1.579082    0.529991
      6          6           0       -0.972894   -0.361937    0.665110
      7          6           0       -0.513860    1.109214    0.663143
      8          6           0        0.137713    1.297554   -0.714970
      9          1           0        2.823563   -0.714873   -1.258475
     10          1           0        2.607835    0.455425    0.037087
     11          1           0        0.768401   -0.228485   -2.122452
     12          1           0        0.792343   -2.852573   -0.828737
     13          1           0        0.053473   -2.771601    0.775855
     14          1           0        2.735737   -2.301142    0.541504
     15          1           0        1.782029   -1.203459    1.550870
     16          1           0       -0.734980   -0.800700    1.642170
     17          1           0       -1.344669    1.804369    0.824941
     18          1           0       -0.652691    1.504863   -1.442282
     19          8           0        1.042183    2.391108   -0.762400
     20          1           0        1.435882    2.437231    0.128431
     21          8           0        0.514773    1.363566    1.633268
     22          1           0        0.085621    1.456560    2.499266
     23          6           0       -2.475309   -0.532200    0.423213
     24          1           0       -2.752677   -1.585393    0.579839
     25          1           0       -3.051488    0.074829    1.129314
     26          8           0       -2.841981   -0.110579   -0.892198
     27          1           0       -2.180097   -0.542744   -1.466519
 ---------------------------------------------------------------------
 Rotational constants (GHZ):      1.1559698      0.9452729      0.7111413
 Standard basis: 6-31+G(d,p) (6D, 7F)
 There are   303 symmetry adapted basis functions of A   symmetry.
 Integral buffers will be    131072 words long.
 Raffenetti 2 integral format.
 Two-electron integral symmetry is turned on.
   303 basis functions,   489 primitive gaussians,   303 cartesian basis functions
    47 alpha electrons       47 beta electrons
       nuclear repulsion energy       821.0100541208 Hartrees.
 NAtoms=   27 NActive=   27 NUniq=   27 SFac= 1.00D+00 NAtFMM=   60 NAOKFM=F Big=F
 ------------------------------------------------------------------------------
 Polarizable Continuum Model (PCM)
 =================================
 Model                : PCM.
 Atomic radii         : UFF (Universal Force Field).
 Polarization charges : Total charges.
 Charge compensation  : None.
 Solution method      : Matrix inversion.
 Cavity type          : Scaled VdW (van der Waals Surface) (Alpha=1.100).
 Cavity algorithm     : GePol (No added spheres)
                        Default sphere list used, NSphG=   27.
                        Lebedev-Laikov grids with approx.  5.0 points / Ang**2.
                        Smoothing algorithm: Karplus/York (Gamma=1.0000).
                        Polarization charges: spherical gaussians, with
                                              point-specific exponents (IZeta= 3).
                        Self-potential: point-specific (ISelfS= 7).
                        Self-field    : sphere-specific E.n sum rule (ISelfD= 2).
 Solvent              : Water, Eps=  78.355300 Eps(inf)=   1.777849
 ------------------------------------------------------------------------------
 One-electron integrals computed using PRISM.
 NBasis=   303 RedAO= T  NBF=   303
 NBsUse=   303 1.00D-06 NBFU=   303
 Harris functional with IExCor=  908 diagonalized for initial guess.
 ExpMin= 4.38D-02 ExpMax= 5.48D+03 ExpMxC= 8.25D+02 IAcc=2 IRadAn=         4 AccDes= 0.00D+00
 HarFok:  IExCor=  908 AccDes= 0.00D+00 IRadAn=         4 IDoV= 1
 ScaDFX=  1.000000  1.000000  1.000000  1.000000
 FoFCou: FMM=F IPFlag=           0 FMFlag=      100000 FMFlg1=           0
         NFxFlg=           0 DoJE=T BraDBF=F KetDBF=T FulRan=T
         Omega=  0.000000  0.000000  1.000000  0.000000  0.000000 ICntrl=     500 IOpCl=  0
         NMat0=    1 NMatS0=    1 NMatT0=    0 NMatD0=    1 NMtDS0=    0 NMtDT0=    0
         I1Cent=           4 NGrid=           0.
 Petite list used in FoFCou.
 Initial guess orbital symmetries:
       Occupied  (A) (A) (A) (A) (A) (A) (A) (A) (A) (A) (A) (A)
                 (A) (A) (A) (A) (A) (A) (A) (A) (A) (A) (A) (A)
                 (A) (A) (A) (A) (A) (A) (A) (A) (A) (A) (A) (A)
                 (A) (A) (A) (A) (A) (A) (A) (A) (A) (A) (A)
       Virtual   (A) (A) (A) (A) (A) (A) (A) (A) (A) (A) (A) (A)
                 (A) (A) (A) (A) (A) (A) (A) (A) (A) (A) (A) (A)
                 (A) (A) (A) (A) (A) (A) (A) (A) (A) (A) (A) (A)
                 (A) (A) (A) (A) (A) (A) (A) (A) (A) (A) (A) (A)
                 (A) (A) (A) (A) (A) (A) (A) (A) (A) (A) (A) (A)
                 (A) (A) (A) (A) (A) (A) (A) (A) (A) (A) (A) (A)
                 (A) (A) (A) (A) (A) (A) (A) (A) (A) (A) (A) (A)
                 (A) (A) (A) (A) (A) (A) (A) (A) (A) (A) (A) (A)
                 (A) (A) (A) (A) (A) (A) (A) (A) (A) (A) (A) (A)
                 (A) (A) (A) (A) (A) (A) (A) (A) (A) (A) (A) (A)
                 (A) (A) (A) (A) (A) (A) (A) (A) (A) (A) (A) (A)
                 (A) (A) (A) (A) (A) (A) (A) (A) (A) (A) (A) (A)
                 (A) (A) (A) (A) (A) (A) (A) (A) (A) (A) (A) (A)
                 (A) (A) (A) (A) (A) (A) (A) (A) (A) (A) (A) (A)
                 (A) (A) (A) (A) (A) (A) (A) (A) (A) (A) (A) (A)
                 (A) (A) (A) (A) (A) (A) (A) (A) (A) (A) (A) (A)
                 (A) (A) (A) (A) (A) (A) (A) (A) (A) (A) (A) (A)
                 (A) (A) (A) (A) (A) (A) (A) (A) (A) (A) (A) (A)
                 (A) (A) (A) (A) (A) (A) (A) (A) (A) (A) (A) (A)
                 (A) (A) (A) (A) (A) (A) (A) (A) (A) (A) (A) (A)
                 (A) (A) (A) (A) (A) (A) (A) (A) (A) (A) (A) (A)
                 (A) (A) (A) (A)
 The electronic state of the initial guess is 1-A.
 Requested convergence on RMS density matrix=1.00D-08 within 128 cycles.
 Requested convergence on MAX density matrix=1.00D-06.
 Requested convergence on             energy=1.00D-06.
 No special actions if energy rises.
 Error on total polarization charges =  0.01408
 SCF Done:  E(RmPW1PW91) =  -594.197973572     A.U. after   13 cycles
             Convg  =    0.3581D-08             -V/T =  2.0094
 Range of M.O.s used for correlation:     1   303
 NBasis=   303 NAE=    47 NBE=    47 NFC=     0 NFV=     0
 NROrb=    303 NOA=    47 NOB=    47 NVA=   256 NVB=   256

 **** Warning!!: The largest alpha MO coefficient is  0.76885361D+02

 NEqPCM:  Using equilibrium solvation (IEInf=0, Eps=  78.3553, EpsInf=   1.7778)
          Differentiating once with respect to magnetic field using GIAOs.
          Electric field/nuclear overlap derivatives assumed to be zero.
 FoFCou: FMM=F IPFlag=           0 FMFlag=    10101102 FMFlg1=           0
         NFxFlg=    40000000 DoJE=F BraDBF=F KetDBF=T FulRan=T
         Omega=  0.000000  0.000000  1.000000  0.000000  0.000000 ICntrl=    6100 IOpCl=  0
         NMat0=    1 NMatS0=    1 NMatT0=    0 NMatD0=    1 NMtDS0=    0 NMtDT0=    0
         I1Cent=           7 NGrid=        1800.
 Symmetry not used in FoFCou.
          There are     3 degrees of freedom in the 1st order CPHF.  IDoFFX=0.
      3 vectors produced by pass  0 Test12= 4.01D-13 3.33D-08 XBig12= 2.43D+01 8.22D-01.
 AX will form     3 AO Fock derivatives at one time.
      3 vectors produced by pass  1 Test12= 4.01D-13 3.33D-08 XBig12= 5.99D-02 3.63D-02.
      3 vectors produced by pass  2 Test12= 4.01D-13 3.33D-08 XBig12= 1.19D-04 2.50D-03.
      3 vectors produced by pass  3 Test12= 4.01D-13 3.33D-08 XBig12= 5.05D-07 1.44D-04.
      3 vectors produced by pass  4 Test12= 4.01D-13 3.33D-08 XBig12= 1.96D-09 6.22D-06.
      3 vectors produced by pass  5 Test12= 4.01D-13 3.33D-08 XBig12= 5.84D-12 3.49D-07.
 Inverted reduced A of dimension    18 with in-core refinement.
 Calculating GIAO nuclear magnetic shielding tensors.
 SCF GIAO Magnetic shielding tensor (ppm):
      1  C    Isotropic =   168.8555   Anisotropy =    25.5550
   XX=   179.4973   YX=     1.1726   ZX=     5.8476
   XY=     1.0019   YY=   164.3983   ZY=   -18.5554
   XZ=     5.3733   YZ=   -22.8459   ZZ=   162.6707
   Eigenvalues:   142.1940   178.4803   185.8921
      2  C    Isotropic =   125.5209   Anisotropy =    64.3583
   XX=   136.4207   YX=    19.8396   ZX=   -11.7890
   XY=    22.8914   YY=   143.5425   ZY=   -21.1722
   XZ=    -3.7057   YZ=   -22.9998   ZZ=    96.5997
   Eigenvalues:    87.8311   120.3052   168.4265
      3  N    Isotropic =   194.4309   Anisotropy =    63.9738
   XX=   188.9505   YX=    22.0261   ZX=   -30.9078
   XY=    -7.6434   YY=   225.7608   ZY=   -24.7729
   XZ=   -40.9073   YZ=    -5.8396   ZZ=   168.5815
   Eigenvalues:   140.6868   205.5259   237.0801
      4  C    Isotropic =   139.1516   Anisotropy =    57.4430
   XX=   143.2228   YX=   -23.7135   ZX=     6.9902
   XY=   -10.9731   YY=   158.8616   ZY=   -21.5251
   XZ=    22.3689   YZ=   -10.3496   ZZ=   115.3705
   Eigenvalues:   107.5269   132.4811   177.4469
      5  C    Isotropic =   170.1158   Anisotropy =    21.1806
   XX=   177.5602   YX=     3.4999   ZX=     8.6158
   XY=     8.1415   YY=   177.0640   ZY=   -10.9446
   XZ=    11.8909   YZ=   -17.2832   ZZ=   155.7233
   Eigenvalues:   144.5058   181.6054   184.2362
      6  C    Isotropic =   119.1495   Anisotropy =    28.1059
   XX=   107.6183   YX=    -6.7253   ZX=    -9.5256
   XY=    -1.7009   YY=   127.1305   ZY=     7.5442
   XZ=   -11.9272   YZ=    10.9912   ZZ=   122.6996
   Eigenvalues:   102.0338   117.5279   137.8867
      7  C    Isotropic =   115.8612   Anisotropy =    23.4178
   XX=   116.8296   YX=     8.2895   ZX=    13.5144
   XY=    12.9887   YY=   117.3762   ZY=     2.7155
   XZ=     5.8490   YZ=     0.4741   ZZ=   113.3779
   Eigenvalues:   102.4543   113.6563   131.4731
      8  C    Isotropic =   120.1444   Anisotropy =    55.3579
   XX=   118.6449   YX=    18.0854   ZX=   -16.9999
   XY=    22.9260   YY=   143.6841   ZY=     2.6116
   XZ=   -22.4433   YZ=    -3.2755   ZZ=    98.1042
   Eigenvalues:    84.1104   119.2731   157.0497
      9  H    Isotropic =    30.0216   Anisotropy =    12.3557
   XX=    33.2767   YX=    -2.2615   ZX=    -5.6239
   XY=    -2.4522   YY=    25.6881   ZY=    -0.1525
   XZ=    -5.8632   YZ=    -0.3199   ZZ=    31.0999
   Eigenvalues:    24.1767    27.6293    38.2587
     10  H    Isotropic =    29.6243   Anisotropy =     6.9895
   XX=    31.1923   YX=     2.0353   ZX=     1.3877
   XY=     2.1013   YY=    32.3003   ZY=     1.2867
   XZ=     1.1555   YZ=     1.4971   ZZ=    25.3804
   Eigenvalues:    24.9787    29.6102    34.2840
     11  H    Isotropic =    27.9464   Anisotropy =     8.5598
   XX=    26.4532   YX=    -0.0831   ZX=    -0.5592
   XY=    -0.1506   YY=    23.7522   ZY=    -0.1574
   XZ=     0.1013   YZ=    -0.5360   ZZ=    33.6337
   Eigenvalues:    23.7343    26.4519    33.6529
     12  H    Isotropic =    28.6967   Anisotropy =    11.9387
   XX=    26.1573   YX=    -2.5822   ZX=     0.0669
   XY=    -1.9675   YY=    33.6814   ZY=     5.3628
   XZ=     1.4704   YZ=     5.1053   ZZ=    26.2514
   Eigenvalues:    22.6465    26.7878    36.6558
     13  H    Isotropic =    28.6383   Anisotropy =     9.8875
   XX=    27.9186   YX=     1.6362   ZX=    -0.4707
   XY=     1.7618   YY=    32.9261   ZY=    -4.6841
   XZ=    -1.1187   YZ=    -3.7171   ZZ=    25.0702
   Eigenvalues:    23.2465    27.4384    35.2300
     14  H    Isotropic =    30.0087   Anisotropy =    12.4433
   XX=    32.9950   YX=    -5.3671   ZX=     1.3224
   XY=    -5.7958   YY=    31.3522   ZY=    -2.1016
   XZ=     1.6608   YZ=    -2.0384   ZZ=    25.6788
   Eigenvalues:    24.9743    26.7475    38.3042
     15  H    Isotropic =    29.7008   Anisotropy =     8.6002
   XX=    26.7631   YX=    -0.6472   ZX=     1.0711
   XY=    -0.4051   YY=    27.1626   ZY=     0.9645
   XZ=     1.7956   YZ=     0.0347   ZZ=    35.1767
   Eigenvalues:    26.1594    27.5087    35.4343
     16  H    Isotropic =    28.8850   Anisotropy =     4.6561
   XX=    28.5370   YX=     0.0979   ZX=    -1.9106
   XY=    -0.7173   YY=    26.8574   ZY=    -0.6295
   XZ=    -1.1184   YZ=    -0.7860   ZZ=    31.2606
   Eigenvalues:    26.5572    28.1087    31.9891
     17  H    Isotropic =    27.5228   Anisotropy =     6.8313
   XX=    30.9427   YX=    -2.9565   ZX=     0.8921
   XY=    -1.9423   YY=    26.7269   ZY=     2.4774
   XZ=     1.8005   YZ=     2.1694   ZZ=    24.8987
   Eigenvalues:    22.5509    27.9404    32.0770
     18  H    Isotropic =    27.1444   Anisotropy =     4.9214
   XX=    27.9590   YX=    -0.3097   ZX=     4.3779
   XY=     1.2161   YY=    28.0256   ZY=    -1.8660
   XZ=     1.5596   YZ=    -2.8310   ZZ=    25.4486
   Eigenvalues:    22.5681    28.4397    30.4253
     19  O    Isotropic =   310.1007   Anisotropy =    37.0203
   XX=   286.7974   YX=   -15.3315   ZX=     8.7320
   XY=    12.3566   YY=   330.1798   ZY=    -6.5588
   XZ=    -2.9815   YZ=   -12.9554   ZZ=   313.3250
   Eigenvalues:   286.4846   309.0367   334.7810
     20  H    Isotropic =    28.2209   Anisotropy =    14.6015
   XX=    25.1910   YX=     5.5940   ZX=     5.1145
   XY=     4.5073   YY=    24.3207   ZY=     0.4005
   XZ=     5.5741   YZ=     0.5054   ZZ=    35.1511
   Eigenvalues:    18.9472    27.7603    37.9553
     21  O    Isotropic =   293.1387   Anisotropy =    40.2373
   XX=   279.5749   YX=    14.4788   ZX=    -4.5573
   XY=    -8.5007   YY=   282.9962   ZY=   -26.6780
   XZ=     5.2616   YZ=     5.2264   ZZ=   316.8450
   Eigenvalues:   276.7535   282.6989   319.9636
     22  H    Isotropic =    29.6638   Anisotropy =    20.3296
   XX=    26.0310   YX=    -0.5748   ZX=    -3.9482
   XY=     0.6337   YY=    21.9694   ZY=     4.8009
   XZ=    -4.9126   YZ=     4.8114   ZZ=    40.9911
   Eigenvalues:    20.5813    25.1933    43.2169
     23  C    Isotropic =   130.1186   Anisotropy =    35.7171
   XX=   125.8724   YX=     2.3421   ZX=     6.8702
   XY=    -0.6357   YY=   117.3639   ZY=    -7.7691
   XZ=    15.1030   YZ=   -12.0464   ZZ=   147.1196
   Eigenvalues:   112.8061   123.6198   153.9300
     24  H    Isotropic =    28.0837   Anisotropy =     8.4183
   XX=    28.2610   YX=     3.0277   ZX=     0.3709
   XY=     3.2071   YY=    29.0213   ZY=    -3.8523
   XZ=    -0.5797   YZ=    -4.8397   ZZ=    26.9688
   Eigenvalues:    22.8136    27.7416    33.6959
     25  H    Isotropic =    28.1333   Anisotropy =     7.0693
   XX=    30.0344   YX=    -0.4813   ZX=    -2.2270
   XY=    -1.1685   YY=    24.6833   ZY=     0.7114
   XZ=    -3.2906   YZ=     1.4758   ZZ=    29.6822
   Eigenvalues:    24.4402    27.1136    32.8462
     26  O    Isotropic =   320.4312   Anisotropy =    41.5680
   XX=   333.2188   YX=    -2.6141   ZX=   -30.1188
   XY=   -11.0719   YY=   313.3698   ZY=   -18.0264
   XZ=   -14.2807   YZ=     4.9270   ZZ=   314.7050
   Eigenvalues:   295.1876   317.9628   348.1432
     27  H    Isotropic =    29.0195   Anisotropy =    14.8518
   XX=    33.8266   YX=    -6.5127   ZX=    -1.9545
   XY=    -4.5600   YY=    22.0770   ZY=     5.1075
   XZ=    -3.9781   YZ=     4.6159   ZZ=    31.1549
   Eigenvalues:    18.8254    29.3124    38.9207
 End of Minotr Frequency-dependent properties file   721 does not exist.
 End of Minotr Frequency-dependent properties file   722 does not exist.

 **********************************************************************

            Population analysis using the SCF density.

 **********************************************************************

 Orbital symmetries:
       Occupied  (A) (A) (A) (A) (A) (A) (A) (A) (A) (A) (A) (A)
                 (A) (A) (A) (A) (A) (A) (A) (A) (A) (A) (A) (A)
                 (A) (A) (A) (A) (A) (A) (A) (A) (A) (A) (A) (A)
                 (A) (A) (A) (A) (A) (A) (A) (A) (A) (A) (A)
       Virtual   (A) (A) (A) (A) (A) (A) (A) (A) (A) (A) (A) (A)
                 (A) (A) (A) (A) (A) (A) (A) (A) (A) (A) (A) (A)
                 (A) (A) (A) (A) (A) (A) (A) (A) (A) (A) (A) (A)
                 (A) (A) (A) (A) (A) (A) (A) (A) (A) (A) (A) (A)
                 (A) (A) (A) (A) (A) (A) (A) (A) (A) (A) (A) (A)
                 (A) (A) (A) (A) (A) (A) (A) (A) (A) (A) (A) (A)
                 (A) (A) (A) (A) (A) (A) (A) (A) (A) (A) (A) (A)
                 (A) (A) (A) (A) (A) (A) (A) (A) (A) (A) (A) (A)
                 (A) (A) (A) (A) (A) (A) (A) (A) (A) (A) (A) (A)
                 (A) (A) (A) (A) (A) (A) (A) (A) (A) (A) (A) (A)
                 (A) (A) (A) (A) (A) (A) (A) (A) (A) (A) (A) (A)
                 (A) (A) (A) (A) (A) (A) (A) (A) (A) (A) (A) (A)
                 (A) (A) (A) (A) (A) (A) (A) (A) (A) (A) (A) (A)
                 (A) (A) (A) (A) (A) (A) (A) (A) (A) (A) (A) (A)
                 (A) (A) (A) (A) (A) (A) (A) (A) (A) (A) (A) (A)
                 (A) (A) (A) (A) (A) (A) (A) (A) (A) (A) (A) (A)
                 (A) (A) (A) (A) (A) (A) (A) (A) (A) (A) (A) (A)
                 (A) (A) (A) (A) (A) (A) (A) (A) (A) (A) (A) (A)
                 (A) (A) (A) (A) (A) (A) (A) (A) (A) (A) (A) (A)
                 (A) (A) (A) (A) (A) (A) (A) (A) (A) (A) (A) (A)
                 (A) (A) (A) (A) (A) (A) (A) (A) (A) (A) (A) (A)
                 (A) (A) (A) (A)
 The electronic state is 1-A.
 Alpha  occ. eigenvalues --  -19.26581 -19.25482 -19.25020 -14.41898 -10.30824
 Alpha  occ. eigenvalues --  -10.30348 -10.29326 -10.28273 -10.27526 -10.26984
 Alpha  occ. eigenvalues --  -10.24200 -10.24123  -1.08073  -1.05428  -1.04979
 Alpha  occ. eigenvalues --   -0.96527  -0.82160  -0.78792  -0.75609  -0.71531
 Alpha  occ. eigenvalues --   -0.66701  -0.62429  -0.59668  -0.57857  -0.56224
 Alpha  occ. eigenvalues --   -0.52998  -0.52551  -0.49145  -0.48317  -0.46631
 Alpha  occ. eigenvalues --   -0.45944  -0.45264  -0.44373  -0.42253  -0.40963
 Alpha  occ. eigenvalues --   -0.39794  -0.38757  -0.36961  -0.36439  -0.35353
 Alpha  occ. eigenvalues --   -0.34787  -0.34016  -0.32786  -0.31350  -0.29538
 Alpha  occ. eigenvalues --   -0.29022  -0.24111
 Alpha virt. eigenvalues --    0.00172   0.01470   0.01892   0.02309   0.03945
 Alpha virt. eigenvalues --    0.04222   0.04604   0.04800   0.05032   0.07147
 Alpha virt. eigenvalues --    0.07574   0.08168   0.08546   0.08844   0.09930
 Alpha virt. eigenvalues --    0.10224   0.11163   0.11659   0.12300   0.12550
 Alpha virt. eigenvalues --    0.13527   0.13683   0.14392   0.15078   0.15382
 Alpha virt. eigenvalues --    0.15907   0.16459   0.17232   0.17615   0.18182
 Alpha virt. eigenvalues --    0.18719   0.19496   0.20249   0.20547   0.20877
 Alpha virt. eigenvalues --    0.21121   0.21775   0.22005   0.22496   0.23352
 Alpha virt. eigenvalues --    0.23614   0.23888   0.25009   0.25234   0.25418
 Alpha virt. eigenvalues --    0.26829   0.27307   0.28109   0.28296   0.29182
 Alpha virt. eigenvalues --    0.30069   0.30293   0.30586   0.31279   0.32191
 Alpha virt. eigenvalues --    0.32993   0.33099   0.33537   0.34552   0.35260
 Alpha virt. eigenvalues --    0.35728   0.36057   0.36940   0.37417   0.38075
 Alpha virt. eigenvalues --    0.39024   0.40258   0.41818   0.42163   0.42969
 Alpha virt. eigenvalues --    0.43627   0.44223   0.46202   0.46580   0.47884
 Alpha virt. eigenvalues --    0.49082   0.64732   0.66842   0.67893   0.68978
 Alpha virt. eigenvalues --    0.70050   0.71444   0.72646   0.74064   0.75209
 Alpha virt. eigenvalues --    0.76062   0.77670   0.79158   0.80269   0.81747
 Alpha virt. eigenvalues --    0.83235   0.83836   0.86031   0.86733   0.89169
 Alpha virt. eigenvalues --    0.89755   0.92777   0.93862   0.95428   0.97107
 Alpha virt. eigenvalues --    0.99486   0.99889   1.02746   1.03977   1.04569
 Alpha virt. eigenvalues --    1.05513   1.07375   1.07992   1.09648   1.10406
 Alpha virt. eigenvalues --    1.11159   1.12467   1.13106   1.14895   1.15907
 Alpha virt. eigenvalues --    1.16500   1.19123   1.21560   1.22529   1.25229
 Alpha virt. eigenvalues --    1.27934   1.29352   1.31660   1.32738   1.33597
 Alpha virt. eigenvalues --    1.34680   1.35891   1.38684   1.38806   1.41724
 Alpha virt. eigenvalues --    1.44233   1.44552   1.46804   1.50282   1.52455
 Alpha virt. eigenvalues --    1.52893   1.53965   1.59612   1.61052   1.62986
 Alpha virt. eigenvalues --    1.63961   1.66755   1.68398   1.70026   1.71167
 Alpha virt. eigenvalues --    1.73767   1.76346   1.77017   1.78225   1.78969
 Alpha virt. eigenvalues --    1.80938   1.82109   1.82930   1.83867   1.86525
 Alpha virt. eigenvalues --    1.88532   1.89566   1.90565   1.92466   1.94124
 Alpha virt. eigenvalues --    1.95615   1.99592   2.01061   2.01956   2.05277
 Alpha virt. eigenvalues --    2.06034   2.06591   2.07823   2.10631   2.11787
 Alpha virt. eigenvalues --    2.14068   2.15561   2.16474   2.18826   2.22287
 Alpha virt. eigenvalues --    2.23116   2.24574   2.26845   2.28140   2.31149
 Alpha virt. eigenvalues --    2.31601   2.33692   2.36887   2.37684   2.39498
 Alpha virt. eigenvalues --    2.44131   2.44852   2.46010   2.47738   2.48770
 Alpha virt. eigenvalues --    2.50273   2.52479   2.53228   2.54290   2.55937
 Alpha virt. eigenvalues --    2.57190   2.59571   2.60440   2.61885   2.63335
 Alpha virt. eigenvalues --    2.64992   2.65127   2.66448   2.66949   2.67461
 Alpha virt. eigenvalues --    2.70105   2.73053   2.73525   2.75941   2.77854
 Alpha virt. eigenvalues --    2.80219   2.80986   2.82437   2.83575   2.85660
 Alpha virt. eigenvalues --    2.86681   2.87407   2.87786   2.90943   2.95877
 Alpha virt. eigenvalues --    2.97447   2.99331   3.01593   3.02525   3.05129
 Alpha virt. eigenvalues --    3.05642   3.08606   3.13827   3.20304   3.32811
 Alpha virt. eigenvalues --    3.34127   3.36461   3.39061   3.45574   3.47079
 Alpha virt. eigenvalues --    3.48183   3.48954   3.50314   3.53982   3.55692
 Alpha virt. eigenvalues --    3.57881   3.60637   3.61301   3.64137   4.29087
 Alpha virt. eigenvalues --    4.35532   4.42257   4.49124   4.51798   4.55972
 Alpha virt. eigenvalues --    4.61600   4.70528   4.74867   4.87837   4.92207
 Alpha virt. eigenvalues --    5.02145
          Condensed to atoms (all electrons):
              1          2          3          4          5          6
     1  C    5.927509  -0.687792   0.158657   0.094394  -0.021417   0.081147
     2  C   -0.687792   8.297369  -0.371170  -0.392982   0.274555  -0.284021
     3  N    0.158657  -0.371170   7.593427   0.165483  -0.246246  -0.183495
     4  C    0.094394  -0.392982   0.165483   5.956362   0.057005  -0.381340
     5  C   -0.021417   0.274555  -0.246246   0.057005   5.565944   0.096414
     6  C    0.081147  -0.284021  -0.183495  -0.381340   0.096414   8.585952
     7  C   -0.266617   0.555366  -0.193308  -0.065668   0.058248  -1.007783
     8  C    0.102422  -1.020601   0.064056  -0.038728   0.018629   0.056518
     9  H    0.415207  -0.095891   0.012891  -0.002245  -0.035195   0.020372
    10  H    0.461647  -0.122320   0.020963   0.028318  -0.054073  -0.007412
    11  H    0.006178   0.266308  -0.038957  -0.016571   0.004838   0.034831
    12  H    0.008905  -0.018767  -0.029412   0.393179  -0.056889   0.003890
    13  H    0.010605   0.025683  -0.054742   0.371525  -0.021066   0.017225
    14  H   -0.015533   0.014009   0.014981  -0.043470   0.362080   0.002220
    15  H   -0.063508  -0.001785   0.007625  -0.066866   0.434356   0.017463
    16  H   -0.010939   0.023449  -0.029109   0.057914  -0.004271   0.196916
    17  H    0.004760   0.007887   0.018773  -0.001955  -0.002553  -0.103338
    18  H    0.033305  -0.101723   0.031476   0.013632  -0.010726  -0.016379
    19  O   -0.012888  -0.150301   0.000170   0.000184   0.003767   0.048955
    20  H    0.028108  -0.066631   0.005884   0.004401  -0.007265   0.020366
    21  O    0.091536  -0.063973   0.029495   0.018303  -0.065585   0.065478
    22  H   -0.008810   0.010166  -0.003204  -0.001376   0.003106  -0.087008
    23  C    0.104627  -0.232933   0.164641   0.120423  -0.116108  -0.770476
    24  H    0.001127  -0.013713  -0.004528   0.018656  -0.002574  -0.057066
    25  H    0.001633   0.005652   0.014093   0.000900  -0.000888  -0.160422
    26  O    0.008291  -0.056816   0.040244   0.010743  -0.007694  -0.210372
    27  H    0.003985   0.010468   0.050714   0.015820  -0.003248  -0.076223
              7          8          9         10         11         12
     1  C   -0.266617   0.102422   0.415207   0.461647   0.006178   0.008905
     2  C    0.555366  -1.020601  -0.095891  -0.122320   0.266308  -0.018767
     3  N   -0.193308   0.064056   0.012891   0.020963  -0.038957  -0.029412
     4  C   -0.065668  -0.038728  -0.002245   0.028318  -0.016571   0.393179
     5  C    0.058248   0.018629  -0.035195  -0.054073   0.004838  -0.056889
     6  C   -1.007783   0.056518   0.020372  -0.007412   0.034831   0.003890
     7  C    6.928470  -0.405584  -0.022457   0.011395   0.008673   0.002814
     8  C   -0.405584   6.718763   0.042640  -0.010259   0.020087   0.007711
     9  H   -0.022457   0.042640   0.528255  -0.026277  -0.007871   0.001014
    10  H    0.011395  -0.010259  -0.026277   0.525572   0.003981  -0.000043
    11  H    0.008673   0.020087  -0.007871   0.003981   0.552213   0.001525
    12  H    0.002814   0.007711   0.001014  -0.000043   0.001525   0.535066
    13  H    0.007079  -0.002805  -0.000130  -0.000125  -0.000131  -0.024620
    14  H    0.005230  -0.001547  -0.005989   0.001692   0.000009  -0.003290
    15  H   -0.004643   0.009184   0.003795  -0.007145  -0.000140   0.003882
    16  H    0.047358   0.000336   0.000002  -0.000056  -0.000276   0.000024
    17  H    0.341622  -0.006600   0.000005  -0.000056  -0.000115   0.000004
    18  H   -0.045785   0.423037  -0.000099   0.000162  -0.006834   0.000007
    19  O   -0.152785   0.395909  -0.000919   0.008878   0.001461  -0.000063
    20  H   -0.073774   0.052661   0.000027   0.000629  -0.000025   0.000001
    21  O    0.121406  -0.145391   0.000527  -0.000970  -0.000641   0.000090
    22  H    0.106586   0.006639  -0.000002   0.000120   0.000008   0.000000
    23  C   -0.148655   0.044657   0.001737  -0.001224   0.000087   0.006686
    24  H    0.011397   0.007328   0.000000   0.000000  -0.000001  -0.000046
    25  H   -0.005755  -0.003195   0.000000   0.000000   0.000000   0.000002
    26  O    0.081913   0.037717  -0.000001   0.000025   0.000859   0.000510
    27  H   -0.025933  -0.011532  -0.000001  -0.000002  -0.000403  -0.000058
             13         14         15         16         17         18
     1  C    0.010605  -0.015533  -0.063508  -0.010939   0.004760   0.033305
     2  C    0.025683   0.014009  -0.001785   0.023449   0.007887  -0.101723
     3  N   -0.054742   0.014981   0.007625  -0.029109   0.018773   0.031476
     4  C    0.371525  -0.043470  -0.066866   0.057914  -0.001955   0.013632
     5  C   -0.021066   0.362080   0.434356  -0.004271  -0.002553  -0.010726
     6  C    0.017225   0.002220   0.017463   0.196916  -0.103338  -0.016379
     7  C    0.007079   0.005230  -0.004643   0.047358   0.341622  -0.045785
     8  C   -0.002805  -0.001547   0.009184   0.000336  -0.006600   0.423037
     9  H   -0.000130  -0.005989   0.003795   0.000002   0.000005  -0.000099
    10  H   -0.000125   0.001692  -0.007145  -0.000056  -0.000056   0.000162
    11  H   -0.000131   0.000009  -0.000140  -0.000276  -0.000115  -0.006834
    12  H   -0.024620  -0.003290   0.003882   0.000024   0.000004   0.000007
    13  H    0.525650   0.001379  -0.005368   0.000540  -0.000009   0.000008
    14  H    0.001379   0.524280  -0.025307  -0.000177   0.000000   0.000002
    15  H   -0.005368  -0.025307   0.514301   0.001012   0.000019   0.000005
    16  H    0.000540  -0.000177   0.001012   0.545622   0.000881  -0.000102
    17  H   -0.000009   0.000000   0.000019   0.000881   0.549892  -0.004965
    18  H    0.000008   0.000002   0.000005  -0.000102  -0.004965   0.533265
    19  O    0.000053   0.000087  -0.000307  -0.000340   0.002456  -0.051691
    20  H    0.000000  -0.000001   0.000019  -0.000035   0.000008   0.006133
    21  O    0.000315   0.000210  -0.001819  -0.007660  -0.042584   0.007806
    22  H   -0.000002   0.000000   0.000041   0.001790  -0.007868  -0.000190
    23  C   -0.019571  -0.000310   0.007236  -0.005729   0.068221   0.005662
    24  H    0.000356   0.000000  -0.000001  -0.002039   0.000065  -0.000019
    25  H   -0.000033   0.000000   0.000000   0.001253   0.001499   0.000076
    26  O    0.000076   0.000009   0.000035   0.008970  -0.000151  -0.001246
    27  H   -0.000030  -0.000001   0.000000   0.000335   0.000060  -0.000564
             19         20         21         22         23         24
     1  C   -0.012888   0.028108   0.091536  -0.008810   0.104627   0.001127
     2  C   -0.150301  -0.066631  -0.063973   0.010166  -0.232933  -0.013713
     3  N    0.000170   0.005884   0.029495  -0.003204   0.164641  -0.004528
     4  C    0.000184   0.004401   0.018303  -0.001376   0.120423   0.018656
     5  C    0.003767  -0.007265  -0.065585   0.003106  -0.116108  -0.002574
     6  C    0.048955   0.020366   0.065478  -0.087008  -0.770476  -0.057066
     7  C   -0.152785  -0.073774   0.121406   0.106586  -0.148655   0.011397
     8  C    0.395909   0.052661  -0.145391   0.006639   0.044657   0.007328
     9  H   -0.000919   0.000027   0.000527  -0.000002   0.001737   0.000000
    10  H    0.008878   0.000629  -0.000970   0.000120  -0.001224   0.000000
    11  H    0.001461  -0.000025  -0.000641   0.000008   0.000087  -0.000001
    12  H   -0.000063   0.000001   0.000090   0.000000   0.006686  -0.000046
    13  H    0.000053   0.000000   0.000315  -0.000002  -0.019571   0.000356
    14  H    0.000087  -0.000001   0.000210   0.000000  -0.000310   0.000000
    15  H   -0.000307   0.000019  -0.001819   0.000041   0.007236  -0.000001
    16  H   -0.000340  -0.000035  -0.007660   0.001790  -0.005729  -0.002039
    17  H    0.002456   0.000008  -0.042584  -0.007868   0.068221   0.000065
    18  H   -0.051691   0.006133   0.007806  -0.000190   0.005662  -0.000019
    19  O    8.184123   0.257827  -0.004790  -0.000906   0.002765  -0.000014
    20  H    0.257827   0.356964   0.027923  -0.000451   0.002869   0.000000
    21  O   -0.004790   0.027923   8.367825   0.232131  -0.000752  -0.000115
    22  H   -0.000906  -0.000451   0.232131   0.348740  -0.003619  -0.000017
    23  C    0.002765   0.002869  -0.000752  -0.003619   5.928684   0.400285
    24  H   -0.000014   0.000000  -0.000115  -0.000017   0.400285   0.580666
    25  H    0.000009  -0.000001  -0.000611   0.000107   0.526873  -0.037786
    26  O   -0.001569   0.000037  -0.000590   0.000096   0.207643  -0.051717
    27  H    0.000231  -0.000003  -0.000173   0.000001   0.048896  -0.004589
             25         26         27
     1  C    0.001633   0.008291   0.003985
     2  C    0.005652  -0.056816   0.010468
     3  N    0.014093   0.040244   0.050714
     4  C    0.000900   0.010743   0.015820
     5  C   -0.000888  -0.007694  -0.003248
     6  C   -0.160422  -0.210372  -0.076223
     7  C   -0.005755   0.081913  -0.025933
     8  C   -0.003195   0.037717  -0.011532
     9  H    0.000000  -0.000001  -0.000001
    10  H    0.000000   0.000025  -0.000002
    11  H    0.000000   0.000859  -0.000403
    12  H    0.000002   0.000510  -0.000058
    13  H   -0.000033   0.000076  -0.000030
    14  H    0.000000   0.000009  -0.000001
    15  H    0.000000   0.000035   0.000000
    16  H    0.001253   0.008970   0.000335
    17  H    0.001499  -0.000151   0.000060
    18  H    0.000076  -0.001246  -0.000564
    19  O    0.000009  -0.001569   0.000231
    20  H   -0.000001   0.000037  -0.000003
    21  O   -0.000611  -0.000590  -0.000173
    22  H    0.000107   0.000096   0.000001
    23  C    0.526873   0.207643   0.048896
    24  H   -0.037786  -0.051717  -0.004589
    25  H    0.539588  -0.054729   0.006614
    26  O   -0.054729   8.288226   0.242313
    27  H    0.006614   0.242313   0.355587
 Mulliken atomic charges:
              1
     1  C   -0.456537
     2  C    0.190505
     3  N   -0.239404
     4  C   -0.316038
     5  C   -0.223146
     6  C    0.097588
     7  C    0.131191
     8  C   -0.362053
     9  H    0.170606
    10  H    0.166582
    11  H    0.170906
    12  H    0.167876
    13  H    0.168138
    14  H    0.169436
    15  H    0.177913
    16  H    0.174331
    17  H    0.174041
    18  H    0.185748
    19  O   -0.530302
    20  H    0.384327
    21  O   -0.627391
    22  H    0.403922
    23  C   -0.342616
    24  H    0.154346
    25  H    0.165119
    26  O   -0.542822
    27  H    0.387734
 Sum of Mulliken atomic charges =   0.00000
 Mulliken charges with hydrogens summed into heavy atoms:
              1
     1  C   -0.119350
     2  C    0.361411
     3  N   -0.239404
     4  C    0.019976
     5  C    0.124204
     6  C    0.271919
     7  C    0.305232
     8  C   -0.176305
    19  O   -0.145975
    21  O   -0.223469
    23  C   -0.023151
    26  O   -0.155088
 Sum of Mulliken charges with hydrogens summed into heavy atoms =   0.00000
 Electronic spatial extent (au):  <R**2>=           1881.1013
 Charge=              0.0000 electrons
 Dipole moment (field-independent basis, Debye):
    X=              0.7583    Y=             -2.4913    Z=              4.2378  Tot=              4.9740
 Quadrupole moment (field-independent basis, Debye-Ang):
   XX=            -82.0310   YY=            -76.4855   ZZ=            -66.7863
   XY=             -3.5998   XZ=             -5.9600   YZ=              6.0047
 Traceless Quadrupole moment (field-independent basis, Debye-Ang):
   XX=             -6.9300   YY=             -1.3846   ZZ=              8.3146
   XY=             -3.5998   XZ=             -5.9600   YZ=              6.0047
 Octapole moment (field-independent basis, Debye-Ang**2):
  XXX=             32.6686  YYY=            -12.9051  ZZZ=             17.9137  XYY=             -6.7608
  XXY=             -1.7292  XXZ=             20.0062  XZZ=             -8.2750  YZZ=              6.3746
  YYZ=             19.1450  XYZ=              4.3682
 Hexadecapole moment (field-independent basis, Debye-Ang**3):
 XXXX=          -1269.1674 YYYY=           -912.0769 ZZZZ=           -340.1794 XXXY=             14.8769
 XXXZ=            -55.1281 YYYX=             -8.1056 YYYZ=             44.8635 ZZZX=              4.1848
 ZZZY=             40.0984 XXYY=           -323.6263 XXZZ=           -268.3651 YYZZ=           -212.1642
 XXYZ=             16.5484 YYXZ=             10.9454 ZZXY=             -7.2477
 N-N= 8.210100541208D+02 E-N=-3.027792212735D+03  KE= 5.886656122769D+02
 1\1\GINC-COMPUTE-3-1\SP\RmPW1PW91\6-31+G(d,p)\C8H15N1O3\MAMICHETTI.IQU
 IR\17-May-2024\0\\# mpw1pw91/6-31+G** nmr scrf=(pcm,solvent=water)\\co
 mment\\0,1\C,0,2.15133,-0.410785,-0.44927\C,0,0.743415,-0.086618,-1.03
 707\N,0,-0.223611,-1.051337,-0.435583\C,0,0.59625,-2.190432,0.024671\C
 ,0,1.912886,-1.579082,0.529991\C,0,-0.972894,-0.361937,0.66511\C,0,-0.
 51386,1.109214,0.663143\C,0,0.137713,1.297554,-0.71497\H,0,2.823563,-0
 .714874,-1.258475\H,0,2.607835,0.455424,0.037087\H,0,0.768401,-0.22848
 5,-2.122452\H,0,0.792342,-2.852573,-0.828737\H,0,0.053472,-2.771601,0.
 775855\H,0,2.735736,-2.301143,0.541504\H,0,1.782029,-1.203459,1.55087\
 H,0,-0.73498,-0.8007,1.64217\H,0,-1.344669,1.804369,0.824941\H,0,-0.65
 2691,1.504863,-1.442282\O,0,1.042183,2.391108,-0.7624\H,0,1.435882,2.4
 37231,0.128431\O,0,0.514773,1.363566,1.633268\H,0,0.085621,1.45656,2.4
 99266\C,0,-2.475309,-0.5322,0.423213\H,0,-2.752677,-1.585393,0.579839\
 H,0,-3.051488,0.074829,1.129314\O,0,-2.841981,-0.110579,-0.892198\H,0,
 -2.180097,-0.542744,-1.466519\\Version=AM64L-G09RevC.01\State=1-A\HF=-
 594.1979736\RMSD=3.581e-09\Dipole=0.2983414,-0.9801459,1.6672702\Quadr
 upole=-5.152321,-1.0294021,6.1817231,-2.6763666,-4.431089,4.4643375\PG
 =C01 [X(C8H15N1O3)]\\@


      THE ONE-EYED VIEW OF OUR UNIVERSE SAYS YOU MUST NOT LOOK
      FAR AFIELD FOR PROBLEMS.  SUCH PROBLEMS MAY NEVER ARRIVE. 
      INSTEAD, TEND TO THE WOLF WITHIN YOUR FENCES.
      THE PACKS RANGING OUTSIDE MAY NOT EVEN EXIST.

                              -- THE AZHAR BOOK SHAMRA I:4
                                 CHILDREN OF DUNE, BY FRANK HERBERT
 Job cpu time:  0 days  0 hours  9 minutes 16.6 seconds.
 File lengths (MBytes):  RWF=    111 Int=      0 D2E=      0 Chk=      7 Scr=      1
 Normal termination of Gaussian 09 at Fri May 17 12:45:09 2024.
