 Entering Gaussian System, Link 0=g09
 Input=/home/mamichetti.iquir/Linux/01_Cardona_A1A3_R__S_R_R_002_OptB.gjc
 Output=/home/mamichetti.iquir/Linux/01_Cardona_A1A3_R__S_R_R_002_OptB.log
 Initial command:
 /opt/ohpc/pub/apps/software/Gaussian/09/AMD64.SSE4a-enabled/g09/l1.exe /local/mamichetti.iquir/Gau-403934.inp -scrdir=/local/mamichetti.iquir/
 Entering Link 1 = /opt/ohpc/pub/apps/software/Gaussian/09/AMD64.SSE4a-enabled/g09/l1.exe PID=    403935.
  
 Copyright (c) 1988,1990,1992,1993,1995,1998,2003,2009,2011,
            Gaussian, Inc.  All Rights Reserved.
  
 This is part of the Gaussian(R) 09 program.  It is based on
 the Gaussian(R) 03 system (copyright 2003, Gaussian, Inc.),
 the Gaussian(R) 98 system (copyright 1998, Gaussian, Inc.),
 the Gaussian(R) 94 system (copyright 1995, Gaussian, Inc.),
 the Gaussian 92(TM) system (copyright 1992, Gaussian, Inc.),
 the Gaussian 90(TM) system (copyright 1990, Gaussian, Inc.),
 the Gaussian 88(TM) system (copyright 1988, Gaussian, Inc.),
 the Gaussian 86(TM) system (copyright 1986, Carnegie Mellon
 University), and the Gaussian 82(TM) system (copyright 1983,
 Carnegie Mellon University). Gaussian is a federally registered
 trademark of Gaussian, Inc.
  
 This software contains proprietary and confidential information,
 including trade secrets, belonging to Gaussian, Inc.
  
 This software is provided under written license and may be
 used, copied, transmitted, or stored only in accord with that
 written license.
  
 The following legend is applicable only to US Government
 contracts under FAR:
  
                    RESTRICTED RIGHTS LEGEND
  
 Use, reproduction and disclosure by the US Government is
 subject to restrictions as set forth in subparagraphs (a)
 and (c) of the Commercial Computer Software - Restricted
 Rights clause in FAR 52.227-19.
  
 Gaussian, Inc.
 340 Quinnipiac St., Bldg. 40, Wallingford CT 06492
  
  
 ---------------------------------------------------------------
 Warning -- This program may not be used in any manner that
 competes with the business of Gaussian, Inc. or will provide
 assistance to any competitor of Gaussian, Inc.  The licensee
 of this program is prohibited from giving any competitor of
 Gaussian, Inc. access to this program.  By using this program,
 the user acknowledges that Gaussian, Inc. is engaged in the
 business of creating and licensing software in the field of
 computational chemistry and represents and warrants to the
 licensee that it is not a competitor of Gaussian, Inc. and that
 it will not use this program in any manner prohibited above.
 ---------------------------------------------------------------
  

 Cite this work as:
 Gaussian 09, Revision C.01,
 M. J. Frisch, G. W. Trucks, H. B. Schlegel, G. E. Scuseria, 
 M. A. Robb, J. R. Cheeseman, G. Scalmani, V. Barone, B. Mennucci, 
 G. A. Petersson, H. Nakatsuji, M. Caricato, X. Li, H. P. Hratchian, 
 A. F. Izmaylov, J. Bloino, G. Zheng, J. L. Sonnenberg, M. Hada, 
 M. Ehara, K. Toyota, R. Fukuda, J. Hasegawa, M. Ishida, T. Nakajima, 
 Y. Honda, O. Kitao, H. Nakai, T. Vreven, J. A. Montgomery, Jr., 
 J. E. Peralta, F. Ogliaro, M. Bearpark, J. J. Heyd, E. Brothers, 
 K. N. Kudin, V. N. Staroverov, T. Keith, R. Kobayashi, J. Normand, 
 K. Raghavachari, A. Rendell, J. C. Burant, S. S. Iyengar, J. Tomasi, 
 M. Cossi, N. Rega, J. M. Millam, M. Klene, J. E. Knox, J. B. Cross, 
 V. Bakken, C. Adamo, J. Jaramillo, R. Gomperts, R. E. Stratmann, 
 O. Yazyev, A. J. Austin, R. Cammi, C. Pomelli, J. W. Ochterski, 
 R. L. Martin, K. Morokuma, V. G. Zakrzewski, G. A. Voth, 
 P. Salvador, J. J. Dannenberg, S. Dapprich, A. D. Daniels, 
 O. Farkas, J. B. Foresman, J. V. Ortiz, J. Cioslowski, 
 and D. J. Fox, Gaussian, Inc., Wallingford CT, 2010.
 
 ******************************************
 Gaussian 09:  AM64L-G09RevC.01 23-Sep-2011
                17-May-2024 
 ******************************************
 %nprocshared=4
 Will use up to    4 processors via shared memory.
 ------------------------------------------------
 # mpw1pw91/6-31+G** nmr scrf=(pcm,solvent=water)
 ------------------------------------------------
 1/38=1/1;
 2/12=2,17=6,18=5,40=1/2;
 3/5=1,6=6,7=111,11=2,16=1,25=1,30=1,70=2201,72=1,74=-7/1,2,8,3;
 4//1;
 5/5=2,38=5,53=1/2;
 8/6=1,10=90,11=11/1;
 10/13=100,45=16/2;
 6/7=2,8=2,9=2,10=2,28=1/1;
 99/9=1/99;
 -------
 comment
 -------
 Charge =  0 Multiplicity = 1
 Symbolic Z-Matrix:
 6                    -2.48299   0.4047    0.33517 
 6                    -1.03399   0.34684   0.84553 
 7                    -0.39363  -0.82449   0.14431 
 6                    -1.3893   -1.42123  -0.76868 
 6                    -2.73861  -1.02953  -0.15887 
 6                     0.86022  -0.37158  -0.48199 
 6                     1.23973   0.86167   0.35768 
 6                    -0.11493   1.54763   0.57775 
 1                    -3.18312   0.72423   1.11276 
 1                    -2.56189   1.10435  -0.50183 
 1                    -1.02618   0.1593    1.92666 
 1                    -1.25896  -2.50659  -0.84541 
 1                    -1.29315  -1.00417  -1.78539 
 1                    -2.97991  -1.68953   0.6831 
 1                    -3.55595  -1.09506  -0.88373 
 1                     0.7003   -0.03946  -1.52179 
 1                     1.65009   0.53963   1.3239 
 1                    -0.09576   2.2473    1.42361 
 8                    -0.50072   2.23701  -0.61518 
 1                     0.32239   2.61988  -0.97064 
 8                     2.12685   1.77255  -0.28581 
 1                     2.91881   1.28331  -0.56539 
 6                     1.90894  -1.48373  -0.49719 
 1                     1.59941  -2.2682   -1.20443 
 1                     2.87287  -1.09102  -0.84178 
 8                     2.11606  -2.03483   0.80363 
 1                     1.21447  -2.13904   1.16271 
 
                          Input orientation:                          
 ---------------------------------------------------------------------
 Center     Atomic      Atomic             Coordinates (Angstroms)
 Number     Number       Type             X           Y           Z
 ---------------------------------------------------------------------
      1          6           0       -2.482989    0.404701    0.335168
      2          6           0       -1.033988    0.346837    0.845532
      3          7           0       -0.393632   -0.824487    0.144305
      4          6           0       -1.389296   -1.421227   -0.768683
      5          6           0       -2.738608   -1.029528   -0.158869
      6          6           0        0.860215   -0.371581   -0.481994
      7          6           0        1.239733    0.861668    0.357676
      8          6           0       -0.114927    1.547628    0.577751
      9          1           0       -3.183123    0.724233    1.112761
     10          1           0       -2.561893    1.104354   -0.501831
     11          1           0       -1.026179    0.159304    1.926661
     12          1           0       -1.258956   -2.506586   -0.845411
     13          1           0       -1.293150   -1.004166   -1.785394
     14          1           0       -2.979914   -1.689526    0.683103
     15          1           0       -3.555946   -1.095064   -0.883727
     16          1           0        0.700297   -0.039459   -1.521790
     17          1           0        1.650087    0.539632    1.323895
     18          1           0       -0.095756    2.247300    1.423614
     19          8           0       -0.500719    2.237013   -0.615176
     20          1           0        0.322385    2.619877   -0.970640
     21          8           0        2.126854    1.772550   -0.285810
     22          1           0        2.918807    1.283315   -0.565390
     23          6           0        1.908936   -1.483729   -0.497185
     24          1           0        1.599409   -2.268201   -1.204426
     25          1           0        2.872869   -1.091024   -0.841778
     26          8           0        2.116060   -2.034833    0.803628
     27          1           0        1.214468   -2.139036    1.162715
 ---------------------------------------------------------------------
                    Distance matrix (angstroms):
                    1          2          3          4          5
     1  C    0.000000
     2  C    1.537343   0.000000
     3  N    2.431614   1.507904   0.000000
     4  C    2.397637   2.420327   1.476818   0.000000
     5  C    1.538319   2.410172   2.373367   1.531648   0.000000
     6  C    3.528085   2.422077   1.472924   2.498849   3.672714
     7  C    3.750731   2.381777   2.357229   3.659520   4.435159
     8  C    2.640615   1.535669   2.427443   3.500143   3.750739
     9  H    1.094047   2.198322   3.334322   3.370556   2.211405
    10  H    1.093758   2.173410   2.973092   2.797276   2.168480
    11  H    2.171489   1.097301   2.131843   3.145602   2.948757
    12  H    3.371589   3.324443   2.134896   1.095847   2.200548
    13  H    2.810232   2.968863   2.136622   1.103125   2.176138
    14  H    2.180316   2.821309   2.779829   2.170192   1.096696
    15  H    2.210483   3.380782   3.336209   2.194081   1.094420
    16  H    3.711991   2.959929   2.142154   2.615885   3.829342
    17  H    4.251835   2.733178   2.725627   4.178720   4.890961
    18  H    3.206052   2.196865   3.340844   4.465143   4.497390
    19  O    2.861803   2.447613   3.156115   3.767738   3.985806
    20  H    3.805557   3.210131   3.690451   4.393309   4.831853
    21  O    4.848430   3.647398   3.644510   4.774588   5.616091
    22  H    5.546383   4.300265   3.989831   5.090739   6.125426
    23  C    4.852627   3.716808   2.479502   3.309978   4.681925
    24  H    5.116711   4.239756   2.806350   3.136813   4.630971
    25  H    5.683978   4.491992   3.422489   4.275562   5.653213
    26  O    5.227048   3.949292   2.863250   3.890526   5.050232
    27  H    4.563619   3.366857   2.313263   3.320412   4.313282
                    6          7          8          9         10
     6  C    0.000000
     7  C    1.539475   0.000000
     8  C    2.399443   1.534300   0.000000
     9  H    4.482481   4.488953   3.221497   0.000000
    10  H    3.726875   3.905126   2.711020   1.771250   0.000000
    11  H    3.105147   2.844185   2.139482   2.373602   3.024750
    12  H    3.030050   4.363026   4.446442   4.239699   3.854164
    13  H    2.595380   3.806518   3.672100   3.867643   2.775446
    14  H    4.223863   4.941651   4.324166   2.460108   3.063425
    15  H    4.493027   5.326201   4.578248   2.726683   2.443650
    16  H    1.103202   2.153001   2.755269   4.754475   3.604235
    17  H    2.171507   1.098033   2.165193   4.841340   4.625253
    18  H    3.376945   2.199939   1.097904   3.456617   3.330990
    19  O    2.945274   2.422228   1.430791   3.531227   2.354613
    20  H    3.078450   2.386891   1.933513   4.496956   3.291755
    21  O    2.498031   1.425049   2.412863   5.590244   4.741044
    22  H    2.642619   1.961919   3.252718   6.353134   5.483989
    23  C    1.528699   2.584474   3.800083   5.778935   5.165898
    24  H    2.159973   3.516477   4.547049   6.098904   5.402240
    25  H    2.167445   2.814041   4.231368   6.617433   5.871276
    26  O    2.448750   3.058846   4.226387   5.982420   5.782903
    27  H    2.440176   3.106920   3.962444   5.247820   5.248923
                   11         12         13         14         15
    11  H    0.000000
    12  H    3.852991   0.000000
    13  H    3.899268   1.772570   0.000000
    14  H    2.963392   2.442466   3.067306   0.000000
    15  H    3.983898   2.696298   2.437522   1.772048   0.000000
    16  H    3.861611   3.222247   2.230242   4.596545   4.431369
    17  H    2.769544   4.737918   4.551223   5.178481   5.886307
    18  H    2.340613   5.394529   4.722660   4.936124   5.335554
    19  O    3.324743   4.809331   3.535901   4.821789   4.528716
    20  H    4.033286   5.366278   4.050613   5.675473   5.371200
    21  O    4.176028   5.485241   4.653529   6.245306   6.393351
    22  H    4.799649   5.647607   4.945863   6.722457   6.905103
    23  C    4.146021   3.347094   3.484655   5.033516   5.492305
    24  H    4.752915   2.890669   3.209705   4.986765   5.296865
    25  H    4.942687   4.367586   4.272431   6.077708   6.428953
    26  O    3.993633   3.785844   4.403183   5.109082   5.991826
    27  H    3.299467   3.207100   4.033290   4.245577   5.294776
                   16         17         18         19         20
    16  H    0.000000
    17  H    3.055384   0.000000
    18  H    3.812922   2.444185   0.000000
    19  O    2.728867   3.356645   2.078645   0.000000
    20  H    2.742016   3.369733   2.458883   0.974905   0.000000
    21  O    2.616503   2.082917   2.843855   2.688559   2.107858
    22  H    2.754309   2.394183   3.738047   3.550377   2.948225
    23  C    2.143954   2.734470   4.650681   4.434442   4.425029
    24  H    2.424131   3.778743   5.492716   5.005468   5.057544
    25  H    2.507643   2.973949   5.008906   4.744289   4.504704
    26  O    3.375422   2.667523   4.859339   5.206650   5.294490
    27  H    3.446616   2.718640   4.585270   5.025193   5.290961
                   21         22         23         24         25
    21  O    0.000000
    22  H    0.971960   0.000000
    23  C    3.270401   2.946358   0.000000
    24  H    4.177286   3.842193   1.100633   0.000000
    25  H    3.010929   2.390813   1.096416   1.771711   0.000000
    26  O    3.960197   3.678141   1.427841   2.086545   2.042277
    27  H    4.269798   4.195665   1.914936   2.401712   2.804749
                   26         27
    26  O    0.000000
    27  H    0.976048   0.000000
 Stoichiometry    C8H15NO3
 Framework group  C1[X(C8H15NO3)]
 Deg. of freedom    75
 Full point group                 C1      NOp   1
 Largest Abelian subgroup         C1      NOp   1
 Largest concise Abelian subgroup C1      NOp   1
                         Standard orientation:                         
 ---------------------------------------------------------------------
 Center     Atomic      Atomic             Coordinates (Angstroms)
 Number     Number       Type             X           Y           Z
 ---------------------------------------------------------------------
      1          6           0       -2.482989    0.404701    0.335168
      2          6           0       -1.033988    0.346837    0.845532
      3          7           0       -0.393632   -0.824487    0.144305
      4          6           0       -1.389296   -1.421227   -0.768683
      5          6           0       -2.738608   -1.029528   -0.158869
      6          6           0        0.860215   -0.371581   -0.481994
      7          6           0        1.239733    0.861668    0.357676
      8          6           0       -0.114927    1.547628    0.577751
      9          1           0       -3.183123    0.724233    1.112761
     10          1           0       -2.561893    1.104354   -0.501831
     11          1           0       -1.026179    0.159304    1.926661
     12          1           0       -1.258956   -2.506586   -0.845411
     13          1           0       -1.293150   -1.004166   -1.785394
     14          1           0       -2.979914   -1.689526    0.683103
     15          1           0       -3.555946   -1.095064   -0.883727
     16          1           0        0.700297   -0.039459   -1.521790
     17          1           0        1.650087    0.539632    1.323895
     18          1           0       -0.095756    2.247300    1.423614
     19          8           0       -0.500719    2.237013   -0.615176
     20          1           0        0.322385    2.619877   -0.970640
     21          8           0        2.126854    1.772550   -0.285810
     22          1           0        2.918807    1.283315   -0.565390
     23          6           0        1.908936   -1.483729   -0.497185
     24          1           0        1.599409   -2.268201   -1.204426
     25          1           0        2.872869   -1.091024   -0.841778
     26          8           0        2.116060   -2.034833    0.803628
     27          1           0        1.214468   -2.139036    1.162715
 ---------------------------------------------------------------------
 Rotational constants (GHZ):      1.2088218      0.9083723      0.6024915
 Standard basis: 6-31+G(d,p) (6D, 7F)
 There are   303 symmetry adapted basis functions of A   symmetry.
 Integral buffers will be    131072 words long.
 Raffenetti 2 integral format.
 Two-electron integral symmetry is turned on.
   303 basis functions,   489 primitive gaussians,   303 cartesian basis functions
    47 alpha electrons       47 beta electrons
       nuclear repulsion energy       811.1038985450 Hartrees.
 NAtoms=   27 NActive=   27 NUniq=   27 SFac= 1.00D+00 NAtFMM=   60 NAOKFM=F Big=F
 ------------------------------------------------------------------------------
 Polarizable Continuum Model (PCM)
 =================================
 Model                : PCM.
 Atomic radii         : UFF (Universal Force Field).
 Polarization charges : Total charges.
 Charge compensation  : None.
 Solution method      : Matrix inversion.
 Cavity type          : Scaled VdW (van der Waals Surface) (Alpha=1.100).
 Cavity algorithm     : GePol (No added spheres)
                        Default sphere list used, NSphG=   27.
                        Lebedev-Laikov grids with approx.  5.0 points / Ang**2.
                        Smoothing algorithm: Karplus/York (Gamma=1.0000).
                        Polarization charges: spherical gaussians, with
                                              point-specific exponents (IZeta= 3).
                        Self-potential: point-specific (ISelfS= 7).
                        Self-field    : sphere-specific E.n sum rule (ISelfD= 2).
 Solvent              : Water, Eps=  78.355300 Eps(inf)=   1.777849
 ------------------------------------------------------------------------------
 One-electron integrals computed using PRISM.
 NBasis=   303 RedAO= T  NBF=   303
 NBsUse=   303 1.00D-06 NBFU=   303
 Harris functional with IExCor=  908 diagonalized for initial guess.
 ExpMin= 4.38D-02 ExpMax= 5.48D+03 ExpMxC= 8.25D+02 IAcc=2 IRadAn=         4 AccDes= 0.00D+00
 HarFok:  IExCor=  908 AccDes= 0.00D+00 IRadAn=         4 IDoV= 1
 ScaDFX=  1.000000  1.000000  1.000000  1.000000
 FoFCou: FMM=F IPFlag=           0 FMFlag=      100000 FMFlg1=           0
         NFxFlg=           0 DoJE=T BraDBF=F KetDBF=T FulRan=T
         Omega=  0.000000  0.000000  1.000000  0.000000  0.000000 ICntrl=     500 IOpCl=  0
         NMat0=    1 NMatS0=    1 NMatT0=    0 NMatD0=    1 NMtDS0=    0 NMtDT0=    0
         I1Cent=           4 NGrid=           0.
 Petite list used in FoFCou.
 Initial guess orbital symmetries:
       Occupied  (A) (A) (A) (A) (A) (A) (A) (A) (A) (A) (A) (A)
                 (A) (A) (A) (A) (A) (A) (A) (A) (A) (A) (A) (A)
                 (A) (A) (A) (A) (A) (A) (A) (A) (A) (A) (A) (A)
                 (A) (A) (A) (A) (A) (A) (A) (A) (A) (A) (A)
       Virtual   (A) (A) (A) (A) (A) (A) (A) (A) (A) (A) (A) (A)
                 (A) (A) (A) (A) (A) (A) (A) (A) (A) (A) (A) (A)
                 (A) (A) (A) (A) (A) (A) (A) (A) (A) (A) (A) (A)
                 (A) (A) (A) (A) (A) (A) (A) (A) (A) (A) (A) (A)
                 (A) (A) (A) (A) (A) (A) (A) (A) (A) (A) (A) (A)
                 (A) (A) (A) (A) (A) (A) (A) (A) (A) (A) (A) (A)
                 (A) (A) (A) (A) (A) (A) (A) (A) (A) (A) (A) (A)
                 (A) (A) (A) (A) (A) (A) (A) (A) (A) (A) (A) (A)
                 (A) (A) (A) (A) (A) (A) (A) (A) (A) (A) (A) (A)
                 (A) (A) (A) (A) (A) (A) (A) (A) (A) (A) (A) (A)
                 (A) (A) (A) (A) (A) (A) (A) (A) (A) (A) (A) (A)
                 (A) (A) (A) (A) (A) (A) (A) (A) (A) (A) (A) (A)
                 (A) (A) (A) (A) (A) (A) (A) (A) (A) (A) (A) (A)
                 (A) (A) (A) (A) (A) (A) (A) (A) (A) (A) (A) (A)
                 (A) (A) (A) (A) (A) (A) (A) (A) (A) (A) (A) (A)
                 (A) (A) (A) (A) (A) (A) (A) (A) (A) (A) (A) (A)
                 (A) (A) (A) (A) (A) (A) (A) (A) (A) (A) (A) (A)
                 (A) (A) (A) (A) (A) (A) (A) (A) (A) (A) (A) (A)
                 (A) (A) (A) (A) (A) (A) (A) (A) (A) (A) (A) (A)
                 (A) (A) (A) (A) (A) (A) (A) (A) (A) (A) (A) (A)
                 (A) (A) (A) (A) (A) (A) (A) (A) (A) (A) (A) (A)
                 (A) (A) (A) (A)
 The electronic state of the initial guess is 1-A.
 Requested convergence on RMS density matrix=1.00D-08 within 128 cycles.
 Requested convergence on MAX density matrix=1.00D-06.
 Requested convergence on             energy=1.00D-06.
 No special actions if energy rises.
 Error on total polarization charges =  0.01423
 SCF Done:  E(RmPW1PW91) =  -594.202156087     A.U. after   13 cycles
             Convg  =    0.4525D-08             -V/T =  2.0094
 Range of M.O.s used for correlation:     1   303
 NBasis=   303 NAE=    47 NBE=    47 NFC=     0 NFV=     0
 NROrb=    303 NOA=    47 NOB=    47 NVA=   256 NVB=   256

 **** Warning!!: The largest alpha MO coefficient is  0.79544747D+02

 NEqPCM:  Using equilibrium solvation (IEInf=0, Eps=  78.3553, EpsInf=   1.7778)
          Differentiating once with respect to magnetic field using GIAOs.
          Electric field/nuclear overlap derivatives assumed to be zero.
 FoFCou: FMM=F IPFlag=           0 FMFlag=    10101102 FMFlg1=           0
         NFxFlg=    40000000 DoJE=F BraDBF=F KetDBF=T FulRan=T
         Omega=  0.000000  0.000000  1.000000  0.000000  0.000000 ICntrl=    6100 IOpCl=  0
         NMat0=    1 NMatS0=    1 NMatT0=    0 NMatD0=    1 NMtDS0=    0 NMtDT0=    0
         I1Cent=           7 NGrid=        1849.
 Symmetry not used in FoFCou.
          There are     3 degrees of freedom in the 1st order CPHF.  IDoFFX=0.
      3 vectors produced by pass  0 Test12= 4.01D-13 3.33D-08 XBig12= 3.35D+01 9.77D-01.
 AX will form     3 AO Fock derivatives at one time.
      3 vectors produced by pass  1 Test12= 4.01D-13 3.33D-08 XBig12= 7.98D-02 4.96D-02.
      3 vectors produced by pass  2 Test12= 4.01D-13 3.33D-08 XBig12= 1.87D-04 2.73D-03.
      3 vectors produced by pass  3 Test12= 4.01D-13 3.33D-08 XBig12= 7.25D-07 1.66D-04.
      3 vectors produced by pass  4 Test12= 4.01D-13 3.33D-08 XBig12= 2.27D-09 7.30D-06.
      3 vectors produced by pass  5 Test12= 4.01D-13 3.33D-08 XBig12= 7.45D-12 5.36D-07.
 Inverted reduced A of dimension    18 with in-core refinement.
 Calculating GIAO nuclear magnetic shielding tensors.
 SCF GIAO Magnetic shielding tensor (ppm):
      1  C    Isotropic =   170.7054   Anisotropy =    20.6675
   XX=   179.2712   YX=     2.4421   ZX=     4.9369
   XY=    -5.7667   YY=   176.8865   ZY=    18.1903
   XZ=     3.0040   YZ=    11.1912   ZZ=   155.9584
   Eigenvalues:   147.8009   179.8315   184.4837
      2  C    Isotropic =   127.8838   Anisotropy =    50.3896
   XX=   134.5351   YX=    -8.5465   ZX=    -4.4919
   XY=    -8.4350   YY=   148.3774   ZY=    24.4083
   XZ=    -6.7774   YZ=    21.8728   ZZ=   100.7388
   Eigenvalues:    91.2505   130.9240   161.4768
      3  N    Isotropic =   200.3418   Anisotropy =    72.4297
   XX=   243.1088   YX=     2.4198   ZX=   -20.3448
   XY=    14.3958   YY=   206.1949   ZY=    61.7886
   XZ=   -18.5262   YZ=    55.5068   ZZ=   151.7216
   Eigenvalues:   110.9844   241.4127   248.6283
      4  C    Isotropic =   139.6889   Anisotropy =    56.1854
   XX=   155.6932   YX=    12.7079   ZX=    18.1243
   XY=    22.2928   YY=   120.9682   ZY=    10.0566
   XZ=    17.7739   YZ=    18.1536   ZZ=   142.4053
   Eigenvalues:   111.8989   130.0219   177.1458
      5  C    Isotropic =   164.9618   Anisotropy =    22.9389
   XX=   179.1342   YX=    -0.5605   ZX=     0.4852
   XY=     4.0637   YY=   167.9968   ZY=    22.2646
   XZ=    -8.5344   YZ=    16.5303   ZZ=   147.7544
   Eigenvalues:   135.5621   179.0689   180.2544
      6  C    Isotropic =   123.5119   Anisotropy =    49.3613
   XX=   141.4797   YX=    17.3815   ZX=    -3.8601
   XY=    26.1060   YY=   113.9913   ZY=   -12.6738
   XZ=   -13.9748   YZ=    -0.7888   ZZ=   115.0647
   Eigenvalues:   101.7797   112.3365   156.4194
      7  C    Isotropic =   119.8344   Anisotropy =    54.9341
   XX=   140.0089   YX=    24.2221   ZX=   -23.4208
   XY=    16.8202   YY=   124.3744   ZY=     2.3946
   XZ=    -9.9700   YZ=     5.3435   ZZ=    95.1199
   Eigenvalues:    86.4194   116.6267   156.4571
      8  C    Isotropic =   122.8041   Anisotropy =    28.4694
   XX=   116.3418   YX=    -1.0236   ZX=     1.9219
   XY=    -3.7602   YY=   123.6019   ZY=   -14.1829
   XZ=    10.0424   YZ=   -13.9389   ZZ=   128.4686
   Eigenvalues:   110.8065   115.8221   141.7837
      9  H    Isotropic =    29.9225   Anisotropy =    11.6973
   XX=    32.6480   YX=    -2.0969   ZX=    -4.6255
   XY=    -3.0416   YY=    27.9677   ZY=     3.5677
   XZ=    -5.1360   YZ=     2.9306   ZZ=    29.1519
   Eigenvalues:    24.8865    27.1604    37.7207
     10  H    Isotropic =    29.3186   Anisotropy =     7.2565
   XX=    30.0743   YX=    -0.1221   ZX=     1.9887
   XY=     0.1585   YY=    31.3335   ZY=    -4.3078
   XZ=     2.4322   YZ=    -4.2201   ZZ=    26.5481
   Eigenvalues:    23.4838    30.3157    34.1563
     11  H    Isotropic =    27.9470   Anisotropy =     8.7784
   XX=    25.8206   YX=    -1.1768   ZX=    -1.4648
   XY=    -0.5060   YY=    24.7221   ZY=     1.6194
   XZ=    -1.7678   YZ=     0.5373   ZZ=    33.2984
   Eigenvalues:    24.2621    25.7797    33.7993
     12  H    Isotropic =    28.4030   Anisotropy =     9.7354
   XX=    27.2878   YX=     1.1575   ZX=     1.0715
   XY=     0.5126   YY=    33.5667   ZY=     3.3811
   XZ=     1.1371   YZ=     3.5365   ZZ=    24.3545
   Eigenvalues:    23.0517    27.2640    34.8933
     13  H    Isotropic =    29.2148   Anisotropy =     8.3908
   XX=    28.0902   YX=     0.3567   ZX=     2.1554
   XY=     1.1631   YY=    25.4783   ZY=     1.9549
   XZ=     0.9705   YZ=     1.3865   ZZ=    34.0759
   Eigenvalues:    25.0871    27.7486    34.8087
     14  H    Isotropic =    29.5076   Anisotropy =    10.9412
   XX=    29.1328   YX=     3.3307   ZX=    -3.6210
   XY=     3.7914   YY=    31.4200   ZY=    -3.2679
   XZ=    -3.8616   YZ=    -3.4793   ZZ=    27.9701
   Eigenvalues:    24.7481    26.9731    36.8018
     15  H    Isotropic =    29.4727   Anisotropy =    11.7364
   XX=    34.0359   YX=     1.7800   ZX=     4.6539
   XY=     2.5756   YY=    26.7070   ZY=     2.1927
   XZ=     4.7443   YZ=     1.7369   ZZ=    27.6753
   Eigenvalues:    24.7719    26.3493    37.2970
     16  H    Isotropic =    28.8454   Anisotropy =     2.5735
   XX=    28.1617   YX=    -0.6288   ZX=    -1.7438
   XY=    -1.0133   YY=    28.5112   ZY=    -0.6001
   XZ=    -0.7717   YZ=    -0.7827   ZZ=    29.8632
   Eigenvalues:    26.8325    29.1425    30.5610
     17  H    Isotropic =    27.1193   Anisotropy =     3.4555
   XX=    26.6515   YX=     1.5175   ZX=     1.0281
   XY=     0.6121   YY=    27.0701   ZY=    -1.1823
   XZ=     3.3951   YZ=    -0.9297   ZZ=    27.6362
   Eigenvalues:    24.1224    27.8125    29.4229
     18  H    Isotropic =    27.5211   Anisotropy =     8.7438
   XX=    23.4864   YX=    -0.3986   ZX=     1.2338
   XY=     0.1868   YY=    27.7208   ZY=     2.3592
   XZ=     0.8069   YZ=     4.1835   ZZ=    31.3561
   Eigenvalues:    23.2716    25.9415    33.3503
     19  O    Isotropic =   310.8251   Anisotropy =    46.7171
   XX=   314.1714   YX=    24.9468   ZX=   -23.3518
   XY=    24.7524   YY=   304.4879   ZY=    17.1767
   XZ=   -16.8034   YZ=   -10.1571   ZZ=   313.8161
   Eigenvalues:   276.9337   313.5718   341.9699
     20  H    Isotropic =    28.7062   Anisotropy =    18.3765
   XX=    35.7037   YX=     4.7090   ZX=    -3.8290
   XY=     4.2644   YY=    26.5966   ZY=    -8.3237
   XZ=    -5.1672   YZ=    -7.6492   ZZ=    23.8182
   Eigenvalues:    17.0820    28.0794    40.9572
     21  O    Isotropic =   304.6710   Anisotropy =    29.0633
   XX=   321.2515   YX=    -2.3249   ZX=   -16.2782
   XY=     3.6860   YY=   306.3965   ZY=    10.5292
   XZ=    -4.0916   YZ=     0.7312   ZZ=   286.3649
   Eigenvalues:   282.3010   307.6655   324.0465
     22  H    Isotropic =    29.5797   Anisotropy =    19.2483
   XX=    39.0800   YX=    -3.4702   ZX=    -6.7523
   XY=    -3.7964   YY=    28.2447   ZY=     0.6769
   XZ=    -6.8932   YZ=     1.3788   ZZ=    21.4142
   Eigenvalues:    19.0813    27.2458    42.4119
     23  C    Isotropic =   136.2823   Anisotropy =    59.5685
   XX=   115.3461   YX=    -7.4269   ZX=     8.2058
   XY=    -7.8581   YY=   127.9955   ZY=   -20.6257
   XZ=     9.5073   YZ=   -18.7375   ZZ=   165.5054
   Eigenvalues:   111.7462   121.1061   175.9946
     24  H    Isotropic =    27.7593   Anisotropy =     7.7268
   XX=    24.9663   YX=    -1.8773   ZX=     1.0039
   XY=    -2.2482   YY=    27.6017   ZY=     2.3164
   XZ=     0.9388   YZ=     4.4928   ZZ=    30.7097
   Eigenvalues:    22.9135    27.4539    32.9105
     25  H    Isotropic =    28.1339   Anisotropy =     6.5638
   XX=    29.9776   YX=    -1.3851   ZX=    -2.7520
   XY=     0.3678   YY=    26.8617   ZY=    -1.5648
   XZ=    -4.2562   YZ=    -1.3202   ZZ=    27.5625
   Eigenvalues:    24.2346    27.6574    32.5098
     26  O    Isotropic =   328.4971   Anisotropy =    49.3579
   XX=   351.4684   YX=     6.7808   ZX=   -22.1838
   XY=    -1.7214   YY=   306.5657   ZY=    15.7688
   XZ=   -14.5034   YZ=    -2.4458   ZZ=   327.4573
   Eigenvalues:   303.0965   320.9924   361.4024
     27  H    Isotropic =    29.1237   Anisotropy =    16.3665
   XX=    38.0991   YX=    -0.4717   ZX=    -4.4573
   XY=    -1.4131   YY=    23.5498   ZY=    -6.9160
   XZ=    -5.7549   YZ=    -5.4053   ZZ=    25.7222
   Eigenvalues:    17.5670    29.7695    40.0347
 End of Minotr Frequency-dependent properties file   721 does not exist.
 End of Minotr Frequency-dependent properties file   722 does not exist.

 **********************************************************************

            Population analysis using the SCF density.

 **********************************************************************

 Orbital symmetries:
       Occupied  (A) (A) (A) (A) (A) (A) (A) (A) (A) (A) (A) (A)
                 (A) (A) (A) (A) (A) (A) (A) (A) (A) (A) (A) (A)
                 (A) (A) (A) (A) (A) (A) (A) (A) (A) (A) (A) (A)
                 (A) (A) (A) (A) (A) (A) (A) (A) (A) (A) (A)
       Virtual   (A) (A) (A) (A) (A) (A) (A) (A) (A) (A) (A) (A)
                 (A) (A) (A) (A) (A) (A) (A) (A) (A) (A) (A) (A)
                 (A) (A) (A) (A) (A) (A) (A) (A) (A) (A) (A) (A)
                 (A) (A) (A) (A) (A) (A) (A) (A) (A) (A) (A) (A)
                 (A) (A) (A) (A) (A) (A) (A) (A) (A) (A) (A) (A)
                 (A) (A) (A) (A) (A) (A) (A) (A) (A) (A) (A) (A)
                 (A) (A) (A) (A) (A) (A) (A) (A) (A) (A) (A) (A)
                 (A) (A) (A) (A) (A) (A) (A) (A) (A) (A) (A) (A)
                 (A) (A) (A) (A) (A) (A) (A) (A) (A) (A) (A) (A)
                 (A) (A) (A) (A) (A) (A) (A) (A) (A) (A) (A) (A)
                 (A) (A) (A) (A) (A) (A) (A) (A) (A) (A) (A) (A)
                 (A) (A) (A) (A) (A) (A) (A) (A) (A) (A) (A) (A)
                 (A) (A) (A) (A) (A) (A) (A) (A) (A) (A) (A) (A)
                 (A) (A) (A) (A) (A) (A) (A) (A) (A) (A) (A) (A)
                 (A) (A) (A) (A) (A) (A) (A) (A) (A) (A) (A) (A)
                 (A) (A) (A) (A) (A) (A) (A) (A) (A) (A) (A) (A)
                 (A) (A) (A) (A) (A) (A) (A) (A) (A) (A) (A) (A)
                 (A) (A) (A) (A) (A) (A) (A) (A) (A) (A) (A) (A)
                 (A) (A) (A) (A) (A) (A) (A) (A) (A) (A) (A) (A)
                 (A) (A) (A) (A) (A) (A) (A) (A) (A) (A) (A) (A)
                 (A) (A) (A) (A) (A) (A) (A) (A) (A) (A) (A) (A)
                 (A) (A) (A) (A)
 The electronic state is 1-A.
 Alpha  occ. eigenvalues --  -19.26985 -19.25251 -19.25068 -14.41700 -10.30834
 Alpha  occ. eigenvalues --  -10.30412 -10.29630 -10.28182 -10.28015 -10.27009
 Alpha  occ. eigenvalues --  -10.24661 -10.24421  -1.08262  -1.05482  -1.05020
 Alpha  occ. eigenvalues --   -0.96553  -0.82974  -0.79544  -0.75090  -0.71892
 Alpha  occ. eigenvalues --   -0.66928  -0.61484  -0.60617  -0.57719  -0.54774
 Alpha  occ. eigenvalues --   -0.54646  -0.52396  -0.49763  -0.49440  -0.47747
 Alpha  occ. eigenvalues --   -0.46221  -0.44731  -0.43210  -0.42668  -0.40538
 Alpha  occ. eigenvalues --   -0.39621  -0.38996  -0.37735  -0.36652  -0.35522
 Alpha  occ. eigenvalues --   -0.34806  -0.33905  -0.33381  -0.31043  -0.30218
 Alpha  occ. eigenvalues --   -0.28880  -0.23675
 Alpha virt. eigenvalues --    0.00337   0.01273   0.02047   0.02341   0.04014
 Alpha virt. eigenvalues --    0.04411   0.04583   0.05023   0.05688   0.06998
 Alpha virt. eigenvalues --    0.07631   0.08110   0.09012   0.09291   0.09367
 Alpha virt. eigenvalues --    0.09979   0.11219   0.11880   0.12221   0.13165
 Alpha virt. eigenvalues --    0.13319   0.13968   0.14825   0.15119   0.15789
 Alpha virt. eigenvalues --    0.16236   0.16511   0.16718   0.17495   0.17785
 Alpha virt. eigenvalues --    0.18736   0.19537   0.20390   0.20474   0.20752
 Alpha virt. eigenvalues --    0.21509   0.21723   0.22202   0.22798   0.23262
 Alpha virt. eigenvalues --    0.24119   0.24149   0.25033   0.25225   0.25953
 Alpha virt. eigenvalues --    0.26287   0.26556   0.27765   0.28485   0.29100
 Alpha virt. eigenvalues --    0.29902   0.30434   0.30976   0.31121   0.31912
 Alpha virt. eigenvalues --    0.32916   0.33507   0.33657   0.34177   0.35077
 Alpha virt. eigenvalues --    0.35356   0.35795   0.36048   0.37151   0.38294
 Alpha virt. eigenvalues --    0.38480   0.39963   0.40510   0.40737   0.41267
 Alpha virt. eigenvalues --    0.41958   0.42594   0.44231   0.45837   0.47556
 Alpha virt. eigenvalues --    0.47985   0.64423   0.64892   0.67062   0.68538
 Alpha virt. eigenvalues --    0.69719   0.70527   0.71318   0.72892   0.74333
 Alpha virt. eigenvalues --    0.75715   0.76553   0.78338   0.79779   0.81362
 Alpha virt. eigenvalues --    0.82079   0.82702   0.86596   0.86656   0.88288
 Alpha virt. eigenvalues --    0.90696   0.92233   0.93705   0.94407   0.96464
 Alpha virt. eigenvalues --    0.98229   1.00186   1.02266   1.03562   1.04231
 Alpha virt. eigenvalues --    1.05599   1.06417   1.07656   1.09588   1.11488
 Alpha virt. eigenvalues --    1.12144   1.13491   1.13902   1.14101   1.16754
 Alpha virt. eigenvalues --    1.17008   1.18732   1.20326   1.22082   1.24229
 Alpha virt. eigenvalues --    1.26688   1.27249   1.30628   1.31712   1.32294
 Alpha virt. eigenvalues --    1.33299   1.36464   1.38424   1.39656   1.41372
 Alpha virt. eigenvalues --    1.41947   1.43585   1.46789   1.48301   1.51445
 Alpha virt. eigenvalues --    1.54375   1.57626   1.58390   1.59356   1.60865
 Alpha virt. eigenvalues --    1.61826   1.64484   1.67477   1.67622   1.69600
 Alpha virt. eigenvalues --    1.71401   1.74479   1.76860   1.78242   1.80939
 Alpha virt. eigenvalues --    1.81918   1.83452   1.84344   1.86494   1.87969
 Alpha virt. eigenvalues --    1.88907   1.89679   1.93521   1.94574   1.95914
 Alpha virt. eigenvalues --    1.97485   2.01311   2.02423   2.04033   2.05192
 Alpha virt. eigenvalues --    2.05644   2.06357   2.08850   2.10321   2.12375
 Alpha virt. eigenvalues --    2.13202   2.15743   2.16734   2.16997   2.17800
 Alpha virt. eigenvalues --    2.18611   2.22409   2.23663   2.25097   2.28188
 Alpha virt. eigenvalues --    2.30238   2.32759   2.34702   2.36745   2.40131
 Alpha virt. eigenvalues --    2.41184   2.43001   2.44996   2.46822   2.49133
 Alpha virt. eigenvalues --    2.49729   2.50211   2.51004   2.52174   2.53452
 Alpha virt. eigenvalues --    2.55883   2.58191   2.61046   2.62001   2.62373
 Alpha virt. eigenvalues --    2.64552   2.66719   2.68559   2.68775   2.69692
 Alpha virt. eigenvalues --    2.70859   2.73482   2.74322   2.77101   2.78348
 Alpha virt. eigenvalues --    2.79556   2.80611   2.81237   2.83736   2.85723
 Alpha virt. eigenvalues --    2.86878   2.87624   2.90535   2.92208   2.95008
 Alpha virt. eigenvalues --    2.99512   3.00532   3.01171   3.02425   3.03620
 Alpha virt. eigenvalues --    3.06583   3.09771   3.12046   3.14413   3.32143
 Alpha virt. eigenvalues --    3.34421   3.36295   3.37251   3.43039   3.44965
 Alpha virt. eigenvalues --    3.47922   3.49524   3.50945   3.53142   3.56265
 Alpha virt. eigenvalues --    3.57697   3.58996   3.59875   3.63007   4.28359
 Alpha virt. eigenvalues --    4.31617   4.39531   4.47792   4.49947   4.51533
 Alpha virt. eigenvalues --    4.60592   4.72607   4.78725   4.79455   4.88526
 Alpha virt. eigenvalues --    5.01008
          Condensed to atoms (all electrons):
              1          2          3          4          5          6
     1  C    5.984904  -0.578506   0.057033  -0.201578   0.160196   0.114741
     2  C   -0.578506   8.797872  -0.182165  -0.202703   0.116144  -1.065780
     3  N    0.057033  -0.182165   7.613468   0.237728  -0.153244  -0.445106
     4  C   -0.201578  -0.202703   0.237728   5.564270   0.213792  -0.183614
     5  C    0.160196   0.116144  -0.153244   0.213792   5.478052  -0.014156
     6  C    0.114741  -1.065780  -0.445106  -0.183614  -0.014156   9.371357
     7  C   -0.071943   0.605816   0.032077  -0.068100  -0.037592  -1.153621
     8  C    0.114203  -1.156886  -0.215948   0.150971  -0.074476   0.997695
     9  H    0.358869  -0.042186   0.011837   0.020576  -0.019810   0.007497
    10  H    0.515748  -0.220172   0.028876   0.014276  -0.068711   0.013283
    11  H    0.061566   0.131839  -0.015684   0.010479  -0.021552   0.058396
    12  H    0.030252   0.007448  -0.055438   0.375043  -0.027272   0.005604
    13  H    0.008917  -0.003986  -0.077930   0.442514  -0.041446  -0.024581
    14  H   -0.017954  -0.051716   0.016878  -0.037798   0.401287   0.005720
    15  H   -0.069575   0.050483   0.003749  -0.021946   0.382011  -0.004892
    16  H    0.002469   0.039322  -0.015419   0.032619   0.000845   0.135906
    17  H    0.010307  -0.014663   0.069122   0.012884   0.001876  -0.197098
    18  H   -0.003186  -0.085134   0.022387  -0.002385   0.004116   0.030895
    19  O    0.071309  -0.331407   0.053957   0.002010  -0.012580  -0.000709
    20  H   -0.011641   0.071551  -0.000727  -0.002614   0.003962  -0.037545
    21  O   -0.002880   0.057851   0.018446   0.003131   0.007447  -0.100229
    22  H    0.000941  -0.010416  -0.002812   0.000808  -0.000719   0.019544
    23  C   -0.016172  -0.008316   0.178017  -0.092285   0.013433  -1.247653
    24  H    0.000914  -0.005837  -0.010861   0.016247   0.004849  -0.053260
    25  H    0.000304   0.012978   0.013650  -0.003522  -0.001156  -0.173378
    26  O    0.005605  -0.005329   0.045025   0.000258  -0.001413  -0.238035
    27  H    0.000946   0.019210   0.045776   0.006661  -0.005606  -0.076063
              7          8          9         10         11         12
     1  C   -0.071943   0.114203   0.358869   0.515748   0.061566   0.030252
     2  C    0.605816  -1.156886  -0.042186  -0.220172   0.131839   0.007448
     3  N    0.032077  -0.215948   0.011837   0.028876  -0.015684  -0.055438
     4  C   -0.068100   0.150971   0.020576   0.014276   0.010479   0.375043
     5  C   -0.037592  -0.074476  -0.019810  -0.068711  -0.021552  -0.027272
     6  C   -1.153621   0.997695   0.007497   0.013283   0.058396   0.005604
     7  C    6.878307  -0.899780  -0.002301  -0.011778  -0.053686   0.000242
     8  C   -0.899780   6.796505   0.004727   0.053809   0.092358  -0.007751
     9  H   -0.002301   0.004727   0.519610  -0.024612  -0.004696  -0.000103
    10  H   -0.011778   0.053809  -0.024612   0.505677   0.003866  -0.000050
    11  H   -0.053686   0.092358  -0.004696   0.003866   0.557322   0.000174
    12  H    0.000242  -0.007751  -0.000103  -0.000050   0.000174   0.541413
    13  H    0.015997  -0.001004  -0.000141   0.001019  -0.000478  -0.041908
    14  H   -0.002214   0.014227  -0.005158   0.004029   0.000794  -0.006086
    15  H    0.002048  -0.001419   0.000511  -0.005417  -0.000112   0.000678
    16  H    0.058498  -0.038353  -0.000010  -0.000164  -0.000595  -0.000989
    17  H    0.403222  -0.042378   0.000002  -0.000012   0.000371   0.000009
    18  H    0.010076   0.324359   0.000359   0.000106  -0.001335   0.000005
    19  O   -0.069725   0.299974   0.000187   0.000932   0.006816   0.000116
    20  H   -0.020912  -0.022995   0.000000   0.000058  -0.000232  -0.000001
    21  O    0.285754  -0.210038   0.000017  -0.000191  -0.000562   0.000021
    22  H    0.004463   0.043506   0.000000   0.000001   0.000006   0.000000
    23  C    0.313826  -0.328916   0.001033  -0.000771   0.002850   0.009186
    24  H   -0.004733  -0.006172   0.000000   0.000001   0.000010   0.000123
    25  H    0.039958  -0.014455   0.000000   0.000000  -0.000004  -0.000011
    26  O    0.051533  -0.034340  -0.000001   0.000017   0.001344   0.001258
    27  H   -0.007482  -0.007649  -0.000001  -0.000001  -0.000556  -0.000390
             13         14         15         16         17         18
     1  C    0.008917  -0.017954  -0.069575   0.002469   0.010307  -0.003186
     2  C   -0.003986  -0.051716   0.050483   0.039322  -0.014663  -0.085134
     3  N   -0.077930   0.016878   0.003749  -0.015419   0.069122   0.022387
     4  C    0.442514  -0.037798  -0.021946   0.032619   0.012884  -0.002385
     5  C   -0.041446   0.401287   0.382011   0.000845   0.001876   0.004116
     6  C   -0.024581   0.005720  -0.004892   0.135906  -0.197098   0.030895
     7  C    0.015997  -0.002214   0.002048   0.058498   0.403222   0.010076
     8  C   -0.001004   0.014227  -0.001419  -0.038353  -0.042378   0.324359
     9  H   -0.000141  -0.005158   0.000511  -0.000010   0.000002   0.000359
    10  H    0.001019   0.004029  -0.005417  -0.000164  -0.000012   0.000106
    11  H   -0.000478   0.000794  -0.000112  -0.000595   0.000371  -0.001335
    12  H   -0.041908  -0.006086   0.000678  -0.000989   0.000009   0.000005
    13  H    0.572683   0.003984  -0.004487   0.012792  -0.000015  -0.000012
    14  H    0.003984   0.521738  -0.024698  -0.000010  -0.000002   0.000000
    15  H   -0.004487  -0.024698   0.515429  -0.000014   0.000000   0.000002
    16  H    0.012792  -0.000010  -0.000014   0.588744   0.004597  -0.000190
    17  H   -0.000015  -0.000002   0.000000   0.004597   0.555075  -0.003257
    18  H   -0.000012   0.000000   0.000002  -0.000190  -0.003257   0.571782
    19  O    0.000346   0.000025   0.000137   0.008789   0.007844  -0.043870
    20  H    0.000058   0.000001  -0.000001   0.001280   0.000662  -0.000787
    21  O   -0.000115  -0.000009  -0.000009   0.010982  -0.027034   0.000803
    22  H    0.000000   0.000000   0.000000  -0.001893  -0.004931  -0.000171
    23  C   -0.015094  -0.000988   0.000945  -0.016333   0.023013   0.014409
    24  H    0.000152   0.000004   0.000000  -0.001036   0.000135   0.000003
    25  H    0.000004   0.000000   0.000000   0.000932   0.000368  -0.000004
    26  O   -0.000268   0.000040  -0.000004   0.010393   0.014404   0.000259
    27  H    0.000111   0.000000  -0.000001   0.000594  -0.000389  -0.000017
             19         20         21         22         23         24
     1  C    0.071309  -0.011641  -0.002880   0.000941  -0.016172   0.000914
     2  C   -0.331407   0.071551   0.057851  -0.010416  -0.008316  -0.005837
     3  N    0.053957  -0.000727   0.018446  -0.002812   0.178017  -0.010861
     4  C    0.002010  -0.002614   0.003131   0.000808  -0.092285   0.016247
     5  C   -0.012580   0.003962   0.007447  -0.000719   0.013433   0.004849
     6  C   -0.000709  -0.037545  -0.100229   0.019544  -1.247653  -0.053260
     7  C   -0.069725  -0.020912   0.285754   0.004463   0.313826  -0.004733
     8  C    0.299974  -0.022995  -0.210038   0.043506  -0.328916  -0.006172
     9  H    0.000187   0.000000   0.000017   0.000000   0.001033   0.000000
    10  H    0.000932   0.000058  -0.000191   0.000001  -0.000771   0.000001
    11  H    0.006816  -0.000232  -0.000562   0.000006   0.002850   0.000010
    12  H    0.000116  -0.000001   0.000021   0.000000   0.009186   0.000123
    13  H    0.000346   0.000058  -0.000115   0.000000  -0.015094   0.000152
    14  H    0.000025   0.000001  -0.000009   0.000000  -0.000988   0.000004
    15  H    0.000137  -0.000001  -0.000009   0.000000   0.000945   0.000000
    16  H    0.008789   0.001280   0.010982  -0.001893  -0.016333  -0.001036
    17  H    0.007844   0.000662  -0.027034  -0.004931   0.023013   0.000135
    18  H   -0.043870  -0.000787   0.000803  -0.000171   0.014409   0.000003
    19  O    8.295642   0.242986  -0.003173  -0.000829   0.055517   0.000279
    20  H    0.242986   0.357933   0.024703  -0.000879   0.002248  -0.000001
    21  O   -0.003173   0.024703   8.282822   0.225835  -0.013565   0.000487
    22  H   -0.000829  -0.000879   0.225835   0.370456  -0.029449  -0.000198
    23  C    0.055517   0.002248  -0.013565  -0.029449   6.224270   0.414003
    24  H    0.000279  -0.000001   0.000487  -0.000198   0.414003   0.576950
    25  H   -0.000213   0.000005  -0.000687   0.003880   0.501828  -0.039423
    26  O    0.001558   0.000050   0.002486  -0.002504   0.272489  -0.046921
    27  H   -0.000045   0.000000   0.000305   0.000034   0.028128  -0.004025
             25         26         27
     1  C    0.000304   0.005605   0.000946
     2  C    0.012978  -0.005329   0.019210
     3  N    0.013650   0.045025   0.045776
     4  C   -0.003522   0.000258   0.006661
     5  C   -0.001156  -0.001413  -0.005606
     6  C   -0.173378  -0.238035  -0.076063
     7  C    0.039958   0.051533  -0.007482
     8  C   -0.014455  -0.034340  -0.007649
     9  H    0.000000  -0.000001  -0.000001
    10  H    0.000000   0.000017  -0.000001
    11  H   -0.000004   0.001344  -0.000556
    12  H   -0.000011   0.001258  -0.000390
    13  H    0.000004  -0.000268   0.000111
    14  H    0.000000   0.000040   0.000000
    15  H    0.000000  -0.000004  -0.000001
    16  H    0.000932   0.010393   0.000594
    17  H    0.000368   0.014404  -0.000389
    18  H   -0.000004   0.000259  -0.000017
    19  O   -0.000213   0.001558  -0.000045
    20  H    0.000005   0.000050   0.000000
    21  O   -0.000687   0.002486   0.000305
    22  H    0.003880  -0.002504   0.000034
    23  C    0.501828   0.272489   0.028128
    24  H   -0.039423  -0.046921  -0.004025
    25  H    0.557888  -0.057970   0.006508
    26  O   -0.057970   8.287333   0.248082
    27  H    0.006508   0.248082   0.356948
 Mulliken atomic charges:
              1
     1  C   -0.525789
     2  C    0.054688
     3  N   -0.272692
     4  C   -0.287722
     5  C   -0.308278
     6  C    0.255083
     7  C   -0.297948
     8  C    0.170227
     9  H    0.173792
    10  H    0.190180
    11  H    0.171300
    12  H    0.168425
    13  H    0.152889
    14  H    0.177906
    15  H    0.176583
    16  H    0.166245
    17  H    0.185886
    18  H    0.160789
    19  O   -0.585876
    20  H    0.392837
    21  O   -0.562599
    22  H    0.385325
    23  C   -0.285655
    24  H    0.158310
    25  H    0.152520
    26  O   -0.555351
    27  H    0.388923
 Sum of Mulliken atomic charges =   0.00000
 Mulliken charges with hydrogens summed into heavy atoms:
              1
     1  C   -0.161817
     2  C    0.225989
     3  N   -0.272692
     4  C    0.033592
     5  C    0.046210
     6  C    0.421328
     7  C   -0.112062
     8  C    0.331016
    19  O   -0.193039
    21  O   -0.177274
    23  C    0.025175
    26  O   -0.166428
 Sum of Mulliken charges with hydrogens summed into heavy atoms =   0.00000
 Electronic spatial extent (au):  <R**2>=           2008.8445
 Charge=              0.0000 electrons
 Dipole moment (field-independent basis, Debye):
    X=             -0.6213    Y=             -0.6189    Z=             -0.8941  Tot=              1.2524
 Quadrupole moment (field-independent basis, Debye-Ang):
   XX=            -71.7035   YY=            -81.8967   ZZ=            -70.6173
   XY=              7.7578   XZ=             -7.0856   YZ=              4.7425
 Traceless Quadrupole moment (field-independent basis, Debye-Ang):
   XX=              3.0357   YY=             -7.1575   ZZ=              4.1218
   XY=              7.7578   XZ=             -7.0856   YZ=              4.7425
 Octapole moment (field-independent basis, Debye-Ang**2):
  XXX=             12.2307  YYY=              0.3719  ZZZ=              1.7717  XYY=            -10.4785
  XXY=             12.9034  XXZ=            -17.5541  XZZ=              2.7339  YZZ=              4.3154
  YYZ=             -4.7827  XYZ=              2.6837
 Hexadecapole moment (field-independent basis, Debye-Ang**3):
 XXXX=          -1295.0133 YYYY=           -983.2115 ZZZZ=           -272.3942 XXXY=             57.3513
 XXXZ=            -52.4101 YYYX=             41.4547 YYYZ=             -3.7295 ZZZX=             -2.6775
 ZZZY=            -14.1301 XXYY=           -451.5996 XXZZ=           -271.2538 YYZZ=           -192.7439
 XXYZ=             17.1283 YYXZ=            -25.7902 ZZXY=              7.5951
 N-N= 8.111038985450D+02 E-N=-3.007897464687D+03  KE= 5.886621004065D+02
 1\1\GINC-COMPUTE-3-1\SP\RmPW1PW91\6-31+G(d,p)\C8H15N1O3\MAMICHETTI.IQU
 IR\17-May-2024\0\\# mpw1pw91/6-31+G** nmr scrf=(pcm,solvent=water)\\co
 mment\\0,1\C,0,-2.482989,0.404701,0.335168\C,0,-1.033988,0.346837,0.84
 5532\N,0,-0.393632,-0.824487,0.144305\C,0,-1.389296,-1.421227,-0.76868
 3\C,0,-2.738608,-1.029528,-0.158869\C,0,0.860215,-0.371581,-0.481994\C
 ,0,1.239733,0.861668,0.357676\C,0,-0.114927,1.547628,0.577751\H,0,-3.1
 83123,0.724233,1.112761\H,0,-2.561893,1.104354,-0.501831\H,0,-1.026179
 ,0.159304,1.926661\H,0,-1.258956,-2.506586,-0.845411\H,0,-1.29315,-1.0
 04166,-1.785394\H,0,-2.979914,-1.689526,0.683103\H,0,-3.555946,-1.0950
 64,-0.883727\H,0,0.700297,-0.039459,-1.52179\H,0,1.650087,0.539632,1.3
 23895\H,0,-0.095756,2.2473,1.423614\O,0,-0.500719,2.237013,-0.615176\H
 ,0,0.322385,2.619877,-0.97064\O,0,2.126854,1.77255,-0.28581\H,0,2.9188
 07,1.283315,-0.56539\C,0,1.908936,-1.483729,-0.497185\H,0,1.599409,-2.
 268201,-1.204426\H,0,2.872869,-1.091024,-0.841778\O,0,2.11606,-2.03483
 3,0.803628\H,0,1.214468,-2.139036,1.162715\\Version=AM64L-G09RevC.01\S
 tate=1-A\HF=-594.2021561\RMSD=4.525e-09\Dipole=-0.2444381,-0.2435021,-
 0.3517824\Quadrupole=2.2569764,-5.3214501,3.0644737,5.7677684,-5.26796
 4,3.5259223\PG=C01 [X(C8H15N1O3)]\\@


                                                                                    A
                                                                                  AA
                                                                                 AAA
                                                                                AAAA
                                                                               AAAAA
                                                                              AAAAAA   KKKKKKKK
                                                                             AAAAAAA   KKKKKKKK
                                                                            AAAAAAAA   KKKKKKKK
                                       ZZZZZZZZZZZZZZZZZZZZ                AAAA  AAA   KKKKKKKK
                                       ZZZZZZZZZZZZZZZZZZZ                AAAA   AAA   KKKKKKKK          K
                                       ZZZZZZZZZZZZZZZZZZ                AAAA    AAA   KKKKKKKK         KKK
                                       ZZZZZZZZZZZZZZZZZ                AAAA     AAA   KKKKKKKK        KKKKK
                                       ZZZZZZZZZZZZZZZZ                AAAA      AAA   KKKKKKKK       KKKKKKK
                                                ZZZZZZ                AAAA       AAA   KKKKKKKK      KKKKKKK
                                               ZZZZZZ                AAAA        AAA   KKKKKKKK     KKKKKKK
                                              ZZZZZZ                AAAA         AAA   KKKKKKKK    KKKKKKK
                                             ZZZZZZ                AAAA          AAA   KKKKKKKK   KKKKKKK
                                            ZZZZZZ                AAAAAAAAAAAAAAAAAA   KKKKKKKK  KKKKKKK
                                           ZZZZZZ                AAAAAAAAAAAAAAAAAAA   KKKKKKKK KKKKKKK
                                          ZZZZZZ                AAAAAAAAAAAAAAAAAAAA   KKKKKKKKKKKKKKK
                                         ZZZZZZ                AAAAAAAAAAAAAAAAAAAAA   KKKKKKKKKKKKKK
                                        ZZZZZZ                AAAAAA        AAAAAAAA   KKKKKKKKKKKKK
                                       ZZZZZZ                AAAAAA         AAAAAAAA   KKKKKKKKKKKK
                                      ZZZZZZ                AAAAAA          AAAAAAAA   KKKKKKKKKKK
                                     ZZZZZZ                AAAAAA           AAAAAAAA   KKKKKKKKKKKK
                                    ZZZZZZ                AAAAAA            AAAAAAAA   KKKKKKKKKKKKK
                                   ZZZZZZ                AAAAAA             AAAAAAAA   KKKKKKKKKKKKKK
                                  ZZZZZZ                AAAAAA              AAAAAAAA   KKKKKKKKKKKKKKK
                                 ZZZZZZ                AAAAAA               AAAAAAAA   KKKKK KKKKKKKKKK
                                ZZZZZZ                AAAAAA                AAAAAAAA   KKKKK  KKKKKKKKKK
                               ZZZZZZ                AAAAAA                            KKKKK   KKKKKKKKKK
                              ZZZZZZ                AAAAAA                             KKKKK    KKKKKKKKKK
                             ZZZZZZ                                                    KKKKK     KKKKKKKKKK
                            ZZZZZZ                                                     KKKKK      KKKKKKKKKK
                           ZZZZZZ                                                      KKKKK       KKKKKKKKKK
                          ZZZZZZ                                                       KKKKK        KKKKKKKKKK
                         ZZZZZZZZZZZZZZZZZZZZZZZZZZZZZZZZZZZZZZZZ                      KKKKK         KKKKKKKKKK
                        ZZZZZZZZZZZZZZZZZZZZZZZZZZZZZZZZZZZZZZZZZ                      KKKKK          KKKKKKKKKK
                       ZZZZZZZZZZZZZZZZZZZZZZZZZZZZZZZZZZZZZZZZZZ                      KKKKK           KKKKKKKKKK
                       ZZZZZZZZZZZZZZZZZZZZZZZZZZZZZZZZZZZZZZZZZZ                      KKKKK            KKKKKKKKKK
                       ZZZZZZZZZZZZZZZZZZZZZZZZZZZZZZZZZZZZZZZZZZ                      KKKKK             KKKKKKKKKK
                       ZZZZZZZZZZZZZZZZZZZZZZZZZZZZZZZZZZZZZZZZZZ                      KKKKK              KKKKKKKKKK
                       ZZZZZZZZZZZZZZZZZZZZZZZZZZZZZZZZZZZZZZZZZZ                      KKKKK               KKKKKKKKKK
                       ZZZZZZZZZZZZZZZZZZZZZZZZZZZZZZZZZZZZZZZZZZ                      KKKKK                KKKKKKKKKK
                       ZZZZZZZZZZZZZZZZZZZZZZZZZZZZZZZZZZZZZZZZZZ                      KKKKK
                                                                                       KKKKK
                                                                                          (J.P.)
 Job cpu time:  0 days  0 hours  8 minutes 35.2 seconds.
 File lengths (MBytes):  RWF=    114 Int=      0 D2E=      0 Chk=      7 Scr=      1
 Normal termination of Gaussian 09 at Fri May 17 12:12:31 2024.
