 Entering Gaussian System, Link 0=g09
 Input=/home/mamichetti.iquir/Linux/01_Cardona_A1A3_R__S_R_R_043_OptB.gjc
 Output=/home/mamichetti.iquir/Linux/01_Cardona_A1A3_R__S_R_R_043_OptB.log
 Initial command:
 /opt/ohpc/pub/apps/software/Gaussian/09/AMD64.SSE4a-enabled/g09/l1.exe /local/mamichetti.iquir/Gau-404915.inp -scrdir=/local/mamichetti.iquir/
 Entering Link 1 = /opt/ohpc/pub/apps/software/Gaussian/09/AMD64.SSE4a-enabled/g09/l1.exe PID=    404916.
  
 Copyright (c) 1988,1990,1992,1993,1995,1998,2003,2009,2011,
            Gaussian, Inc.  All Rights Reserved.
  
 This is part of the Gaussian(R) 09 program.  It is based on
 the Gaussian(R) 03 system (copyright 2003, Gaussian, Inc.),
 the Gaussian(R) 98 system (copyright 1998, Gaussian, Inc.),
 the Gaussian(R) 94 system (copyright 1995, Gaussian, Inc.),
 the Gaussian 92(TM) system (copyright 1992, Gaussian, Inc.),
 the Gaussian 90(TM) system (copyright 1990, Gaussian, Inc.),
 the Gaussian 88(TM) system (copyright 1988, Gaussian, Inc.),
 the Gaussian 86(TM) system (copyright 1986, Carnegie Mellon
 University), and the Gaussian 82(TM) system (copyright 1983,
 Carnegie Mellon University). Gaussian is a federally registered
 trademark of Gaussian, Inc.
  
 This software contains proprietary and confidential information,
 including trade secrets, belonging to Gaussian, Inc.
  
 This software is provided under written license and may be
 used, copied, transmitted, or stored only in accord with that
 written license.
  
 The following legend is applicable only to US Government
 contracts under FAR:
  
                    RESTRICTED RIGHTS LEGEND
  
 Use, reproduction and disclosure by the US Government is
 subject to restrictions as set forth in subparagraphs (a)
 and (c) of the Commercial Computer Software - Restricted
 Rights clause in FAR 52.227-19.
  
 Gaussian, Inc.
 340 Quinnipiac St., Bldg. 40, Wallingford CT 06492
  
  
 ---------------------------------------------------------------
 Warning -- This program may not be used in any manner that
 competes with the business of Gaussian, Inc. or will provide
 assistance to any competitor of Gaussian, Inc.  The licensee
 of this program is prohibited from giving any competitor of
 Gaussian, Inc. access to this program.  By using this program,
 the user acknowledges that Gaussian, Inc. is engaged in the
 business of creating and licensing software in the field of
 computational chemistry and represents and warrants to the
 licensee that it is not a competitor of Gaussian, Inc. and that
 it will not use this program in any manner prohibited above.
 ---------------------------------------------------------------
  

 Cite this work as:
 Gaussian 09, Revision C.01,
 M. J. Frisch, G. W. Trucks, H. B. Schlegel, G. E. Scuseria, 
 M. A. Robb, J. R. Cheeseman, G. Scalmani, V. Barone, B. Mennucci, 
 G. A. Petersson, H. Nakatsuji, M. Caricato, X. Li, H. P. Hratchian, 
 A. F. Izmaylov, J. Bloino, G. Zheng, J. L. Sonnenberg, M. Hada, 
 M. Ehara, K. Toyota, R. Fukuda, J. Hasegawa, M. Ishida, T. Nakajima, 
 Y. Honda, O. Kitao, H. Nakai, T. Vreven, J. A. Montgomery, Jr., 
 J. E. Peralta, F. Ogliaro, M. Bearpark, J. J. Heyd, E. Brothers, 
 K. N. Kudin, V. N. Staroverov, T. Keith, R. Kobayashi, J. Normand, 
 K. Raghavachari, A. Rendell, J. C. Burant, S. S. Iyengar, J. Tomasi, 
 M. Cossi, N. Rega, J. M. Millam, M. Klene, J. E. Knox, J. B. Cross, 
 V. Bakken, C. Adamo, J. Jaramillo, R. Gomperts, R. E. Stratmann, 
 O. Yazyev, A. J. Austin, R. Cammi, C. Pomelli, J. W. Ochterski, 
 R. L. Martin, K. Morokuma, V. G. Zakrzewski, G. A. Voth, 
 P. Salvador, J. J. Dannenberg, S. Dapprich, A. D. Daniels, 
 O. Farkas, J. B. Foresman, J. V. Ortiz, J. Cioslowski, 
 and D. J. Fox, Gaussian, Inc., Wallingford CT, 2010.
 
 ******************************************
 Gaussian 09:  AM64L-G09RevC.01 23-Sep-2011
                17-May-2024 
 ******************************************
 %nprocshared=4
 Will use up to    4 processors via shared memory.
 ------------------------------------------------
 # mpw1pw91/6-31+G** nmr scrf=(pcm,solvent=water)
 ------------------------------------------------
 1/38=1/1;
 2/12=2,17=6,18=5,40=1/2;
 3/5=1,6=6,7=111,11=2,16=1,25=1,30=1,70=2201,72=1,74=-7/1,2,8,3;
 4//1;
 5/5=2,38=5,53=1/2;
 8/6=1,10=90,11=11/1;
 10/13=100,45=16/2;
 6/7=2,8=2,9=2,10=2,28=1/1;
 99/9=1/99;
 -------
 comment
 -------
 Charge =  0 Multiplicity = 1
 Symbolic Z-Matrix:
 6                    -2.60145   0.43293   0.01158 
 6                    -1.26196   0.46827   0.76125 
 7                    -0.57568  -0.84435   0.45511 
 6                    -1.45016  -1.61488  -0.45136 
 6                    -2.85475  -1.07208  -0.17592 
 6                     0.76352  -0.55063  -0.06609 
 6                     1.08634   0.81791   0.56052 
 6                    -0.2459    1.57363   0.41124 
 1                    -3.39759   0.94154   0.56335 
 1                    -2.50767   0.92013  -0.96518 
 1                    -1.44454   0.5248    1.84155 
 1                    -1.3689   -2.69172  -0.26495 
 1                    -1.17737  -1.44262  -1.50666 
 1                    -3.25747  -1.51028   0.7453 
 1                    -3.55278  -1.29357  -0.98918 
 1                     0.75212  -0.43062  -1.16728 
 1                     1.31807   0.68848   1.62336 
 1                    -0.32014   2.43166   1.08279 
 8                    -0.35568   2.12671  -0.90721 
 1                    -0.4026    1.39889  -1.55138 
 8                     2.2103    1.47504  -0.01755 
 1                     1.9062    1.80508  -0.88394 
 6                     1.817    -1.61012   0.24968 
 1                     1.94011  -1.70088   1.34 
 1                     1.51164  -2.58955  -0.13496 
 8                     3.06297  -1.28786  -0.38049 
 1                     3.17413  -0.32226  -0.28201 
 
                          Input orientation:                          
 ---------------------------------------------------------------------
 Center     Atomic      Atomic             Coordinates (Angstroms)
 Number     Number       Type             X           Y           Z
 ---------------------------------------------------------------------
      1          6           0       -2.601449    0.432929    0.011580
      2          6           0       -1.261961    0.468274    0.761251
      3          7           0       -0.575677   -0.844353    0.455109
      4          6           0       -1.450156   -1.614879   -0.451364
      5          6           0       -2.854750   -1.072078   -0.175916
      6          6           0        0.763518   -0.550629   -0.066091
      7          6           0        1.086335    0.817909    0.560519
      8          6           0       -0.245901    1.573633    0.411238
      9          1           0       -3.397586    0.941544    0.563345
     10          1           0       -2.507668    0.920130   -0.965183
     11          1           0       -1.444541    0.524803    1.841547
     12          1           0       -1.368898   -2.691720   -0.264949
     13          1           0       -1.177370   -1.442619   -1.506655
     14          1           0       -3.257467   -1.510275    0.745301
     15          1           0       -3.552778   -1.293567   -0.989179
     16          1           0        0.752121   -0.430618   -1.167283
     17          1           0        1.318065    0.688475    1.623355
     18          1           0       -0.320140    2.431664    1.082790
     19          8           0       -0.355677    2.126707   -0.907208
     20          1           0       -0.402603    1.398893   -1.551383
     21          8           0        2.210298    1.475042   -0.017549
     22          1           0        1.906197    1.805076   -0.883939
     23          6           0        1.816997   -1.610117    0.249683
     24          1           0        1.940107   -1.700881    1.339996
     25          1           0        1.511644   -2.589550   -0.134963
     26          8           0        3.062971   -1.287860   -0.380489
     27          1           0        3.174127   -0.322261   -0.282005
 ---------------------------------------------------------------------
                    Distance matrix (angstroms):
                    1          2          3          4          5
     1  C    0.000000
     2  C    1.535410   0.000000
     3  N    2.435553   1.512514   0.000000
     4  C    2.394433   2.417722   1.476522   0.000000
     5  C    1.537648   2.405814   2.375758   1.530813   0.000000
     6  C    3.506625   2.413550   1.466754   2.486245   3.657299
     7  C    3.748239   2.382652   2.352979   3.657342   4.432442
     8  C    2.647553   1.541657   2.440765   3.515810   3.761732
     9  H    1.094060   2.196371   3.341304   3.370077   2.212657
    10  H    1.095548   2.176358   2.977116   2.794389   2.170784
    11  H    2.166946   1.097074   2.133477   3.136194   2.934088
    12  H    3.370324   3.324167   2.135521   1.095874   2.199755
    13  H    2.801913   2.966827   2.137399   1.103506   2.172964
    14  H    2.178244   2.810152   2.778428   2.170097   1.096740
    15  H    2.210732   3.378747   3.339295   2.193970   1.094394
    16  H    3.658123   2.929808   2.136909   2.600969   3.795234
    17  H    4.245670   2.729147   2.701966   4.156073   4.873326
    18  H    3.216645   2.201207   3.345380   4.472703   4.503865
    19  O    2.959146   2.521013   3.275898   3.924939   4.124607
    20  H    2.865460   2.636821   3.014650   3.374942   3.743078
    21  O    4.923389   3.698201   3.655770   4.809858   5.671650
    22  H    4.796208   3.811944   3.869396   4.811270   5.607667
    23  C    4.873745   3.749852   2.520612   3.341523   4.721847
    24  H    5.190719   3.910680   2.801042   3.835394   5.067942
    25  H    5.106309   4.224497   2.784027   3.134063   4.622748
    26  O    5.933000   4.805477   3.759612   4.525514   5.925186
    27  H    5.832134   4.625171   3.857065   4.804533   6.076252
                    6          7          8          9         10
     6  C    0.000000
     7  C    1.539398   0.000000
     8  C    2.399846   1.538914   0.000000
     9  H    4.465149   4.485626   3.218042   0.000000
    10  H    3.697588   3.905774   2.727121   1.768844   0.000000
    11  H    3.109849   2.851715   2.140693   2.371046   3.027252
    12  H    3.028368   4.362002   4.462240   4.242906   3.851310
    13  H    2.576416   3.808879   3.693741   3.859857   2.765044
    14  H    4.212790   4.931856   4.323380   2.462551   3.065097
    15  H    4.475987   5.327407   4.595371   2.725828   2.448119
    16  H    1.107771   2.157735   2.739489   4.700848   3.534344
    17  H    2.167286   1.095478   2.167654   4.839941   4.624978
    18  H    3.374658   2.203439   1.092113   3.458461   3.356219
    19  O    3.021292   2.438560   1.433960   3.580551   2.467844
    20  H    2.714142   2.648511   1.976606   3.694748   2.236994
    21  O    2.489753   1.424528   2.495294   5.663075   4.844083
    22  H    2.742980   1.932131   2.522415   5.565108   4.502436
    23  C    1.527104   2.554564   3.797093   5.813883   5.155655
    24  H    2.164376   2.771428   4.045203   6.006377   5.653870
    25  H    2.172932   3.503621   4.551856   6.087430   5.400184
    26  O    2.435126   3.037573   4.445628   6.899265   6.020723
    27  H    2.431009   2.523630   3.971346   6.745312   5.856028
                   11         12         13         14         15
    11  H    0.000000
    12  H    3.845656   0.000000
    13  H    3.892632   1.771657   0.000000
    14  H    2.937686   2.446040   3.066380   0.000000
    15  H    3.970408   2.692336   2.435685   1.772736   0.000000
    16  H    3.845934   3.228856   2.205052   4.571699   4.394150
    17  H    2.776038   4.712874   4.534944   5.151793   5.871877
    18  H    2.340109   5.400496   4.738158   4.927542   5.349799
    19  O    3.362644   4.965516   3.711415   4.937490   4.682569
    20  H    3.655358   4.395652   2.945582   4.678490   4.181987
    21  O    4.209161   5.498523   4.712375   6.276186   6.467017
    22  H    4.504977   5.597372   4.521469   6.348969   6.277983
    23  C    4.210647   3.403621   3.475487   5.099587   5.519915
    24  H    4.081797   3.808822   4.229513   5.234956   5.980196
    25  H    4.727030   2.885283   3.229208   4.968311   5.296945
    26  O    5.342364   4.650337   4.390067   6.423769   6.643694
    27  H    5.153551   5.123837   4.657306   6.620584   6.833358
                   16         17         18         19         20
    16  H    0.000000
    17  H    3.059464   0.000000
    18  H    3.795422   2.452475   0.000000
    19  O    2.799065   3.357629   2.013543   0.000000
    20  H    2.197278   3.680265   2.830598   0.973076   0.000000
    21  O    2.660772   2.026656   2.920443   2.792917   3.030791
    22  H    2.531897   2.806995   3.035986   2.284745   2.437421
    23  C    2.129078   2.723864   4.647302   4.474680   4.150253
    24  H    3.051447   2.485206   4.717287   4.997097   4.843239
    25  H    2.510687   3.724863   5.481874   5.130919   4.645241
    26  O    2.587264   3.311493   5.236553   4.860438   4.538704
    27  H    2.581002   2.845514   4.653673   4.341410   4.167336
                   21         22         23         24         25
    21  O    0.000000
    22  H    0.975721   0.000000
    23  C    3.121587   3.599528   0.000000
    24  H    3.464451   4.151960   1.100989   0.000000
    25  H    4.125871   4.475419   1.095665   1.774491   0.000000
    26  O    2.914173   3.340335   1.432975   2.095585   2.039925
    27  H    2.056502   2.548634   1.945011   2.460546   2.815328
                   26         27
    26  O    0.000000
    27  H    0.976952   0.000000
 Stoichiometry    C8H15NO3
 Framework group  C1[X(C8H15NO3)]
 Deg. of freedom    75
 Full point group                 C1      NOp   1
 Largest Abelian subgroup         C1      NOp   1
 Largest concise Abelian subgroup C1      NOp   1
                         Standard orientation:                         
 ---------------------------------------------------------------------
 Center     Atomic      Atomic             Coordinates (Angstroms)
 Number     Number       Type             X           Y           Z
 ---------------------------------------------------------------------
      1          6           0       -2.601449    0.432929    0.011580
      2          6           0       -1.261961    0.468274    0.761251
      3          7           0       -0.575677   -0.844353    0.455109
      4          6           0       -1.450156   -1.614879   -0.451364
      5          6           0       -2.854750   -1.072078   -0.175916
      6          6           0        0.763518   -0.550629   -0.066091
      7          6           0        1.086335    0.817909    0.560519
      8          6           0       -0.245901    1.573633    0.411238
      9          1           0       -3.397586    0.941544    0.563345
     10          1           0       -2.507668    0.920130   -0.965183
     11          1           0       -1.444541    0.524803    1.841547
     12          1           0       -1.368898   -2.691720   -0.264949
     13          1           0       -1.177370   -1.442619   -1.506655
     14          1           0       -3.257467   -1.510275    0.745301
     15          1           0       -3.552778   -1.293567   -0.989179
     16          1           0        0.752121   -0.430618   -1.167283
     17          1           0        1.318065    0.688475    1.623355
     18          1           0       -0.320140    2.431664    1.082790
     19          8           0       -0.355677    2.126707   -0.907208
     20          1           0       -0.402603    1.398893   -1.551383
     21          8           0        2.210298    1.475042   -0.017549
     22          1           0        1.906197    1.805076   -0.883939
     23          6           0        1.816997   -1.610117    0.249683
     24          1           0        1.940107   -1.700881    1.339996
     25          1           0        1.511644   -2.589550   -0.134963
     26          8           0        3.062971   -1.287860   -0.380489
     27          1           0        3.174127   -0.322261   -0.282005
 ---------------------------------------------------------------------
 Rotational constants (GHZ):      1.4166443      0.7866884      0.5666415
 Standard basis: 6-31+G(d,p) (6D, 7F)
 There are   303 symmetry adapted basis functions of A   symmetry.
 Integral buffers will be    131072 words long.
 Raffenetti 2 integral format.
 Two-electron integral symmetry is turned on.
   303 basis functions,   489 primitive gaussians,   303 cartesian basis functions
    47 alpha electrons       47 beta electrons
       nuclear repulsion energy       807.0627970484 Hartrees.
 NAtoms=   27 NActive=   27 NUniq=   27 SFac= 1.00D+00 NAtFMM=   60 NAOKFM=F Big=F
 ------------------------------------------------------------------------------
 Polarizable Continuum Model (PCM)
 =================================
 Model                : PCM.
 Atomic radii         : UFF (Universal Force Field).
 Polarization charges : Total charges.
 Charge compensation  : None.
 Solution method      : Matrix inversion.
 Cavity type          : Scaled VdW (van der Waals Surface) (Alpha=1.100).
 Cavity algorithm     : GePol (No added spheres)
                        Default sphere list used, NSphG=   27.
                        Lebedev-Laikov grids with approx.  5.0 points / Ang**2.
                        Smoothing algorithm: Karplus/York (Gamma=1.0000).
                        Polarization charges: spherical gaussians, with
                                              point-specific exponents (IZeta= 3).
                        Self-potential: point-specific (ISelfS= 7).
                        Self-field    : sphere-specific E.n sum rule (ISelfD= 2).
 Solvent              : Water, Eps=  78.355300 Eps(inf)=   1.777849
 ------------------------------------------------------------------------------
 One-electron integrals computed using PRISM.
 NBasis=   303 RedAO= T  NBF=   303
 NBsUse=   303 1.00D-06 NBFU=   303
 Harris functional with IExCor=  908 diagonalized for initial guess.
 ExpMin= 4.38D-02 ExpMax= 5.48D+03 ExpMxC= 8.25D+02 IAcc=2 IRadAn=         4 AccDes= 0.00D+00
 HarFok:  IExCor=  908 AccDes= 0.00D+00 IRadAn=         4 IDoV= 1
 ScaDFX=  1.000000  1.000000  1.000000  1.000000
 FoFCou: FMM=F IPFlag=           0 FMFlag=      100000 FMFlg1=           0
         NFxFlg=           0 DoJE=T BraDBF=F KetDBF=T FulRan=T
         Omega=  0.000000  0.000000  1.000000  0.000000  0.000000 ICntrl=     500 IOpCl=  0
         NMat0=    1 NMatS0=    1 NMatT0=    0 NMatD0=    1 NMtDS0=    0 NMtDT0=    0
         I1Cent=           4 NGrid=           0.
 Petite list used in FoFCou.
 Initial guess orbital symmetries:
       Occupied  (A) (A) (A) (A) (A) (A) (A) (A) (A) (A) (A) (A)
                 (A) (A) (A) (A) (A) (A) (A) (A) (A) (A) (A) (A)
                 (A) (A) (A) (A) (A) (A) (A) (A) (A) (A) (A) (A)
                 (A) (A) (A) (A) (A) (A) (A) (A) (A) (A) (A)
       Virtual   (A) (A) (A) (A) (A) (A) (A) (A) (A) (A) (A) (A)
                 (A) (A) (A) (A) (A) (A) (A) (A) (A) (A) (A) (A)
                 (A) (A) (A) (A) (A) (A) (A) (A) (A) (A) (A) (A)
                 (A) (A) (A) (A) (A) (A) (A) (A) (A) (A) (A) (A)
                 (A) (A) (A) (A) (A) (A) (A) (A) (A) (A) (A) (A)
                 (A) (A) (A) (A) (A) (A) (A) (A) (A) (A) (A) (A)
                 (A) (A) (A) (A) (A) (A) (A) (A) (A) (A) (A) (A)
                 (A) (A) (A) (A) (A) (A) (A) (A) (A) (A) (A) (A)
                 (A) (A) (A) (A) (A) (A) (A) (A) (A) (A) (A) (A)
                 (A) (A) (A) (A) (A) (A) (A) (A) (A) (A) (A) (A)
                 (A) (A) (A) (A) (A) (A) (A) (A) (A) (A) (A) (A)
                 (A) (A) (A) (A) (A) (A) (A) (A) (A) (A) (A) (A)
                 (A) (A) (A) (A) (A) (A) (A) (A) (A) (A) (A) (A)
                 (A) (A) (A) (A) (A) (A) (A) (A) (A) (A) (A) (A)
                 (A) (A) (A) (A) (A) (A) (A) (A) (A) (A) (A) (A)
                 (A) (A) (A) (A) (A) (A) (A) (A) (A) (A) (A) (A)
                 (A) (A) (A) (A) (A) (A) (A) (A) (A) (A) (A) (A)
                 (A) (A) (A) (A) (A) (A) (A) (A) (A) (A) (A) (A)
                 (A) (A) (A) (A) (A) (A) (A) (A) (A) (A) (A) (A)
                 (A) (A) (A) (A) (A) (A) (A) (A) (A) (A) (A) (A)
                 (A) (A) (A) (A) (A) (A) (A) (A) (A) (A) (A) (A)
                 (A) (A) (A) (A)
 The electronic state of the initial guess is 1-A.
 Requested convergence on RMS density matrix=1.00D-08 within 128 cycles.
 Requested convergence on MAX density matrix=1.00D-06.
 Requested convergence on             energy=1.00D-06.
 No special actions if energy rises.
 Error on total polarization charges =  0.01447
 SCF Done:  E(RmPW1PW91) =  -594.199099482     A.U. after   13 cycles
             Convg  =    0.6933D-08             -V/T =  2.0094
 Range of M.O.s used for correlation:     1   303
 NBasis=   303 NAE=    47 NBE=    47 NFC=     0 NFV=     0
 NROrb=    303 NOA=    47 NOB=    47 NVA=   256 NVB=   256

 **** Warning!!: The largest alpha MO coefficient is  0.75985997D+02

 NEqPCM:  Using equilibrium solvation (IEInf=0, Eps=  78.3553, EpsInf=   1.7778)
          Differentiating once with respect to magnetic field using GIAOs.
          Electric field/nuclear overlap derivatives assumed to be zero.
 FoFCou: FMM=F IPFlag=           0 FMFlag=    10101102 FMFlg1=           0
         NFxFlg=    40000000 DoJE=F BraDBF=F KetDBF=T FulRan=T
         Omega=  0.000000  0.000000  1.000000  0.000000  0.000000 ICntrl=    6100 IOpCl=  0
         NMat0=    1 NMatS0=    1 NMatT0=    0 NMatD0=    1 NMtDS0=    0 NMtDT0=    0
         I1Cent=           7 NGrid=        1825.
 Symmetry not used in FoFCou.
          There are     3 degrees of freedom in the 1st order CPHF.  IDoFFX=0.
      3 vectors produced by pass  0 Test12= 4.01D-13 3.33D-08 XBig12= 4.14D+01 1.31D+00.
 AX will form     3 AO Fock derivatives at one time.
      3 vectors produced by pass  1 Test12= 4.01D-13 3.33D-08 XBig12= 1.01D-01 5.59D-02.
      3 vectors produced by pass  2 Test12= 4.01D-13 3.33D-08 XBig12= 1.74D-04 2.51D-03.
      3 vectors produced by pass  3 Test12= 4.01D-13 3.33D-08 XBig12= 8.05D-07 2.06D-04.
      3 vectors produced by pass  4 Test12= 4.01D-13 3.33D-08 XBig12= 2.80D-09 9.18D-06.
      3 vectors produced by pass  5 Test12= 4.01D-13 3.33D-08 XBig12= 8.80D-12 5.17D-07.
 Inverted reduced A of dimension    18 with in-core refinement.
 Calculating GIAO nuclear magnetic shielding tensors.
 SCF GIAO Magnetic shielding tensor (ppm):
      1  C    Isotropic =   170.1243   Anisotropy =    22.4639
   XX=   174.4291   YX=     4.1351   ZX=     8.5040
   XY=    -6.7963   YY=   183.3439   ZY=    10.4124
   XZ=     7.9706   YZ=     4.5379   ZZ=   152.5999
   Eigenvalues:   148.2318   177.0408   185.1002
      2  C    Isotropic =   128.9770   Anisotropy =    49.2428
   XX=   136.6742   YX=    -9.8140   ZX=     5.6396
   XY=   -10.5332   YY=   157.1135   ZY=     9.0553
   XZ=     4.1270   YZ=     7.3639   ZZ=    93.1435
   Eigenvalues:    91.2570   133.8685   161.8056
      3  N    Isotropic =   198.7944   Anisotropy =    75.4974
   XX=   247.1889   YX=   -11.2714   ZX=    -1.9556
   XY=    -1.7804   YY=   216.4721   ZY=    36.3995
   XZ=     1.0870   YZ=    31.1301   ZZ=   132.7223
   Eigenvalues:   120.7807   226.4765   249.1261
      4  C    Isotropic =   138.0586   Anisotropy =    56.4860
   XX=   149.7482   YX=    12.6285   ZX=    17.9547
   XY=    23.3159   YY=   126.0114   ZY=    17.1885
   XZ=    15.1498   YZ=    23.0450   ZZ=   138.4161
   Eigenvalues:   110.3382   128.1216   175.7159
      5  C    Isotropic =   165.1249   Anisotropy =    22.4334
   XX=   179.4022   YX=    -1.9926   ZX=     7.5710
   XY=    -0.6604   YY=   175.3191   ZY=    15.6020
   XZ=    -3.1507   YZ=     9.7565   ZZ=   140.6534
   Eigenvalues:   136.3641   178.9301   180.0805
      6  C    Isotropic =   126.5793   Anisotropy =    60.2804
   XX=   154.2382   YX=    19.8894   ZX=    -8.6126
   XY=    16.9713   YY=   105.0776   ZY=   -11.0098
   XZ=   -22.8352   YZ=    -3.3900   ZZ=   120.4221
   Eigenvalues:    98.7309   114.2408   166.7663
      7  C    Isotropic =   112.4158   Anisotropy =    43.4421
   XX=   128.6589   YX=    16.0974   ZX=   -17.7875
   XY=     9.7672   YY=   126.6424   ZY=     1.0626
   XZ=    -4.5230   YZ=     3.8823   ZZ=    81.9461
   Eigenvalues:    78.8029   117.0673   141.3772
      8  C    Isotropic =   121.0932   Anisotropy =    30.2981
   XX=   119.3739   YX=     4.5677   ZX=    -2.5305
   XY=     2.2208   YY=   109.3933   ZY=   -14.6842
   XZ=     6.7189   YZ=   -14.6988   ZZ=   134.5124
   Eigenvalues:   101.7356   120.2520   141.2920
      9  H    Isotropic =    29.8465   Anisotropy =    11.7482
   XX=    33.6327   YX=    -3.5399   ZX=    -2.9348
   XY=    -4.7709   YY=    29.5327   ZY=     2.8237
   XZ=    -3.3553   YZ=     2.4393   ZZ=    26.3740
   Eigenvalues:    24.7803    27.0804    37.6786
     10  H    Isotropic =    29.8179   Anisotropy =     6.9959
   XX=    29.7364   YX=     0.7745   ZX=     1.9652
   XY=     1.4830   YY=    29.7479   ZY=    -4.5286
   XZ=     2.3258   YZ=    -4.4466   ZZ=    29.9694
   Eigenvalues:    24.3685    30.6034    34.4818
     11  H    Isotropic =    27.8958   Anisotropy =     9.0319
   XX=    26.2977   YX=    -1.5450   ZX=    -2.3918
   XY=    -0.8955   YY=    25.3326   ZY=     3.0728
   XZ=    -2.4304   YZ=     2.2222   ZZ=    32.0571
   Eigenvalues:    24.3022    25.4682    33.9171
     12  H    Isotropic =    28.3886   Anisotropy =     9.6620
   XX=    26.9934   YX=     1.4095   ZX=     1.1331
   XY=     0.5626   YY=    34.5953   ZY=     0.8349
   XZ=     0.9097   YZ=     1.1255   ZZ=    23.5770
   Eigenvalues:    23.2525    27.0833    34.8299
     13  H    Isotropic =    29.3195   Anisotropy =     8.0038
   XX=    28.1107   YX=     0.3476   ZX=     1.4331
   XY=     0.6190   YY=    26.9311   ZY=     3.8277
   XZ=    -0.6630   YZ=     3.3801   ZZ=    32.9166
   Eigenvalues:    25.2131    28.0900    34.6554
     14  H    Isotropic =    29.5909   Anisotropy =    11.0782
   XX=    30.5985   YX=     3.0793   ZX=    -4.1934
   XY=     3.3836   YY=    29.7035   ZY=    -3.1218
   XZ=    -4.7253   YZ=    -3.3798   ZZ=    28.4705
   Eigenvalues:    24.8356    26.9606    36.9763
     15  H    Isotropic =    29.4996   Anisotropy =    11.7301
   XX=    32.6317   YX=     2.4648   ZX=     5.1079
   XY=     3.1672   YY=    27.5949   ZY=     2.6402
   XZ=     4.9316   YZ=     2.1919   ZZ=    28.2721
   Eigenvalues:    24.8325    26.3466    37.3196
     16  H    Isotropic =    29.2819   Anisotropy =     3.8219
   XX=    30.2270   YX=    -1.5341   ZX=    -1.4168
   XY=    -0.9963   YY=    28.5916   ZY=     0.1426
   XZ=    -1.5435   YZ=     1.1073   ZZ=    29.0271
   Eigenvalues:    27.8336    28.1822    31.8299
     17  H    Isotropic =    27.4759   Anisotropy =     3.9234
   XX=    27.8511   YX=     1.4751   ZX=    -0.3674
   XY=     0.9065   YY=    25.2991   ZY=     0.1367
   XZ=     2.7793   YZ=     0.2373   ZZ=    29.2776
   Eigenvalues:    24.8120    27.5242    30.0915
     18  H    Isotropic =    27.7238   Anisotropy =     8.4381
   XX=    23.8805   YX=    -0.6346   ZX=     0.2476
   XY=     0.0877   YY=    28.9204   ZY=     2.8459
   XZ=    -0.1773   YZ=     4.4135   ZZ=    30.3707
   Eigenvalues:    23.8521    25.9702    33.3492
     19  O    Isotropic =   302.6323   Anisotropy =    83.7806
   XX=   272.1400   YX=    13.6863   ZX=   -24.8320
   XY=     4.4695   YY=   340.4341   ZY=    49.3924
   XZ=   -11.1125   YZ=    18.1354   ZZ=   295.3227
   Eigenvalues:   254.4132   294.9976   358.4860
     20  H    Isotropic =    31.0455   Anisotropy =    14.5130
   XX=    24.0309   YX=    -0.2456   ZX=     2.3746
   XY=     1.3558   YY=    32.2703   ZY=     6.8862
   XZ=     1.7962   YZ=     4.0323   ZZ=    36.8354
   Eigenvalues:    23.6849    28.7308    40.7208
     21  O    Isotropic =   293.7491   Anisotropy =    38.8525
   XX=   286.3978   YX=    -0.9997   ZX=    13.1823
   XY=    31.6618   YY=   312.3723   ZY=   -13.2107
   XZ=    26.6689   YZ=    -0.5557   ZZ=   282.4773
   Eigenvalues:   259.8165   301.7801   319.6508
     22  H    Isotropic =    28.8416   Anisotropy =    13.7749
   XX=    28.9425   YX=     1.1088   ZX=     1.9475
   XY=    -1.4026   YY=    23.8636   ZY=    -7.3549
   XZ=     1.2657   YZ=    -7.6859   ZZ=    33.7186
   Eigenvalues:    19.7558    28.7441    38.0248
     23  C    Isotropic =   126.9853   Anisotropy =    57.5612
   XX=   156.3664   YX=     2.5641   ZX=   -20.2790
   XY=    -0.3002   YY=   108.0728   ZY=    -8.4147
   XZ=   -20.6856   YZ=    -8.8168   ZZ=   116.5167
   Eigenvalues:   100.3237   115.2728   165.3595
     24  H    Isotropic =    27.8266   Anisotropy =     4.6119
   XX=    28.4538   YX=    -0.3770   ZX=    -1.5610
   XY=    -1.0370   YY=    25.8375   ZY=    -3.1224
   XZ=     0.7729   YZ=    -2.7670   ZZ=    29.1886
   Eigenvalues:    23.9787    28.6000    30.9012
     25  H    Isotropic =    27.6355   Anisotropy =     5.0710
   XX=    29.2916   YX=     1.0382   ZX=    -0.1580
   XY=    -0.3962   YY=    30.9229   ZY=     0.9777
   XZ=    -1.4574   YZ=     0.3551   ZZ=    22.6920
   Eigenvalues:    22.5361    29.3542    31.0162
     26  O    Isotropic =   314.4356   Anisotropy =    41.0526
   XX=   306.3474   YX=   -11.7349   ZX=    -3.2808
   XY=    -4.1196   YY=   340.0262   ZY=    -3.5317
   XZ=     4.4158   YZ=     2.7940   ZZ=   296.9333
   Eigenvalues:   296.8989   304.6040   341.8041
     27  H    Isotropic =    28.2675   Anisotropy =    19.9936
   XX=    27.1233   YX=     0.8252   ZX=    -2.8735
   XY=     0.5849   YY=    41.4465   ZY=     2.0707
   XZ=    -3.2682   YZ=     1.6109   ZZ=    16.2328
   Eigenvalues:    15.2798    27.9262    41.5966
 End of Minotr Frequency-dependent properties file   721 does not exist.
 End of Minotr Frequency-dependent properties file   722 does not exist.

 **********************************************************************

            Population analysis using the SCF density.

 **********************************************************************

 Orbital symmetries:
       Occupied  (A) (A) (A) (A) (A) (A) (A) (A) (A) (A) (A) (A)
                 (A) (A) (A) (A) (A) (A) (A) (A) (A) (A) (A) (A)
                 (A) (A) (A) (A) (A) (A) (A) (A) (A) (A) (A) (A)
                 (A) (A) (A) (A) (A) (A) (A) (A) (A) (A) (A)
       Virtual   (A) (A) (A) (A) (A) (A) (A) (A) (A) (A) (A) (A)
                 (A) (A) (A) (A) (A) (A) (A) (A) (A) (A) (A) (A)
                 (A) (A) (A) (A) (A) (A) (A) (A) (A) (A) (A) (A)
                 (A) (A) (A) (A) (A) (A) (A) (A) (A) (A) (A) (A)
                 (A) (A) (A) (A) (A) (A) (A) (A) (A) (A) (A) (A)
                 (A) (A) (A) (A) (A) (A) (A) (A) (A) (A) (A) (A)
                 (A) (A) (A) (A) (A) (A) (A) (A) (A) (A) (A) (A)
                 (A) (A) (A) (A) (A) (A) (A) (A) (A) (A) (A) (A)
                 (A) (A) (A) (A) (A) (A) (A) (A) (A) (A) (A) (A)
                 (A) (A) (A) (A) (A) (A) (A) (A) (A) (A) (A) (A)
                 (A) (A) (A) (A) (A) (A) (A) (A) (A) (A) (A) (A)
                 (A) (A) (A) (A) (A) (A) (A) (A) (A) (A) (A) (A)
                 (A) (A) (A) (A) (A) (A) (A) (A) (A) (A) (A) (A)
                 (A) (A) (A) (A) (A) (A) (A) (A) (A) (A) (A) (A)
                 (A) (A) (A) (A) (A) (A) (A) (A) (A) (A) (A) (A)
                 (A) (A) (A) (A) (A) (A) (A) (A) (A) (A) (A) (A)
                 (A) (A) (A) (A) (A) (A) (A) (A) (A) (A) (A) (A)
                 (A) (A) (A) (A) (A) (A) (A) (A) (A) (A) (A) (A)
                 (A) (A) (A) (A) (A) (A) (A) (A) (A) (A) (A) (A)
                 (A) (A) (A) (A) (A) (A) (A) (A) (A) (A) (A) (A)
                 (A) (A) (A) (A) (A) (A) (A) (A) (A) (A) (A) (A)
                 (A) (A) (A) (A)
 The electronic state is 1-A.
 Alpha  occ. eigenvalues --  -19.27166 -19.27106 -19.24954 -14.41846 -10.31163
 Alpha  occ. eigenvalues --  -10.31122 -10.29550 -10.28567 -10.28395 -10.27211
 Alpha  occ. eigenvalues --  -10.24986 -10.24882  -1.08879  -1.06295  -1.04949
 Alpha  occ. eigenvalues --   -0.97070  -0.83432  -0.79897  -0.75112  -0.72009
 Alpha  occ. eigenvalues --   -0.67645  -0.62526  -0.60957  -0.59178  -0.56041
 Alpha  occ. eigenvalues --   -0.53811  -0.51491  -0.51243  -0.48654  -0.47946
 Alpha  occ. eigenvalues --   -0.46393  -0.44736  -0.43634  -0.42546  -0.41092
 Alpha  occ. eigenvalues --   -0.40217  -0.39439  -0.38869  -0.36542  -0.36041
 Alpha  occ. eigenvalues --   -0.35770  -0.34938  -0.34078  -0.32011  -0.29562
 Alpha  occ. eigenvalues --   -0.29216  -0.23697
 Alpha virt. eigenvalues --    0.00425   0.01417   0.01680   0.02421   0.03898
 Alpha virt. eigenvalues --    0.04443   0.04748   0.04896   0.05349   0.07344
 Alpha virt. eigenvalues --    0.07416   0.08095   0.08675   0.09224   0.09327
 Alpha virt. eigenvalues --    0.09512   0.11012   0.11721   0.12097   0.13020
 Alpha virt. eigenvalues --    0.13372   0.13976   0.14111   0.14688   0.15254
 Alpha virt. eigenvalues --    0.15661   0.16090   0.16669   0.18090   0.18680
 Alpha virt. eigenvalues --    0.18891   0.19417   0.20147   0.20433   0.20862
 Alpha virt. eigenvalues --    0.21118   0.22035   0.22210   0.22538   0.23135
 Alpha virt. eigenvalues --    0.23722   0.24059   0.24961   0.25431   0.25567
 Alpha virt. eigenvalues --    0.26162   0.26838   0.28025   0.28069   0.28251
 Alpha virt. eigenvalues --    0.28570   0.29680   0.31104   0.31309   0.31685
 Alpha virt. eigenvalues --    0.32246   0.32931   0.33218   0.33978   0.34488
 Alpha virt. eigenvalues --    0.34689   0.35421   0.36008   0.36598   0.37208
 Alpha virt. eigenvalues --    0.38105   0.38913   0.40110   0.40339   0.41164
 Alpha virt. eigenvalues --    0.41369   0.42484   0.44698   0.44891   0.45761
 Alpha virt. eigenvalues --    0.48701   0.63091   0.64946   0.67675   0.68101
 Alpha virt. eigenvalues --    0.68676   0.70831   0.71587   0.72042   0.73166
 Alpha virt. eigenvalues --    0.74180   0.75509   0.76964   0.78716   0.80693
 Alpha virt. eigenvalues --    0.81937   0.84580   0.85649   0.87160   0.88713
 Alpha virt. eigenvalues --    0.90949   0.91582   0.93275   0.94445   0.95727
 Alpha virt. eigenvalues --    0.98656   0.99771   1.01628   1.02502   1.04344
 Alpha virt. eigenvalues --    1.05283   1.06688   1.07650   1.09405   1.10340
 Alpha virt. eigenvalues --    1.10638   1.12787   1.13551   1.14913   1.16560
 Alpha virt. eigenvalues --    1.17082   1.18575   1.21147   1.22952   1.25039
 Alpha virt. eigenvalues --    1.26467   1.27364   1.29381   1.30314   1.31993
 Alpha virt. eigenvalues --    1.33108   1.35205   1.36659   1.38374   1.39191
 Alpha virt. eigenvalues --    1.42792   1.45292   1.46006   1.46300   1.50606
 Alpha virt. eigenvalues --    1.52611   1.56250   1.57738   1.58608   1.61345
 Alpha virt. eigenvalues --    1.63836   1.64320   1.66083   1.66830   1.69117
 Alpha virt. eigenvalues --    1.71951   1.74795   1.75632   1.76968   1.79551
 Alpha virt. eigenvalues --    1.80765   1.82174   1.83744   1.85135   1.86553
 Alpha virt. eigenvalues --    1.87963   1.90400   1.92729   1.93711   1.94960
 Alpha virt. eigenvalues --    1.95846   1.97565   2.01222   2.03051   2.03406
 Alpha virt. eigenvalues --    2.04931   2.06292   2.07290   2.07892   2.10025
 Alpha virt. eigenvalues --    2.10560   2.13907   2.15833   2.16826   2.17640
 Alpha virt. eigenvalues --    2.20434   2.22324   2.23312   2.25510   2.28988
 Alpha virt. eigenvalues --    2.29688   2.33147   2.36226   2.36981   2.39392
 Alpha virt. eigenvalues --    2.42169   2.43150   2.44070   2.45857   2.47096
 Alpha virt. eigenvalues --    2.48592   2.49146   2.51730   2.52286   2.53512
 Alpha virt. eigenvalues --    2.55875   2.56698   2.57997   2.61548   2.62631
 Alpha virt. eigenvalues --    2.63417   2.65438   2.66633   2.67435   2.68574
 Alpha virt. eigenvalues --    2.70323   2.73419   2.76345   2.77098   2.77637
 Alpha virt. eigenvalues --    2.78754   2.81331   2.83129   2.84750   2.85445
 Alpha virt. eigenvalues --    2.87073   2.89204   2.90476   2.92507   2.93097
 Alpha virt. eigenvalues --    2.97404   2.98978   3.00535   3.02309   3.03674
 Alpha virt. eigenvalues --    3.05345   3.11097   3.13914   3.15740   3.32016
 Alpha virt. eigenvalues --    3.33542   3.35967   3.36377   3.41028   3.44925
 Alpha virt. eigenvalues --    3.47922   3.50223   3.51473   3.53888   3.55971
 Alpha virt. eigenvalues --    3.57719   3.59595   3.60884   3.64975   4.27488
 Alpha virt. eigenvalues --    4.31480   4.39542   4.45480   4.49512   4.51373
 Alpha virt. eigenvalues --    4.54975   4.68852   4.77897   4.78540   4.85584
 Alpha virt. eigenvalues --    5.01036
          Condensed to atoms (all electrons):
              1          2          3          4          5          6
     1  C    5.812339  -0.358615   0.026419  -0.180460   0.156593   0.151680
     2  C   -0.358615   7.851080  -0.275291  -0.320841   0.209167  -0.390899
     3  N    0.026419  -0.275291   7.444976   0.256369  -0.175698   0.046859
     4  C   -0.180460  -0.320841   0.256369   5.842925  -0.126526  -0.068737
     5  C    0.156593   0.209167  -0.175698  -0.126526   5.854858  -0.051238
     6  C    0.151680  -0.390899   0.046859  -0.068737  -0.051238   9.098852
     7  C   -0.104294   0.475753  -0.198065  -0.214476   0.016639  -2.040292
     8  C    0.078670  -0.806992  -0.098675   0.217565  -0.165698   0.462003
     9  H    0.372033  -0.055146   0.010988   0.020078  -0.017836   0.005844
    10  H    0.480629  -0.176686   0.031811   0.035787  -0.090750   0.007412
    11  H    0.033764   0.179262  -0.008523   0.021808  -0.029126   0.033386
    12  H    0.026222   0.012899  -0.045678   0.377184  -0.028008  -0.007227
    13  H    0.015120  -0.005097  -0.092004   0.419856  -0.039117   0.011081
    14  H   -0.022664  -0.041266   0.015181  -0.021715   0.383270   0.006220
    15  H   -0.062858   0.043320   0.005284  -0.017376   0.376749  -0.005952
    16  H   -0.010553   0.028338  -0.066689   0.019042   0.019547   0.283981
    17  H    0.006164  -0.004188   0.037792   0.009127   0.003014  -0.076096
    18  H    0.002322  -0.058391   0.017238   0.000848   0.000486   0.045279
    19  O    0.029319  -0.126405   0.042119   0.028387  -0.021668   0.031259
    20  H   -0.008524  -0.057863   0.012173   0.002847  -0.000274   0.045644
    21  O    0.006050   0.003982   0.009094  -0.001510   0.000894  -0.071982
    22  H    0.002148   0.009075   0.003419   0.000477   0.000846  -0.047673
    23  C   -0.035083  -0.125294   0.136675  -0.086916   0.068479  -1.111399
    24  H    0.001650  -0.002753   0.020198   0.012620  -0.001886  -0.028186
    25  H    0.000031   0.005247  -0.008089  -0.000713   0.005161  -0.107359
    26  O    0.000741   0.005776  -0.001673   0.004946  -0.002169   0.021589
    27  H    0.000120   0.003600   0.000826  -0.001675   0.000403  -0.060318
              7          8          9         10         11         12
     1  C   -0.104294   0.078670   0.372033   0.480629   0.033764   0.026222
     2  C    0.475753  -0.806992  -0.055146  -0.176686   0.179262   0.012899
     3  N   -0.198065  -0.098675   0.010988   0.031811  -0.008523  -0.045678
     4  C   -0.214476   0.217565   0.020078   0.035787   0.021808   0.377184
     5  C    0.016639  -0.165698  -0.017836  -0.090750  -0.029126  -0.028008
     6  C   -2.040292   0.462003   0.005844   0.007412   0.033386  -0.007227
     7  C    8.408540  -0.931336  -0.003370  -0.011219  -0.042474   0.004107
     8  C   -0.931336   6.892900   0.010525   0.035110   0.074110  -0.008251
     9  H   -0.003370   0.010525   0.506911  -0.023086  -0.004379  -0.000096
    10  H   -0.011219   0.035110  -0.023086   0.526271   0.004081  -0.000055
    11  H   -0.042474   0.074110  -0.004379   0.004081   0.548102   0.000190
    12  H    0.004107  -0.008251  -0.000096  -0.000055   0.000190   0.537568
    13  H    0.004323   0.002113  -0.000139   0.000678  -0.000522  -0.041363
    14  H   -0.001399   0.010007  -0.004773   0.004042   0.000749  -0.005953
    15  H    0.003169  -0.000799   0.000389  -0.005206  -0.000092   0.000685
    16  H   -0.003168  -0.053804  -0.000008  -0.000347  -0.000664  -0.001018
    17  H    0.396024  -0.080251   0.000003  -0.000016   0.000061   0.000008
    18  H   -0.027806   0.353204   0.000265   0.000072  -0.002731   0.000004
    19  O   -0.200379   0.263732  -0.000698   0.010480   0.006006   0.000002
    20  H   -0.012402  -0.005059   0.000110   0.000223  -0.000020   0.000002
    21  O    0.199704  -0.027186   0.000010  -0.000153  -0.000503   0.000017
    22  H    0.081323  -0.084096   0.000000  -0.000008  -0.000012   0.000000
    23  C    0.477385  -0.337505   0.000891  -0.000133   0.009159   0.007775
    24  H   -0.070572  -0.002607   0.000000   0.000000  -0.000035   0.000086
    25  H    0.011976  -0.006055   0.000000   0.000001   0.000006  -0.000301
    26  O   -0.048221  -0.006999  -0.000001  -0.000007  -0.000052   0.000057
    27  H    0.023078   0.008233   0.000000   0.000000   0.000001  -0.000002
             13         14         15         16         17         18
     1  C    0.015120  -0.022664  -0.062858  -0.010553   0.006164   0.002322
     2  C   -0.005097  -0.041266   0.043320   0.028338  -0.004188  -0.058391
     3  N   -0.092004   0.015181   0.005284  -0.066689   0.037792   0.017238
     4  C    0.419856  -0.021715  -0.017376   0.019042   0.009127   0.000848
     5  C   -0.039117   0.383270   0.376749   0.019547   0.003014   0.000486
     6  C    0.011081   0.006220  -0.005952   0.283981  -0.076096   0.045279
     7  C    0.004323  -0.001399   0.003169  -0.003168   0.396024  -0.027806
     8  C    0.002113   0.010007  -0.000799  -0.053804  -0.080251   0.353204
     9  H   -0.000139  -0.004773   0.000389  -0.000008   0.000003   0.000265
    10  H    0.000678   0.004042  -0.005206  -0.000347  -0.000016   0.000072
    11  H   -0.000522   0.000749  -0.000092  -0.000664   0.000061  -0.002731
    12  H   -0.041363  -0.005953   0.000685  -0.001018   0.000008   0.000004
    13  H    0.574970   0.003922  -0.004705   0.013207  -0.000020  -0.000015
    14  H    0.003922   0.517231  -0.023856  -0.000013  -0.000002   0.000000
    15  H   -0.004705  -0.023856   0.510515  -0.000017   0.000000   0.000002
    16  H    0.013207  -0.000013  -0.000017   0.602532   0.004239  -0.000212
    17  H   -0.000020  -0.000002   0.000000   0.004239   0.514685  -0.003678
    18  H   -0.000015   0.000000   0.000002  -0.000212  -0.003678   0.525478
    19  O   -0.000691   0.000130   0.000125   0.009511   0.011955  -0.049644
    20  H   -0.000198  -0.000004   0.000009  -0.001474  -0.000260   0.006161
    21  O   -0.000036  -0.000009  -0.000006   0.000367  -0.047412  -0.000714
    22  H   -0.000001   0.000000   0.000000   0.002022   0.005693  -0.000091
    23  C   -0.016158  -0.000399   0.000323  -0.004497   0.023989   0.012562
    24  H    0.000018  -0.000001   0.000000   0.004873   0.003971  -0.000002
    25  H    0.000083   0.000003   0.000000  -0.005129   0.000057   0.000002
    26  O    0.000065  -0.000003   0.000000   0.008321  -0.001113  -0.000046
    27  H    0.000002   0.000000   0.000000  -0.002569  -0.000853   0.000008
             19         20         21         22         23         24
     1  C    0.029319  -0.008524   0.006050   0.002148  -0.035083   0.001650
     2  C   -0.126405  -0.057863   0.003982   0.009075  -0.125294  -0.002753
     3  N    0.042119   0.012173   0.009094   0.003419   0.136675   0.020198
     4  C    0.028387   0.002847  -0.001510   0.000477  -0.086916   0.012620
     5  C   -0.021668  -0.000274   0.000894   0.000846   0.068479  -0.001886
     6  C    0.031259   0.045644  -0.071982  -0.047673  -1.111399  -0.028186
     7  C   -0.200379  -0.012402   0.199704   0.081323   0.477385  -0.070572
     8  C    0.263732  -0.005059  -0.027186  -0.084096  -0.337505  -0.002607
     9  H   -0.000698   0.000110   0.000010   0.000000   0.000891   0.000000
    10  H    0.010480   0.000223  -0.000153  -0.000008  -0.000133   0.000000
    11  H    0.006006  -0.000020  -0.000503  -0.000012   0.009159  -0.000035
    12  H    0.000002   0.000002   0.000017   0.000000   0.007775   0.000086
    13  H   -0.000691  -0.000198  -0.000036  -0.000001  -0.016158   0.000018
    14  H    0.000130  -0.000004  -0.000009   0.000000  -0.000399  -0.000001
    15  H    0.000125   0.000009  -0.000006   0.000000   0.000323   0.000000
    16  H    0.009511  -0.001474   0.000367   0.002022  -0.004497   0.004873
    17  H    0.011955  -0.000260  -0.047412   0.005693   0.023989   0.003971
    18  H   -0.049644   0.006161  -0.000714  -0.000091   0.012562  -0.000002
    19  O    8.228815   0.257395  -0.015099   0.033929   0.040827   0.000195
    20  H    0.257395   0.352256  -0.003961  -0.002870   0.022950  -0.000002
    21  O   -0.015099  -0.003961   8.272354   0.250205  -0.031315   0.003261
    22  H    0.033929  -0.002870   0.250205   0.341459   0.007564  -0.000041
    23  C    0.040827   0.022950  -0.031315   0.007564   6.094215   0.424435
    24  H    0.000195  -0.000002   0.003261  -0.000041   0.424435   0.572267
    25  H   -0.000051   0.000006  -0.001184   0.000020   0.488829  -0.040762
    26  O   -0.000041   0.000032  -0.005059  -0.000278   0.163841  -0.051985
    27  H   -0.000600   0.000023   0.017564  -0.002259   0.008819  -0.003182
             25         26         27
     1  C    0.000031   0.000741   0.000120
     2  C    0.005247   0.005776   0.003600
     3  N   -0.008089  -0.001673   0.000826
     4  C   -0.000713   0.004946  -0.001675
     5  C    0.005161  -0.002169   0.000403
     6  C   -0.107359   0.021589  -0.060318
     7  C    0.011976  -0.048221   0.023078
     8  C   -0.006055  -0.006999   0.008233
     9  H    0.000000  -0.000001   0.000000
    10  H    0.000001  -0.000007   0.000000
    11  H    0.000006  -0.000052   0.000001
    12  H   -0.000301   0.000057  -0.000002
    13  H    0.000083   0.000065   0.000002
    14  H    0.000003  -0.000003   0.000000
    15  H    0.000000   0.000000   0.000000
    16  H   -0.005129   0.008321  -0.002569
    17  H    0.000057  -0.001113  -0.000853
    18  H    0.000002  -0.000046   0.000008
    19  O   -0.000051  -0.000041  -0.000600
    20  H    0.000006   0.000032   0.000023
    21  O   -0.001184  -0.005059   0.017564
    22  H    0.000020  -0.000278  -0.002259
    23  C    0.488829   0.163841   0.008819
    24  H   -0.040762  -0.051985  -0.003182
    25  H    0.545403  -0.058147   0.005810
    26  O   -0.058147   8.269623   0.251591
    27  H    0.005810   0.251591   0.357235
 Mulliken atomic charges:
              1
     1  C   -0.418965
     2  C   -0.021773
     3  N   -0.147037
     4  C   -0.228923
     5  C   -0.346115
     6  C   -0.183731
     7  C   -0.192546
     8  C    0.207142
     9  H    0.181484
    10  H    0.171071
    11  H    0.178447
    12  H    0.171148
    13  H    0.154626
    14  H    0.181304
    15  H    0.180298
    16  H    0.154182
    17  H    0.197107
    18  H    0.179398
    19  O   -0.578910
    20  H    0.393079
    21  O   -0.557372
    22  H    0.399150
    23  C   -0.240018
    24  H    0.158440
    25  H    0.165156
    26  O   -0.550786
    27  H    0.394144
 Sum of Mulliken atomic charges =   0.00000
 Mulliken charges with hydrogens summed into heavy atoms:
              1
     1  C   -0.066410
     2  C    0.156675
     3  N   -0.147037
     4  C    0.096852
     5  C    0.015487
     6  C   -0.029549
     7  C    0.004560
     8  C    0.386540
    19  O   -0.185831
    21  O   -0.158222
    23  C    0.083578
    26  O   -0.156642
 Sum of Mulliken charges with hydrogens summed into heavy atoms =   0.00000
 Electronic spatial extent (au):  <R**2>=           2082.8572
 Charge=              0.0000 electrons
 Dipole moment (field-independent basis, Debye):
    X=             -4.6373    Y=              0.2095    Z=             -0.3629  Tot=              4.6562
 Quadrupole moment (field-independent basis, Debye-Ang):
   XX=            -83.6896   YY=            -80.6460   ZZ=            -69.2097
   XY=              5.7492   XZ=              1.3700   YZ=              1.5290
 Traceless Quadrupole moment (field-independent basis, Debye-Ang):
   XX=             -5.8412   YY=             -2.7976   ZZ=              8.6387
   XY=              5.7492   XZ=              1.3700   YZ=              1.5290
 Octapole moment (field-independent basis, Debye-Ang**2):
  XXX=            -48.8219  YYY=            -12.3135  ZZZ=             -7.8411  XYY=             -7.3257
  XXY=             18.9868  XXZ=              3.8533  XZZ=              3.9778  YZZ=             11.1937
  YYZ=              4.4383  XYZ=            -13.4690
 Hexadecapole moment (field-independent basis, Debye-Ang**3):
 XXXX=          -1733.7170 YYYY=           -880.9700 ZZZZ=           -219.7705 XXXY=             79.7058
 XXXZ=              7.9759 YYYX=             14.8741 YYYZ=             17.1416 ZZZX=              3.5821
 ZZZY=             -9.2861 XXYY=           -459.0851 XXZZ=           -296.2488 YYZZ=           -182.5797
 XXYZ=            -25.1591 YYXZ=             -8.4758 ZZXY=              8.2089
 N-N= 8.070627970484D+02 E-N=-2.999141020509D+03  KE= 5.886716336770D+02
 1\1\GINC-COMPUTE-3-1\SP\RmPW1PW91\6-31+G(d,p)\C8H15N1O3\MAMICHETTI.IQU
 IR\17-May-2024\0\\# mpw1pw91/6-31+G** nmr scrf=(pcm,solvent=water)\\co
 mment\\0,1\C,0,-2.601449,0.432929,0.01158\C,0,-1.261961,0.468274,0.761
 251\N,0,-0.575677,-0.844353,0.455109\C,0,-1.450156,-1.614879,-0.451364
 \C,0,-2.85475,-1.072078,-0.175916\C,0,0.763518,-0.550629,-0.066091\C,0
 ,1.086335,0.817909,0.560519\C,0,-0.245901,1.573633,0.411238\H,0,-3.397
 586,0.941544,0.563345\H,0,-2.507668,0.92013,-0.965183\H,0,-1.444541,0.
 524803,1.841547\H,0,-1.368898,-2.69172,-0.264949\H,0,-1.17737,-1.44261
 9,-1.506655\H,0,-3.257467,-1.510275,0.745301\H,0,-3.552778,-1.293567,-
 0.989179\H,0,0.752121,-0.430618,-1.167283\H,0,1.318065,0.688475,1.6233
 55\H,0,-0.32014,2.431664,1.08279\O,0,-0.355677,2.126707,-0.907208\H,0,
 -0.402603,1.398893,-1.551383\O,0,2.210298,1.475042,-0.017549\H,0,1.906
 197,1.805076,-0.883939\C,0,1.816997,-1.610117,0.249683\H,0,1.940107,-1
 .700881,1.339996\H,0,1.511644,-2.58955,-0.134963\O,0,3.062971,-1.28786
 ,-0.380489\H,0,3.174127,-0.322261,-0.282005\\Version=AM64L-G09RevC.01\
 State=1-A\HF=-594.1990995\RMSD=6.933e-09\Dipole=-1.8244653,0.082407,-0
 .1427845\Quadrupole=-4.3427572,-2.0799183,6.4226756,4.2743635,1.018526
 7,1.1367559\PG=C01 [X(C8H15N1O3)]\\@



 WE LOSE BECAUSE WE WIN

 GAMBLERS,

 RECOLLECTING WHICH,

 TOSS THEIR DICE AGAIN....


                          EMILY DICKINSON  BOLTS OF MELODY NO. 533
 Job cpu time:  0 days  0 hours  8 minutes 31.7 seconds.
 File lengths (MBytes):  RWF=    113 Int=      0 D2E=      0 Chk=      7 Scr=      1
 Normal termination of Gaussian 09 at Fri May 17 12:22:35 2024.
