 Entering Gaussian System, Link 0=g09
 Input=/home/mamichetti.iquir/Linux/01_Cardona_A1A3_R__S_R_R_025_OptB.gjc
 Output=/home/mamichetti.iquir/Linux/01_Cardona_A1A3_R__S_R_R_025_OptB.log
 Initial command:
 /opt/ohpc/pub/apps/software/Gaussian/09/AMD64.SSE4a-enabled/g09/l1.exe /local/mamichetti.iquir/Gau-404990.inp -scrdir=/local/mamichetti.iquir/
 Entering Link 1 = /opt/ohpc/pub/apps/software/Gaussian/09/AMD64.SSE4a-enabled/g09/l1.exe PID=    404991.
  
 Copyright (c) 1988,1990,1992,1993,1995,1998,2003,2009,2011,
            Gaussian, Inc.  All Rights Reserved.
  
 This is part of the Gaussian(R) 09 program.  It is based on
 the Gaussian(R) 03 system (copyright 2003, Gaussian, Inc.),
 the Gaussian(R) 98 system (copyright 1998, Gaussian, Inc.),
 the Gaussian(R) 94 system (copyright 1995, Gaussian, Inc.),
 the Gaussian 92(TM) system (copyright 1992, Gaussian, Inc.),
 the Gaussian 90(TM) system (copyright 1990, Gaussian, Inc.),
 the Gaussian 88(TM) system (copyright 1988, Gaussian, Inc.),
 the Gaussian 86(TM) system (copyright 1986, Carnegie Mellon
 University), and the Gaussian 82(TM) system (copyright 1983,
 Carnegie Mellon University). Gaussian is a federally registered
 trademark of Gaussian, Inc.
  
 This software contains proprietary and confidential information,
 including trade secrets, belonging to Gaussian, Inc.
  
 This software is provided under written license and may be
 used, copied, transmitted, or stored only in accord with that
 written license.
  
 The following legend is applicable only to US Government
 contracts under FAR:
  
                    RESTRICTED RIGHTS LEGEND
  
 Use, reproduction and disclosure by the US Government is
 subject to restrictions as set forth in subparagraphs (a)
 and (c) of the Commercial Computer Software - Restricted
 Rights clause in FAR 52.227-19.
  
 Gaussian, Inc.
 340 Quinnipiac St., Bldg. 40, Wallingford CT 06492
  
  
 ---------------------------------------------------------------
 Warning -- This program may not be used in any manner that
 competes with the business of Gaussian, Inc. or will provide
 assistance to any competitor of Gaussian, Inc.  The licensee
 of this program is prohibited from giving any competitor of
 Gaussian, Inc. access to this program.  By using this program,
 the user acknowledges that Gaussian, Inc. is engaged in the
 business of creating and licensing software in the field of
 computational chemistry and represents and warrants to the
 licensee that it is not a competitor of Gaussian, Inc. and that
 it will not use this program in any manner prohibited above.
 ---------------------------------------------------------------
  

 Cite this work as:
 Gaussian 09, Revision C.01,
 M. J. Frisch, G. W. Trucks, H. B. Schlegel, G. E. Scuseria, 
 M. A. Robb, J. R. Cheeseman, G. Scalmani, V. Barone, B. Mennucci, 
 G. A. Petersson, H. Nakatsuji, M. Caricato, X. Li, H. P. Hratchian, 
 A. F. Izmaylov, J. Bloino, G. Zheng, J. L. Sonnenberg, M. Hada, 
 M. Ehara, K. Toyota, R. Fukuda, J. Hasegawa, M. Ishida, T. Nakajima, 
 Y. Honda, O. Kitao, H. Nakai, T. Vreven, J. A. Montgomery, Jr., 
 J. E. Peralta, F. Ogliaro, M. Bearpark, J. J. Heyd, E. Brothers, 
 K. N. Kudin, V. N. Staroverov, T. Keith, R. Kobayashi, J. Normand, 
 K. Raghavachari, A. Rendell, J. C. Burant, S. S. Iyengar, J. Tomasi, 
 M. Cossi, N. Rega, J. M. Millam, M. Klene, J. E. Knox, J. B. Cross, 
 V. Bakken, C. Adamo, J. Jaramillo, R. Gomperts, R. E. Stratmann, 
 O. Yazyev, A. J. Austin, R. Cammi, C. Pomelli, J. W. Ochterski, 
 R. L. Martin, K. Morokuma, V. G. Zakrzewski, G. A. Voth, 
 P. Salvador, J. J. Dannenberg, S. Dapprich, A. D. Daniels, 
 O. Farkas, J. B. Foresman, J. V. Ortiz, J. Cioslowski, 
 and D. J. Fox, Gaussian, Inc., Wallingford CT, 2010.
 
 ******************************************
 Gaussian 09:  AM64L-G09RevC.01 23-Sep-2011
                17-May-2024 
 ******************************************
 %nprocshared=4
 Will use up to    4 processors via shared memory.
 ------------------------------------------------
 # mpw1pw91/6-31+G** nmr scrf=(pcm,solvent=water)
 ------------------------------------------------
 1/38=1/1;
 2/12=2,17=6,18=5,40=1/2;
 3/5=1,6=6,7=111,11=2,16=1,25=1,30=1,70=2201,72=1,74=-7/1,2,8,3;
 4//1;
 5/5=2,38=5,53=1/2;
 8/6=1,10=90,11=11/1;
 10/13=100,45=16/2;
 6/7=2,8=2,9=2,10=2,28=1/1;
 99/9=1/99;
 -------
 comment
 -------
 Charge =  0 Multiplicity = 1
 Symbolic Z-Matrix:
 6                     2.17111  -0.34087  -0.40709 
 6                     0.76817  -0.03663  -1.02422 
 7                    -0.18353  -1.0499   -0.48714 
 6                     0.65847  -2.18639  -0.06146 
 6                     1.94269  -1.56245   0.50701 
 6                    -0.96098  -0.43178   0.63761 
 6                    -0.55786   1.05078   0.69485 
 6                     0.11414   1.30615  -0.6682 
 1                     2.87716  -0.58073  -1.20897 
 1                     2.57975   0.51167   0.13942 
 1                     0.82886  -0.13784  -2.11257 
 1                     0.89394  -2.80275  -0.93887 
 1                     0.11421  -2.81715   0.64722 
 1                     2.78666  -2.25979   0.50871 
 1                     1.77199  -1.23854   1.53962 
 1                    -0.70664  -0.89931   1.59744 
 1                    -1.4238    1.70813   0.84911 
 1                    -0.65918   1.53735  -1.4086 
 8                     1.07422   2.36201  -0.61442 
 1                     0.58433   3.20151  -0.64743 
 8                     0.39215   1.25911   1.74595 
 1                     0.98666   1.95599   1.40473 
 6                    -2.45589  -0.64306   0.40182 
 1                    -2.67586  -1.7209    0.4113 
 1                    -3.03716  -0.17206   1.20125 
 8                    -2.89509  -0.05459  -0.82569 
 1                    -2.28556  -0.40301  -1.50111 
 
                          Input orientation:                          
 ---------------------------------------------------------------------
 Center     Atomic      Atomic             Coordinates (Angstroms)
 Number     Number       Type             X           Y           Z
 ---------------------------------------------------------------------
      1          6           0        2.171114   -0.340870   -0.407085
      2          6           0        0.768170   -0.036626   -1.024217
      3          7           0       -0.183531   -1.049903   -0.487135
      4          6           0        0.658473   -2.186386   -0.061464
      5          6           0        1.942691   -1.562445    0.507013
      6          6           0       -0.960984   -0.431779    0.637607
      7          6           0       -0.557864    1.050777    0.694847
      8          6           0        0.114140    1.306145   -0.668199
      9          1           0        2.877163   -0.580725   -1.208972
     10          1           0        2.579749    0.511669    0.139424
     11          1           0        0.828861   -0.137843   -2.112567
     12          1           0        0.893935   -2.802751   -0.938872
     13          1           0        0.114212   -2.817150    0.647219
     14          1           0        2.786659   -2.259793    0.508710
     15          1           0        1.771985   -1.238541    1.539621
     16          1           0       -0.706638   -0.899314    1.597440
     17          1           0       -1.423798    1.708128    0.849107
     18          1           0       -0.659178    1.537346   -1.408602
     19          8           0        1.074222    2.362008   -0.614423
     20          1           0        0.584325    3.201509   -0.647431
     21          8           0        0.392148    1.259107    1.745953
     22          1           0        0.986662    1.955986    1.404734
     23          6           0       -2.455894   -0.643055    0.401824
     24          1           0       -2.675862   -1.720904    0.411299
     25          1           0       -3.037161   -0.172061    1.201254
     26          8           0       -2.895085   -0.054590   -0.825686
     27          1           0       -2.285555   -0.403007   -1.501108
 ---------------------------------------------------------------------
                    Distance matrix (angstroms):
                    1          2          3          4          5
     1  C    0.000000
     2  C    1.562584   0.000000
     3  N    2.460384   1.490276   0.000000
     4  C    2.411113   2.358049   1.477078   0.000000
     5  C    1.542724   2.460140   2.402467   1.536777   0.000000
     6  C    3.302981   2.430592   1.500518   2.487968   3.118780
     7  C    3.255496   2.428166   2.439275   3.539874   3.621738
     8  C    2.648015   1.535428   2.381671   3.586391   3.599101
     9  H    1.095015   2.185870   3.179469   2.969429   2.186691
    10  H    1.092006   2.221825   3.235243   3.318307   2.200662
    11  H    2.179801   1.094730   2.121042   2.903891   3.183129
    12  H    2.823976   2.770297   2.106532   1.097813   2.174588
    13  H    3.387383   3.309482   2.120984   1.093762   2.221999
    14  H    2.213559   3.371444   3.358209   2.204464   1.094796
    15  H    2.180546   3.004249   2.822652   2.168362   1.095597
    16  H    3.551258   3.129277   2.154477   2.504405   2.940700
    17  H    4.324327   3.370198   3.306137   4.509128   4.706052
    18  H    3.541368   2.159273   2.787328   4.173388   4.477500
    19  O    2.924331   2.452559   3.638582   4.600706   4.172911
    20  H    3.888973   3.265162   4.323170   5.420172   5.086566
    21  O    3.218729   3.081259   3.263375   3.899886   3.449683
    22  H    3.156131   3.149293   3.739504   4.406437   3.754897
    23  C    4.706894   3.577141   2.473744   3.506535   4.494874
    24  H    5.105627   4.093758   2.732973   3.399701   4.622262
    25  H    5.453566   4.410398   3.429937   4.394277   5.216710
    26  O    5.091518   3.668675   2.908228   4.213830   5.239636
    27  H    4.589406   3.112378   2.421801   3.730994   4.822335
                    6          7          8          9         10
     6  C    0.000000
     7  C    1.537451   0.000000
     8  C    2.425160   1.541005   0.000000
     9  H    4.261855   4.252733   3.389249   0.000000
    10  H    3.697982   3.231679   2.713425   1.760668   0.000000
    11  H    3.294450   3.349238   2.163822   2.282141   2.925566
    12  H    3.398164   4.430173   4.190987   2.990576   3.871701
    13  H    2.616512   3.926170   4.328035   4.010105   4.173460
    14  H    4.171700   4.709602   4.609055   2.403725   2.803602
    15  H    2.988915   3.373843   3.754776   3.034618   2.382492
    16  H    1.097525   2.153988   3.266626   4.563012   3.862256
    17  H    2.199575   1.098066   2.197512   5.288932   4.238343
    18  H    2.855786   2.161368   1.095295   4.126958   3.733503
    19  O    3.676260   2.469255   1.428109   3.501965   2.501730
    20  H    4.152118   2.780639   1.952923   4.458445   3.440363
    21  O    2.432795   1.432043   2.430562   4.276899   2.815173
    22  H    3.175410   1.925851   2.341077   4.103700   2.494992
    23  C    1.528066   2.560751   3.398441   5.571359   5.173001
    24  H    2.157282   3.499790   4.255873   5.895878   5.716620
    25  H    2.166948   2.810462   3.951031   6.399642   5.757139
    26  O    2.454434   2.999410   3.306333   5.808836   5.588013
    27  H    2.515833   3.149702   3.061613   5.174030   5.215281
                   11         12         13         14         15
    11  H    0.000000
    12  H    2.912650   0.000000
    13  H    3.912266   1.767444   0.000000
    14  H    3.899582   2.443911   2.733460   0.000000
    15  H    3.929312   3.059518   2.456949   1.770677   0.000000
    16  H    4.086777   3.552152   2.292337   3.903762   2.502397
    17  H    4.153745   5.377433   4.783762   5.795534   4.401443
    18  H    2.348635   4.633492   4.877106   5.474317   4.723147
    19  O    2.924704   5.178079   5.416368   5.055187   4.253320
    20  H    3.654818   6.019297   6.174251   6.001063   5.089968
    21  O    4.126786   4.894769   4.230879   4.432506   2.860903
    22  H    4.096392   5.305343   4.910990   4.670722   3.292405
    23  C    4.167375   4.205129   3.375256   5.487224   4.418614
    24  H    4.599898   3.966964   3.006980   5.489902   4.614014
    25  H    5.092024   5.191742   4.151458   6.225361   4.937586
    26  O    3.940909   4.682080   4.342471   6.239050   5.364509
    27  H    3.184930   4.022939   4.025205   5.763192   5.138850
                   16         17         18         19         20
    16  H    0.000000
    17  H    2.805900   0.000000
    18  H    3.869865   2.389782   0.000000
    19  O    4.324352   2.968094   2.077369   0.000000
    20  H    4.850029   2.915883   2.212492   0.972548   0.000000
    21  O    2.426555   2.074515   3.336753   2.693138   3.088389
    22  H    3.325228   2.486056   3.286169   2.061435   2.434047
    23  C    2.134259   2.606405   3.355589   4.746038   5.012439
    24  H    2.441267   3.676629   4.242081   5.637855   5.998323
    25  H    2.473297   2.502411   3.922783   5.159618   5.283349
    26  O    3.372595   2.841970   2.805946   4.651879   4.768674
    27  H    3.512876   3.274603   2.533501   4.440678   4.685884
                   21         22         23         24         25
    21  O    0.000000
    22  H    0.977506   0.000000
    23  C    3.679164   4.428548   0.000000
    24  H    4.480452   5.283987   1.100106   0.000000
    25  H    3.755676   4.556439   1.094895   1.775804   0.000000
    26  O    4.375503   4.907662   1.430371   2.086814   2.035306
    27  H    4.525055   4.971536   1.925562   2.355099   2.814429
                   26         27
    26  O    0.000000
    27  H    0.974226   0.000000
 Stoichiometry    C8H15NO3
 Framework group  C1[X(C8H15NO3)]
 Deg. of freedom    75
 Full point group                 C1      NOp   1
 Largest Abelian subgroup         C1      NOp   1
 Largest concise Abelian subgroup C1      NOp   1
                         Standard orientation:                         
 ---------------------------------------------------------------------
 Center     Atomic      Atomic             Coordinates (Angstroms)
 Number     Number       Type             X           Y           Z
 ---------------------------------------------------------------------
      1          6           0        2.171114   -0.340870   -0.407085
      2          6           0        0.768170   -0.036626   -1.024217
      3          7           0       -0.183531   -1.049903   -0.487135
      4          6           0        0.658473   -2.186386   -0.061464
      5          6           0        1.942691   -1.562445    0.507013
      6          6           0       -0.960984   -0.431779    0.637607
      7          6           0       -0.557864    1.050777    0.694847
      8          6           0        0.114140    1.306145   -0.668199
      9          1           0        2.877163   -0.580725   -1.208972
     10          1           0        2.579749    0.511669    0.139424
     11          1           0        0.828861   -0.137843   -2.112567
     12          1           0        0.893935   -2.802751   -0.938872
     13          1           0        0.114212   -2.817150    0.647219
     14          1           0        2.786659   -2.259793    0.508710
     15          1           0        1.771985   -1.238541    1.539621
     16          1           0       -0.706638   -0.899314    1.597440
     17          1           0       -1.423798    1.708128    0.849107
     18          1           0       -0.659178    1.537346   -1.408602
     19          8           0        1.074222    2.362008   -0.614423
     20          1           0        0.584325    3.201509   -0.647431
     21          8           0        0.392148    1.259107    1.745953
     22          1           0        0.986662    1.955986    1.404734
     23          6           0       -2.455894   -0.643055    0.401824
     24          1           0       -2.675862   -1.720904    0.411299
     25          1           0       -3.037161   -0.172061    1.201254
     26          8           0       -2.895085   -0.054590   -0.825686
     27          1           0       -2.285555   -0.403007   -1.501108
 ---------------------------------------------------------------------
 Rotational constants (GHZ):      1.1706601      0.9411835      0.7055179
 Standard basis: 6-31+G(d,p) (6D, 7F)
 There are   303 symmetry adapted basis functions of A   symmetry.
 Integral buffers will be    131072 words long.
 Raffenetti 2 integral format.
 Two-electron integral symmetry is turned on.
   303 basis functions,   489 primitive gaussians,   303 cartesian basis functions
    47 alpha electrons       47 beta electrons
       nuclear repulsion energy       820.9631478515 Hartrees.
 NAtoms=   27 NActive=   27 NUniq=   27 SFac= 1.00D+00 NAtFMM=   60 NAOKFM=F Big=F
 ------------------------------------------------------------------------------
 Polarizable Continuum Model (PCM)
 =================================
 Model                : PCM.
 Atomic radii         : UFF (Universal Force Field).
 Polarization charges : Total charges.
 Charge compensation  : None.
 Solution method      : Matrix inversion.
 Cavity type          : Scaled VdW (van der Waals Surface) (Alpha=1.100).
 Cavity algorithm     : GePol (No added spheres)
                        Default sphere list used, NSphG=   27.
                        Lebedev-Laikov grids with approx.  5.0 points / Ang**2.
                        Smoothing algorithm: Karplus/York (Gamma=1.0000).
                        Polarization charges: spherical gaussians, with
                                              point-specific exponents (IZeta= 3).
                        Self-potential: point-specific (ISelfS= 7).
                        Self-field    : sphere-specific E.n sum rule (ISelfD= 2).
 Solvent              : Water, Eps=  78.355300 Eps(inf)=   1.777849
 ------------------------------------------------------------------------------
 One-electron integrals computed using PRISM.
 NBasis=   303 RedAO= T  NBF=   303
 NBsUse=   303 1.00D-06 NBFU=   303
 Harris functional with IExCor=  908 diagonalized for initial guess.
 ExpMin= 4.38D-02 ExpMax= 5.48D+03 ExpMxC= 8.25D+02 IAcc=2 IRadAn=         4 AccDes= 0.00D+00
 HarFok:  IExCor=  908 AccDes= 0.00D+00 IRadAn=         4 IDoV= 1
 ScaDFX=  1.000000  1.000000  1.000000  1.000000
 FoFCou: FMM=F IPFlag=           0 FMFlag=      100000 FMFlg1=           0
         NFxFlg=           0 DoJE=T BraDBF=F KetDBF=T FulRan=T
         Omega=  0.000000  0.000000  1.000000  0.000000  0.000000 ICntrl=     500 IOpCl=  0
         NMat0=    1 NMatS0=    1 NMatT0=    0 NMatD0=    1 NMtDS0=    0 NMtDT0=    0
         I1Cent=           4 NGrid=           0.
 Petite list used in FoFCou.
 Initial guess orbital symmetries:
       Occupied  (A) (A) (A) (A) (A) (A) (A) (A) (A) (A) (A) (A)
                 (A) (A) (A) (A) (A) (A) (A) (A) (A) (A) (A) (A)
                 (A) (A) (A) (A) (A) (A) (A) (A) (A) (A) (A) (A)
                 (A) (A) (A) (A) (A) (A) (A) (A) (A) (A) (A)
       Virtual   (A) (A) (A) (A) (A) (A) (A) (A) (A) (A) (A) (A)
                 (A) (A) (A) (A) (A) (A) (A) (A) (A) (A) (A) (A)
                 (A) (A) (A) (A) (A) (A) (A) (A) (A) (A) (A) (A)
                 (A) (A) (A) (A) (A) (A) (A) (A) (A) (A) (A) (A)
                 (A) (A) (A) (A) (A) (A) (A) (A) (A) (A) (A) (A)
                 (A) (A) (A) (A) (A) (A) (A) (A) (A) (A) (A) (A)
                 (A) (A) (A) (A) (A) (A) (A) (A) (A) (A) (A) (A)
                 (A) (A) (A) (A) (A) (A) (A) (A) (A) (A) (A) (A)
                 (A) (A) (A) (A) (A) (A) (A) (A) (A) (A) (A) (A)
                 (A) (A) (A) (A) (A) (A) (A) (A) (A) (A) (A) (A)
                 (A) (A) (A) (A) (A) (A) (A) (A) (A) (A) (A) (A)
                 (A) (A) (A) (A) (A) (A) (A) (A) (A) (A) (A) (A)
                 (A) (A) (A) (A) (A) (A) (A) (A) (A) (A) (A) (A)
                 (A) (A) (A) (A) (A) (A) (A) (A) (A) (A) (A) (A)
                 (A) (A) (A) (A) (A) (A) (A) (A) (A) (A) (A) (A)
                 (A) (A) (A) (A) (A) (A) (A) (A) (A) (A) (A) (A)
                 (A) (A) (A) (A) (A) (A) (A) (A) (A) (A) (A) (A)
                 (A) (A) (A) (A) (A) (A) (A) (A) (A) (A) (A) (A)
                 (A) (A) (A) (A) (A) (A) (A) (A) (A) (A) (A) (A)
                 (A) (A) (A) (A) (A) (A) (A) (A) (A) (A) (A) (A)
                 (A) (A) (A) (A) (A) (A) (A) (A) (A) (A) (A) (A)
                 (A) (A) (A) (A)
 The electronic state of the initial guess is 1-A.
 Requested convergence on RMS density matrix=1.00D-08 within 128 cycles.
 Requested convergence on MAX density matrix=1.00D-06.
 Requested convergence on             energy=1.00D-06.
 No special actions if energy rises.
 Error on total polarization charges =  0.01415
 SCF Done:  E(RmPW1PW91) =  -594.197495062     A.U. after   13 cycles
             Convg  =    0.3188D-08             -V/T =  2.0094
 Range of M.O.s used for correlation:     1   303
 NBasis=   303 NAE=    47 NBE=    47 NFC=     0 NFV=     0
 NROrb=    303 NOA=    47 NOB=    47 NVA=   256 NVB=   256

 **** Warning!!: The largest alpha MO coefficient is  0.89929755D+02

 NEqPCM:  Using equilibrium solvation (IEInf=0, Eps=  78.3553, EpsInf=   1.7778)
          Differentiating once with respect to magnetic field using GIAOs.
          Electric field/nuclear overlap derivatives assumed to be zero.
 FoFCou: FMM=F IPFlag=           0 FMFlag=    10101102 FMFlg1=           0
         NFxFlg=    40000000 DoJE=F BraDBF=F KetDBF=T FulRan=T
         Omega=  0.000000  0.000000  1.000000  0.000000  0.000000 ICntrl=    6100 IOpCl=  0
         NMat0=    1 NMatS0=    1 NMatT0=    0 NMatD0=    1 NMtDS0=    0 NMtDT0=    0
         I1Cent=           7 NGrid=        1795.
 Symmetry not used in FoFCou.
          There are     3 degrees of freedom in the 1st order CPHF.  IDoFFX=0.
      3 vectors produced by pass  0 Test12= 4.01D-13 3.33D-08 XBig12= 2.47D+01 7.42D-01.
 AX will form     3 AO Fock derivatives at one time.
      3 vectors produced by pass  1 Test12= 4.01D-13 3.33D-08 XBig12= 5.79D-02 3.26D-02.
      3 vectors produced by pass  2 Test12= 4.01D-13 3.33D-08 XBig12= 1.11D-04 2.02D-03.
      3 vectors produced by pass  3 Test12= 4.01D-13 3.33D-08 XBig12= 4.91D-07 1.07D-04.
      3 vectors produced by pass  4 Test12= 4.01D-13 3.33D-08 XBig12= 1.53D-09 6.74D-06.
      3 vectors produced by pass  5 Test12= 4.01D-13 3.33D-08 XBig12= 5.18D-12 4.65D-07.
 Inverted reduced A of dimension    18 with in-core refinement.
 Calculating GIAO nuclear magnetic shielding tensors.
 SCF GIAO Magnetic shielding tensor (ppm):
      1  C    Isotropic =   168.8845   Anisotropy =    25.7189
   XX=   180.0909   YX=     1.2953   ZX=     6.7893
   XY=     1.2422   YY=   165.9698   ZY=   -18.4430
   XZ=     6.1214   YZ=   -22.5018   ZZ=   160.5928
   Eigenvalues:   141.7824   178.8406   186.0304
      2  C    Isotropic =   126.6926   Anisotropy =    64.7984
   XX=   136.0501   YX=    21.5050   ZX=   -11.8413
   XY=    23.3137   YY=   146.9727   ZY=   -17.8491
   XZ=    -1.5804   YZ=   -21.3357   ZZ=    97.0551
   Eigenvalues:    90.2580   119.9283   169.8915
      3  N    Isotropic =   192.3087   Anisotropy =    63.6794
   XX=   189.7246   YX=    25.7351   ZX=   -29.9905
   XY=    -6.1588   YY=   224.3418   ZY=   -21.8354
   XZ=   -42.7443   YZ=     0.0813   ZZ=   162.8598
   Eigenvalues:   137.3920   204.7725   234.7617
      4  C    Isotropic =   139.5113   Anisotropy =    56.8284
   XX=   143.6345   YX=   -24.4590   ZX=     7.3956
   XY=   -11.8777   YY=   159.2309   ZY=   -19.2149
   XZ=    23.1057   YZ=    -7.2698   ZZ=   115.6687
   Eigenvalues:   108.3740   132.7631   177.3969
      5  C    Isotropic =   170.4633   Anisotropy =    21.9329
   XX=   176.8808   YX=     3.5730   ZX=     9.5072
   XY=     7.8155   YY=   179.4522   ZY=    -9.6198
   XZ=    13.6224   YZ=   -16.0403   ZZ=   155.0569
   Eigenvalues:   144.4415   181.8633   185.0852
      6  C    Isotropic =   119.8530   Anisotropy =    30.3052
   XX=   111.1368   YX=    -7.9700   ZX=   -12.6306
   XY=    -3.7627   YY=   126.6582   ZY=     7.5550
   XZ=   -15.9850   YZ=    10.0412   ZZ=   121.7640
   Eigenvalues:   101.1858   118.3167   140.0565
      7  C    Isotropic =   117.5277   Anisotropy =    21.6768
   XX=   116.8118   YX=     4.0715   ZX=    11.2115
   XY=     8.3225   YY=   116.0576   ZY=     8.6291
   XZ=     5.1052   YZ=     5.2435   ZZ=   119.7137
   Eigenvalues:   109.8875   110.7166   131.9789
      8  C    Isotropic =   119.3862   Anisotropy =    52.5608
   XX=   112.9925   YX=    20.2832   ZX=   -16.7734
   XY=    27.0447   YY=   139.3000   ZY=     5.6864
   XZ=   -20.9136   YZ=    -0.2194   ZZ=   105.8661
   Eigenvalues:    84.2089   119.5229   154.4267
      9  H    Isotropic =    30.0574   Anisotropy =    12.3377
   XX=    33.8126   YX=    -1.7963   ZX=    -5.6638
   XY=    -2.0441   YY=    25.7240   ZY=    -0.6691
   XZ=    -5.8436   YZ=    -0.9128   ZZ=    30.6357
   Eigenvalues:    24.1323    27.7574    38.2826
     10  H    Isotropic =    29.4442   Anisotropy =     6.8366
   XX=    30.8671   YX=     1.6168   ZX=     1.8293
   XY=     1.6310   YY=    32.2273   ZY=     1.6870
   XZ=     1.5944   YZ=     1.9462   ZZ=    25.2382
   Eigenvalues:    24.5162    29.8144    34.0019
     11  H    Isotropic =    27.9124   Anisotropy =     8.8865
   XX=    26.2090   YX=    -0.0099   ZX=    -0.9692
   XY=    -0.1070   YY=    23.7702   ZY=    -0.4943
   XZ=    -0.1123   YZ=    -0.7891   ZZ=    33.7580
   Eigenvalues:    23.7257    26.1748    33.8367
     12  H    Isotropic =    28.7340   Anisotropy =    12.0564
   XX=    26.2151   YX=    -2.9128   ZX=    -0.2960
   XY=    -2.2735   YY=    33.1128   ZY=     5.6080
   XZ=     1.1777   YZ=     5.5361   ZZ=    26.8740
   Eigenvalues:    22.7143    26.7160    36.7715
     13  H    Isotropic =    28.6457   Anisotropy =     9.8919
   XX=    27.8717   YX=     1.5657   ZX=    -0.2816
   XY=     1.8333   YY=    33.4586   ZY=    -4.1917
   XZ=    -0.9032   YZ=    -3.2062   ZZ=    24.6069
   Eigenvalues:    23.2646    27.4323    35.2403
     14  H    Isotropic =    30.0442   Anisotropy =    12.5114
   XX=    33.2573   YX=    -5.3704   ZX=     1.3573
   XY=    -5.7825   YY=    31.3161   ZY=    -1.9851
   XZ=     1.6168   YZ=    -1.8386   ZZ=    25.5593
   Eigenvalues:    24.9721    26.7755    38.3852
     15  H    Isotropic =    29.6641   Anisotropy =     8.5871
   XX=    26.6340   YX=    -0.8363   ZX=     0.8060
   XY=    -0.5402   YY=    27.1193   ZY=     0.5396
   XZ=     1.4820   YZ=    -0.2685   ZZ=    35.2392
   Eigenvalues:    26.0332    27.5703    35.3889
     16  H    Isotropic =    28.7459   Anisotropy =     4.7506
   XX=    28.5533   YX=     0.1354   ZX=    -2.1273
   XY=    -0.6081   YY=    26.7975   ZY=    -0.8985
   XZ=    -1.2946   YZ=    -1.1183   ZZ=    30.8869
   Eigenvalues:    26.3340    27.9908    31.9130
     17  H    Isotropic =    27.6757   Anisotropy =     7.2509
   XX=    31.3786   YX=    -2.9956   ZX=     0.5131
   XY=    -2.1822   YY=    26.5798   ZY=     2.3366
   XZ=     1.8294   YZ=     2.7126   ZZ=    25.0687
   Eigenvalues:    22.4700    28.0475    32.5097
     18  H    Isotropic =    27.0183   Anisotropy =     4.4703
   XX=    27.7104   YX=     0.3846   ZX=     4.0173
   XY=     1.6067   YY=    27.6213   ZY=    -1.6260
   XZ=     1.8007   YZ=    -3.0238   ZZ=    25.7231
   Eigenvalues:    22.4529    28.6035    29.9985
     19  O    Isotropic =   308.6444   Anisotropy =    98.3420
   XX=   287.5372   YX=   -51.0621   ZX=    -1.7237
   XY=    -9.8774   YY=   363.0815   ZY=    -1.4196
   XZ=     0.6543   YZ=   -11.7224   ZZ=   275.3143
   Eigenvalues:   273.0251   278.7023   374.2057
     20  H    Isotropic =    29.9395   Anisotropy =    22.5767
   XX=    26.4616   YX=    -5.2330   ZX=     0.8816
   XY=    -5.1863   YY=    43.2828   ZY=    -2.4162
   XZ=     0.1359   YZ=    -2.2189   ZZ=    20.0742
   Eigenvalues:    19.8450    24.9829    44.9907
     21  O    Isotropic =   304.2467   Anisotropy =    54.5090
   XX=   308.3201   YX=    29.9292   ZX=     9.5815
   XY=    12.4235   YY=   324.0899   ZY=   -27.3329
   XZ=    -5.0328   YZ=    -0.6426   ZZ=   280.3302
   Eigenvalues:   273.8284   298.3257   340.5860
     22  H    Isotropic =    28.3966   Anisotropy =    16.5491
   XX=    26.5178   YX=    10.0161   ZX=    -2.6390
   XY=    10.3696   YY=    30.2410   ZY=    -2.3764
   XZ=    -0.4043   YZ=    -2.2501   ZZ=    28.4310
   Eigenvalues:    18.0082    27.7523    39.4293
     23  C    Isotropic =   128.9192   Anisotropy =    34.6673
   XX=   127.1045   YX=     1.6795   ZX=     7.6984
   XY=    -2.9627   YY=   118.7529   ZY=   -11.0078
   XZ=    15.8883   YZ=   -15.5605   ZZ=   140.9001
   Eigenvalues:   111.0033   123.7235   152.0307
     24  H    Isotropic =    28.0093   Anisotropy =     7.9974
   XX=    28.2098   YX=     2.7183   ZX=     0.9887
   XY=     2.7765   YY=    30.0679   ZY=    -3.3985
   XZ=     0.0319   YZ=    -4.5198   ZZ=    25.7501
   Eigenvalues:    22.7252    27.9617    33.3408
     25  H    Isotropic =    28.0843   Anisotropy =     7.3203
   XX=    30.0635   YX=    -0.0543   ZX=    -2.3491
   XY=    -0.6522   YY=    24.1990   ZY=    -0.3390
   XZ=    -3.5043   YZ=     0.4932   ZZ=    29.9903
   Eigenvalues:    24.1756    27.1128    32.9644
     26  O    Isotropic =   320.7423   Anisotropy =    38.9595
   XX=   326.8137   YX=     5.4573   ZX=   -30.6819
   XY=    -9.4303   YY=   314.4780   ZY=   -15.7104
   XZ=   -13.9781   YZ=     1.6111   ZZ=   320.9352
   Eigenvalues:   298.5691   316.9425   346.7153
     27  H    Isotropic =    29.5288   Anisotropy =    14.0860
   XX=    32.6124   YX=    -5.2439   ZX=    -2.8385
   XY=    -3.2635   YY=    21.7921   ZY=     3.9313
   XZ=    -4.3132   YZ=     3.6779   ZZ=    34.1820
   Eigenvalues:    19.8609    29.8061    38.9195
 End of Minotr Frequency-dependent properties file   721 does not exist.
 End of Minotr Frequency-dependent properties file   722 does not exist.

 **********************************************************************

            Population analysis using the SCF density.

 **********************************************************************

 Orbital symmetries:
       Occupied  (A) (A) (A) (A) (A) (A) (A) (A) (A) (A) (A) (A)
                 (A) (A) (A) (A) (A) (A) (A) (A) (A) (A) (A) (A)
                 (A) (A) (A) (A) (A) (A) (A) (A) (A) (A) (A) (A)
                 (A) (A) (A) (A) (A) (A) (A) (A) (A) (A) (A)
       Virtual   (A) (A) (A) (A) (A) (A) (A) (A) (A) (A) (A) (A)
                 (A) (A) (A) (A) (A) (A) (A) (A) (A) (A) (A) (A)
                 (A) (A) (A) (A) (A) (A) (A) (A) (A) (A) (A) (A)
                 (A) (A) (A) (A) (A) (A) (A) (A) (A) (A) (A) (A)
                 (A) (A) (A) (A) (A) (A) (A) (A) (A) (A) (A) (A)
                 (A) (A) (A) (A) (A) (A) (A) (A) (A) (A) (A) (A)
                 (A) (A) (A) (A) (A) (A) (A) (A) (A) (A) (A) (A)
                 (A) (A) (A) (A) (A) (A) (A) (A) (A) (A) (A) (A)
                 (A) (A) (A) (A) (A) (A) (A) (A) (A) (A) (A) (A)
                 (A) (A) (A) (A) (A) (A) (A) (A) (A) (A) (A) (A)
                 (A) (A) (A) (A) (A) (A) (A) (A) (A) (A) (A) (A)
                 (A) (A) (A) (A) (A) (A) (A) (A) (A) (A) (A) (A)
                 (A) (A) (A) (A) (A) (A) (A) (A) (A) (A) (A) (A)
                 (A) (A) (A) (A) (A) (A) (A) (A) (A) (A) (A) (A)
                 (A) (A) (A) (A) (A) (A) (A) (A) (A) (A) (A) (A)
                 (A) (A) (A) (A) (A) (A) (A) (A) (A) (A) (A) (A)
                 (A) (A) (A) (A) (A) (A) (A) (A) (A) (A) (A) (A)
                 (A) (A) (A) (A) (A) (A) (A) (A) (A) (A) (A) (A)
                 (A) (A) (A) (A) (A) (A) (A) (A) (A) (A) (A) (A)
                 (A) (A) (A) (A) (A) (A) (A) (A) (A) (A) (A) (A)
                 (A) (A) (A) (A) (A) (A) (A) (A) (A) (A) (A) (A)
                 (A) (A) (A) (A)
 The electronic state is 1-A.
 Alpha  occ. eigenvalues --  -19.27178 -19.25235 -19.25006 -14.41748 -10.30833
 Alpha  occ. eigenvalues --  -10.30152 -10.29287 -10.28098 -10.27833 -10.26901
 Alpha  occ. eigenvalues --  -10.24147 -10.24049  -1.08308  -1.05565  -1.04723
 Alpha  occ. eigenvalues --   -0.96536  -0.82014  -0.79065  -0.75619  -0.71185
 Alpha  occ. eigenvalues --   -0.66892  -0.61945  -0.59893  -0.58046  -0.55372
 Alpha  occ. eigenvalues --   -0.52598  -0.51496  -0.50400  -0.49745  -0.47782
 Alpha  occ. eigenvalues --   -0.46073  -0.45403  -0.42798  -0.41667  -0.40397
 Alpha  occ. eigenvalues --   -0.40151  -0.37900  -0.37369  -0.36730  -0.35414
 Alpha  occ. eigenvalues --   -0.34515  -0.33892  -0.33447  -0.31042  -0.29681
 Alpha  occ. eigenvalues --   -0.28880  -0.24107
 Alpha virt. eigenvalues --    0.00017   0.01385   0.01922   0.02427   0.03829
 Alpha virt. eigenvalues --    0.04201   0.04569   0.04857   0.05107   0.07202
 Alpha virt. eigenvalues --    0.07863   0.08097   0.08607   0.08826   0.09807
 Alpha virt. eigenvalues --    0.10061   0.11249   0.11610   0.12357   0.12599
 Alpha virt. eigenvalues --    0.13446   0.13746   0.13966   0.15202   0.15455
 Alpha virt. eigenvalues --    0.16366   0.16681   0.17284   0.17543   0.18116
 Alpha virt. eigenvalues --    0.18623   0.19208   0.20324   0.20702   0.20950
 Alpha virt. eigenvalues --    0.21057   0.21654   0.22465   0.22773   0.22961
 Alpha virt. eigenvalues --    0.23600   0.23850   0.24697   0.25061   0.26015
 Alpha virt. eigenvalues --    0.26551   0.26966   0.28258   0.28401   0.29006
 Alpha virt. eigenvalues --    0.29854   0.30163   0.31128   0.31697   0.32264
 Alpha virt. eigenvalues --    0.32476   0.32752   0.33167   0.34520   0.35222
 Alpha virt. eigenvalues --    0.36078   0.36223   0.36527   0.37318   0.38666
 Alpha virt. eigenvalues --    0.39499   0.40369   0.41271   0.42046   0.42615
 Alpha virt. eigenvalues --    0.43622   0.44794   0.46343   0.46582   0.48458
 Alpha virt. eigenvalues --    0.49276   0.64703   0.66819   0.68158   0.68717
 Alpha virt. eigenvalues --    0.70101   0.71129   0.72783   0.73455   0.74875
 Alpha virt. eigenvalues --    0.76887   0.78158   0.78734   0.79636   0.81974
 Alpha virt. eigenvalues --    0.82818   0.83898   0.86501   0.87559   0.89192
 Alpha virt. eigenvalues --    0.89638   0.90886   0.94158   0.95555   0.97711
 Alpha virt. eigenvalues --    0.98938   0.99441   1.03041   1.04161   1.04925
 Alpha virt. eigenvalues --    1.05718   1.07128   1.09694   1.09776   1.10772
 Alpha virt. eigenvalues --    1.11943   1.12504   1.13137   1.14903   1.15937
 Alpha virt. eigenvalues --    1.16574   1.19101   1.20595   1.23489   1.25622
 Alpha virt. eigenvalues --    1.26279   1.28042   1.30598   1.31773   1.33012
 Alpha virt. eigenvalues --    1.34853   1.36489   1.37358   1.40411   1.42850
 Alpha virt. eigenvalues --    1.43407   1.44085   1.47982   1.50609   1.51604
 Alpha virt. eigenvalues --    1.53292   1.54051   1.57443   1.61059   1.61967
 Alpha virt. eigenvalues --    1.63452   1.66200   1.66918   1.70410   1.71771
 Alpha virt. eigenvalues --    1.74479   1.76442   1.77087   1.78546   1.79751
 Alpha virt. eigenvalues --    1.80555   1.82469   1.83082   1.86983   1.88365
 Alpha virt. eigenvalues --    1.88735   1.89877   1.91102   1.91595   1.93015
 Alpha virt. eigenvalues --    1.95805   1.99124   2.00631   2.02214   2.04447
 Alpha virt. eigenvalues --    2.05011   2.06719   2.08335   2.10724   2.11872
 Alpha virt. eigenvalues --    2.14642   2.15598   2.16678   2.17844   2.21277
 Alpha virt. eigenvalues --    2.23247   2.25240   2.27236   2.27508   2.28796
 Alpha virt. eigenvalues --    2.33100   2.34682   2.36520   2.38414   2.39643
 Alpha virt. eigenvalues --    2.42262   2.45083   2.47023   2.47193   2.50095
 Alpha virt. eigenvalues --    2.50781   2.52739   2.53546   2.55166   2.55601
 Alpha virt. eigenvalues --    2.57228   2.58421   2.60305   2.61334   2.63082
 Alpha virt. eigenvalues --    2.63937   2.65465   2.67751   2.67968   2.68386
 Alpha virt. eigenvalues --    2.71105   2.71441   2.74204   2.76226   2.79101
 Alpha virt. eigenvalues --    2.79924   2.81635   2.82614   2.83746   2.84539
 Alpha virt. eigenvalues --    2.87030   2.89296   2.90238   2.91297   2.94539
 Alpha virt. eigenvalues --    2.96190   2.98973   2.99883   3.02090   3.04666
 Alpha virt. eigenvalues --    3.08301   3.09310   3.11596   3.18783   3.32939
 Alpha virt. eigenvalues --    3.34176   3.36674   3.39209   3.44795   3.46454
 Alpha virt. eigenvalues --    3.47973   3.50320   3.51244   3.53521   3.54827
 Alpha virt. eigenvalues --    3.56183   3.59837   3.61092   3.62749   4.28725
 Alpha virt. eigenvalues --    4.32385   4.42754   4.49216   4.52576   4.57312
 Alpha virt. eigenvalues --    4.60617   4.70952   4.75210   4.87051   4.91213
 Alpha virt. eigenvalues --    5.01568
          Condensed to atoms (all electrons):
              1          2          3          4          5          6
     1  C    6.043192  -0.732603   0.226109   0.054448  -0.110662   0.070730
     2  C   -0.732603   8.340588  -0.423140  -0.317037   0.257151  -0.778209
     3  N    0.226109  -0.423140   7.589615   0.198658  -0.301121  -0.156399
     4  C    0.054448  -0.317037   0.198658   5.838416   0.095697  -0.356056
     5  C   -0.110662   0.257151  -0.301121   0.095697   5.665692   0.237579
     6  C    0.070730  -0.778209  -0.156399  -0.356056   0.237579   9.620055
     7  C   -0.313835   0.768431  -0.269556  -0.037339  -0.019699  -1.432889
     8  C    0.110530  -0.825961   0.086210  -0.068485   0.008014   0.089915
     9  H    0.428721  -0.100104   0.012340   0.004386  -0.046940   0.017732
    10  H    0.461422  -0.128176   0.020366   0.024209  -0.050295  -0.000852
    11  H    0.012061   0.254880  -0.038287  -0.012916  -0.000356   0.036336
    12  H    0.011225  -0.021602  -0.030415   0.399905  -0.062288   0.003778
    13  H    0.010994   0.026423  -0.054376   0.369309  -0.020822   0.022231
    14  H   -0.009395   0.007518   0.016877  -0.042943   0.358494   0.002024
    15  H   -0.061775   0.000939   0.005436  -0.062411   0.429687   0.016615
    16  H   -0.015651   0.037636  -0.032609   0.047508   0.000695   0.189535
    17  H    0.009341   0.019030   0.022307  -0.000676  -0.006498  -0.193922
    18  H    0.013552  -0.022029   0.030924   0.012937  -0.007377  -0.022650
    19  O    0.022283  -0.217965   0.014138   0.005974   0.002082   0.115455
    20  H   -0.002536   0.041585  -0.002097  -0.000283  -0.000713   0.002314
    21  O    0.090610   0.002232   0.043979  -0.002493  -0.079895  -0.139070
    22  H    0.019001  -0.040729   0.002753   0.008172  -0.005661   0.041551
    23  C    0.111688  -0.158207   0.167660   0.109219  -0.132524  -1.037758
    24  H    0.000106  -0.013983  -0.009601   0.014756  -0.001380  -0.053052
    25  H    0.002120   0.003678   0.015272   0.002205  -0.001361  -0.158214
    26  O    0.007316  -0.059212   0.043527   0.015217  -0.007853  -0.216551
    27  H    0.004652   0.000169   0.043357   0.013938  -0.003045  -0.061548
              7          8          9         10         11         12
     1  C   -0.313835   0.110530   0.428721   0.461422   0.012061   0.011225
     2  C    0.768431  -0.825961  -0.100104  -0.128176   0.254880  -0.021602
     3  N   -0.269556   0.086210   0.012340   0.020366  -0.038287  -0.030415
     4  C   -0.037339  -0.068485   0.004386   0.024209  -0.012916   0.399905
     5  C   -0.019699   0.008014  -0.046940  -0.050295  -0.000356  -0.062288
     6  C   -1.432889   0.089915   0.017732  -0.000852   0.036336   0.003778
     7  C    6.945661  -0.332892  -0.023051  -0.002038   0.006470   0.000923
     8  C   -0.332892   6.512025   0.041223   0.009816   0.026299   0.008897
     9  H   -0.023051   0.041223   0.529121  -0.025921  -0.008039   0.001040
    10  H   -0.002038   0.009816  -0.025921   0.513577   0.003886  -0.000044
    11  H    0.006470   0.026299  -0.008039   0.003886   0.550286   0.001550
    12  H    0.000923   0.008897   0.001040  -0.000044   0.001550   0.536526
    13  H    0.005040  -0.003837  -0.000132  -0.000128  -0.000123  -0.024773
    14  H    0.004138   0.000838  -0.005855   0.001671   0.000021  -0.003291
    15  H   -0.006129   0.008401   0.003808  -0.007300  -0.000146   0.003905
    16  H    0.064432  -0.007874   0.000001  -0.000059  -0.000278   0.000007
    17  H    0.386653   0.021593   0.000005  -0.000064  -0.000151   0.000004
    18  H    0.001235   0.299171  -0.000078   0.000062  -0.007881   0.000006
    19  O   -0.165065   0.270772  -0.000709   0.002933   0.002836  -0.000061
    20  H   -0.044878   0.014957  -0.000007  -0.000022  -0.000271   0.000000
    21  O    0.333582  -0.094984   0.000759  -0.000239  -0.000530   0.000141
    22  H   -0.009690  -0.052961  -0.000002  -0.000338  -0.000042  -0.000001
    23  C    0.049310   0.094738   0.001864  -0.001449  -0.000091   0.007349
    24  H    0.006038   0.008324   0.000000   0.000000   0.000000  -0.000057
    25  H   -0.005566   0.000413   0.000000   0.000000  -0.000001   0.000002
    26  O    0.064902   0.033349  -0.000002   0.000015   0.000527   0.000345
    27  H   -0.031142   0.000354   0.000000  -0.000001  -0.000286  -0.000029
             13         14         15         16         17         18
     1  C    0.010994  -0.009395  -0.061775  -0.015651   0.009341   0.013552
     2  C    0.026423   0.007518   0.000939   0.037636   0.019030  -0.022029
     3  N   -0.054376   0.016877   0.005436  -0.032609   0.022307   0.030924
     4  C    0.369309  -0.042943  -0.062411   0.047508  -0.000676   0.012937
     5  C   -0.020822   0.358494   0.429687   0.000695  -0.006498  -0.007377
     6  C    0.022231   0.002024   0.016615   0.189535  -0.193922  -0.022650
     7  C    0.005040   0.004138  -0.006129   0.064432   0.386653   0.001235
     8  C   -0.003837   0.000838   0.008401  -0.007874   0.021593   0.299171
     9  H   -0.000132  -0.005855   0.003808   0.000001   0.000005  -0.000078
    10  H   -0.000128   0.001671  -0.007300  -0.000059  -0.000064   0.000062
    11  H   -0.000123   0.000021  -0.000146  -0.000278  -0.000151  -0.007881
    12  H   -0.024773  -0.003291   0.003905   0.000007   0.000004   0.000006
    13  H    0.525405   0.001392  -0.005425   0.000158  -0.000007   0.000005
    14  H    0.001392   0.525039  -0.025333  -0.000196   0.000000   0.000002
    15  H   -0.005425  -0.025333   0.513508   0.001109   0.000021   0.000003
    16  H    0.000158  -0.000196   0.001109   0.543328   0.000878  -0.000161
    17  H   -0.000007   0.000000   0.000021   0.000878   0.570182  -0.002901
    18  H    0.000005   0.000002   0.000003  -0.000161  -0.002901   0.547677
    19  O    0.000046   0.000101  -0.000295  -0.001071  -0.006536  -0.026972
    20  H    0.000000   0.000000  -0.000002   0.000005   0.001672  -0.008066
    21  O    0.000219   0.000384  -0.001298  -0.010233  -0.052075   0.005167
    22  H   -0.000003  -0.000010  -0.000052   0.000373   0.000306   0.001072
    23  C   -0.020173  -0.000255   0.007982  -0.004321   0.064965   0.003048
    24  H    0.000477   0.000000  -0.000003  -0.001530   0.000110  -0.000011
    25  H   -0.000043   0.000000   0.000000   0.000944   0.001342   0.000038
    26  O    0.000062   0.000006   0.000028   0.009422   0.000142  -0.000115
    27  H   -0.000020   0.000000   0.000001   0.000258   0.000134  -0.000677
             19         20         21         22         23         24
     1  C    0.022283  -0.002536   0.090610   0.019001   0.111688   0.000106
     2  C   -0.217965   0.041585   0.002232  -0.040729  -0.158207  -0.013983
     3  N    0.014138  -0.002097   0.043979   0.002753   0.167660  -0.009601
     4  C    0.005974  -0.000283  -0.002493   0.008172   0.109219   0.014756
     5  C    0.002082  -0.000713  -0.079895  -0.005661  -0.132524  -0.001380
     6  C    0.115455   0.002314  -0.139070   0.041551  -1.037758  -0.053052
     7  C   -0.165065  -0.044878   0.333582  -0.009690   0.049310   0.006038
     8  C    0.270772   0.014957  -0.094984  -0.052961   0.094738   0.008324
     9  H   -0.000709  -0.000007   0.000759  -0.000002   0.001864   0.000000
    10  H    0.002933  -0.000022  -0.000239  -0.000338  -0.001449   0.000000
    11  H    0.002836  -0.000271  -0.000530  -0.000042  -0.000091   0.000000
    12  H   -0.000061   0.000000   0.000141  -0.000001   0.007349  -0.000057
    13  H    0.000046   0.000000   0.000219  -0.000003  -0.020173   0.000477
    14  H    0.000101   0.000000   0.000384  -0.000010  -0.000255   0.000000
    15  H   -0.000295  -0.000002  -0.001298  -0.000052   0.007982  -0.000003
    16  H   -0.001071   0.000005  -0.010233   0.000373  -0.004321  -0.001530
    17  H   -0.006536   0.001672  -0.052075   0.000306   0.064965   0.000110
    18  H   -0.026972  -0.008066   0.005167   0.001072   0.003048  -0.000011
    19  O    8.336314   0.242644  -0.030192   0.043898  -0.001924  -0.000011
    20  H    0.242644   0.351273   0.000968  -0.002705   0.000339   0.000000
    21  O   -0.030192   0.000968   8.213641   0.246808   0.009026  -0.000320
    22  H    0.043898  -0.002705   0.246808   0.364736  -0.000243   0.000005
    23  C   -0.001924   0.000339   0.009026  -0.000243   5.891948   0.409474
    24  H   -0.000011   0.000000  -0.000320   0.000005   0.409474   0.578256
    25  H    0.000005   0.000000   0.000055  -0.000017   0.519089  -0.036774
    26  O   -0.001283   0.000104  -0.001596   0.000171   0.230319  -0.050632
    27  H    0.000232   0.000000  -0.000131  -0.000001   0.039655  -0.004940
             25         26         27
     1  C    0.002120   0.007316   0.004652
     2  C    0.003678  -0.059212   0.000169
     3  N    0.015272   0.043527   0.043357
     4  C    0.002205   0.015217   0.013938
     5  C   -0.001361  -0.007853  -0.003045
     6  C   -0.158214  -0.216551  -0.061548
     7  C   -0.005566   0.064902  -0.031142
     8  C    0.000413   0.033349   0.000354
     9  H    0.000000  -0.000002   0.000000
    10  H    0.000000   0.000015  -0.000001
    11  H   -0.000001   0.000527  -0.000286
    12  H    0.000002   0.000345  -0.000029
    13  H   -0.000043   0.000062  -0.000020
    14  H    0.000000   0.000006   0.000000
    15  H    0.000000   0.000028   0.000001
    16  H    0.000944   0.009422   0.000258
    17  H    0.001342   0.000142   0.000134
    18  H    0.000038  -0.000115  -0.000677
    19  O    0.000005  -0.001283   0.000232
    20  H    0.000000   0.000104   0.000000
    21  O    0.000055  -0.001596  -0.000131
    22  H   -0.000017   0.000171  -0.000001
    23  C    0.519089   0.230319   0.039655
    24  H   -0.036774  -0.050632  -0.004940
    25  H    0.538833  -0.054764   0.006529
    26  O   -0.054764   8.281356   0.249799
    27  H    0.006529   0.249799   0.358646
 Mulliken atomic charges:
              1
     1  C   -0.463642
     2  C    0.078698
     3  N   -0.221926
     4  C   -0.314315
     5  C   -0.196603
     6  C    0.141320
     7  C    0.056951
     8  C   -0.258844
     9  H    0.169839
    10  H    0.178967
    11  H    0.174245
    12  H    0.166958
    13  H    0.168100
    14  H    0.168771
    15  H    0.178724
    16  H    0.177691
    17  H    0.164143
    18  H    0.184019
    19  O   -0.607630
    20  H    0.405719
    21  O   -0.534517
    22  H    0.383607
    23  C   -0.360729
    24  H    0.154746
    25  H    0.166215
    26  O   -0.544602
    27  H    0.384095
 Sum of Mulliken atomic charges =   0.00000
 Mulliken charges with hydrogens summed into heavy atoms:
              1
     1  C   -0.114836
     2  C    0.252943
     3  N   -0.221926
     4  C    0.020743
     5  C    0.150892
     6  C    0.319011
     7  C    0.221094
     8  C   -0.074825
    19  O   -0.201911
    21  O   -0.150910
    23  C   -0.039768
    26  O   -0.160507
 Sum of Mulliken charges with hydrogens summed into heavy atoms =   0.00000
 Electronic spatial extent (au):  <R**2>=           1883.7020
 Charge=              0.0000 electrons
 Dipole moment (field-independent basis, Debye):
    X=              1.1730    Y=              0.3123    Z=             -0.7500  Tot=              1.4269
 Quadrupole moment (field-independent basis, Debye-Ang):
   XX=            -83.0852   YY=            -62.2937   ZZ=            -76.0834
   XY=             -1.8134   XZ=             -4.0561   YZ=             -2.7491
 Traceless Quadrupole moment (field-independent basis, Debye-Ang):
   XX=             -9.2645   YY=             11.5271   ZZ=             -2.2626
   XY=             -1.8134   XZ=             -4.0561   YZ=             -2.7491
 Octapole moment (field-independent basis, Debye-Ang**2):
  XXX=             31.3467  YYY=             44.4205  ZZZ=            -18.9196  XYY=             -2.7455
  XXY=             -7.2316  XXZ=             18.0024  XZZ=             -5.7244  YZZ=             -2.2533
  YYZ=             -0.3164  XYZ=              5.9390
 Hexadecapole moment (field-independent basis, Debye-Ang**3):
 XXXX=          -1301.6170 YYYY=           -707.6963 ZZZZ=           -423.1113 XXXY=             11.5803
 XXXZ=            -47.5337 YYYX=              9.1971 YYYZ=            -13.2410 ZZZX=             10.0489
 ZZZY=            -12.7819 XXYY=           -337.9136 XXZZ=           -255.7633 YYZZ=           -213.9591
 XXYZ=             17.2524 YYXZ=              9.8319 ZZXY=              3.4833
 N-N= 8.209631478515D+02 E-N=-3.027826051162D+03  KE= 5.886669388873D+02
 1\1\GINC-COMPUTE-3-1\SP\RmPW1PW91\6-31+G(d,p)\C8H15N1O3\MAMICHETTI.IQU
 IR\17-May-2024\0\\# mpw1pw91/6-31+G** nmr scrf=(pcm,solvent=water)\\co
 mment\\0,1\C,0,2.171114,-0.34087,-0.407085\C,0,0.76817,-0.036626,-1.02
 4217\N,0,-0.183531,-1.049903,-0.487135\C,0,0.658473,-2.186386,-0.06146
 4\C,0,1.942691,-1.562445,0.507013\C,0,-0.960984,-0.431779,0.637607\C,0
 ,-0.557864,1.050777,0.694847\C,0,0.11414,1.306145,-0.668199\H,0,2.8771
 63,-0.580725,-1.208972\H,0,2.579749,0.511669,0.139424\H,0,0.828861,-0.
 137843,-2.112567\H,0,0.893935,-2.802751,-0.938872\H,0,0.114212,-2.8171
 5,0.647219\H,0,2.786659,-2.259793,0.50871\H,0,1.771985,-1.238541,1.539
 621\H,0,-0.706638,-0.899314,1.59744\H,0,-1.423798,1.708128,0.849107\H,
 0,-0.659178,1.537346,-1.408602\O,0,1.074222,2.362008,-0.614423\H,0,0.5
 84325,3.201509,-0.647431\O,0,0.392148,1.259107,1.745953\H,0,0.986662,1
 .955986,1.404734\C,0,-2.455894,-0.643055,0.401824\H,0,-2.675862,-1.720
 904,0.411299\H,0,-3.037161,-0.172061,1.201254\O,0,-2.895085,-0.05459,-
 0.825686\H,0,-2.285555,-0.403007,-1.501108\\Version=AM64L-G09RevC.01\S
 tate=1-A\HF=-594.1974951\RMSD=3.188e-09\Dipole=0.4615121,0.1228742,-0.
 2950536\Quadrupole=-6.8879162,8.5701037,-1.6821874,-1.3481992,-3.01558
 75,-2.0439196\PG=C01 [X(C8H15N1O3)]\\@


 KNOWLEDGE IS EXPERIMENT'S DAUGHTER.
 -- LEONARDO DA VINCI, IN "PENSIERI" CA. 1492
 Job cpu time:  0 days  0 hours  8 minutes 44.0 seconds.
 File lengths (MBytes):  RWF=    111 Int=      0 D2E=      0 Chk=      7 Scr=      1
 Normal termination of Gaussian 09 at Fri May 17 12:23:17 2024.
