 Entering Gaussian System, Link 0=g09
 Input=/home/mamichetti.iquir/Linux/01_Cardona_A1A3_R__S_R_R_037_OptB.gjc
 Output=/home/mamichetti.iquir/Linux/01_Cardona_A1A3_R__S_R_R_037_OptB.log
 Initial command:
 /opt/ohpc/pub/apps/software/Gaussian/09/AMD64.SSE4a-enabled/g09/l1.exe /local/mamichetti.iquir/Gau-403734.inp -scrdir=/local/mamichetti.iquir/
 Entering Link 1 = /opt/ohpc/pub/apps/software/Gaussian/09/AMD64.SSE4a-enabled/g09/l1.exe PID=    403737.
  
 Copyright (c) 1988,1990,1992,1993,1995,1998,2003,2009,2011,
            Gaussian, Inc.  All Rights Reserved.
  
 This is part of the Gaussian(R) 09 program.  It is based on
 the Gaussian(R) 03 system (copyright 2003, Gaussian, Inc.),
 the Gaussian(R) 98 system (copyright 1998, Gaussian, Inc.),
 the Gaussian(R) 94 system (copyright 1995, Gaussian, Inc.),
 the Gaussian 92(TM) system (copyright 1992, Gaussian, Inc.),
 the Gaussian 90(TM) system (copyright 1990, Gaussian, Inc.),
 the Gaussian 88(TM) system (copyright 1988, Gaussian, Inc.),
 the Gaussian 86(TM) system (copyright 1986, Carnegie Mellon
 University), and the Gaussian 82(TM) system (copyright 1983,
 Carnegie Mellon University). Gaussian is a federally registered
 trademark of Gaussian, Inc.
  
 This software contains proprietary and confidential information,
 including trade secrets, belonging to Gaussian, Inc.
  
 This software is provided under written license and may be
 used, copied, transmitted, or stored only in accord with that
 written license.
  
 The following legend is applicable only to US Government
 contracts under FAR:
  
                    RESTRICTED RIGHTS LEGEND
  
 Use, reproduction and disclosure by the US Government is
 subject to restrictions as set forth in subparagraphs (a)
 and (c) of the Commercial Computer Software - Restricted
 Rights clause in FAR 52.227-19.
  
 Gaussian, Inc.
 340 Quinnipiac St., Bldg. 40, Wallingford CT 06492
  
  
 ---------------------------------------------------------------
 Warning -- This program may not be used in any manner that
 competes with the business of Gaussian, Inc. or will provide
 assistance to any competitor of Gaussian, Inc.  The licensee
 of this program is prohibited from giving any competitor of
 Gaussian, Inc. access to this program.  By using this program,
 the user acknowledges that Gaussian, Inc. is engaged in the
 business of creating and licensing software in the field of
 computational chemistry and represents and warrants to the
 licensee that it is not a competitor of Gaussian, Inc. and that
 it will not use this program in any manner prohibited above.
 ---------------------------------------------------------------
  

 Cite this work as:
 Gaussian 09, Revision C.01,
 M. J. Frisch, G. W. Trucks, H. B. Schlegel, G. E. Scuseria, 
 M. A. Robb, J. R. Cheeseman, G. Scalmani, V. Barone, B. Mennucci, 
 G. A. Petersson, H. Nakatsuji, M. Caricato, X. Li, H. P. Hratchian, 
 A. F. Izmaylov, J. Bloino, G. Zheng, J. L. Sonnenberg, M. Hada, 
 M. Ehara, K. Toyota, R. Fukuda, J. Hasegawa, M. Ishida, T. Nakajima, 
 Y. Honda, O. Kitao, H. Nakai, T. Vreven, J. A. Montgomery, Jr., 
 J. E. Peralta, F. Ogliaro, M. Bearpark, J. J. Heyd, E. Brothers, 
 K. N. Kudin, V. N. Staroverov, T. Keith, R. Kobayashi, J. Normand, 
 K. Raghavachari, A. Rendell, J. C. Burant, S. S. Iyengar, J. Tomasi, 
 M. Cossi, N. Rega, J. M. Millam, M. Klene, J. E. Knox, J. B. Cross, 
 V. Bakken, C. Adamo, J. Jaramillo, R. Gomperts, R. E. Stratmann, 
 O. Yazyev, A. J. Austin, R. Cammi, C. Pomelli, J. W. Ochterski, 
 R. L. Martin, K. Morokuma, V. G. Zakrzewski, G. A. Voth, 
 P. Salvador, J. J. Dannenberg, S. Dapprich, A. D. Daniels, 
 O. Farkas, J. B. Foresman, J. V. Ortiz, J. Cioslowski, 
 and D. J. Fox, Gaussian, Inc., Wallingford CT, 2010.
 
 ******************************************
 Gaussian 09:  AM64L-G09RevC.01 23-Sep-2011
                17-May-2024 
 ******************************************
 %nprocshared=4
 Will use up to    4 processors via shared memory.
 ------------------------------------------------
 # mpw1pw91/6-31+G** nmr scrf=(pcm,solvent=water)
 ------------------------------------------------
 1/38=1/1;
 2/12=2,17=6,18=5,40=1/2;
 3/5=1,6=6,7=111,11=2,16=1,25=1,30=1,70=2201,72=1,74=-7/1,2,8,3;
 4//1;
 5/5=2,38=5,53=1/2;
 8/6=1,10=90,11=11/1;
 10/13=100,45=16/2;
 6/7=2,8=2,9=2,10=2,28=1/1;
 99/9=1/99;
 -------
 comment
 -------
 Charge =  0 Multiplicity = 1
 Symbolic Z-Matrix:
 6                    -1.71536   1.41588  -0.26456 
 6                    -0.74663   0.455    -1.01991 
 7                     0.62943   0.71004  -0.49539 
 6                     0.57058   2.04404   0.13671 
 6                    -0.82904   2.15575   0.75758 
 6                     0.99846  -0.39997   0.43827 
 6                    -0.18285  -1.38038   0.47837 
 6                    -0.95469  -1.06371  -0.81377 
 1                    -2.15535   2.12198  -0.97682 
 1                    -2.54342   0.88044   0.20715 
 1                    -0.77918   0.68232  -2.09038 
 1                     0.69922   2.80617  -0.64307 
 1                     1.39112   2.16137   0.8501 
 1                    -1.13931   3.193     0.92051 
 1                    -0.84878   1.64184   1.72475 
 1                     1.18639  -0.00482   1.44346 
 1                     0.14628  -2.42546   0.51323 
 1                    -0.47492  -1.59454  -1.64217 
 8                    -2.30559  -1.50014  -0.78031 
 1                    -2.58483  -1.40747   0.14898 
 8                    -1.08728  -1.13034   1.56454 
 1                    -0.69261  -1.50422   2.36925 
 6                     2.28498  -1.06294  -0.06658 
 1                     2.6756   -1.76231   0.67979 
 1                     2.08048  -1.62941  -0.98888 
 8                     3.29783  -0.08356  -0.29694 
 1                     2.84091   0.60112  -0.82318 
 
                          Input orientation:                          
 ---------------------------------------------------------------------
 Center     Atomic      Atomic             Coordinates (Angstroms)
 Number     Number       Type             X           Y           Z
 ---------------------------------------------------------------------
      1          6           0       -1.715364    1.415877   -0.264560
      2          6           0       -0.746625    0.454996   -1.019913
      3          7           0        0.629430    0.710036   -0.495389
      4          6           0        0.570584    2.044041    0.136705
      5          6           0       -0.829042    2.155754    0.757578
      6          6           0        0.998461   -0.399969    0.438266
      7          6           0       -0.182849   -1.380382    0.478374
      8          6           0       -0.954691   -1.063707   -0.813769
      9          1           0       -2.155346    2.121982   -0.976816
     10          1           0       -2.543417    0.880442    0.207146
     11          1           0       -0.779178    0.682322   -2.090378
     12          1           0        0.699217    2.806169   -0.643073
     13          1           0        1.391122    2.161374    0.850102
     14          1           0       -1.139313    3.193000    0.920512
     15          1           0       -0.848782    1.641838    1.724750
     16          1           0        1.186385   -0.004815    1.443459
     17          1           0        0.146276   -2.425465    0.513230
     18          1           0       -0.474921   -1.594537   -1.642168
     19          8           0       -2.305593   -1.500140   -0.780310
     20          1           0       -2.584825   -1.407468    0.148983
     21          8           0       -1.087276   -1.130338    1.564541
     22          1           0       -0.692606   -1.504220    2.369254
     23          6           0        2.284979   -1.062943   -0.066576
     24          1           0        2.675599   -1.762305    0.679792
     25          1           0        2.080483   -1.629412   -0.988880
     26          8           0        3.297828   -0.083556   -0.296936
     27          1           0        2.840912    0.601117   -0.823179
 ---------------------------------------------------------------------
                    Distance matrix (angstroms):
                    1          2          3          4          5
     1  C    0.000000
     2  C    1.559585   0.000000
     3  N    2.459584   1.494556   0.000000
     4  C    2.404405   2.365982   1.477354   0.000000
     5  C    1.541996   2.461472   2.405653   1.535225   0.000000
     6  C    3.340076   2.429522   1.496665   2.499440   3.158077
     7  C    3.274083   2.435430   2.444966   3.522935   3.605521
     8  C    2.651149   1.546689   2.399369   3.589981   3.584668
     9  H    1.095206   2.182933   3.159168   2.945624   2.183654
    10  H    1.093101   2.217011   3.254159   3.325045   2.206463
    11  H    2.179027   1.094821   2.128129   2.938713   3.206921
    12  H    2.811830   2.785764   2.102488   1.097925   2.172657
    13  H    3.383562   3.313404   2.120590   1.093611   2.222098
    14  H    2.212328   3.378775   3.361300   2.204134   1.094849
    15  H    2.181600   2.992024   2.825311   2.167546   1.095409
    16  H    3.654565   3.164831   2.140173   2.506916   3.033222
    17  H    4.338959   3.383025   3.328981   4.505363   4.690258
    18  H    3.535406   2.159076   2.801027   4.182908   4.466415
    19  O    3.019524   2.512041   3.685162   4.655591   4.232123
    20  H    2.982995   2.866020   3.902624   4.676502   4.018671
    21  O    3.197392   3.051021   3.252287   3.855373   3.393564
    22  H    4.063247   3.915086   3.854463   4.378365   4.001440
    23  C    4.710254   3.521876   2.463367   3.554409   4.553720
    24  H    5.502108   4.417809   3.417649   4.383412   5.257352
    25  H    4.920049   3.512586   2.796803   4.128074   5.083594
    26  O    5.232728   4.143710   2.790971   3.486054   4.812231
    27  H    4.662139   3.595897   2.238295   2.856186   4.287686
                    6          7          8          9         10
     6  C    0.000000
     7  C    1.535680   0.000000
     8  C    2.413077   1.538069   0.000000
     9  H    4.278924   4.274912   3.408338   0.000000
    10  H    3.773297   3.279813   2.710357   1.758916   0.000000
    11  H    3.274965   3.347961   2.170058   2.281771   2.903516
    12  H    3.396787   4.422996   4.211946   2.954323   3.866002
    13  H    2.623789   3.893533   4.321163   3.989563   4.187455
    14  H    4.208570   4.693201   4.600149   2.404008   2.797914
    15  H    3.039132   3.336275   3.711505   3.039096   2.398882
    16  H    1.096301   2.167574   3.286417   4.642000   4.027850
    17  H    2.198743   1.096238   2.197143   5.310082   4.272839
    18  H    2.815325   2.151248   1.094625   4.132679   3.718085
    19  O    3.689455   2.470763   1.420046   3.630559   2.588204
    20  H    3.733454   2.424607   1.924162   3.729463   2.289024
    21  O    2.480370   1.435364   2.382935   4.263432   2.829506
    22  H    2.794243   1.962298   3.224031   5.146371   3.713061
    23  C    1.532817   2.547138   3.324719   5.539745   5.212013
    24  H    2.174186   2.890875   3.987201   6.416390   5.869040
    25  H    2.172337   2.708786   3.092405   5.658211   5.395396
    26  O    2.434693   3.794466   4.394511   5.921464   5.941678
    27  H    2.447048   3.842331   4.144675   5.224866   5.489134
                   11         12         13         14         15
    11  H    0.000000
    12  H    2.964974   0.000000
    13  H    3.942616   1.767502   0.000000
    14  H    3.936834   2.444305   2.733553   0.000000
    15  H    3.934554   3.059175   2.460101   1.771245   0.000000
    16  H    4.101658   3.534484   2.255297   3.988529   2.632963
    17  H    4.158555   5.386351   4.764684   5.778042   4.358999
    18  H    2.340417   4.662939   4.878565   5.470764   4.685086
    19  O    2.968057   5.252810   5.452580   5.126263   4.274301
    20  H    3.555604   5.400650   5.388539   4.883551   3.846447
    21  O    4.091344   4.853988   4.181895   4.371354   2.787025
    22  H    4.967573   5.439737   4.481777   4.935816   3.215192
    23  C    4.065807   4.221021   3.469222   5.550961   4.510560
    24  H    5.058214   5.150438   4.132087   6.258318   5.010129
    25  H    3.838629   4.658525   4.269325   6.104795   5.161924
    26  O    4.519401   3.901679   3.160844   5.648559   4.925299
    27  H    3.836331   3.079213   2.708535   5.059694   4.603139
                   16         17         18         19         20
    16  H    0.000000
    17  H    2.794047   0.000000
    18  H    3.848149   2.392084   0.000000
    19  O    4.401711   2.922522   2.025604   0.000000
    20  H    4.226716   2.937330   2.773970   0.974753   0.000000
    21  O    2.539881   2.074671   3.297490   2.668216   2.079245
    22  H    2.576028   2.235451   4.018339   3.538573   2.918811
    23  C    2.146334   2.601287   3.222131   4.666252   4.886732
    24  H    2.426874   2.620114   3.917323   5.197394   5.299031
    25  H    3.058594   2.575110   2.637819   4.392935   4.807191
    26  O    2.737401   4.009138   4.280928   5.799887   6.046254
    27  H    2.870934   4.266996   4.060343   5.559104   5.866697
                   21         22         23         24         25
    21  O    0.000000
    22  H    0.971141   0.000000
    23  C    3.746624   3.872209   0.000000
    24  H    3.916809   3.776995   1.094877   0.000000
    25  H    4.099235   4.356921   1.101522   1.776595   0.000000
    26  O    4.877498   5.005039   1.427630   2.039452   2.085758
    27  H    4.912210   5.206709   1.910656   2.805711   2.362407
                   26         27
    26  O    0.000000
    27  H    0.976975   0.000000
 Stoichiometry    C8H15NO3
 Framework group  C1[X(C8H15NO3)]
 Deg. of freedom    75
 Full point group                 C1      NOp   1
 Largest Abelian subgroup         C1      NOp   1
 Largest concise Abelian subgroup C1      NOp   1
                         Standard orientation:                         
 ---------------------------------------------------------------------
 Center     Atomic      Atomic             Coordinates (Angstroms)
 Number     Number       Type             X           Y           Z
 ---------------------------------------------------------------------
      1          6           0       -1.715364    1.415877   -0.264560
      2          6           0       -0.746625    0.454996   -1.019913
      3          7           0        0.629430    0.710036   -0.495389
      4          6           0        0.570585    2.044041    0.136705
      5          6           0       -0.829041    2.155754    0.757578
      6          6           0        0.998461   -0.399969    0.438266
      7          6           0       -0.182849   -1.380382    0.478374
      8          6           0       -0.954691   -1.063707   -0.813769
      9          1           0       -2.155345    2.121983   -0.976816
     10          1           0       -2.543417    0.880443    0.207146
     11          1           0       -0.779178    0.682322   -2.090378
     12          1           0        0.699218    2.806169   -0.643073
     13          1           0        1.391123    2.161374    0.850102
     14          1           0       -1.139312    3.193000    0.920512
     15          1           0       -0.848782    1.641838    1.724750
     16          1           0        1.186385   -0.004815    1.443459
     17          1           0        0.146275   -2.425465    0.513230
     18          1           0       -0.474922   -1.594537   -1.642168
     19          8           0       -2.305593   -1.500139   -0.780310
     20          1           0       -2.584825   -1.407467    0.148983
     21          8           0       -1.087276   -1.130338    1.564541
     22          1           0       -0.692606   -1.504220    2.369254
     23          6           0        2.284979   -1.062944   -0.066576
     24          1           0        2.675598   -1.762306    0.679792
     25          1           0        2.080482   -1.629413   -0.988880
     26          8           0        3.297828   -0.083557   -0.296936
     27          1           0        2.840912    0.601116   -0.823179
 ---------------------------------------------------------------------
 Rotational constants (GHZ):      1.2376957      0.8722775      0.6591745
 Standard basis: 6-31+G(d,p) (6D, 7F)
 There are   303 symmetry adapted basis functions of A   symmetry.
 Integral buffers will be    131072 words long.
 Raffenetti 2 integral format.
 Two-electron integral symmetry is turned on.
   303 basis functions,   489 primitive gaussians,   303 cartesian basis functions
    47 alpha electrons       47 beta electrons
       nuclear repulsion energy       815.9096994175 Hartrees.
 NAtoms=   27 NActive=   27 NUniq=   27 SFac= 1.00D+00 NAtFMM=   60 NAOKFM=F Big=F
 ------------------------------------------------------------------------------
 Polarizable Continuum Model (PCM)
 =================================
 Model                : PCM.
 Atomic radii         : UFF (Universal Force Field).
 Polarization charges : Total charges.
 Charge compensation  : None.
 Solution method      : Matrix inversion.
 Cavity type          : Scaled VdW (van der Waals Surface) (Alpha=1.100).
 Cavity algorithm     : GePol (No added spheres)
                        Default sphere list used, NSphG=   27.
                        Lebedev-Laikov grids with approx.  5.0 points / Ang**2.
                        Smoothing algorithm: Karplus/York (Gamma=1.0000).
                        Polarization charges: spherical gaussians, with
                                              point-specific exponents (IZeta= 3).
                        Self-potential: point-specific (ISelfS= 7).
                        Self-field    : sphere-specific E.n sum rule (ISelfD= 2).
 Solvent              : Water, Eps=  78.355300 Eps(inf)=   1.777849
 ------------------------------------------------------------------------------
 One-electron integrals computed using PRISM.
 NBasis=   303 RedAO= T  NBF=   303
 NBsUse=   303 1.00D-06 NBFU=   303
 Harris functional with IExCor=  908 diagonalized for initial guess.
 ExpMin= 4.38D-02 ExpMax= 5.48D+03 ExpMxC= 8.25D+02 IAcc=2 IRadAn=         4 AccDes= 0.00D+00
 HarFok:  IExCor=  908 AccDes= 0.00D+00 IRadAn=         4 IDoV= 1
 ScaDFX=  1.000000  1.000000  1.000000  1.000000
 FoFCou: FMM=F IPFlag=           0 FMFlag=      100000 FMFlg1=           0
         NFxFlg=           0 DoJE=T BraDBF=F KetDBF=T FulRan=T
         Omega=  0.000000  0.000000  1.000000  0.000000  0.000000 ICntrl=     500 IOpCl=  0
         NMat0=    1 NMatS0=    1 NMatT0=    0 NMatD0=    1 NMtDS0=    0 NMtDT0=    0
         I1Cent=           4 NGrid=           0.
 Petite list used in FoFCou.
 Initial guess orbital symmetries:
       Occupied  (A) (A) (A) (A) (A) (A) (A) (A) (A) (A) (A) (A)
                 (A) (A) (A) (A) (A) (A) (A) (A) (A) (A) (A) (A)
                 (A) (A) (A) (A) (A) (A) (A) (A) (A) (A) (A) (A)
                 (A) (A) (A) (A) (A) (A) (A) (A) (A) (A) (A)
       Virtual   (A) (A) (A) (A) (A) (A) (A) (A) (A) (A) (A) (A)
                 (A) (A) (A) (A) (A) (A) (A) (A) (A) (A) (A) (A)
                 (A) (A) (A) (A) (A) (A) (A) (A) (A) (A) (A) (A)
                 (A) (A) (A) (A) (A) (A) (A) (A) (A) (A) (A) (A)
                 (A) (A) (A) (A) (A) (A) (A) (A) (A) (A) (A) (A)
                 (A) (A) (A) (A) (A) (A) (A) (A) (A) (A) (A) (A)
                 (A) (A) (A) (A) (A) (A) (A) (A) (A) (A) (A) (A)
                 (A) (A) (A) (A) (A) (A) (A) (A) (A) (A) (A) (A)
                 (A) (A) (A) (A) (A) (A) (A) (A) (A) (A) (A) (A)
                 (A) (A) (A) (A) (A) (A) (A) (A) (A) (A) (A) (A)
                 (A) (A) (A) (A) (A) (A) (A) (A) (A) (A) (A) (A)
                 (A) (A) (A) (A) (A) (A) (A) (A) (A) (A) (A) (A)
                 (A) (A) (A) (A) (A) (A) (A) (A) (A) (A) (A) (A)
                 (A) (A) (A) (A) (A) (A) (A) (A) (A) (A) (A) (A)
                 (A) (A) (A) (A) (A) (A) (A) (A) (A) (A) (A) (A)
                 (A) (A) (A) (A) (A) (A) (A) (A) (A) (A) (A) (A)
                 (A) (A) (A) (A) (A) (A) (A) (A) (A) (A) (A) (A)
                 (A) (A) (A) (A) (A) (A) (A) (A) (A) (A) (A) (A)
                 (A) (A) (A) (A) (A) (A) (A) (A) (A) (A) (A) (A)
                 (A) (A) (A) (A) (A) (A) (A) (A) (A) (A) (A) (A)
                 (A) (A) (A) (A) (A) (A) (A) (A) (A) (A) (A) (A)
                 (A) (A) (A) (A)
 The electronic state of the initial guess is 1-A.
 Requested convergence on RMS density matrix=1.00D-08 within 128 cycles.
 Requested convergence on MAX density matrix=1.00D-06.
 Requested convergence on             energy=1.00D-06.
 No special actions if energy rises.
 Error on total polarization charges =  0.01420
 SCF Done:  E(RmPW1PW91) =  -594.198084508     A.U. after   13 cycles
             Convg  =    0.4243D-08             -V/T =  2.0094
 Range of M.O.s used for correlation:     1   303
 NBasis=   303 NAE=    47 NBE=    47 NFC=     0 NFV=     0
 NROrb=    303 NOA=    47 NOB=    47 NVA=   256 NVB=   256

 **** Warning!!: The largest alpha MO coefficient is  0.67497192D+02

 NEqPCM:  Using equilibrium solvation (IEInf=0, Eps=  78.3553, EpsInf=   1.7778)
          Differentiating once with respect to magnetic field using GIAOs.
          Electric field/nuclear overlap derivatives assumed to be zero.
 FoFCou: FMM=F IPFlag=           0 FMFlag=    10101102 FMFlg1=           0
         NFxFlg=    40000000 DoJE=F BraDBF=F KetDBF=T FulRan=T
         Omega=  0.000000  0.000000  1.000000  0.000000  0.000000 ICntrl=    6100 IOpCl=  0
         NMat0=    1 NMatS0=    1 NMatT0=    0 NMatD0=    1 NMtDS0=    0 NMtDT0=    0
         I1Cent=           7 NGrid=        1805.
 Symmetry not used in FoFCou.
          There are     3 degrees of freedom in the 1st order CPHF.  IDoFFX=0.
      3 vectors produced by pass  0 Test12= 4.01D-13 3.33D-08 XBig12= 2.68D+01 8.92D-01.
 AX will form     3 AO Fock derivatives at one time.
      3 vectors produced by pass  1 Test12= 4.01D-13 3.33D-08 XBig12= 6.20D-02 3.15D-02.
      3 vectors produced by pass  2 Test12= 4.01D-13 3.33D-08 XBig12= 1.20D-04 1.93D-03.
      3 vectors produced by pass  3 Test12= 4.01D-13 3.33D-08 XBig12= 4.97D-07 1.54D-04.
      3 vectors produced by pass  4 Test12= 4.01D-13 3.33D-08 XBig12= 1.90D-09 5.86D-06.
      3 vectors produced by pass  5 Test12= 4.01D-13 3.33D-08 XBig12= 5.65D-12 3.88D-07.
 Inverted reduced A of dimension    18 with in-core refinement.
 Calculating GIAO nuclear magnetic shielding tensors.
 SCF GIAO Magnetic shielding tensor (ppm):
      1  C    Isotropic =   169.1001   Anisotropy =    25.4363
   XX=   177.2367   YX=    -4.6646   ZX=     3.8928
   XY=    -5.4727   YY=   163.5887   ZY=    18.8636
   XZ=     6.8730   YZ=    23.0286   ZZ=   166.4748
   Eigenvalues:   142.4699   178.7727   186.0576
      2  C    Isotropic =   126.2302   Anisotropy =    64.0969
   XX=   160.1401   YX=    11.1348   ZX=    17.9796
   XY=    13.6856   YY=   120.5182   ZY=    14.3133
   XZ=    11.4002   YZ=    20.2406   ZZ=    98.0321
   Eigenvalues:    87.9042   121.8248   168.9614
      3  N    Isotropic =   192.7058   Anisotropy =    60.6819
   XX=   199.3607   YX=     6.8787   ZX=    34.9250
   XY=    -3.8275   YY=   200.4528   ZY=    13.0240
   XZ=    50.0357   YZ=    -3.0244   ZZ=   178.3038
   Eigenvalues:   144.9043   200.0527   233.1603
      4  C    Isotropic =   137.1088   Anisotropy =    60.3775
   XX=   130.9161   YX=    -6.7457   ZX=     3.4337
   XY=     7.3278   YY=   163.6782   ZY=    28.3173
   XZ=   -11.8887   YZ=    29.1520   ZZ=   116.7323
   Eigenvalues:   102.5527   131.4133   177.3605
      5  C    Isotropic =   169.9926   Anisotropy =    20.3227
   XX=   181.1831   YX=     1.6803   ZX=    -3.2343
   XY=     4.9236   YY=   168.3906   ZY=    14.3037
   XZ=    -2.0676   YZ=    22.2536   ZZ=   160.4040
   Eigenvalues:   145.2118   181.2249   183.5410
      6  C    Isotropic =   119.6813   Anisotropy =    28.1899
   XX=   116.2005   YX=     9.1445   ZX=     5.9652
   XY=     4.3082   YY=   127.5617   ZY=   -19.1941
   XZ=     9.8192   YZ=   -12.4912   ZZ=   115.2818
   Eigenvalues:    98.4350   122.1344   138.4746
      7  C    Isotropic =   119.8261   Anisotropy =    27.3247
   XX=   127.2869   YX=     3.1747   ZX=   -15.5296
   XY=     7.4897   YY=   106.9448   ZY=     7.0818
   XZ=    -7.8807   YZ=     1.9677   ZZ=   125.2467
   Eigenvalues:   102.8107   118.6252   138.0426
      8  C    Isotropic =   120.6289   Anisotropy =    53.0208
   XX=   144.6325   YX=    15.7296   ZX=     9.8874
   XY=    21.2330   YY=   122.3864   ZY=   -12.6300
   XZ=    19.1704   YZ=   -10.3888   ZZ=    94.8680
   Eigenvalues:    83.7333   122.1773   155.9762
      9  H    Isotropic =    30.0344   Anisotropy =    12.4621
   XX=    29.5221   YX=    -5.0223   ZX=     4.4028
   XY=    -5.2293   YY=    30.6346   ZY=    -2.7171
   XZ=     4.6637   YZ=    -2.7262   ZZ=    29.9466
   Eigenvalues:    24.2134    27.5474    38.3425
     10  H    Isotropic =    29.6226   Anisotropy =     7.0299
   XX=    33.2411   YX=     1.5351   ZX=    -2.0539
   XY=     1.6252   YY=    30.1974   ZY=     0.0789
   XZ=    -1.9267   YZ=    -0.2468   ZZ=    25.4291
   Eigenvalues:    24.9347    29.6238    34.3092
     11  H    Isotropic =    27.9869   Anisotropy =     9.0680
   XX=    25.4234   YX=    -1.0149   ZX=     1.0861
   XY=    -1.0240   YY=    24.6662   ZY=    -0.8080
   XZ=     0.8677   YZ=    -0.3256   ZZ=    33.8710
   Eigenvalues:    23.9564    25.9720    34.0322
     12  H    Isotropic =    28.5965   Anisotropy =    11.6189
   XX=    25.9932   YX=     1.7215   ZX=    -2.6232
   XY=     2.7089   YY=    34.4063   ZY=    -3.8569
   XZ=    -3.5566   YZ=    -2.4787   ZZ=    25.3898
   Eigenvalues:    22.5105    26.9365    36.3424
     13  H    Isotropic =    28.6741   Anisotropy =     8.8808
   XX=    31.2941   YX=     2.0001   ZX=     2.2287
   XY=     2.5074   YY=    29.3557   ZY=     4.2328
   XZ=     2.5437   YZ=     3.0419   ZZ=    25.3725
   Eigenvalues:    23.1006    28.3270    34.5947
     14  H    Isotropic =    30.0533   Anisotropy =    12.5290
   XX=    27.5324   YX=    -2.7655   ZX=    -0.5222
   XY=    -3.1574   YY=    36.1156   ZY=     3.9437
   XZ=    -0.8793   YZ=     4.0606   ZZ=    26.5119
   Eigenvalues:    24.9953    26.7586    38.4060
     15  H    Isotropic =    29.7017   Anisotropy =     8.2810
   XX=    26.2691   YX=     0.0434   ZX=    -0.8889
   XY=     0.1896   YY=    27.7757   ZY=    -1.2832
   XZ=    -0.9375   YZ=    -0.1250   ZZ=    35.0604
   Eigenvalues:    26.1740    27.7088    35.2224
     16  H    Isotropic =    28.8780   Anisotropy =     6.1936
   XX=    28.5961   YX=    -1.3166   ZX=     2.0332
   XY=    -1.9019   YY=    26.9576   ZY=    -2.0344
   XZ=     2.1851   YZ=    -0.9056   ZZ=    31.0803
   Eigenvalues:    25.9641    27.6628    33.0070
     17  H    Isotropic =    27.8872   Anisotropy =     6.8575
   XX=    27.3769   YX=    -3.3215   ZX=    -2.1527
   XY=    -1.8387   YY=    30.9853   ZY=    -0.7978
   XZ=    -2.6188   YZ=     0.3640   ZZ=    25.2995
   Eigenvalues:    23.3657    27.8370    32.4589
     18  H    Isotropic =    27.1926   Anisotropy =     6.0971
   XX=    27.0834   YX=    -0.2218   ZX=    -2.6771
   XY=     1.2765   YY=    27.2701   ZY=     4.1643
   XZ=     0.1752   YZ=     3.7259   ZZ=    27.2243
   Eigenvalues:    22.9186    27.4019    31.2573
     19  O    Isotropic =   310.5060   Anisotropy =    36.4419
   XX=   297.9102   YX=     6.4671   ZX=    -1.1401
   XY=    30.8111   YY=   319.7607   ZY=     6.7521
   XZ=    12.8770   YZ=     8.5366   ZZ=   313.8470
   Eigenvalues:   287.1626   309.5548   334.8006
     20  H    Isotropic =    28.3191   Anisotropy =    14.4367
   XX=    28.7752   YX=     2.7602   ZX=    -3.6770
   XY=     1.9302   YY=    20.0014   ZY=     0.8338
   XZ=    -4.3585   YZ=     0.8342   ZZ=    36.1807
   Eigenvalues:    19.2099    27.8038    37.9435
     21  O    Isotropic =   295.6851   Anisotropy =    46.8533
   XX=   286.2282   YX=     9.3057   ZX=    24.3108
   XY=    -5.7314   YY=   277.3429   ZY=    16.6271
   XZ=    -1.9219   YZ=    -9.2044   ZZ=   323.4841
   Eigenvalues:   276.9259   283.2087   326.9206
     22  H    Isotropic =    29.7757   Anisotropy =    20.4765
   XX=    25.3704   YX=    -3.1605   ZX=     2.0871
   XY=    -1.9528   YY=    24.2122   ZY=    -7.3086
   XZ=     3.0928   YZ=    -7.7587   ZZ=    39.7444
   Eigenvalues:    20.6908    25.2096    43.4266
     23  C    Isotropic =   130.7696   Anisotropy =    47.9853
   XX=   144.0478   YX=    15.3471   ZX=    -6.4882
   XY=    23.9914   YY=   138.4191   ZY=     0.6628
   XZ=   -14.0277   YZ=    -5.4299   ZZ=   109.8420
   Eigenvalues:   106.6105   122.9385   162.7598
     24  H    Isotropic =    28.1416   Anisotropy =     6.6225
   XX=    29.3586   YX=    -1.0223   ZX=     0.3617
   XY=    -2.2759   YY=    29.6589   ZY=    -3.2609
   XZ=     1.2969   YZ=    -3.4198   ZZ=    25.4074
   Eigenvalues:    23.5729    28.2952    32.5566
     25  H    Isotropic =    28.5546   Anisotropy =     5.9907
   XX=    30.0398   YX=     1.8657   ZX=    -0.7302
   XY=     0.9708   YY=    29.7288   ZY=     5.1623
   XZ=    -1.8290   YZ=     3.2438   ZZ=    25.8953
   Eigenvalues:    22.7263    30.3891    32.5484
     26  O    Isotropic =   315.3534   Anisotropy =    37.9884
   XX=   321.6912   YX=   -13.1230   ZX=     5.6412
   XY=    -8.6777   YY=   329.5247   ZY=   -12.8305
   XZ=    23.0100   YZ=     3.0853   ZZ=   294.8443
   Eigenvalues:   288.6353   316.7458   340.6790
     27  H    Isotropic =    28.8485   Anisotropy =    15.5249
   XX=    31.8405   YX=    -3.3864   ZX=     2.0575
   XY=    -5.6559   YY=    30.3569   ZY=    -8.4298
   XZ=     0.9072   YZ=    -8.5349   ZZ=    24.3481
   Eigenvalues:    18.1973    29.1498    39.1984
 End of Minotr Frequency-dependent properties file   721 does not exist.
 End of Minotr Frequency-dependent properties file   722 does not exist.

 **********************************************************************

            Population analysis using the SCF density.

 **********************************************************************

 Orbital symmetries:
       Occupied  (A) (A) (A) (A) (A) (A) (A) (A) (A) (A) (A) (A)
                 (A) (A) (A) (A) (A) (A) (A) (A) (A) (A) (A) (A)
                 (A) (A) (A) (A) (A) (A) (A) (A) (A) (A) (A) (A)
                 (A) (A) (A) (A) (A) (A) (A) (A) (A) (A) (A)
       Virtual   (A) (A) (A) (A) (A) (A) (A) (A) (A) (A) (A) (A)
                 (A) (A) (A) (A) (A) (A) (A) (A) (A) (A) (A) (A)
                 (A) (A) (A) (A) (A) (A) (A) (A) (A) (A) (A) (A)
                 (A) (A) (A) (A) (A) (A) (A) (A) (A) (A) (A) (A)
                 (A) (A) (A) (A) (A) (A) (A) (A) (A) (A) (A) (A)
                 (A) (A) (A) (A) (A) (A) (A) (A) (A) (A) (A) (A)
                 (A) (A) (A) (A) (A) (A) (A) (A) (A) (A) (A) (A)
                 (A) (A) (A) (A) (A) (A) (A) (A) (A) (A) (A) (A)
                 (A) (A) (A) (A) (A) (A) (A) (A) (A) (A) (A) (A)
                 (A) (A) (A) (A) (A) (A) (A) (A) (A) (A) (A) (A)
                 (A) (A) (A) (A) (A) (A) (A) (A) (A) (A) (A) (A)
                 (A) (A) (A) (A) (A) (A) (A) (A) (A) (A) (A) (A)
                 (A) (A) (A) (A) (A) (A) (A) (A) (A) (A) (A) (A)
                 (A) (A) (A) (A) (A) (A) (A) (A) (A) (A) (A) (A)
                 (A) (A) (A) (A) (A) (A) (A) (A) (A) (A) (A) (A)
                 (A) (A) (A) (A) (A) (A) (A) (A) (A) (A) (A) (A)
                 (A) (A) (A) (A) (A) (A) (A) (A) (A) (A) (A) (A)
                 (A) (A) (A) (A) (A) (A) (A) (A) (A) (A) (A) (A)
                 (A) (A) (A) (A) (A) (A) (A) (A) (A) (A) (A) (A)
                 (A) (A) (A) (A) (A) (A) (A) (A) (A) (A) (A) (A)
                 (A) (A) (A) (A) (A) (A) (A) (A) (A) (A) (A) (A)
                 (A) (A) (A) (A)
 The electronic state is 1-A.
 Alpha  occ. eigenvalues --  -19.26691 -19.25649 -19.25021 -14.41912 -10.31094
 Alpha  occ. eigenvalues --  -10.30634 -10.29397 -10.28258 -10.27664 -10.26940
 Alpha  occ. eigenvalues --  -10.24252 -10.24076  -1.08174  -1.05444  -1.05137
 Alpha  occ. eigenvalues --   -0.96556  -0.82522  -0.78756  -0.75609  -0.71493
 Alpha  occ. eigenvalues --   -0.66758  -0.62480  -0.60022  -0.57815  -0.56362
 Alpha  occ. eigenvalues --   -0.53744  -0.51675  -0.49559  -0.48355  -0.47902
 Alpha  occ. eigenvalues --   -0.45772  -0.45062  -0.43394  -0.42192  -0.41396
 Alpha  occ. eigenvalues --   -0.39470  -0.38932  -0.37568  -0.36612  -0.35351
 Alpha  occ. eigenvalues --   -0.34696  -0.34091  -0.32891  -0.31237  -0.29500
 Alpha  occ. eigenvalues --   -0.29405  -0.24055
 Alpha virt. eigenvalues --    0.00227   0.01451   0.02013   0.02309   0.03749
 Alpha virt. eigenvalues --    0.04230   0.04602   0.04770   0.05286   0.07078
 Alpha virt. eigenvalues --    0.07532   0.07903   0.08797   0.09077   0.09729
 Alpha virt. eigenvalues --    0.10196   0.11484   0.11650   0.12514   0.12806
 Alpha virt. eigenvalues --    0.12982   0.13424   0.14338   0.14901   0.15726
 Alpha virt. eigenvalues --    0.16169   0.16458   0.16829   0.17336   0.18375
 Alpha virt. eigenvalues --    0.18662   0.18755   0.19788   0.20464   0.20797
 Alpha virt. eigenvalues --    0.21322   0.21596   0.22575   0.22793   0.23409
 Alpha virt. eigenvalues --    0.23650   0.24310   0.24874   0.25378   0.25857
 Alpha virt. eigenvalues --    0.26416   0.26737   0.27901   0.28056   0.28793
 Alpha virt. eigenvalues --    0.29776   0.30393   0.30892   0.31105   0.31806
 Alpha virt. eigenvalues --    0.32190   0.33104   0.33641   0.34859   0.35412
 Alpha virt. eigenvalues --    0.35859   0.37029   0.37384   0.37825   0.38868
 Alpha virt. eigenvalues --    0.39369   0.39700   0.39751   0.41427   0.42182
 Alpha virt. eigenvalues --    0.43237   0.43877   0.45466   0.46109   0.47047
 Alpha virt. eigenvalues --    0.48686   0.65450   0.66882   0.67183   0.68491
 Alpha virt. eigenvalues --    0.69409   0.71760   0.72427   0.73663   0.74601
 Alpha virt. eigenvalues --    0.76288   0.77536   0.79260   0.79525   0.80431
 Alpha virt. eigenvalues --    0.82567   0.84378   0.86127   0.86758   0.88591
 Alpha virt. eigenvalues --    0.91312   0.92094   0.93518   0.95284   0.95944
 Alpha virt. eigenvalues --    0.98918   0.99709   1.02785   1.03766   1.03975
 Alpha virt. eigenvalues --    1.06398   1.07040   1.07878   1.08739   1.09675
 Alpha virt. eigenvalues --    1.10885   1.12008   1.13854   1.14542   1.15566
 Alpha virt. eigenvalues --    1.15843   1.19208   1.20964   1.22365   1.24749
 Alpha virt. eigenvalues --    1.28329   1.29585   1.31493   1.32938   1.33525
 Alpha virt. eigenvalues --    1.34824   1.36459   1.37775   1.39814   1.42116
 Alpha virt. eigenvalues --    1.43806   1.44264   1.46666   1.50940   1.52091
 Alpha virt. eigenvalues --    1.52772   1.54171   1.59654   1.60939   1.62553
 Alpha virt. eigenvalues --    1.63736   1.65997   1.68183   1.69836   1.71470
 Alpha virt. eigenvalues --    1.73409   1.75211   1.77042   1.78051   1.78749
 Alpha virt. eigenvalues --    1.79110   1.81356   1.82347   1.83347   1.87249
 Alpha virt. eigenvalues --    1.89039   1.89243   1.90291   1.91523   1.92925
 Alpha virt. eigenvalues --    1.94814   1.97741   2.00980   2.02259   2.04354
 Alpha virt. eigenvalues --    2.05868   2.06635   2.07680   2.10265   2.11603
 Alpha virt. eigenvalues --    2.14162   2.16270   2.16853   2.19330   2.20488
 Alpha virt. eigenvalues --    2.22604   2.25416   2.26009   2.26954   2.30717
 Alpha virt. eigenvalues --    2.32553   2.33496   2.36514   2.37563   2.39423
 Alpha virt. eigenvalues --    2.40991   2.42975   2.44989   2.46648   2.49440
 Alpha virt. eigenvalues --    2.49909   2.51596   2.52440   2.54626   2.56312
 Alpha virt. eigenvalues --    2.57503   2.58936   2.59881   2.61203   2.63006
 Alpha virt. eigenvalues --    2.64917   2.65787   2.66941   2.67119   2.68474
 Alpha virt. eigenvalues --    2.69967   2.73596   2.73801   2.75746   2.78194
 Alpha virt. eigenvalues --    2.79500   2.80851   2.82485   2.84370   2.85048
 Alpha virt. eigenvalues --    2.86600   2.86898   2.90014   2.90718   2.95050
 Alpha virt. eigenvalues --    2.96039   2.99618   3.01112   3.03125   3.04801
 Alpha virt. eigenvalues --    3.07734   3.08425   3.14069   3.14983   3.32608
 Alpha virt. eigenvalues --    3.34093   3.36662   3.38786   3.43768   3.46162
 Alpha virt. eigenvalues --    3.46438   3.48641   3.52391   3.54340   3.55721
 Alpha virt. eigenvalues --    3.57821   3.60330   3.61241   3.63294   4.30332
 Alpha virt. eigenvalues --    4.32827   4.37826   4.47605   4.51138   4.56616
 Alpha virt. eigenvalues --    4.61307   4.69248   4.73237   4.86118   4.92373
 Alpha virt. eigenvalues --    5.01089
          Condensed to atoms (all electrons):
              1          2          3          4          5          6
     1  C    5.876070  -0.687966   0.148998   0.064653  -0.026748   0.191946
     2  C   -0.687966   8.425081  -0.384536  -0.390064   0.362647  -0.551695
     3  N    0.148998  -0.384536   7.500028   0.156058  -0.259478  -0.059087
     4  C    0.064653  -0.390064   0.156058   5.716374   0.044584  -0.032033
     5  C   -0.026748   0.362647  -0.259478   0.044584   5.623381  -0.072041
     6  C    0.191946  -0.551695  -0.059087  -0.032033  -0.072041   8.809976
     7  C   -0.253801   0.612800  -0.106367  -0.068642   0.093901  -1.738391
     8  C    0.082136  -0.986791   0.096340  -0.021374   0.013702   0.086245
     9  H    0.426564  -0.108386   0.015851   0.001892  -0.039454   0.022722
    10  H    0.465615  -0.129949   0.021816   0.034070  -0.059317  -0.005570
    11  H   -0.006337   0.275328  -0.034759  -0.006715   0.003008   0.014781
    12  H    0.013117  -0.032186  -0.037408   0.408065  -0.060511   0.008731
    13  H    0.015691   0.015977  -0.054895   0.390116  -0.029448   0.013487
    14  H   -0.013961   0.010865   0.015117  -0.029277   0.352568  -0.001553
    15  H   -0.059253  -0.011364   0.006422  -0.067595   0.436157   0.024730
    16  H   -0.012064   0.027060  -0.062336   0.038091  -0.003610   0.301093
    17  H    0.004303   0.002510   0.018305  -0.003072  -0.002100  -0.102062
    18  H    0.030653  -0.078988   0.021533   0.010454  -0.009402  -0.029398
    19  O    0.003285  -0.175835   0.008034   0.004127  -0.000338   0.065078
    20  H    0.022510  -0.051873   0.003499   0.002175  -0.005505   0.012678
    21  O    0.087087  -0.055272   0.033413   0.024230  -0.067418   0.051879
    22  H   -0.006155   0.005002  -0.003533   0.001102   0.000782  -0.075421
    23  C    0.069961  -0.239723   0.113375  -0.004094  -0.066479  -0.456060
    24  H    0.000988   0.000092   0.007058  -0.004302   0.001033  -0.111359
    25  H   -0.002603   0.015576   0.017924   0.006174  -0.000013  -0.178120
    26  O    0.002080  -0.022279   0.002845  -0.011797  -0.001061  -0.068030
    27  H   -0.005095   0.029115   0.048415  -0.011375   0.009165  -0.073104
              7          8          9         10         11         12
     1  C   -0.253801   0.082136   0.426564   0.465615  -0.006337   0.013117
     2  C    0.612800  -0.986791  -0.108386  -0.129949   0.275328  -0.032186
     3  N   -0.106367   0.096340   0.015851   0.021816  -0.034759  -0.037408
     4  C   -0.068642  -0.021374   0.001892   0.034070  -0.006715   0.408065
     5  C    0.093901   0.013702  -0.039454  -0.059317   0.003008  -0.060511
     6  C   -1.738391   0.086245   0.022722  -0.005570   0.014781   0.008731
     7  C    7.296004  -0.372777  -0.023790   0.013480   0.014130   0.004033
     8  C   -0.372777   6.611071   0.038919  -0.013699   0.021647   0.005724
     9  H   -0.023790   0.038919   0.528090  -0.026041  -0.007926   0.001109
    10  H    0.013480  -0.013699  -0.026041   0.526722   0.003977  -0.000027
    11  H    0.014130   0.021647  -0.007926   0.003977   0.552941   0.001537
    12  H    0.004033   0.005724   0.001109  -0.000027   0.001537   0.536988
    13  H   -0.003545   0.000521  -0.000123  -0.000126  -0.000138  -0.025307
    14  H    0.005073  -0.001362  -0.005869   0.001638  -0.000001  -0.003327
    15  H   -0.008238   0.011715   0.003859  -0.006853  -0.000136   0.003955
    16  H    0.043887  -0.000675   0.000004  -0.000026  -0.000269  -0.000023
    17  H    0.328158   0.005802   0.000005  -0.000053  -0.000105   0.000004
    18  H   -0.008278   0.387760  -0.000098   0.000168  -0.006808   0.000006
    19  O   -0.186419   0.415397  -0.000546   0.009874   0.001299  -0.000054
    20  H   -0.052369   0.034789   0.000020   0.000616  -0.000025   0.000001
    21  O    0.136395  -0.160690   0.000615  -0.000779  -0.000392   0.000074
    22  H    0.096450   0.007911  -0.000002   0.000105   0.000008   0.000001
    23  C   -0.074808   0.074407   0.001367  -0.001053   0.005206   0.005820
    24  H   -0.004148   0.002551   0.000000   0.000000   0.000002   0.000000
    25  H    0.099480  -0.005410   0.000000   0.000001  -0.000106   0.000013
    26  O    0.006504   0.023819   0.000011   0.000015   0.000595   0.000905
    27  H    0.005749  -0.011415  -0.000001  -0.000001  -0.000200  -0.000484
             13         14         15         16         17         18
     1  C    0.015691  -0.013961  -0.059253  -0.012064   0.004303   0.030653
     2  C    0.015977   0.010865  -0.011364   0.027060   0.002510  -0.078988
     3  N   -0.054895   0.015117   0.006422  -0.062336   0.018305   0.021533
     4  C    0.390116  -0.029277  -0.067595   0.038091  -0.003072   0.010454
     5  C   -0.029448   0.352568   0.436157  -0.003610  -0.002100  -0.009402
     6  C    0.013487  -0.001553   0.024730   0.301093  -0.102062  -0.029398
     7  C   -0.003545   0.005073  -0.008238   0.043887   0.328158  -0.008278
     8  C    0.000521  -0.001362   0.011715  -0.000675   0.005802   0.387760
     9  H   -0.000123  -0.005869   0.003859   0.000004   0.000005  -0.000098
    10  H   -0.000126   0.001638  -0.006853  -0.000026  -0.000053   0.000168
    11  H   -0.000138  -0.000001  -0.000136  -0.000269  -0.000105  -0.006808
    12  H   -0.025307  -0.003327   0.003955  -0.000023   0.000004   0.000006
    13  H    0.524031   0.001211  -0.005253   0.001479  -0.000009   0.000008
    14  H    0.001211   0.524685  -0.025153  -0.000149   0.000000   0.000002
    15  H   -0.005253  -0.025153   0.512361   0.000747   0.000022   0.000003
    16  H    0.001479  -0.000149   0.000747   0.533325   0.000186  -0.000103
    17  H   -0.000009   0.000000   0.000022   0.000186   0.550346  -0.005386
    18  H    0.000008   0.000002   0.000003  -0.000103  -0.005386   0.540726
    19  O    0.000047   0.000083  -0.000290  -0.000439   0.002626  -0.052806
    20  H    0.000000  -0.000001   0.000014  -0.000034  -0.000088   0.006282
    21  O    0.000385   0.000289  -0.002382  -0.009150  -0.040808   0.007622
    22  H   -0.000001  -0.000001   0.000077   0.001784  -0.007810  -0.000191
    23  C   -0.015806   0.000009   0.006543  -0.040306   0.073067   0.004894
    24  H   -0.000027   0.000000  -0.000002  -0.004691   0.001135   0.000077
    25  H   -0.000020   0.000000   0.000001   0.004697  -0.001196  -0.000258
    26  O    0.001097   0.000027  -0.000047   0.001720   0.000441  -0.000202
    27  H   -0.000071  -0.000006   0.000001   0.000474  -0.000001   0.000035
             19         20         21         22         23         24
     1  C    0.003285   0.022510   0.087087  -0.006155   0.069961   0.000988
     2  C   -0.175835  -0.051873  -0.055272   0.005002  -0.239723   0.000092
     3  N    0.008034   0.003499   0.033413  -0.003533   0.113375   0.007058
     4  C    0.004127   0.002175   0.024230   0.001102  -0.004094  -0.004302
     5  C   -0.000338  -0.005505  -0.067418   0.000782  -0.066479   0.001033
     6  C    0.065078   0.012678   0.051879  -0.075421  -0.456060  -0.111359
     7  C   -0.186419  -0.052369   0.136395   0.096450  -0.074808  -0.004148
     8  C    0.415397   0.034789  -0.160690   0.007911   0.074407   0.002551
     9  H   -0.000546   0.000020   0.000615  -0.000002   0.001367   0.000000
    10  H    0.009874   0.000616  -0.000779   0.000105  -0.001053   0.000000
    11  H    0.001299  -0.000025  -0.000392   0.000008   0.005206   0.000002
    12  H   -0.000054   0.000001   0.000074   0.000001   0.005820   0.000000
    13  H    0.000047   0.000000   0.000385  -0.000001  -0.015806  -0.000027
    14  H    0.000083  -0.000001   0.000289  -0.000001   0.000009   0.000000
    15  H   -0.000290   0.000014  -0.002382   0.000077   0.006543  -0.000002
    16  H   -0.000439  -0.000034  -0.009150   0.001784  -0.040306  -0.004691
    17  H    0.002626  -0.000088  -0.040808  -0.007810   0.073067   0.001135
    18  H   -0.052806   0.006282   0.007622  -0.000191   0.004894   0.000077
    19  O    8.179473   0.256982  -0.002426  -0.000712   0.003706   0.000086
    20  H    0.256982   0.356765   0.026469  -0.000437   0.002270   0.000000
    21  O   -0.002426   0.026469   8.357807   0.231240   0.004096  -0.000402
    22  H   -0.000712  -0.000437   0.231240   0.348774  -0.003180   0.000055
    23  C    0.003706   0.002270   0.004096  -0.003180   5.697062   0.495400
    24  H    0.000086   0.000000  -0.000402   0.000055   0.495400   0.538339
    25  H   -0.000840   0.000001   0.000185  -0.000002   0.396580  -0.038630
    26  O    0.000081  -0.000004   0.000779   0.000019   0.182267  -0.059250
    27  H    0.000038   0.000000  -0.000090   0.000000   0.025298   0.006695
             25         26         27
     1  C   -0.002603   0.002080  -0.005095
     2  C    0.015576  -0.022279   0.029115
     3  N    0.017924   0.002845   0.048415
     4  C    0.006174  -0.011797  -0.011375
     5  C   -0.000013  -0.001061   0.009165
     6  C   -0.178120  -0.068030  -0.073104
     7  C    0.099480   0.006504   0.005749
     8  C   -0.005410   0.023819  -0.011415
     9  H    0.000000   0.000011  -0.000001
    10  H    0.000001   0.000015  -0.000001
    11  H   -0.000106   0.000595  -0.000200
    12  H    0.000013   0.000905  -0.000484
    13  H   -0.000020   0.001097  -0.000071
    14  H    0.000000   0.000027  -0.000006
    15  H    0.000001  -0.000047   0.000001
    16  H    0.004697   0.001720   0.000474
    17  H   -0.001196   0.000441  -0.000001
    18  H   -0.000258  -0.000202   0.000035
    19  O   -0.000840   0.000081   0.000038
    20  H    0.000001  -0.000004   0.000000
    21  O    0.000185   0.000779  -0.000090
    22  H   -0.000002   0.000019   0.000000
    23  C    0.396580   0.182267   0.025298
    24  H   -0.038630  -0.059250   0.006695
    25  H    0.587657  -0.047451  -0.004408
    26  O   -0.047451   8.286058   0.233341
    27  H   -0.004408   0.233341   0.365262
 Mulliken atomic charges:
              1
     1  C   -0.431671
     2  C    0.124855
     3  N   -0.232635
     4  C   -0.251826
     5  C   -0.238006
     6  C   -0.049427
     7  C    0.145529
     8  C   -0.346263
     9  H    0.171209
    10  H    0.165397
    11  H    0.169460
    12  H    0.169244
    13  H    0.170719
    14  H    0.169091
    15  H    0.179957
    16  H    0.179326
    17  H    0.175780
    18  H    0.181695
    19  O   -0.529508
    20  H    0.385265
    21  O   -0.622756
    22  H    0.404135
    23  C   -0.259820
    24  H    0.169301
    25  H    0.150770
    26  O   -0.532483
    27  H    0.382660
 Sum of Mulliken atomic charges =   0.00000
 Mulliken charges with hydrogens summed into heavy atoms:
              1
     1  C   -0.095065
     2  C    0.294315
     3  N   -0.232635
     4  C    0.088137
     5  C    0.111042
     6  C    0.129900
     7  C    0.321309
     8  C   -0.164568
    19  O   -0.144243
    21  O   -0.218621
    23  C    0.060251
    26  O   -0.149822
 Sum of Mulliken charges with hydrogens summed into heavy atoms =   0.00000
 Electronic spatial extent (au):  <R**2>=           1945.6977
 Charge=              0.0000 electrons
 Dipole moment (field-independent basis, Debye):
    X=             -0.6335    Y=              0.0028    Z=              2.7371  Tot=              2.8095
 Quadrupole moment (field-independent basis, Debye-Ang):
   XX=            -93.6933   YY=            -67.4430   ZZ=            -68.4155
   XY=             -4.8695   XZ=             -1.9130   YZ=             -6.2155
 Traceless Quadrupole moment (field-independent basis, Debye-Ang):
   XX=            -17.1761   YY=              9.0743   ZZ=              8.1018
   XY=             -4.8695   XZ=             -1.9130   YZ=             -6.2155
 Octapole moment (field-independent basis, Debye-Ang**2):
  XXX=            -52.4489  YYY=             -4.3545  ZZZ=             17.6644  XYY=             13.8142
  XXY=              9.3316  XXZ=             14.6890  XZZ=              5.3837  YZZ=            -11.3257
  YYZ=             10.5745  XYZ=              5.7790
 Hexadecapole moment (field-independent basis, Debye-Ang**3):
 XXXX=          -1512.5710 YYYY=           -868.8512 ZZZZ=           -313.7777 XXXY=              8.8075
 XXXZ=            -31.0316 YYYX=             -9.3158 YYYZ=            -30.5781 ZZZX=             -9.4584
 ZZZY=            -37.0606 XXYY=           -357.8870 XXZZ=           -280.4621 YYZZ=           -192.3233
 XXYZ=            -34.9794 YYXZ=            -13.7469 ZZXY=              0.3676
 N-N= 8.159096994175D+02 E-N=-3.017402378128D+03  KE= 5.886602205757D+02
 1\1\GINC-COMPUTE-3-1\SP\RmPW1PW91\6-31+G(d,p)\C8H15N1O3\MAMICHETTI.IQU
 IR\17-May-2024\0\\# mpw1pw91/6-31+G** nmr scrf=(pcm,solvent=water)\\co
 mment\\0,1\C,0,-1.715364,1.415877,-0.26456\C,0,-0.746625,0.454996,-1.0
 19913\N,0,0.62943,0.710036,-0.495389\C,0,0.570584,2.044041,0.136705\C,
 0,-0.829042,2.155754,0.757578\C,0,0.998461,-0.399969,0.438266\C,0,-0.1
 82849,-1.380382,0.478374\C,0,-0.954691,-1.063707,-0.813769\H,0,-2.1553
 46,2.121982,-0.976816\H,0,-2.543417,0.880442,0.207146\H,0,-0.779178,0.
 682322,-2.090378\H,0,0.699217,2.806169,-0.643073\H,0,1.391122,2.161374
 ,0.850102\H,0,-1.139313,3.193,0.920512\H,0,-0.848782,1.641838,1.72475\
 H,0,1.186385,-0.004815,1.443459\H,0,0.146276,-2.425465,0.51323\H,0,-0.
 474921,-1.594537,-1.642168\O,0,-2.305593,-1.50014,-0.78031\H,0,-2.5848
 25,-1.407468,0.148983\O,0,-1.087276,-1.130338,1.564541\H,0,-0.692606,-
 1.50422,2.369254\C,0,2.284979,-1.062943,-0.066576\H,0,2.675599,-1.7623
 05,0.679792\H,0,2.080483,-1.629412,-0.98888\O,0,3.297828,-0.083556,-0.
 296936\H,0,2.840912,0.601117,-0.823179\\Version=AM64L-G09RevC.01\State
 =1-A\HF=-594.1980845\RMSD=4.243e-09\Dipole=-0.2492499,0.0011042,1.0768
 573\Quadrupole=-12.7699907,6.7465087,6.0234819,-3.6203286,-1.4222408,-
 4.6210658\PG=C01 [X(C8H15N1O3)]\\@


 AND THIS OUR LIFE, EXEMPT FROM PUBLIC HAUNT,
 FINDS TONGUES IN TREES, BOOKS IN THE RUNNING BROOKS,
 SERMONS IN STONES, AND GOOD IN EVERYTHING.
 I WOULD NOT CHANGE IT. -- W. SHAKESPEARE
 AS YOU LIKE IT, ACT II, SCENE 1.
 Job cpu time:  0 days  0 hours  8 minutes 45.3 seconds.
 File lengths (MBytes):  RWF=    111 Int=      0 D2E=      0 Chk=      7 Scr=      1
 Normal termination of Gaussian 09 at Fri May 17 12:10:01 2024.
