 Entering Gaussian System, Link 0=g09
 Input=/home/mamichetti.iquir/Linux/01_Cardona_A1A3_R__S_R_R_038_OptB.gjc
 Output=/home/mamichetti.iquir/Linux/01_Cardona_A1A3_R__S_R_R_038_OptB.log
 Initial command:
 /opt/ohpc/pub/apps/software/Gaussian/09/AMD64.SSE4a-enabled/g09/l1.exe /local/mamichetti.iquir/Gau-404021.inp -scrdir=/local/mamichetti.iquir/
 Entering Link 1 = /opt/ohpc/pub/apps/software/Gaussian/09/AMD64.SSE4a-enabled/g09/l1.exe PID=    404022.
  
 Copyright (c) 1988,1990,1992,1993,1995,1998,2003,2009,2011,
            Gaussian, Inc.  All Rights Reserved.
  
 This is part of the Gaussian(R) 09 program.  It is based on
 the Gaussian(R) 03 system (copyright 2003, Gaussian, Inc.),
 the Gaussian(R) 98 system (copyright 1998, Gaussian, Inc.),
 the Gaussian(R) 94 system (copyright 1995, Gaussian, Inc.),
 the Gaussian 92(TM) system (copyright 1992, Gaussian, Inc.),
 the Gaussian 90(TM) system (copyright 1990, Gaussian, Inc.),
 the Gaussian 88(TM) system (copyright 1988, Gaussian, Inc.),
 the Gaussian 86(TM) system (copyright 1986, Carnegie Mellon
 University), and the Gaussian 82(TM) system (copyright 1983,
 Carnegie Mellon University). Gaussian is a federally registered
 trademark of Gaussian, Inc.
  
 This software contains proprietary and confidential information,
 including trade secrets, belonging to Gaussian, Inc.
  
 This software is provided under written license and may be
 used, copied, transmitted, or stored only in accord with that
 written license.
  
 The following legend is applicable only to US Government
 contracts under FAR:
  
                    RESTRICTED RIGHTS LEGEND
  
 Use, reproduction and disclosure by the US Government is
 subject to restrictions as set forth in subparagraphs (a)
 and (c) of the Commercial Computer Software - Restricted
 Rights clause in FAR 52.227-19.
  
 Gaussian, Inc.
 340 Quinnipiac St., Bldg. 40, Wallingford CT 06492
  
  
 ---------------------------------------------------------------
 Warning -- This program may not be used in any manner that
 competes with the business of Gaussian, Inc. or will provide
 assistance to any competitor of Gaussian, Inc.  The licensee
 of this program is prohibited from giving any competitor of
 Gaussian, Inc. access to this program.  By using this program,
 the user acknowledges that Gaussian, Inc. is engaged in the
 business of creating and licensing software in the field of
 computational chemistry and represents and warrants to the
 licensee that it is not a competitor of Gaussian, Inc. and that
 it will not use this program in any manner prohibited above.
 ---------------------------------------------------------------
  

 Cite this work as:
 Gaussian 09, Revision C.01,
 M. J. Frisch, G. W. Trucks, H. B. Schlegel, G. E. Scuseria, 
 M. A. Robb, J. R. Cheeseman, G. Scalmani, V. Barone, B. Mennucci, 
 G. A. Petersson, H. Nakatsuji, M. Caricato, X. Li, H. P. Hratchian, 
 A. F. Izmaylov, J. Bloino, G. Zheng, J. L. Sonnenberg, M. Hada, 
 M. Ehara, K. Toyota, R. Fukuda, J. Hasegawa, M. Ishida, T. Nakajima, 
 Y. Honda, O. Kitao, H. Nakai, T. Vreven, J. A. Montgomery, Jr., 
 J. E. Peralta, F. Ogliaro, M. Bearpark, J. J. Heyd, E. Brothers, 
 K. N. Kudin, V. N. Staroverov, T. Keith, R. Kobayashi, J. Normand, 
 K. Raghavachari, A. Rendell, J. C. Burant, S. S. Iyengar, J. Tomasi, 
 M. Cossi, N. Rega, J. M. Millam, M. Klene, J. E. Knox, J. B. Cross, 
 V. Bakken, C. Adamo, J. Jaramillo, R. Gomperts, R. E. Stratmann, 
 O. Yazyev, A. J. Austin, R. Cammi, C. Pomelli, J. W. Ochterski, 
 R. L. Martin, K. Morokuma, V. G. Zakrzewski, G. A. Voth, 
 P. Salvador, J. J. Dannenberg, S. Dapprich, A. D. Daniels, 
 O. Farkas, J. B. Foresman, J. V. Ortiz, J. Cioslowski, 
 and D. J. Fox, Gaussian, Inc., Wallingford CT, 2010.
 
 ******************************************
 Gaussian 09:  AM64L-G09RevC.01 23-Sep-2011
                17-May-2024 
 ******************************************
 %nprocshared=4
 Will use up to    4 processors via shared memory.
 ------------------------------------------------
 # mpw1pw91/6-31+G** nmr scrf=(pcm,solvent=water)
 ------------------------------------------------
 1/38=1/1;
 2/12=2,17=6,18=5,40=1/2;
 3/5=1,6=6,7=111,11=2,16=1,25=1,30=1,70=2201,72=1,74=-7/1,2,8,3;
 4//1;
 5/5=2,38=5,53=1/2;
 8/6=1,10=90,11=11/1;
 10/13=100,45=16/2;
 6/7=2,8=2,9=2,10=2,28=1/1;
 99/9=1/99;
 -------
 comment
 -------
 Charge =  0 Multiplicity = 1
 Symbolic Z-Matrix:
 6                     2.07495  -0.5542    0.17311 
 6                     0.98597  -0.19408  -0.86074 
 7                    -0.20812  -0.9759   -0.46974 
 6                     0.30843  -2.26913   0.03447 
 6                     1.77218  -2.0318    0.51579 
 6                    -0.9277   -0.17598   0.56397 
 6                    -0.56487   1.29767   0.29032 
 6                     0.47796   1.25377  -0.86589 
 1                     3.0841   -0.40824  -0.22334 
 1                     1.97825   0.07281   1.06561 
 1                     1.31436  -0.50592  -1.85977 
 1                     0.29092  -3.00481  -0.77708 
 1                    -0.34815  -2.64637   0.82362 
 1                     2.45438  -2.70651  -0.01137 
 1                     1.88659  -2.22816   1.58599 
 1                    -0.59351  -0.42253   1.58242 
 1                    -1.44142   1.88539   0.00249 
 1                    -0.03366   1.44906  -1.81304 
 8                     1.4874    2.24585  -0.74024 
 1                     1.68139   2.30032   0.21386 
 8                     0.00753   1.86001   1.482 
 1                    -0.0759    2.82619   1.41569 
 6                    -2.42336  -0.46813   0.45812 
 1                    -2.61673  -1.51023   0.75558 
 1                    -2.99066   0.18412   1.13024 
 8                    -2.89101  -0.22979  -0.87012 
 1                    -2.18581  -0.61113  -1.43071 
 
                          Input orientation:                          
 ---------------------------------------------------------------------
 Center     Atomic      Atomic             Coordinates (Angstroms)
 Number     Number       Type             X           Y           Z
 ---------------------------------------------------------------------
      1          6           0        2.074948   -0.554195    0.173105
      2          6           0        0.985972   -0.194077   -0.860744
      3          7           0       -0.208123   -0.975898   -0.469740
      4          6           0        0.308429   -2.269132    0.034473
      5          6           0        1.772181   -2.031803    0.515790
      6          6           0       -0.927698   -0.175984    0.563974
      7          6           0       -0.564874    1.297672    0.290315
      8          6           0        0.477957    1.253766   -0.865894
      9          1           0        3.084102   -0.408243   -0.223341
     10          1           0        1.978251    0.072809    1.065607
     11          1           0        1.314357   -0.505917   -1.859771
     12          1           0        0.290921   -3.004807   -0.777080
     13          1           0       -0.348152   -2.646369    0.823624
     14          1           0        2.454380   -2.706512   -0.011366
     15          1           0        1.886585   -2.228158    1.585991
     16          1           0       -0.593505   -0.422533    1.582422
     17          1           0       -1.441415    1.885394    0.002490
     18          1           0       -0.033660    1.449061   -1.813043
     19          8           0        1.487402    2.245851   -0.740238
     20          1           0        1.681386    2.300318    0.213857
     21          8           0        0.007529    1.860011    1.482002
     22          1           0       -0.075897    2.826186    1.415689
     23          6           0       -2.423357   -0.468126    0.458124
     24          1           0       -2.616727   -1.510233    0.755581
     25          1           0       -2.990656    0.184122    1.130238
     26          8           0       -2.891010   -0.229792   -0.870121
     27          1           0       -2.185814   -0.611125   -1.430706
 ---------------------------------------------------------------------
                    Distance matrix (angstroms):
                    1          2          3          4          5
     1  C    0.000000
     2  C    1.544149   0.000000
     3  N    2.409045   1.479862   0.000000
     4  C    2.465931   2.359307   1.481051   0.000000
     5  C    1.546747   2.426975   2.451083   1.559026   0.000000
     6  C    3.051509   2.385850   1.492051   2.487901   3.276543
     7  C    3.226734   2.440364   2.423649   3.681060   4.074073
     8  C    2.626523   1.534391   2.366230   3.640084   3.791969
     9  H    1.094012   2.203247   3.349879   3.351677   2.214362
    10  H    1.095009   2.183271   2.870071   3.055525   2.184984
    11  H    2.171040   1.096875   2.114477   2.776505   2.860283
    12  H    3.176650   2.896601   2.111865   1.095510   2.193714
    13  H    3.266769   3.260478   2.117279   1.093694   2.228961
    14  H    2.193278   3.031500   3.208435   2.190550   1.094770
    15  H    2.198609   3.306826   3.190923   2.213473   1.094063
    16  H    3.020621   2.918219   2.160116   2.572850   3.053510
    17  H    4.283166   3.310828   3.151349   4.508111   5.092652
    18  H    3.521938   2.155557   2.777648   4.165969   4.560805
    19  O    3.003275   2.493833   3.650704   4.730246   4.467329
    20  H    2.881804   2.803636   3.843324   4.774627   4.343579
    21  O    3.437415   3.265744   3.449374   4.385853   4.381070
    22  H    4.194893   3.928320   4.245959   5.293178   5.274966
    23  C    4.508147   3.665793   2.454796   3.299357   4.477829
    24  H    4.823391   4.162237   2.754687   3.106841   4.426291
    25  H    5.207836   4.463252   3.412926   4.254776   5.288902
    26  O    5.084712   3.877158   2.813336   3.900463   5.187807
    27  H    4.552971   3.249463   2.228851   3.334214   4.633886
                    6          7          8          9         10
     6  C    0.000000
     7  C    1.542139   0.000000
     8  C    2.462635   1.557640   0.000000
     9  H    4.094917   4.060667   3.157078   0.000000
    10  H    2.959404   2.927260   2.715923   1.765136   0.000000
    11  H    3.318163   3.377471   2.187199   2.412352   3.055080
    12  H    3.359419   4.514758   4.263603   3.853652   3.964126
    13  H    2.550705   3.985831   4.329894   4.229150   3.586731
    14  H    4.262985   5.023982   4.507801   2.392389   3.018476
    15  H    3.629893   4.485522   4.485506   2.831929   2.360858
    16  H    1.099867   2.151619   3.154720   4.097045   2.669530
    17  H    2.197373   1.093885   2.199326   5.078590   4.013701
    18  H    3.015010   2.174677   1.094067   3.961965   3.772066
    19  O    3.660459   2.484536   1.420916   3.140199   2.867773
    20  H    3.614135   2.461063   1.925974   3.081405   2.403207
    21  O    2.421301   1.436659   2.470112   4.185507   2.692809
    22  H    3.234812   1.960082   2.825753   4.809734   3.452994
    23  C    1.527595   2.569078   3.624301   5.549782   4.476137
    24  H    2.160961   3.508690   4.454878   5.888304   4.869904
    25  H    2.169361   2.798193   4.142458   6.251860   4.970574
    26  O    2.431896   3.015073   3.681155   6.012664   5.248649
    27  H    2.398114   3.038563   3.300380   5.410259   4.902936
                   11         12         13         14         15
    11  H    0.000000
    12  H    2.909311   0.000000
    13  H    3.813932   1.760439   0.000000
    14  H    3.091743   2.314272   2.924895   0.000000
    15  H    3.894462   2.955238   2.397948   1.761466   0.000000
    16  H    3.936443   3.607991   2.362503   4.128719   3.067758
    17  H    4.096421   5.246216   4.733536   6.021878   5.523076
    18  H    2.375136   4.584268   4.880929   5.167705   5.363088
    19  O    2.975824   5.385381   5.454240   5.098255   5.058403
    20  H    3.508504   5.573123   5.381501   5.071153   4.736238
    21  O    4.298007   5.371240   4.568088   5.391694   4.500532
    22  H    4.874870   6.240454   5.511218   6.248963   5.424641
    23  C    4.398246   3.915071   3.030645   5.387310   4.790135
    24  H    4.827229   3.610709   2.538083   5.266443   4.635172
    25  H    5.286723   4.957406   3.884394   6.269565   5.460246
    26  O    4.329060   4.223038   3.895477   5.953553   5.731611
    27  H    3.527940   3.505875   3.549820   5.285506   5.319745
                   16         17         18         19         20
    16  H    0.000000
    17  H    2.922612   0.000000
    18  H    3.917330   2.338444   0.000000
    19  O    4.104290   3.042950   2.024701   0.000000
    20  H    3.802896   3.157329   2.788251   0.975138   0.000000
    21  O    2.362485   2.070999   3.320828   2.697637   2.145661
    22  H    3.293918   2.178729   3.510408   2.725567   2.192939
    23  C    2.148135   2.590534   3.813720   4.908745   4.957102
    24  H    2.441349   3.671347   4.693345   5.761034   5.769535
    25  H    2.513729   2.562477   4.359679   5.272799   5.210184
    26  O    3.366102   2.708650   3.445591   5.031518   5.336972
    27  H    3.413203   2.973346   3.003717   4.704421   5.112370
                   21         22         23         24         25
    21  O    0.000000
    22  H    0.972035   0.000000
    23  C    3.518203   4.156921   0.000000
    24  H    4.332776   5.069131   1.100845   0.000000
    25  H    3.452746   3.944338   1.094985   1.775114   0.000000
    26  O    4.278000   4.742235   1.428194   2.087503   2.045163
    27  H    4.404672   4.936479   1.909072   2.402901   2.799754
                   26         27
    26  O    0.000000
    27  H    0.978249   0.000000
 Stoichiometry    C8H15NO3
 Framework group  C1[X(C8H15NO3)]
 Deg. of freedom    75
 Full point group                 C1      NOp   1
 Largest Abelian subgroup         C1      NOp   1
 Largest concise Abelian subgroup C1      NOp   1
                         Standard orientation:                         
 ---------------------------------------------------------------------
 Center     Atomic      Atomic             Coordinates (Angstroms)
 Number     Number       Type             X           Y           Z
 ---------------------------------------------------------------------
      1          6           0        2.074948   -0.554195    0.173105
      2          6           0        0.985972   -0.194077   -0.860744
      3          7           0       -0.208123   -0.975898   -0.469740
      4          6           0        0.308429   -2.269132    0.034473
      5          6           0        1.772181   -2.031803    0.515790
      6          6           0       -0.927698   -0.175984    0.563974
      7          6           0       -0.564874    1.297672    0.290315
      8          6           0        0.477957    1.253766   -0.865894
      9          1           0        3.084102   -0.408243   -0.223341
     10          1           0        1.978251    0.072809    1.065607
     11          1           0        1.314357   -0.505917   -1.859771
     12          1           0        0.290921   -3.004807   -0.777080
     13          1           0       -0.348152   -2.646369    0.823624
     14          1           0        2.454380   -2.706512   -0.011366
     15          1           0        1.886585   -2.228158    1.585991
     16          1           0       -0.593505   -0.422533    1.582422
     17          1           0       -1.441415    1.885394    0.002490
     18          1           0       -0.033660    1.449061   -1.813043
     19          8           0        1.487402    2.245851   -0.740238
     20          1           0        1.681386    2.300318    0.213857
     21          8           0        0.007529    1.860011    1.482002
     22          1           0       -0.075897    2.826186    1.415689
     23          6           0       -2.423357   -0.468126    0.458124
     24          1           0       -2.616727   -1.510233    0.755581
     25          1           0       -2.990656    0.184122    1.130238
     26          8           0       -2.891010   -0.229792   -0.870121
     27          1           0       -2.185814   -0.611125   -1.430706
 ---------------------------------------------------------------------
 Rotational constants (GHZ):      1.0848519      0.9730176      0.6572982
 Standard basis: 6-31+G(d,p) (6D, 7F)
 There are   303 symmetry adapted basis functions of A   symmetry.
 Integral buffers will be    131072 words long.
 Raffenetti 2 integral format.
 Two-electron integral symmetry is turned on.
   303 basis functions,   489 primitive gaussians,   303 cartesian basis functions
    47 alpha electrons       47 beta electrons
       nuclear repulsion energy       814.2008876703 Hartrees.
 NAtoms=   27 NActive=   27 NUniq=   27 SFac= 1.00D+00 NAtFMM=   60 NAOKFM=F Big=F
 ------------------------------------------------------------------------------
 Polarizable Continuum Model (PCM)
 =================================
 Model                : PCM.
 Atomic radii         : UFF (Universal Force Field).
 Polarization charges : Total charges.
 Charge compensation  : None.
 Solution method      : Matrix inversion.
 Cavity type          : Scaled VdW (van der Waals Surface) (Alpha=1.100).
 Cavity algorithm     : GePol (No added spheres)
                        Default sphere list used, NSphG=   27.
                        Lebedev-Laikov grids with approx.  5.0 points / Ang**2.
                        Smoothing algorithm: Karplus/York (Gamma=1.0000).
                        Polarization charges: spherical gaussians, with
                                              point-specific exponents (IZeta= 3).
                        Self-potential: point-specific (ISelfS= 7).
                        Self-field    : sphere-specific E.n sum rule (ISelfD= 2).
 Solvent              : Water, Eps=  78.355300 Eps(inf)=   1.777849
 ------------------------------------------------------------------------------
 One-electron integrals computed using PRISM.
 NBasis=   303 RedAO= T  NBF=   303
 NBsUse=   303 1.00D-06 NBFU=   303
 Harris functional with IExCor=  908 diagonalized for initial guess.
 ExpMin= 4.38D-02 ExpMax= 5.48D+03 ExpMxC= 8.25D+02 IAcc=2 IRadAn=         4 AccDes= 0.00D+00
 HarFok:  IExCor=  908 AccDes= 0.00D+00 IRadAn=         4 IDoV= 1
 ScaDFX=  1.000000  1.000000  1.000000  1.000000
 FoFCou: FMM=F IPFlag=           0 FMFlag=      100000 FMFlg1=           0
         NFxFlg=           0 DoJE=T BraDBF=F KetDBF=T FulRan=T
         Omega=  0.000000  0.000000  1.000000  0.000000  0.000000 ICntrl=     500 IOpCl=  0
         NMat0=    1 NMatS0=    1 NMatT0=    0 NMatD0=    1 NMtDS0=    0 NMtDT0=    0
         I1Cent=           4 NGrid=           0.
 Petite list used in FoFCou.
 Initial guess orbital symmetries:
       Occupied  (A) (A) (A) (A) (A) (A) (A) (A) (A) (A) (A) (A)
                 (A) (A) (A) (A) (A) (A) (A) (A) (A) (A) (A) (A)
                 (A) (A) (A) (A) (A) (A) (A) (A) (A) (A) (A) (A)
                 (A) (A) (A) (A) (A) (A) (A) (A) (A) (A) (A)
       Virtual   (A) (A) (A) (A) (A) (A) (A) (A) (A) (A) (A) (A)
                 (A) (A) (A) (A) (A) (A) (A) (A) (A) (A) (A) (A)
                 (A) (A) (A) (A) (A) (A) (A) (A) (A) (A) (A) (A)
                 (A) (A) (A) (A) (A) (A) (A) (A) (A) (A) (A) (A)
                 (A) (A) (A) (A) (A) (A) (A) (A) (A) (A) (A) (A)
                 (A) (A) (A) (A) (A) (A) (A) (A) (A) (A) (A) (A)
                 (A) (A) (A) (A) (A) (A) (A) (A) (A) (A) (A) (A)
                 (A) (A) (A) (A) (A) (A) (A) (A) (A) (A) (A) (A)
                 (A) (A) (A) (A) (A) (A) (A) (A) (A) (A) (A) (A)
                 (A) (A) (A) (A) (A) (A) (A) (A) (A) (A) (A) (A)
                 (A) (A) (A) (A) (A) (A) (A) (A) (A) (A) (A) (A)
                 (A) (A) (A) (A) (A) (A) (A) (A) (A) (A) (A) (A)
                 (A) (A) (A) (A) (A) (A) (A) (A) (A) (A) (A) (A)
                 (A) (A) (A) (A) (A) (A) (A) (A) (A) (A) (A) (A)
                 (A) (A) (A) (A) (A) (A) (A) (A) (A) (A) (A) (A)
                 (A) (A) (A) (A) (A) (A) (A) (A) (A) (A) (A) (A)
                 (A) (A) (A) (A) (A) (A) (A) (A) (A) (A) (A) (A)
                 (A) (A) (A) (A) (A) (A) (A) (A) (A) (A) (A) (A)
                 (A) (A) (A) (A) (A) (A) (A) (A) (A) (A) (A) (A)
                 (A) (A) (A) (A) (A) (A) (A) (A) (A) (A) (A) (A)
                 (A) (A) (A) (A) (A) (A) (A) (A) (A) (A) (A) (A)
                 (A) (A) (A) (A)
 The electronic state of the initial guess is 1-A.
 Requested convergence on RMS density matrix=1.00D-08 within 128 cycles.
 Requested convergence on MAX density matrix=1.00D-06.
 Requested convergence on             energy=1.00D-06.
 No special actions if energy rises.
 Error on total polarization charges =  0.01399
 SCF Done:  E(RmPW1PW91) =  -594.197973746     A.U. after   13 cycles
             Convg  =    0.3966D-08             -V/T =  2.0094
 Range of M.O.s used for correlation:     1   303
 NBasis=   303 NAE=    47 NBE=    47 NFC=     0 NFV=     0
 NROrb=    303 NOA=    47 NOB=    47 NVA=   256 NVB=   256

 **** Warning!!: The largest alpha MO coefficient is  0.74857935D+02

 NEqPCM:  Using equilibrium solvation (IEInf=0, Eps=  78.3553, EpsInf=   1.7778)
          Differentiating once with respect to magnetic field using GIAOs.
          Electric field/nuclear overlap derivatives assumed to be zero.
 FoFCou: FMM=F IPFlag=           0 FMFlag=    10101102 FMFlg1=           0
         NFxFlg=    40000000 DoJE=F BraDBF=F KetDBF=T FulRan=T
         Omega=  0.000000  0.000000  1.000000  0.000000  0.000000 ICntrl=    6100 IOpCl=  0
         NMat0=    1 NMatS0=    1 NMatT0=    0 NMatD0=    1 NMtDS0=    0 NMtDT0=    0
         I1Cent=           7 NGrid=        1808.
 Symmetry not used in FoFCou.
          There are     3 degrees of freedom in the 1st order CPHF.  IDoFFX=0.
      3 vectors produced by pass  0 Test12= 4.01D-13 3.33D-08 XBig12= 2.99D+01 1.26D+00.
 AX will form     3 AO Fock derivatives at one time.
      3 vectors produced by pass  1 Test12= 4.01D-13 3.33D-08 XBig12= 7.51D-02 4.80D-02.
      3 vectors produced by pass  2 Test12= 4.01D-13 3.33D-08 XBig12= 1.37D-04 2.74D-03.
      3 vectors produced by pass  3 Test12= 4.01D-13 3.33D-08 XBig12= 6.77D-07 1.56D-04.
      3 vectors produced by pass  4 Test12= 4.01D-13 3.33D-08 XBig12= 2.22D-09 8.24D-06.
      3 vectors produced by pass  5 Test12= 4.01D-13 3.33D-08 XBig12= 7.34D-12 6.23D-07.
 Inverted reduced A of dimension    18 with in-core refinement.
 Calculating GIAO nuclear magnetic shielding tensors.
 SCF GIAO Magnetic shielding tensor (ppm):
      1  C    Isotropic =   168.6874   Anisotropy =    25.4213
   XX=   171.5575   YX=     3.6516   ZX=     9.9361
   XY=     3.8438   YY=   175.4830   ZY=   -17.6323
   XZ=    16.9790   YZ=   -11.9700   ZZ=   159.0216
   Eigenvalues:   143.6989   176.7283   185.6349
      2  C    Isotropic =   123.9076   Anisotropy =    57.4780
   XX=   138.5161   YX=    18.1617   ZX=    -7.4910
   XY=    22.9849   YY=   137.0183   ZY=   -16.8001
   XZ=     6.5895   YZ=   -26.4971   ZZ=    96.1883
   Eigenvalues:    85.5724   123.9241   162.2263
      3  N    Isotropic =   196.2276   Anisotropy =    67.5374
   XX=   208.7247   YX=    16.7861   ZX=   -19.8177
   XY=     1.8432   YY=   231.9182   ZY=   -21.1537
   XZ=   -29.6969   YZ=    -9.2017   ZZ=   148.0400
   Eigenvalues:   137.8594   209.5709   241.2526
      4  C    Isotropic =   143.0949   Anisotropy =    64.3275
   XX=   137.5008   YX=   -20.2600   ZX=    15.6604
   XY=    -7.7790   YY=   171.1370   ZY=   -20.4855
   XZ=    23.2338   YZ=   -18.0941   ZZ=   120.6468
   Eigenvalues:   106.5436   136.7612   185.9798
      5  C    Isotropic =   170.8615   Anisotropy =    29.6919
   XX=   182.1294   YX=     7.2492   ZX=    12.8509
   XY=     6.1137   YY=   185.2591   ZY=   -13.9259
   XZ=    13.7150   YZ=   -10.8913   ZZ=   145.1961
   Eigenvalues:   136.9295   184.9989   190.6561
      6  C    Isotropic =   122.2219   Anisotropy =    39.3642
   XX=   102.1166   YX=   -10.0441   ZX=    -2.7493
   XY=    -4.5062   YY=   141.0333   ZY=     8.6561
   XZ=   -17.9364   YZ=    11.9630   ZZ=   123.5158
   Eigenvalues:    97.7181   120.4829   148.4647
      7  C    Isotropic =   118.9102   Anisotropy =    29.0737
   XX=   114.6269   YX=    12.8644   ZX=    -2.8693
   XY=    18.1460   YY=   117.4256   ZY=    17.2025
   XZ=     0.6673   YZ=     8.3435   ZZ=   124.6781
   Eigenvalues:    96.9747   121.4633   138.2926
      8  C    Isotropic =   122.1384   Anisotropy =    47.5358
   XX=   130.3224   YX=    14.9455   ZX=    -7.3274
   XY=    19.1923   YY=   141.3527   ZY=     4.9262
   XZ=   -10.4923   YZ=     3.7430   ZZ=    94.7401
   Eigenvalues:    91.1365   121.4497   153.8289
      9  H    Isotropic =    29.8955   Anisotropy =    10.6904
   XX=    36.4414   YX=     0.8782   ZX=    -2.2501
   XY=     1.0100   YY=    28.1563   ZY=    -1.4332
   XZ=    -2.1803   YZ=    -1.4823   ZZ=    25.0888
   Eigenvalues:    24.2542    28.4099    37.0225
     10  H    Isotropic =    29.8172   Anisotropy =     7.0732
   XX=    27.3722   YX=    -1.2643   ZX=     2.4359
   XY=    -1.2186   YY=    31.8300   ZY=     3.0862
   XZ=     2.9863   YZ=     3.5463   ZZ=    30.2494
   Eigenvalues:    24.5750    30.3440    34.5327
     11  H    Isotropic =    28.0851   Anisotropy =     8.6623
   XX=    26.7207   YX=     0.1794   ZX=    -2.8977
   XY=    -0.3420   YY=    24.5718   ZY=     0.5628
   XZ=    -2.1563   YZ=    -0.3015   ZZ=    32.9628
   Eigenvalues:    24.5685    25.8268    33.8599
     12  H    Isotropic =    28.6117   Anisotropy =    11.3599
   XX=    26.1122   YX=    -0.7125   ZX=     1.7990
   XY=    -0.6160   YY=    33.6038   ZY=     5.4055
   XZ=     2.5134   YZ=     4.7521   ZZ=    26.1192
   Eigenvalues:    22.2640    27.3861    36.1850
     13  H    Isotropic =    28.6679   Anisotropy =     8.7543
   XX=    29.2692   YX=     1.5605   ZX=    -1.2437
   XY=     1.5131   YY=    31.2010   ZY=    -4.9989
   XZ=    -1.7843   YZ=    -3.9783   ZZ=    25.5334
   Eigenvalues:    23.0007    28.4988    34.5041
     14  H    Isotropic =    29.8552   Anisotropy =    12.0990
   XX=    32.0885   YX=    -4.7929   ZX=    -1.6300
   XY=    -5.0604   YY=    32.7839   ZY=     2.1045
   XZ=    -1.4722   YZ=     2.3485   ZZ=    24.6933
   Eigenvalues:    24.1062    27.5384    37.9212
     15  H    Isotropic =    29.4814   Anisotropy =    10.8246
   XX=    27.0942   YX=    -0.6966   ZX=     2.9349
   XY=    -0.8431   YY=    27.8294   ZY=    -4.3879
   XZ=     2.9368   YZ=    -4.1029   ZZ=    33.5207
   Eigenvalues:    25.1323    26.6142    36.6978
     16  H    Isotropic =    28.8294   Anisotropy =     4.1788
   XX=    27.9985   YX=    -0.7722   ZX=    -1.6861
   XY=    -0.7943   YY=    27.4154   ZY=     0.5150
   XZ=    -0.6134   YZ=     0.6689   ZZ=    31.0743
   Eigenvalues:    26.8623    28.0106    31.6152
     17  H    Isotropic =    27.4042   Anisotropy =     6.3613
   XX=    29.9228   YX=    -2.4157   ZX=     2.4521
   XY=    -0.9023   YY=    27.0595   ZY=     1.0568
   XZ=     3.5584   YZ=     0.9931   ZZ=    25.2302
   Eigenvalues:    23.0611    27.5064    31.6450
     18  H    Isotropic =    27.3514   Anisotropy =     5.9676
   XX=    26.1503   YX=     0.4681   ZX=     3.6541
   XY=     0.8484   YY=    27.0054   ZY=    -2.0908
   XZ=     1.2596   YZ=    -3.1676   ZZ=    28.8984
   Eigenvalues:    23.4942    27.2302    31.3297
     19  O    Isotropic =   311.2424   Anisotropy =    37.8391
   XX=   285.3749   YX=    -6.3361   ZX=     6.3630
   XY=    17.0775   YY=   322.5967   ZY=    -5.4680
   XZ=   -10.6199   YZ=   -17.8651   ZZ=   325.7556
   Eigenvalues:   284.6095   312.6493   336.4685
     20  H    Isotropic =    28.9374   Anisotropy =    13.9890
   XX=    26.1968   YX=     4.6753   ZX=     2.4252
   XY=     2.9140   YY=    23.6864   ZY=     1.7232
   XZ=     3.1589   YZ=     2.5911   ZZ=    36.9290
   Eigenvalues:    20.9439    27.6050    38.2634
     21  O    Isotropic =   299.0189   Anisotropy =    76.0088
   XX=   267.5141   YX=     9.9159   ZX=    27.0968
   XY=     1.8018   YY=   348.3385   ZY=   -15.5040
   XZ=     7.6071   YZ=    -2.5428   ZZ=   281.2040
   Eigenvalues:   254.6503   292.7149   349.6914
     22  H    Isotropic =    29.7070   Anisotropy =    22.2095
   XX=    20.9011   YX=    -1.2666   ZX=    -1.1073
   XY=    -1.4026   YY=    43.6530   ZY=     4.1729
   XZ=     0.9618   YZ=     3.7323   ZZ=    24.5668
   Eigenvalues:    20.8150    23.7927    44.5133
     23  C    Isotropic =   132.8966   Anisotropy =    42.3051
   XX=   126.2902   YX=     2.0861   ZX=    12.5956
   XY=     0.2092   YY=   118.8767   ZY=    -6.1952
   XZ=    18.0463   YZ=    -6.6776   ZZ=   153.5227
   Eigenvalues:   115.0906   122.4992   161.0999
     24  H    Isotropic =    27.9741   Anisotropy =     7.7322
   XX=    28.1105   YX=     1.9015   ZX=     0.0643
   XY=     2.4659   YY=    28.3695   ZY=    -4.0105
   XZ=    -0.7190   YZ=    -4.9953   ZZ=    27.4423
   Eigenvalues:    23.0617    27.7317    33.1289
     25  H    Isotropic =    27.9764   Anisotropy =     7.2417
   XX=    29.3481   YX=    -0.3862   ZX=    -1.9136
   XY=    -1.4921   YY=    24.7996   ZY=     1.5179
   XZ=    -3.5464   YZ=     2.1804   ZZ=    29.7816
   Eigenvalues:    24.1880    26.9371    32.8043
     26  O    Isotropic =   324.7526   Anisotropy =    41.5174
   XX=   336.8605   YX=    -4.2326   ZX=   -27.1868
   XY=   -10.1323   YY=   313.0158   ZY=   -20.8278
   XZ=   -14.5796   YZ=    -0.8563   ZZ=   324.3816
   Eigenvalues:   297.7633   324.0637   352.4309
     27  H    Isotropic =    28.6800   Anisotropy =    16.1065
   XX=    34.9788   YX=    -6.0993   ZX=    -2.5043
   XY=    -4.3273   YY=    20.5666   ZY=     5.4810
   XZ=    -4.0748   YZ=     4.9628   ZZ=    30.4945
   Eigenvalues:    17.5499    29.0724    39.4176
 End of Minotr Frequency-dependent properties file   721 does not exist.
 End of Minotr Frequency-dependent properties file   722 does not exist.

 **********************************************************************

            Population analysis using the SCF density.

 **********************************************************************

 Orbital symmetries:
       Occupied  (A) (A) (A) (A) (A) (A) (A) (A) (A) (A) (A) (A)
                 (A) (A) (A) (A) (A) (A) (A) (A) (A) (A) (A) (A)
                 (A) (A) (A) (A) (A) (A) (A) (A) (A) (A) (A) (A)
                 (A) (A) (A) (A) (A) (A) (A) (A) (A) (A) (A)
       Virtual   (A) (A) (A) (A) (A) (A) (A) (A) (A) (A) (A) (A)
                 (A) (A) (A) (A) (A) (A) (A) (A) (A) (A) (A) (A)
                 (A) (A) (A) (A) (A) (A) (A) (A) (A) (A) (A) (A)
                 (A) (A) (A) (A) (A) (A) (A) (A) (A) (A) (A) (A)
                 (A) (A) (A) (A) (A) (A) (A) (A) (A) (A) (A) (A)
                 (A) (A) (A) (A) (A) (A) (A) (A) (A) (A) (A) (A)
                 (A) (A) (A) (A) (A) (A) (A) (A) (A) (A) (A) (A)
                 (A) (A) (A) (A) (A) (A) (A) (A) (A) (A) (A) (A)
                 (A) (A) (A) (A) (A) (A) (A) (A) (A) (A) (A) (A)
                 (A) (A) (A) (A) (A) (A) (A) (A) (A) (A) (A) (A)
                 (A) (A) (A) (A) (A) (A) (A) (A) (A) (A) (A) (A)
                 (A) (A) (A) (A) (A) (A) (A) (A) (A) (A) (A) (A)
                 (A) (A) (A) (A) (A) (A) (A) (A) (A) (A) (A) (A)
                 (A) (A) (A) (A) (A) (A) (A) (A) (A) (A) (A) (A)
                 (A) (A) (A) (A) (A) (A) (A) (A) (A) (A) (A) (A)
                 (A) (A) (A) (A) (A) (A) (A) (A) (A) (A) (A) (A)
                 (A) (A) (A) (A) (A) (A) (A) (A) (A) (A) (A) (A)
                 (A) (A) (A) (A) (A) (A) (A) (A) (A) (A) (A) (A)
                 (A) (A) (A) (A) (A) (A) (A) (A) (A) (A) (A) (A)
                 (A) (A) (A) (A) (A) (A) (A) (A) (A) (A) (A) (A)
                 (A) (A) (A) (A) (A) (A) (A) (A) (A) (A) (A) (A)
                 (A) (A) (A) (A)
 The electronic state is 1-A.
 Alpha  occ. eigenvalues --  -19.26942 -19.25820 -19.24913 -14.42110 -10.30996
 Alpha  occ. eigenvalues --  -10.30397 -10.29411 -10.28425 -10.27534 -10.27152
 Alpha  occ. eigenvalues --  -10.24531 -10.24442  -1.08298  -1.05429  -1.05179
 Alpha  occ. eigenvalues --   -0.97108  -0.82091  -0.79017  -0.75748  -0.71388
 Alpha  occ. eigenvalues --   -0.67410  -0.61841  -0.60001  -0.58286  -0.55369
 Alpha  occ. eigenvalues --   -0.54807  -0.51557  -0.49891  -0.47619  -0.47178
 Alpha  occ. eigenvalues --   -0.46498  -0.45008  -0.44642  -0.41797  -0.41361
 Alpha  occ. eigenvalues --   -0.40398  -0.37941  -0.37452  -0.36955  -0.35899
 Alpha  occ. eigenvalues --   -0.35008  -0.34005  -0.32935  -0.31606  -0.29656
 Alpha  occ. eigenvalues --   -0.28575  -0.24762
 Alpha virt. eigenvalues --    0.00213   0.01296   0.01745   0.02385   0.03908
 Alpha virt. eigenvalues --    0.04156   0.04607   0.04802   0.05331   0.07203
 Alpha virt. eigenvalues --    0.07718   0.08051   0.08372   0.08918   0.09829
 Alpha virt. eigenvalues --    0.10234   0.11095   0.11539   0.12335   0.13137
 Alpha virt. eigenvalues --    0.13576   0.13750   0.14410   0.14607   0.15672
 Alpha virt. eigenvalues --    0.16018   0.16979   0.17248   0.17663   0.18211
 Alpha virt. eigenvalues --    0.18743   0.19043   0.19674   0.19845   0.20602
 Alpha virt. eigenvalues --    0.20792   0.21462   0.22044   0.22571   0.22904
 Alpha virt. eigenvalues --    0.23446   0.24026   0.24531   0.24836   0.26140
 Alpha virt. eigenvalues --    0.26300   0.27131   0.27928   0.28422   0.29224
 Alpha virt. eigenvalues --    0.29734   0.29790   0.31332   0.31638   0.32482
 Alpha virt. eigenvalues --    0.32824   0.33286   0.34256   0.35116   0.35643
 Alpha virt. eigenvalues --    0.35903   0.37061   0.37538   0.37970   0.38282
 Alpha virt. eigenvalues --    0.39410   0.39992   0.40682   0.41146   0.41690
 Alpha virt. eigenvalues --    0.42560   0.43887   0.45724   0.46050   0.48313
 Alpha virt. eigenvalues --    0.49738   0.64962   0.66326   0.67817   0.68445
 Alpha virt. eigenvalues --    0.69876   0.70700   0.72941   0.74059   0.75498
 Alpha virt. eigenvalues --    0.75774   0.77455   0.77895   0.78864   0.81251
 Alpha virt. eigenvalues --    0.82186   0.83549   0.85036   0.85959   0.87567
 Alpha virt. eigenvalues --    0.88455   0.90530   0.94567   0.95140   0.97185
 Alpha virt. eigenvalues --    0.98139   1.00070   1.00653   1.03650   1.04369
 Alpha virt. eigenvalues --    1.05141   1.07275   1.07854   1.09028   1.10462
 Alpha virt. eigenvalues --    1.10873   1.11692   1.13920   1.15138   1.16527
 Alpha virt. eigenvalues --    1.17651   1.19095   1.21109   1.23481   1.25441
 Alpha virt. eigenvalues --    1.26895   1.28415   1.30460   1.32316   1.34329
 Alpha virt. eigenvalues --    1.34897   1.36270   1.38835   1.39254   1.40006
 Alpha virt. eigenvalues --    1.42696   1.44088   1.48168   1.50389   1.53227
 Alpha virt. eigenvalues --    1.54870   1.56356   1.56859   1.58527   1.60951
 Alpha virt. eigenvalues --    1.63336   1.64439   1.68546   1.68848   1.69112
 Alpha virt. eigenvalues --    1.72802   1.73917   1.75294   1.76141   1.79671
 Alpha virt. eigenvalues --    1.81454   1.81786   1.82358   1.83308   1.87382
 Alpha virt. eigenvalues --    1.88582   1.89679   1.90683   1.91529   1.94286
 Alpha virt. eigenvalues --    1.97734   1.99281   2.01116   2.03042   2.04488
 Alpha virt. eigenvalues --    2.05918   2.06367   2.07582   2.09513   2.09648
 Alpha virt. eigenvalues --    2.11604   2.14818   2.16458   2.18820   2.20247
 Alpha virt. eigenvalues --    2.22041   2.23123   2.25175   2.27932   2.30139
 Alpha virt. eigenvalues --    2.32095   2.35339   2.36204   2.36996   2.39037
 Alpha virt. eigenvalues --    2.43816   2.46544   2.46716   2.48459   2.49582
 Alpha virt. eigenvalues --    2.52027   2.52792   2.53678   2.54685   2.55822
 Alpha virt. eigenvalues --    2.56842   2.59085   2.59700   2.60063   2.61997
 Alpha virt. eigenvalues --    2.62147   2.63751   2.65874   2.66707   2.69759
 Alpha virt. eigenvalues --    2.70508   2.72960   2.73736   2.74785   2.77294
 Alpha virt. eigenvalues --    2.78610   2.80828   2.82034   2.83519   2.86191
 Alpha virt. eigenvalues --    2.86967   2.89036   2.89603   2.92278   2.94796
 Alpha virt. eigenvalues --    2.96135   2.98889   2.99291   3.03313   3.04150
 Alpha virt. eigenvalues --    3.05895   3.09491   3.12558   3.17213   3.31650
 Alpha virt. eigenvalues --    3.34197   3.36649   3.42377   3.44516   3.45204
 Alpha virt. eigenvalues --    3.47196   3.48706   3.48814   3.51067   3.54827
 Alpha virt. eigenvalues --    3.57930   3.60818   3.63795   3.63964   4.29109
 Alpha virt. eigenvalues --    4.32375   4.36749   4.48219   4.49234   4.51356
 Alpha virt. eigenvalues --    4.60967   4.64508   4.75803   4.83851   4.93631
 Alpha virt. eigenvalues --    4.99816
          Condensed to atoms (all electrons):
              1          2          3          4          5          6
     1  C    6.193907  -1.146818   0.230434   0.002612   0.006498   0.088587
     2  C   -1.146818   9.617138  -0.481325  -0.337398   0.286563  -1.100426
     3  N    0.230434  -0.481325   7.651777   0.124841  -0.204336  -0.040170
     4  C    0.002612  -0.337398   0.124841   5.819775   0.127468  -0.273305
     5  C    0.006498   0.286563  -0.204336   0.127468   5.552963   0.119807
     6  C    0.088587  -1.100426  -0.040170  -0.273305   0.119807   9.570544
     7  C   -0.437217   1.450925  -0.383776  -0.187224   0.083419  -2.036142
     8  C    0.476521  -1.898338   0.140590   0.071568  -0.153262   0.393724
     9  H    0.409073  -0.116218   0.018787   0.024938  -0.025498   0.023317
    10  H    0.427375  -0.069227   0.015942  -0.005301  -0.055996  -0.009012
    11  H    0.009939   0.215751  -0.027075  -0.009868  -0.015402   0.059690
    12  H    0.025426  -0.034268  -0.036310   0.420052  -0.074597   0.017250
    13  H   -0.005904   0.034094  -0.048135   0.340924   0.004730   0.032622
    14  H   -0.054687   0.024390   0.008972  -0.081432   0.429580   0.004395
    15  H   -0.081061   0.033228   0.004579  -0.060034   0.431400   0.014813
    16  H    0.006404   0.026756  -0.034996   0.049155  -0.006636   0.212807
    17  H    0.003358   0.005608   0.024214   0.004710  -0.001578  -0.067498
    18  H    0.024331  -0.033480   0.016550   0.004216  -0.001212  -0.027316
    19  O    0.021819  -0.189221   0.004878   0.000435   0.005481   0.082828
    20  H    0.027909  -0.062161   0.004685   0.001463   0.001700   0.010263
    21  O   -0.002082   0.008841   0.036697   0.005943  -0.002835   0.039195
    22  H   -0.001921   0.001929  -0.002102  -0.000142   0.001433   0.001691
    23  C    0.013815  -0.049616   0.093337   0.063297  -0.063744  -0.704999
    24  H   -0.002142  -0.013589  -0.014514   0.019855   0.000149  -0.010048
    25  H    0.003171  -0.000429   0.013384   0.000509  -0.001432  -0.165383
    26  O    0.010153  -0.082431   0.038051   0.003275  -0.007867  -0.118797
    27  H    0.000983   0.003692   0.051096   0.010995  -0.002262  -0.074712
              7          8          9         10         11         12
     1  C   -0.437217   0.476521   0.409073   0.427375   0.009939   0.025426
     2  C    1.450925  -1.898338  -0.116218  -0.069227   0.215751  -0.034268
     3  N   -0.383776   0.140590   0.018787   0.015942  -0.027075  -0.036310
     4  C   -0.187224   0.071568   0.024938  -0.005301  -0.009868   0.420052
     5  C    0.083419  -0.153262  -0.025498  -0.055996  -0.015402  -0.074597
     6  C   -2.036142   0.393724   0.023317  -0.009012   0.059690   0.017250
     7  C    8.531337  -1.091061  -0.035487   0.028133  -0.030202  -0.010494
     8  C   -1.091061   7.421965   0.038298   0.001682   0.085983   0.010902
     9  H   -0.035487   0.038298   0.516817  -0.024755  -0.003543  -0.000013
    10  H    0.028133   0.001682  -0.024755   0.517234   0.003846  -0.000120
    11  H   -0.030202   0.085983  -0.003543   0.003846   0.536658   0.001533
    12  H   -0.010494   0.010902  -0.000013  -0.000120   0.001533   0.534290
    13  H    0.022004  -0.009020  -0.000108   0.000081  -0.000127  -0.029106
    14  H    0.005586   0.000238  -0.006753   0.003617   0.000821  -0.006988
    15  H   -0.001022   0.000513   0.002024  -0.007638  -0.000049   0.003479
    16  H    0.040883  -0.019723  -0.000014  -0.002002  -0.000390  -0.000231
    17  H    0.298645   0.001335   0.000005  -0.000080  -0.000160   0.000006
    18  H    0.006595   0.342386  -0.000108  -0.000022  -0.006583   0.000015
    19  O   -0.220122   0.413458  -0.000645  -0.002857   0.002256  -0.000021
    20  H   -0.079052   0.066548  -0.000008   0.000360  -0.000096   0.000001
    21  O    0.027515  -0.142154   0.000973  -0.003453  -0.000829   0.000049
    22  H    0.067272  -0.053454  -0.000009   0.000074   0.000000   0.000000
    23  C   -0.134702   0.127803   0.000722   0.002550   0.000308   0.008247
    24  H   -0.013354   0.007447   0.000000   0.000000   0.000004  -0.000098
    25  H   -0.000269   0.007133   0.000000  -0.000001   0.000002   0.000002
    26  O   -0.013674   0.052127   0.000020  -0.000001   0.000530   0.000652
    27  H   -0.023446   0.004981  -0.000001  -0.000001  -0.000125  -0.000156
             13         14         15         16         17         18
     1  C   -0.005904  -0.054687  -0.081061   0.006404   0.003358   0.024331
     2  C    0.034094   0.024390   0.033228   0.026756   0.005608  -0.033480
     3  N   -0.048135   0.008972   0.004579  -0.034996   0.024214   0.016550
     4  C    0.340924  -0.081432  -0.060034   0.049155   0.004710   0.004216
     5  C    0.004730   0.429580   0.431400  -0.006636  -0.001578  -0.001212
     6  C    0.032622   0.004395   0.014813   0.212807  -0.067498  -0.027316
     7  C    0.022004   0.005586  -0.001022   0.040883   0.298645   0.006595
     8  C   -0.009020   0.000238   0.000513  -0.019723   0.001335   0.342386
     9  H   -0.000108  -0.006753   0.002024  -0.000014   0.000005  -0.000108
    10  H    0.000081   0.003617  -0.007638  -0.002002  -0.000080  -0.000022
    11  H   -0.000127   0.000821  -0.000049  -0.000390  -0.000160  -0.006583
    12  H   -0.029106  -0.006988   0.003479  -0.000231   0.000006   0.000015
    13  H    0.524599   0.002869  -0.006206  -0.000275  -0.000017   0.000006
    14  H    0.002869   0.518736  -0.025708  -0.000110   0.000000   0.000003
    15  H   -0.006206  -0.025708   0.515542  -0.000512   0.000000   0.000003
    16  H   -0.000275  -0.000110  -0.000512   0.541077   0.002693  -0.000123
    17  H   -0.000017   0.000000   0.000000   0.002693   0.537809  -0.005794
    18  H    0.000006   0.000003   0.000003  -0.000123  -0.005794   0.543158
    19  O    0.000073   0.000011  -0.000023  -0.000219   0.002177  -0.054074
    20  H    0.000000   0.000001   0.000003  -0.000085   0.000450   0.006858
    21  O   -0.000181  -0.000049  -0.000058  -0.008209  -0.025130   0.007191
    22  H    0.000000   0.000000   0.000000   0.000664  -0.009772   0.000049
    23  C   -0.032281   0.000008  -0.001208  -0.002769   0.040991  -0.001084
    24  H    0.001541   0.000000   0.000001  -0.001800   0.000295  -0.000003
    25  H   -0.000072   0.000000  -0.000001   0.000795   0.000006   0.000008
    26  O   -0.000153   0.000007   0.000022   0.007054   0.004446  -0.000947
    27  H    0.000070  -0.000001  -0.000001   0.000746  -0.000038  -0.000022
             19         20         21         22         23         24
     1  C    0.021819   0.027909  -0.002082  -0.001921   0.013815  -0.002142
     2  C   -0.189221  -0.062161   0.008841   0.001929  -0.049616  -0.013589
     3  N    0.004878   0.004685   0.036697  -0.002102   0.093337  -0.014514
     4  C    0.000435   0.001463   0.005943  -0.000142   0.063297   0.019855
     5  C    0.005481   0.001700  -0.002835   0.001433  -0.063744   0.000149
     6  C    0.082828   0.010263   0.039195   0.001691  -0.704999  -0.010048
     7  C   -0.220122  -0.079052   0.027515   0.067272  -0.134702  -0.013354
     8  C    0.413458   0.066548  -0.142154  -0.053454   0.127803   0.007447
     9  H   -0.000645  -0.000008   0.000973  -0.000009   0.000722   0.000000
    10  H   -0.002857   0.000360  -0.003453   0.000074   0.002550   0.000000
    11  H    0.002256  -0.000096  -0.000829   0.000000   0.000308   0.000004
    12  H   -0.000021   0.000001   0.000049   0.000000   0.008247  -0.000098
    13  H    0.000073   0.000000  -0.000181   0.000000  -0.032281   0.001541
    14  H    0.000011   0.000001  -0.000049   0.000000   0.000008   0.000000
    15  H   -0.000023   0.000003  -0.000058   0.000000  -0.001208   0.000001
    16  H   -0.000219  -0.000085  -0.008209   0.000664  -0.002769  -0.001800
    17  H    0.002177   0.000450  -0.025130  -0.009772   0.040991   0.000295
    18  H   -0.054074   0.006858   0.007191   0.000049  -0.001084  -0.000003
    19  O    8.167124   0.244214   0.026832   0.003094  -0.008217   0.000018
    20  H    0.244214   0.370569   0.032997  -0.002810   0.000796   0.000000
    21  O    0.026832   0.032997   8.327080   0.235247   0.046679  -0.000201
    22  H    0.003094  -0.002810   0.235247   0.360046  -0.007683   0.000007
    23  C   -0.008217   0.000796   0.046679  -0.007683   5.701385   0.385123
    24  H    0.000018   0.000000  -0.000201   0.000007   0.385123   0.586889
    25  H   -0.000085   0.000000   0.002044  -0.000084   0.523400  -0.039304
    26  O    0.000570   0.000013   0.000209   0.000328   0.231366  -0.052543
    27  H   -0.000064  -0.000001  -0.000185  -0.000001   0.042172  -0.003815
             25         26         27
     1  C    0.003171   0.010153   0.000983
     2  C   -0.000429  -0.082431   0.003692
     3  N    0.013384   0.038051   0.051096
     4  C    0.000509   0.003275   0.010995
     5  C   -0.001432  -0.007867  -0.002262
     6  C   -0.165383  -0.118797  -0.074712
     7  C   -0.000269  -0.013674  -0.023446
     8  C    0.007133   0.052127   0.004981
     9  H    0.000000   0.000020  -0.000001
    10  H   -0.000001  -0.000001  -0.000001
    11  H    0.000002   0.000530  -0.000125
    12  H    0.000002   0.000652  -0.000156
    13  H   -0.000072  -0.000153   0.000070
    14  H    0.000000   0.000007  -0.000001
    15  H   -0.000001   0.000022  -0.000001
    16  H    0.000795   0.007054   0.000746
    17  H    0.000006   0.004446  -0.000038
    18  H    0.000008  -0.000947  -0.000022
    19  O   -0.000085   0.000570  -0.000064
    20  H    0.000000   0.000013  -0.000001
    21  O    0.002044   0.000209  -0.000185
    22  H   -0.000084   0.000328  -0.000001
    23  C    0.523400   0.231366   0.042172
    24  H   -0.039304  -0.052543  -0.003815
    25  H    0.535819  -0.054135   0.006297
    26  O   -0.054135   8.285482   0.241156
    27  H    0.006297   0.241156   0.356585
 Mulliken atomic charges:
              1
     1  C   -0.250484
     2  C   -0.093972
     3  N   -0.206078
     4  C   -0.141327
     5  C   -0.434532
     6  C   -0.043726
     7  C    0.134931
     8  C   -0.298188
     9  H    0.178188
    10  H    0.179572
    11  H    0.177131
    12  H    0.170499
    13  H    0.167970
    14  H    0.176493
    15  H    0.177914
    16  H    0.189058
    17  H    0.183318
    18  H    0.179401
    19  O   -0.499721
    20  H    0.375383
    21  O   -0.612125
    22  H    0.406143
    23  C   -0.275698
    24  H    0.150080
    25  H    0.168625
    26  O   -0.544911
    27  H    0.386057
 Sum of Mulliken atomic charges =   0.00000
 Mulliken charges with hydrogens summed into heavy atoms:
              1
     1  C    0.107276
     2  C    0.083158
     3  N   -0.206078
     4  C    0.197141
     5  C   -0.080125
     6  C    0.145332
     7  C    0.318249
     8  C   -0.118787
    19  O   -0.124338
    21  O   -0.205982
    23  C    0.043007
    26  O   -0.158854
 Sum of Mulliken charges with hydrogens summed into heavy atoms =   0.00000
 Electronic spatial extent (au):  <R**2>=           1949.6579
 Charge=              0.0000 electrons
 Dipole moment (field-independent basis, Debye):
    X=              1.5735    Y=             -1.0167    Z=              2.1854  Tot=              2.8785
 Quadrupole moment (field-independent basis, Debye-Ang):
   XX=            -83.7952   YY=            -67.1449   ZZ=            -74.7397
   XY=             -4.7332   XZ=             -3.0674   YZ=              3.9453
 Traceless Quadrupole moment (field-independent basis, Debye-Ang):
   XX=             -8.5686   YY=              8.0817   ZZ=              0.4869
   XY=             -4.7332   XZ=             -3.0674   YZ=              3.9453
 Octapole moment (field-independent basis, Debye-Ang**2):
  XXX=             35.7148  YYY=             21.1595  ZZZ=             -8.9931  XYY=            -10.9959
  XXY=             -1.1826  XXZ=             23.5158  XZZ=             -2.7142  YZZ=             -1.8911
  YYZ=             20.9374  XYZ=              9.5829
 Hexadecapole moment (field-independent basis, Debye-Ang**3):
 XXXX=          -1290.9712 YYYY=           -926.5101 ZZZZ=           -359.2588 XXXY=             -2.6409
 XXXZ=            -56.3747 YYYX=            -15.7589 YYYZ=             80.7548 ZZZX=              9.1437
 ZZZY=              1.0870 XXYY=           -361.1003 XXZZ=           -259.9162 YYZZ=           -222.7880
 XXYZ=             22.1338 YYXZ=             17.7046 ZZXY=             -1.6263
 N-N= 8.142008876703D+02 E-N=-3.013994961351D+03  KE= 5.886630066298D+02
 1\1\GINC-COMPUTE-3-1\SP\RmPW1PW91\6-31+G(d,p)\C8H15N1O3\MAMICHETTI.IQU
 IR\17-May-2024\0\\# mpw1pw91/6-31+G** nmr scrf=(pcm,solvent=water)\\co
 mment\\0,1\C,0,2.074948,-0.554195,0.173105\C,0,0.985972,-0.194077,-0.8
 60744\N,0,-0.208123,-0.975898,-0.46974\C,0,0.308429,-2.269132,0.034473
 \C,0,1.772181,-2.031803,0.51579\C,0,-0.927698,-0.175984,0.563974\C,0,-
 0.564874,1.297672,0.290315\C,0,0.477957,1.253766,-0.865894\H,0,3.08410
 2,-0.408243,-0.223341\H,0,1.978251,0.072809,1.065607\H,0,1.314357,-0.5
 05917,-1.859771\H,0,0.290921,-3.004807,-0.77708\H,0,-0.348152,-2.64636
 9,0.823624\H,0,2.45438,-2.706512,-0.011366\H,0,1.886585,-2.228158,1.58
 5991\H,0,-0.593505,-0.422533,1.582422\H,0,-1.441415,1.885394,0.00249\H
 ,0,-0.03366,1.449061,-1.813043\O,0,1.487402,2.245851,-0.740238\H,0,1.6
 81386,2.300318,0.213857\O,0,0.007529,1.860011,1.482002\H,0,-0.075897,2
 .826186,1.415689\C,0,-2.423357,-0.468126,0.458124\H,0,-2.616727,-1.510
 233,0.755581\H,0,-2.990656,0.184122,1.130238\O,0,-2.89101,-0.229792,-0
 .870121\H,0,-2.185814,-0.611125,-1.430706\\Version=AM64L-G09RevC.01\St
 ate=1-A\HF=-594.1979737\RMSD=3.966e-09\Dipole=0.6190761,-0.4000067,0.8
 598108\Quadrupole=-6.3705336,6.0085277,0.3620059,-3.519019,-2.2805713,
 2.9332502\PG=C01 [X(C8H15N1O3)]\\@


 ... A MOLECULAR SYSTEM ... (PASSES) ... FROM ONE STATE OF EQUILIBRIUM 
 TO ANOTHER ... BY MEANS OF ALL POSSIBLE INTERMEDIATE PATHS, 
 BUT THE PATH MOST ECONOMICAL OF ENERGY WILL BE THE MORE OFTEN TRAVELED.

                      -- HENRY EYRING, 1945
 Job cpu time:  0 days  0 hours  8 minutes 41.8 seconds.
 File lengths (MBytes):  RWF=    112 Int=      0 D2E=      0 Chk=      7 Scr=      1
 Normal termination of Gaussian 09 at Fri May 17 12:12:38 2024.
