 Entering Gaussian System, Link 0=g09
 Input=/home/mamichetti.iquir/Linux/01_Cardona_A1A3_R__S_R_R_006_OptB.gjc
 Output=/home/mamichetti.iquir/Linux/01_Cardona_A1A3_R__S_R_R_006_OptB.log
 Initial command:
 /opt/ohpc/pub/apps/software/Gaussian/09/AMD64.SSE4a-enabled/g09/l1.exe /local/mamichetti.iquir/Gau-404861.inp -scrdir=/local/mamichetti.iquir/
 Entering Link 1 = /opt/ohpc/pub/apps/software/Gaussian/09/AMD64.SSE4a-enabled/g09/l1.exe PID=    404862.
  
 Copyright (c) 1988,1990,1992,1993,1995,1998,2003,2009,2011,
            Gaussian, Inc.  All Rights Reserved.
  
 This is part of the Gaussian(R) 09 program.  It is based on
 the Gaussian(R) 03 system (copyright 2003, Gaussian, Inc.),
 the Gaussian(R) 98 system (copyright 1998, Gaussian, Inc.),
 the Gaussian(R) 94 system (copyright 1995, Gaussian, Inc.),
 the Gaussian 92(TM) system (copyright 1992, Gaussian, Inc.),
 the Gaussian 90(TM) system (copyright 1990, Gaussian, Inc.),
 the Gaussian 88(TM) system (copyright 1988, Gaussian, Inc.),
 the Gaussian 86(TM) system (copyright 1986, Carnegie Mellon
 University), and the Gaussian 82(TM) system (copyright 1983,
 Carnegie Mellon University). Gaussian is a federally registered
 trademark of Gaussian, Inc.
  
 This software contains proprietary and confidential information,
 including trade secrets, belonging to Gaussian, Inc.
  
 This software is provided under written license and may be
 used, copied, transmitted, or stored only in accord with that
 written license.
  
 The following legend is applicable only to US Government
 contracts under FAR:
  
                    RESTRICTED RIGHTS LEGEND
  
 Use, reproduction and disclosure by the US Government is
 subject to restrictions as set forth in subparagraphs (a)
 and (c) of the Commercial Computer Software - Restricted
 Rights clause in FAR 52.227-19.
  
 Gaussian, Inc.
 340 Quinnipiac St., Bldg. 40, Wallingford CT 06492
  
  
 ---------------------------------------------------------------
 Warning -- This program may not be used in any manner that
 competes with the business of Gaussian, Inc. or will provide
 assistance to any competitor of Gaussian, Inc.  The licensee
 of this program is prohibited from giving any competitor of
 Gaussian, Inc. access to this program.  By using this program,
 the user acknowledges that Gaussian, Inc. is engaged in the
 business of creating and licensing software in the field of
 computational chemistry and represents and warrants to the
 licensee that it is not a competitor of Gaussian, Inc. and that
 it will not use this program in any manner prohibited above.
 ---------------------------------------------------------------
  

 Cite this work as:
 Gaussian 09, Revision C.01,
 M. J. Frisch, G. W. Trucks, H. B. Schlegel, G. E. Scuseria, 
 M. A. Robb, J. R. Cheeseman, G. Scalmani, V. Barone, B. Mennucci, 
 G. A. Petersson, H. Nakatsuji, M. Caricato, X. Li, H. P. Hratchian, 
 A. F. Izmaylov, J. Bloino, G. Zheng, J. L. Sonnenberg, M. Hada, 
 M. Ehara, K. Toyota, R. Fukuda, J. Hasegawa, M. Ishida, T. Nakajima, 
 Y. Honda, O. Kitao, H. Nakai, T. Vreven, J. A. Montgomery, Jr., 
 J. E. Peralta, F. Ogliaro, M. Bearpark, J. J. Heyd, E. Brothers, 
 K. N. Kudin, V. N. Staroverov, T. Keith, R. Kobayashi, J. Normand, 
 K. Raghavachari, A. Rendell, J. C. Burant, S. S. Iyengar, J. Tomasi, 
 M. Cossi, N. Rega, J. M. Millam, M. Klene, J. E. Knox, J. B. Cross, 
 V. Bakken, C. Adamo, J. Jaramillo, R. Gomperts, R. E. Stratmann, 
 O. Yazyev, A. J. Austin, R. Cammi, C. Pomelli, J. W. Ochterski, 
 R. L. Martin, K. Morokuma, V. G. Zakrzewski, G. A. Voth, 
 P. Salvador, J. J. Dannenberg, S. Dapprich, A. D. Daniels, 
 O. Farkas, J. B. Foresman, J. V. Ortiz, J. Cioslowski, 
 and D. J. Fox, Gaussian, Inc., Wallingford CT, 2010.
 
 ******************************************
 Gaussian 09:  AM64L-G09RevC.01 23-Sep-2011
                17-May-2024 
 ******************************************
 %nprocshared=4
 Will use up to    4 processors via shared memory.
 ------------------------------------------------
 # mpw1pw91/6-31+G** nmr scrf=(pcm,solvent=water)
 ------------------------------------------------
 1/38=1/1;
 2/12=2,17=6,18=5,40=1/2;
 3/5=1,6=6,7=111,11=2,16=1,25=1,30=1,70=2201,72=1,74=-7/1,2,8,3;
 4//1;
 5/5=2,38=5,53=1/2;
 8/6=1,10=90,11=11/1;
 10/13=100,45=16/2;
 6/7=2,8=2,9=2,10=2,28=1/1;
 99/9=1/99;
 -------
 comment
 -------
 Charge =  0 Multiplicity = 1
 Symbolic Z-Matrix:
 6                    -2.475    -0.13448   0.56232 
 6                    -1.01102   0.08257   1.00609 
 7                    -0.19132  -0.96042   0.28403 
 6                    -1.11987  -1.76432  -0.54713 
 6                    -2.35485  -0.88385  -0.77407 
 6                     0.87502  -0.27489  -0.47699 
 6                     1.06636   1.04163   0.28321 
 6                    -0.37259   1.43669   0.66061 
 1                    -2.98999  -0.7614    1.29907 
 1                    -3.02659   0.80585   0.48144 
 1                    -0.91455  -0.06667   2.0873 
 1                    -1.40097  -2.67626  -0.00442 
 1                    -0.62455  -2.07521  -1.47212 
 1                    -3.24824  -1.46653  -1.02137 
 1                    -2.17123  -0.17705  -1.5906 
 1                     0.56825  -0.03328  -1.50702 
 1                     1.66193   0.87362   1.18754 
 1                    -0.40498   2.12799   1.51357 
 8                    -0.9988    2.04432  -0.4726 
 1                    -0.27145   2.50012  -0.94026 
 8                     1.69773   2.00136  -0.56485 
 1                     2.00691   2.73193  -0.00246 
 6                     2.12511  -1.15468  -0.53146 
 1                     1.95539  -1.99341  -1.224 
 1                     2.97859  -0.57898  -0.90549 
 8                     2.45659  -1.63915   0.7695 
 1                     1.57755  -1.83205   1.15881 
 
                          Input orientation:                          
 ---------------------------------------------------------------------
 Center     Atomic      Atomic             Coordinates (Angstroms)
 Number     Number       Type             X           Y           Z
 ---------------------------------------------------------------------
      1          6           0       -2.474999   -0.134482    0.562317
      2          6           0       -1.011022    0.082570    1.006086
      3          7           0       -0.191318   -0.960422    0.284029
      4          6           0       -1.119865   -1.764317   -0.547134
      5          6           0       -2.354850   -0.883849   -0.774073
      6          6           0        0.875022   -0.274887   -0.476987
      7          6           0        1.066360    1.041630    0.283212
      8          6           0       -0.372589    1.436694    0.660606
      9          1           0       -2.989988   -0.761403    1.299068
     10          1           0       -3.026588    0.805853    0.481441
     11          1           0       -0.914547   -0.066665    2.087301
     12          1           0       -1.400973   -2.676256   -0.004423
     13          1           0       -0.624548   -2.075208   -1.472123
     14          1           0       -3.248243   -1.466532   -1.021375
     15          1           0       -2.171232   -0.177049   -1.590602
     16          1           0        0.568251   -0.033284   -1.507020
     17          1           0        1.661927    0.873620    1.187539
     18          1           0       -0.404975    2.127995    1.513566
     19          8           0       -0.998797    2.044316   -0.472599
     20          1           0       -0.271448    2.500119   -0.940258
     21          8           0        1.697726    2.001362   -0.564849
     22          1           0        2.006909    2.731930   -0.002464
     23          6           0        2.125113   -1.154680   -0.531459
     24          1           0        1.955391   -1.993407   -1.224001
     25          1           0        2.978590   -0.578978   -0.905488
     26          8           0        2.456587   -1.639154    0.769500
     27          1           0        1.577549   -1.832054    1.158807
 ---------------------------------------------------------------------
                    Distance matrix (angstroms):
                    1          2          3          4          5
     1  C    0.000000
     2  C    1.545080   0.000000
     3  N    2.444344   1.510335   0.000000
     4  C    2.392411   2.415643   1.482997   0.000000
     5  C    1.536856   2.430803   2.409629   1.533595   0.000000
     6  C    3.510343   2.425787   1.478575   2.490561   3.300177
     7  C    3.741973   2.399554   2.364311   3.652724   4.065710
     8  C    2.626477   1.536426   2.433277   3.501932   3.372326
     9  H    1.095922   2.171275   2.983700   2.812767   2.171706
    10  H    1.093170   2.204744   3.346260   3.361448   2.209670
    11  H    2.182931   1.095721   2.138610   3.140768   3.306013
    12  H    2.816974   2.963834   2.119093   1.097811   2.171397
    13  H    3.365937   3.308608   2.124737   1.094348   2.213720
    14  H    2.209150   3.393446   3.362293   2.200812   1.094910
    15  H    2.174660   2.855920   2.836895   2.171087   1.095446
    16  H    3.681544   2.970392   2.155084   2.601460   3.131324
    17  H    4.303641   2.793446   2.759449   4.207870   4.803240
    18  H    3.210713   2.192850   3.331025   4.461798   4.255174
    19  O    2.827965   2.456645   3.202024   3.811286   3.240975
    20  H    3.748932   3.190575   3.671600   4.365750   3.977364
    21  O    4.821200   3.672454   3.614035   4.703134   4.979115
    22  H    5.350028   4.140554   4.306709   5.503600   5.717882
    23  C    4.837167   3.705425   2.463455   3.301785   4.494695
    24  H    5.125904   4.252361   2.819499   3.157187   4.473447
    25  H    5.665127   4.473116   3.407164   4.281446   5.343763
    26  O    5.160184   3.878739   2.776285   3.813161   5.109112
    27  H    4.434038   3.223323   2.157283   3.192313   4.483177
                    6          7          8          9         10
     6  C    0.000000
     7  C    1.532230   0.000000
     8  C    2.404196   1.539180   0.000000
     9  H    4.281282   4.553773   3.477074   0.000000
    10  H    4.160426   4.104523   2.733820   1.768091   0.000000
    11  H    3.133925   2.899491   2.142257   2.326248   2.792990
    12  H    3.342161   4.471369   4.291409   2.809042   3.873470
    13  H    2.545616   3.956646   4.116488   3.873098   4.229270
    14  H    4.326395   5.158355   4.418955   2.438926   2.733372
    15  H    3.244900   3.934255   3.302608   3.059742   2.447671
    16  H    1.101566   2.146738   2.782915   4.589701   4.192970
    17  H    2.170008   1.095780   2.175768   4.932145   4.741871
    18  H    3.372616   2.204266   1.098402   3.882901   3.112265
    19  O    2.981597   2.416920   1.430208   3.869846   2.560453
    20  H    3.038037   2.326757   1.924544   4.800267   3.533067
    21  O    2.421956   1.427906   2.471193   5.751671   4.984286
    22  H    3.247659   1.955341   2.789141   6.234287   5.411102
    23  C    1.529618   2.570686   3.791405   5.446995   5.604434
    24  H    2.162993   3.503358   4.553771   5.686869   5.963598
    25  H    2.168198   2.774167   4.212598   6.365318   6.316921
    26  O    2.432345   3.058727   4.180543   5.542208   6.010511
    27  H    2.365192   3.047301   3.838744   4.693438   5.349342
                   11         12         13         14         15
    11  H    0.000000
    12  H    3.379628   0.000000
    13  H    4.097297   1.765853   0.000000
    14  H    4.131541   2.431055   2.730831   0.000000
    15  H    3.888240   3.058643   2.451383   1.773905   0.000000
    16  H    3.888309   3.622284   2.365046   4.105567   2.744526
    17  H    2.886508   4.837742   4.582287   5.870722   4.849235
    18  H    2.324945   5.135867   5.160375   5.237435   4.250735
    19  O    3.319100   4.760749   4.255536   4.205617   2.749363
    20  H    4.020954   5.380193   4.619651   4.960061   3.346544
    21  O    4.258475   5.638805   4.778548   6.057831   4.557025
    22  H    4.553477   6.392350   5.673891   6.803079   5.333029
    23  C    4.157068   3.876370   3.048419   5.404648   4.531680
    24  H    4.786815   3.635771   2.593133   5.234163   4.523557
    25  H    4.937182   4.938731   3.942383   6.290837   5.210719
    26  O    3.946374   4.068821   3.835154   5.981816   5.396716
    27  H    3.192059   3.307170   3.439498   5.308019   4.934739
                   16         17         18         19         20
    16  H    0.000000
    17  H    3.046186   0.000000
    18  H    3.839562   2.439638   0.000000
    19  O    2.800373   3.347542   2.074724   0.000000
    20  H    2.728451   3.303174   2.485469   0.977496   0.000000
    21  O    2.510614   2.084214   2.959256   2.698442   2.065753
    22  H    3.461190   2.233481   2.912090   3.118992   2.474693
    23  C    2.152456   2.698795   4.621626   4.471672   4.389553
    24  H    2.417920   3.757857   5.481930   5.059154   5.023057
    25  H    2.543493   2.867822   4.962664   4.784211   4.477141
    26  O    3.365587   2.668384   4.788902   5.201004   5.243952
    27  H    3.370592   2.707142   4.442774   4.932067   5.156800
                   21         22         23         24         25
    21  O    0.000000
    22  H    0.972420   0.000000
    23  C    3.185024   3.924225   0.000000
    24  H    4.056976   4.880944   1.100856   0.000000
    25  H    2.900828   3.566753   1.095333   1.774541   0.000000
    26  O    3.950913   4.461448   1.427265   2.085842   2.049889
    27  H    4.204820   4.728938   1.901489   2.417969   2.791850
                   26         27
    26  O    0.000000
    27  H    0.980550   0.000000
 Stoichiometry    C8H15NO3
 Framework group  C1[X(C8H15NO3)]
 Deg. of freedom    75
 Full point group                 C1      NOp   1
 Largest Abelian subgroup         C1      NOp   1
 Largest concise Abelian subgroup C1      NOp   1
                         Standard orientation:                         
 ---------------------------------------------------------------------
 Center     Atomic      Atomic             Coordinates (Angstroms)
 Number     Number       Type             X           Y           Z
 ---------------------------------------------------------------------
      1          6           0       -2.474999   -0.134482    0.562317
      2          6           0       -1.011022    0.082570    1.006086
      3          7           0       -0.191318   -0.960422    0.284029
      4          6           0       -1.119865   -1.764317   -0.547134
      5          6           0       -2.354850   -0.883849   -0.774073
      6          6           0        0.875022   -0.274887   -0.476987
      7          6           0        1.066360    1.041630    0.283212
      8          6           0       -0.372589    1.436694    0.660606
      9          1           0       -2.989988   -0.761403    1.299068
     10          1           0       -3.026588    0.805853    0.481441
     11          1           0       -0.914547   -0.066665    2.087301
     12          1           0       -1.400972   -2.676256   -0.004423
     13          1           0       -0.624548   -2.075208   -1.472123
     14          1           0       -3.248243   -1.466533   -1.021375
     15          1           0       -2.171232   -0.177049   -1.590602
     16          1           0        0.568251   -0.033284   -1.507020
     17          1           0        1.661927    0.873620    1.187539
     18          1           0       -0.404975    2.127995    1.513566
     19          8           0       -0.998797    2.044316   -0.472599
     20          1           0       -0.271448    2.500119   -0.940258
     21          8           0        1.697726    2.001362   -0.564849
     22          1           0        2.006909    2.731930   -0.002464
     23          6           0        2.125113   -1.154680   -0.531459
     24          1           0        1.955391   -1.993407   -1.224001
     25          1           0        2.978590   -0.578977   -0.905488
     26          8           0        2.456587   -1.639153    0.769500
     27          1           0        1.577549   -1.832054    1.158807
 ---------------------------------------------------------------------
 Rotational constants (GHZ):      1.2295700      0.9259344      0.6355609
 Standard basis: 6-31+G(d,p) (6D, 7F)
 There are   303 symmetry adapted basis functions of A   symmetry.
 Integral buffers will be    131072 words long.
 Raffenetti 2 integral format.
 Two-electron integral symmetry is turned on.
   303 basis functions,   489 primitive gaussians,   303 cartesian basis functions
    47 alpha electrons       47 beta electrons
       nuclear repulsion energy       816.6214080447 Hartrees.
 NAtoms=   27 NActive=   27 NUniq=   27 SFac= 1.00D+00 NAtFMM=   60 NAOKFM=F Big=F
 ------------------------------------------------------------------------------
 Polarizable Continuum Model (PCM)
 =================================
 Model                : PCM.
 Atomic radii         : UFF (Universal Force Field).
 Polarization charges : Total charges.
 Charge compensation  : None.
 Solution method      : Matrix inversion.
 Cavity type          : Scaled VdW (van der Waals Surface) (Alpha=1.100).
 Cavity algorithm     : GePol (No added spheres)
                        Default sphere list used, NSphG=   27.
                        Lebedev-Laikov grids with approx.  5.0 points / Ang**2.
                        Smoothing algorithm: Karplus/York (Gamma=1.0000).
                        Polarization charges: spherical gaussians, with
                                              point-specific exponents (IZeta= 3).
                        Self-potential: point-specific (ISelfS= 7).
                        Self-field    : sphere-specific E.n sum rule (ISelfD= 2).
 Solvent              : Water, Eps=  78.355300 Eps(inf)=   1.777849
 ------------------------------------------------------------------------------
 One-electron integrals computed using PRISM.
 NBasis=   303 RedAO= T  NBF=   303
 NBsUse=   303 1.00D-06 NBFU=   303
 Harris functional with IExCor=  908 diagonalized for initial guess.
 ExpMin= 4.38D-02 ExpMax= 5.48D+03 ExpMxC= 8.25D+02 IAcc=2 IRadAn=         4 AccDes= 0.00D+00
 HarFok:  IExCor=  908 AccDes= 0.00D+00 IRadAn=         4 IDoV= 1
 ScaDFX=  1.000000  1.000000  1.000000  1.000000
 FoFCou: FMM=F IPFlag=           0 FMFlag=      100000 FMFlg1=           0
         NFxFlg=           0 DoJE=T BraDBF=F KetDBF=T FulRan=T
         Omega=  0.000000  0.000000  1.000000  0.000000  0.000000 ICntrl=     500 IOpCl=  0
         NMat0=    1 NMatS0=    1 NMatT0=    0 NMatD0=    1 NMtDS0=    0 NMtDT0=    0
         I1Cent=           4 NGrid=           0.
 Petite list used in FoFCou.
 Initial guess orbital symmetries:
       Occupied  (A) (A) (A) (A) (A) (A) (A) (A) (A) (A) (A) (A)
                 (A) (A) (A) (A) (A) (A) (A) (A) (A) (A) (A) (A)
                 (A) (A) (A) (A) (A) (A) (A) (A) (A) (A) (A) (A)
                 (A) (A) (A) (A) (A) (A) (A) (A) (A) (A) (A)
       Virtual   (A) (A) (A) (A) (A) (A) (A) (A) (A) (A) (A) (A)
                 (A) (A) (A) (A) (A) (A) (A) (A) (A) (A) (A) (A)
                 (A) (A) (A) (A) (A) (A) (A) (A) (A) (A) (A) (A)
                 (A) (A) (A) (A) (A) (A) (A) (A) (A) (A) (A) (A)
                 (A) (A) (A) (A) (A) (A) (A) (A) (A) (A) (A) (A)
                 (A) (A) (A) (A) (A) (A) (A) (A) (A) (A) (A) (A)
                 (A) (A) (A) (A) (A) (A) (A) (A) (A) (A) (A) (A)
                 (A) (A) (A) (A) (A) (A) (A) (A) (A) (A) (A) (A)
                 (A) (A) (A) (A) (A) (A) (A) (A) (A) (A) (A) (A)
                 (A) (A) (A) (A) (A) (A) (A) (A) (A) (A) (A) (A)
                 (A) (A) (A) (A) (A) (A) (A) (A) (A) (A) (A) (A)
                 (A) (A) (A) (A) (A) (A) (A) (A) (A) (A) (A) (A)
                 (A) (A) (A) (A) (A) (A) (A) (A) (A) (A) (A) (A)
                 (A) (A) (A) (A) (A) (A) (A) (A) (A) (A) (A) (A)
                 (A) (A) (A) (A) (A) (A) (A) (A) (A) (A) (A) (A)
                 (A) (A) (A) (A) (A) (A) (A) (A) (A) (A) (A) (A)
                 (A) (A) (A) (A) (A) (A) (A) (A) (A) (A) (A) (A)
                 (A) (A) (A) (A) (A) (A) (A) (A) (A) (A) (A) (A)
                 (A) (A) (A) (A) (A) (A) (A) (A) (A) (A) (A) (A)
                 (A) (A) (A) (A) (A) (A) (A) (A) (A) (A) (A) (A)
                 (A) (A) (A) (A) (A) (A) (A) (A) (A) (A) (A) (A)
                 (A) (A) (A) (A)
 The electronic state of the initial guess is 1-A.
 Requested convergence on RMS density matrix=1.00D-08 within 128 cycles.
 Requested convergence on MAX density matrix=1.00D-06.
 Requested convergence on             energy=1.00D-06.
 No special actions if energy rises.
 Error on total polarization charges =  0.01402
 SCF Done:  E(RmPW1PW91) =  -594.203215217     A.U. after   13 cycles
             Convg  =    0.3886D-08             -V/T =  2.0094
 Range of M.O.s used for correlation:     1   303
 NBasis=   303 NAE=    47 NBE=    47 NFC=     0 NFV=     0
 NROrb=    303 NOA=    47 NOB=    47 NVA=   256 NVB=   256

 **** Warning!!: The largest alpha MO coefficient is  0.84215294D+02

 NEqPCM:  Using equilibrium solvation (IEInf=0, Eps=  78.3553, EpsInf=   1.7778)
          Differentiating once with respect to magnetic field using GIAOs.
          Electric field/nuclear overlap derivatives assumed to be zero.
 FoFCou: FMM=F IPFlag=           0 FMFlag=    10101102 FMFlg1=           0
         NFxFlg=    40000000 DoJE=F BraDBF=F KetDBF=T FulRan=T
         Omega=  0.000000  0.000000  1.000000  0.000000  0.000000 ICntrl=    6100 IOpCl=  0
         NMat0=    1 NMatS0=    1 NMatT0=    0 NMatD0=    1 NMtDS0=    0 NMtDT0=    0
         I1Cent=           7 NGrid=        1835.
 Symmetry not used in FoFCou.
          There are     3 degrees of freedom in the 1st order CPHF.  IDoFFX=0.
      3 vectors produced by pass  0 Test12= 4.01D-13 3.33D-08 XBig12= 3.14D+01 1.18D+00.
 AX will form     3 AO Fock derivatives at one time.
      3 vectors produced by pass  1 Test12= 4.01D-13 3.33D-08 XBig12= 7.92D-02 5.74D-02.
      3 vectors produced by pass  2 Test12= 4.01D-13 3.33D-08 XBig12= 1.87D-04 2.94D-03.
      3 vectors produced by pass  3 Test12= 4.01D-13 3.33D-08 XBig12= 8.40D-07 1.92D-04.
      3 vectors produced by pass  4 Test12= 4.01D-13 3.33D-08 XBig12= 2.75D-09 7.16D-06.
      3 vectors produced by pass  5 Test12= 4.01D-13 3.33D-08 XBig12= 7.61D-12 4.87D-07.
 Inverted reduced A of dimension    18 with in-core refinement.
 Calculating GIAO nuclear magnetic shielding tensors.
 SCF GIAO Magnetic shielding tensor (ppm):
      1  C    Isotropic =   167.1279   Anisotropy =    23.4311
   XX=   177.4572   YX=    -2.7810   ZX=     5.3756
   XY=    -0.3822   YY=   154.5978   ZY=    16.7658
   XZ=    -0.0999   YZ=    21.4193   ZZ=   169.3287
   Eigenvalues:   141.2829   177.3523   182.7486
      2  C    Isotropic =   128.1102   Anisotropy =    54.3851
   XX=   135.4652   YX=   -15.8277   ZX=    -4.7466
   XY=   -12.1402   YY=   143.5326   ZY=    28.0909
   XZ=   -12.6501   YZ=    19.8364   ZZ=   105.3327
   Eigenvalues:    93.7050   126.2586   164.3669
      3  N    Isotropic =   200.9522   Anisotropy =    76.2614
   XX=   224.4473   YX=    -2.9849   ZX=   -27.9767
   XY=    14.8137   YY=   213.6914   ZY=    59.6727
   XZ=   -27.3060   YZ=    45.6116   ZZ=   164.7180
   Eigenvalues:   124.1000   226.9635   251.7932
      4  C    Isotropic =   142.2192   Anisotropy =    54.7351
   XX=   150.8272   YX=    18.3224   ZX=    17.4899
   XY=     5.4172   YY=   141.6796   ZY=    24.9577
   XZ=    27.6528   YZ=    13.8085   ZZ=   134.1508
   Eigenvalues:   114.1169   133.8315   178.7093
      5  C    Isotropic =   168.3798   Anisotropy =    22.5245
   XX=   173.8432   YX=    -2.7159   ZX=     8.4167
   XY=    -7.5532   YY=   167.3799   ZY=    13.3990
   XZ=    12.7655   YZ=    18.2419   ZZ=   163.9163
   Eigenvalues:   145.2163   176.5270   183.3961
      6  C    Isotropic =   125.6825   Anisotropy =    49.9975
   XX=   132.3331   YX=    22.5328   ZX=    -5.6871
   XY=    24.6720   YY=   129.6889   ZY=   -10.4748
   XZ=   -25.3075   YZ=     3.5120   ZZ=   115.0256
   Eigenvalues:   101.0771   116.9563   159.0142
      7  C    Isotropic =   121.5175   Anisotropy =    52.9209
   XX=   128.3391   YX=    17.0802   ZX=   -28.7791
   XY=    12.3889   YY=   138.4327   ZY=   -12.2918
   XZ=   -17.3574   YZ=    -5.4332   ZZ=    97.7808
   Eigenvalues:    85.3759   122.3785   156.7981
      8  C    Isotropic =   120.8045   Anisotropy =    21.0990
   XX=   119.1609   YX=    -0.7582   ZX=     5.0099
   XY=    -2.8356   YY=   122.9484   ZY=   -11.6857
   XZ=    10.3868   YZ=    -9.0446   ZZ=   120.3042
   Eigenvalues:   108.7402   118.8029   134.8705
      9  H    Isotropic =    29.8271   Anisotropy =    12.4219
   XX=    31.9578   YX=     3.2730   ZX=    -4.7660
   XY=     3.9742   YY=    25.8839   ZY=    -2.3301
   XZ=    -5.0154   YZ=    -2.1110   ZZ=    31.6395
   Eigenvalues:    24.1922    27.1807    38.1083
     10  H    Isotropic =    29.3468   Anisotropy =     9.2645
   XX=    32.0782   YX=    -3.4663   ZX=    -0.9680
   XY=    -3.7576   YY=    31.2629   ZY=     0.6786
   XZ=    -1.4758   YZ=     1.1940   ZZ=    24.6994
   Eigenvalues:    24.4780    28.0393    35.5232
     11  H    Isotropic =    28.0259   Anisotropy =     8.8383
   XX=    25.9530   YX=    -0.6293   ZX=    -1.0154
   XY=    -0.2348   YY=    24.3708   ZY=     0.5731
   XZ=    -1.2582   YZ=    -0.4256   ZZ=    33.7540
   Eigenvalues:    24.2555    25.9042    33.9182
     12  H    Isotropic =    28.8751   Anisotropy =    12.1085
   XX=    27.3054   YX=     3.7986   ZX=     0.8922
   XY=     2.8408   YY=    35.6535   ZY=    -1.8751
   XZ=     1.7843   YZ=    -1.8583   ZZ=    23.6664
   Eigenvalues:    22.5597    27.1182    36.9474
     13  H    Isotropic =    28.7756   Anisotropy =     8.7681
   XX=    28.5560   YX=    -0.7785   ZX=     0.0939
   XY=    -0.4731   YY=    28.9232   ZY=     6.0810
   XZ=    -0.7331   YZ=     5.2422   ZZ=    28.8477
   Eigenvalues:    23.2151    28.4908    34.6210
     14  H    Isotropic =    30.0426   Anisotropy =    12.8220
   XX=    34.2812   YX=     4.1280   ZX=     3.4751
   XY=     4.6316   YY=    28.4177   ZY=     2.9841
   XZ=     4.0029   YZ=     2.8771   ZZ=    27.4288
   Eigenvalues:    24.9511    26.5861    38.5906
     15  H    Isotropic =    29.7217   Anisotropy =     7.9428
   XX=    27.1185   YX=     0.0033   ZX=     1.0650
   XY=    -0.2636   YY=    28.7137   ZY=    -3.1490
   XZ=     2.0913   YZ=    -2.6724   ZZ=    33.3329
   Eigenvalues:    26.4683    27.6799    35.0169
     16  H    Isotropic =    28.8007   Anisotropy =     2.9696
   XX=    28.6813   YX=     0.0927   ZX=    -1.4331
   XY=    -0.0647   YY=    27.7907   ZY=    -0.9186
   XZ=    -0.7116   YZ=    -0.9690   ZZ=    29.9301
   Eigenvalues:    27.3045    28.3172    30.7804
     17  H    Isotropic =    27.2197   Anisotropy =     3.5241
   XX=    27.1274   YX=     1.4835   ZX=     1.6420
   XY=     0.0250   YY=    27.6319   ZY=    -0.8737
   XZ=     3.4619   YZ=    -0.5831   ZZ=    26.8997
   Eigenvalues:    24.1443    27.9457    29.5691
     18  H    Isotropic =    27.7266   Anisotropy =     8.8019
   XX=    23.9147   YX=    -0.4339   ZX=     1.9342
   XY=    -0.3433   YY=    27.9513   ZY=     2.8471
   XZ=     0.7579   YZ=     4.1258   ZZ=    31.3139
   Eigenvalues:    23.3719    26.2134    33.5946
     19  O    Isotropic =   313.2861   Anisotropy =    49.6367
   XX=   311.6411   YX=    19.3035   ZX=   -22.3487
   XY=    32.1403   YY=   307.3157   ZY=    14.2526
   XZ=   -14.4097   YZ=   -22.5440   ZZ=   320.9015
   Eigenvalues:   281.1360   312.3451   346.3772
     20  H    Isotropic =    28.6775   Anisotropy =    18.5954
   XX=    34.1370   YX=     4.9086   ZX=    -3.9032
   XY=     4.1775   YY=    27.0170   ZY=    -9.0779
   XZ=    -5.6529   YZ=    -8.5825   ZZ=    24.8787
   Eigenvalues:    17.0316    27.9266    41.0745
     21  O    Isotropic =   309.8479   Anisotropy =    94.9846
   XX=   284.2962   YX=    17.4360   ZX=     8.8062
   XY=    38.2918   YY=   352.6531   ZY=    15.4377
   XZ=    17.8958   YZ=    37.0422   ZZ=   292.5944
   Eigenvalues:   272.9662   283.4065   373.1710
     22  H    Isotropic =    30.0169   Anisotropy =    22.7251
   XX=    26.0113   YX=     9.2760   ZX=     2.2671
   XY=     9.5102   YY=    37.3492   ZY=     6.7808
   XZ=     2.9636   YZ=     5.9116   ZZ=    26.6902
   Eigenvalues:    20.5343    24.3495    45.1670
     23  C    Isotropic =   135.5679   Anisotropy =    52.3050
   XX=   120.2643   YX=    -8.3086   ZX=    10.9302
   XY=    -8.8529   YY=   126.3924   ZY=   -16.2338
   XZ=    14.9545   YZ=   -13.9963   ZZ=   160.0470
   Eigenvalues:   114.0745   122.1913   170.4378
     24  H    Isotropic =    27.9478   Anisotropy =     8.0388
   XX=    25.9236   YX=    -2.1121   ZX=     0.7253
   XY=    -2.3353   YY=    26.8940   ZY=     2.8042
   XZ=     0.1625   YZ=     4.6599   ZZ=    31.0259
   Eigenvalues:    23.0613    27.4751    33.3070
     25  H    Isotropic =    27.9742   Anisotropy =     6.6402
   XX=    29.8253   YX=    -0.7907   ZX=    -2.5090
   XY=     1.1226   YY=    26.6930   ZY=    -2.1322
   XZ=    -4.0236   YZ=    -1.8602   ZZ=    27.4041
   Eigenvalues:    24.1237    27.3979    32.4010
     26  O    Isotropic =   329.4127   Anisotropy =    49.0854
   XX=   351.3208   YX=     6.2029   ZX=   -21.4278
   XY=     1.6554   YY=   308.7566   ZY=    18.3651
   XZ=   -16.8658   YZ=    -0.3737   ZZ=   328.1606
   Eigenvalues:   302.3768   323.7249   362.1363
     27  H    Isotropic =    28.2786   Anisotropy =    17.3593
   XX=    38.4483   YX=     0.3602   ZX=    -3.3675
   XY=    -0.5188   YY=    21.5965   ZY=    -6.9806
   XZ=    -5.1770   YZ=    -5.7456   ZZ=    24.7912
   Eigenvalues:    16.2941    28.6903    39.8515
 End of Minotr Frequency-dependent properties file   721 does not exist.
 End of Minotr Frequency-dependent properties file   722 does not exist.

 **********************************************************************

            Population analysis using the SCF density.

 **********************************************************************

 Orbital symmetries:
       Occupied  (A) (A) (A) (A) (A) (A) (A) (A) (A) (A) (A) (A)
                 (A) (A) (A) (A) (A) (A) (A) (A) (A) (A) (A) (A)
                 (A) (A) (A) (A) (A) (A) (A) (A) (A) (A) (A) (A)
                 (A) (A) (A) (A) (A) (A) (A) (A) (A) (A) (A)
       Virtual   (A) (A) (A) (A) (A) (A) (A) (A) (A) (A) (A) (A)
                 (A) (A) (A) (A) (A) (A) (A) (A) (A) (A) (A) (A)
                 (A) (A) (A) (A) (A) (A) (A) (A) (A) (A) (A) (A)
                 (A) (A) (A) (A) (A) (A) (A) (A) (A) (A) (A) (A)
                 (A) (A) (A) (A) (A) (A) (A) (A) (A) (A) (A) (A)
                 (A) (A) (A) (A) (A) (A) (A) (A) (A) (A) (A) (A)
                 (A) (A) (A) (A) (A) (A) (A) (A) (A) (A) (A) (A)
                 (A) (A) (A) (A) (A) (A) (A) (A) (A) (A) (A) (A)
                 (A) (A) (A) (A) (A) (A) (A) (A) (A) (A) (A) (A)
                 (A) (A) (A) (A) (A) (A) (A) (A) (A) (A) (A) (A)
                 (A) (A) (A) (A) (A) (A) (A) (A) (A) (A) (A) (A)
                 (A) (A) (A) (A) (A) (A) (A) (A) (A) (A) (A) (A)
                 (A) (A) (A) (A) (A) (A) (A) (A) (A) (A) (A) (A)
                 (A) (A) (A) (A) (A) (A) (A) (A) (A) (A) (A) (A)
                 (A) (A) (A) (A) (A) (A) (A) (A) (A) (A) (A) (A)
                 (A) (A) (A) (A) (A) (A) (A) (A) (A) (A) (A) (A)
                 (A) (A) (A) (A) (A) (A) (A) (A) (A) (A) (A) (A)
                 (A) (A) (A) (A) (A) (A) (A) (A) (A) (A) (A) (A)
                 (A) (A) (A) (A) (A) (A) (A) (A) (A) (A) (A) (A)
                 (A) (A) (A) (A) (A) (A) (A) (A) (A) (A) (A) (A)
                 (A) (A) (A) (A) (A) (A) (A) (A) (A) (A) (A) (A)
                 (A) (A) (A) (A)
 The electronic state is 1-A.
 Alpha  occ. eigenvalues --  -19.27254 -19.24982 -19.24581 -14.41868 -10.30849
 Alpha  occ. eigenvalues --  -10.30113 -10.29147 -10.28208 -10.27983 -10.26962
 Alpha  occ. eigenvalues --  -10.24540 -10.24175  -1.08403  -1.05113  -1.04823
 Alpha  occ. eigenvalues --   -0.96407  -0.82620  -0.79280  -0.75214  -0.71377
 Alpha  occ. eigenvalues --   -0.66929  -0.61793  -0.59920  -0.57464  -0.55802
 Alpha  occ. eigenvalues --   -0.52844  -0.52267  -0.49724  -0.49507  -0.48494
 Alpha  occ. eigenvalues --   -0.45349  -0.45077  -0.43508  -0.41961  -0.40558
 Alpha  occ. eigenvalues --   -0.39618  -0.38135  -0.37292  -0.36228  -0.35506
 Alpha  occ. eigenvalues --   -0.35085  -0.34028  -0.33870  -0.30790  -0.29627
 Alpha  occ. eigenvalues --   -0.28838  -0.24046
 Alpha virt. eigenvalues --    0.00182   0.01595   0.01737   0.02428   0.03861
 Alpha virt. eigenvalues --    0.04221   0.04533   0.04964   0.05584   0.07349
 Alpha virt. eigenvalues --    0.07472   0.08066   0.08694   0.09145   0.09579
 Alpha virt. eigenvalues --    0.10332   0.11168   0.11882   0.12450   0.12625
 Alpha virt. eigenvalues --    0.13489   0.14227   0.14740   0.14864   0.15358
 Alpha virt. eigenvalues --    0.16044   0.16494   0.17060   0.17949   0.18380
 Alpha virt. eigenvalues --    0.19088   0.19395   0.19777   0.19892   0.20895
 Alpha virt. eigenvalues --    0.21389   0.21709   0.22021   0.22596   0.23098
 Alpha virt. eigenvalues --    0.24014   0.24352   0.24884   0.25203   0.25959
 Alpha virt. eigenvalues --    0.26242   0.27423   0.27871   0.27902   0.28901
 Alpha virt. eigenvalues --    0.29033   0.29900   0.30111   0.31782   0.32294
 Alpha virt. eigenvalues --    0.32633   0.32950   0.33699   0.34104   0.34993
 Alpha virt. eigenvalues --    0.35671   0.36181   0.37042   0.37972   0.38769
 Alpha virt. eigenvalues --    0.38846   0.39925   0.41161   0.41754   0.42529
 Alpha virt. eigenvalues --    0.42665   0.44031   0.44801   0.46513   0.47426
 Alpha virt. eigenvalues --    0.49532   0.65337   0.65942   0.67761   0.68949
 Alpha virt. eigenvalues --    0.69608   0.70634   0.72998   0.74498   0.75688
 Alpha virt. eigenvalues --    0.76437   0.78337   0.79523   0.80654   0.81983
 Alpha virt. eigenvalues --    0.82670   0.83954   0.84440   0.86100   0.87705
 Alpha virt. eigenvalues --    0.87906   0.90171   0.93059   0.93782   0.98031
 Alpha virt. eigenvalues --    0.99220   1.00635   1.02625   1.03591   1.04408
 Alpha virt. eigenvalues --    1.04586   1.08338   1.09156   1.10078   1.11031
 Alpha virt. eigenvalues --    1.11965   1.12521   1.14572   1.15033   1.16686
 Alpha virt. eigenvalues --    1.17393   1.18692   1.20060   1.23693   1.25432
 Alpha virt. eigenvalues --    1.25817   1.29752   1.30655   1.31548   1.33824
 Alpha virt. eigenvalues --    1.34865   1.36217   1.36750   1.37563   1.40918
 Alpha virt. eigenvalues --    1.42236   1.45201   1.48463   1.49153   1.51965
 Alpha virt. eigenvalues --    1.54793   1.56920   1.58827   1.59741   1.61086
 Alpha virt. eigenvalues --    1.63742   1.64674   1.66191   1.70087   1.72521
 Alpha virt. eigenvalues --    1.73246   1.73718   1.74996   1.78643   1.81893
 Alpha virt. eigenvalues --    1.82568   1.83693   1.84655   1.86158   1.87795
 Alpha virt. eigenvalues --    1.89363   1.90939   1.91834   1.93694   1.95272
 Alpha virt. eigenvalues --    1.96620   2.00895   2.03164   2.04461   2.05249
 Alpha virt. eigenvalues --    2.05649   2.07555   2.07814   2.08461   2.13465
 Alpha virt. eigenvalues --    2.14756   2.16438   2.16868   2.17487   2.19046
 Alpha virt. eigenvalues --    2.20731   2.22429   2.23280   2.25388   2.28077
 Alpha virt. eigenvalues --    2.32566   2.34789   2.36091   2.36609   2.39588
 Alpha virt. eigenvalues --    2.42383   2.43304   2.46543   2.47901   2.49330
 Alpha virt. eigenvalues --    2.49727   2.50622   2.53297   2.54831   2.56131
 Alpha virt. eigenvalues --    2.56754   2.59613   2.60119   2.60787   2.63711
 Alpha virt. eigenvalues --    2.65358   2.66518   2.67346   2.68202   2.70514
 Alpha virt. eigenvalues --    2.70999   2.73148   2.74067   2.75352   2.76246
 Alpha virt. eigenvalues --    2.78805   2.81310   2.82339   2.84300   2.86219
 Alpha virt. eigenvalues --    2.87877   2.88669   2.91396   2.93705   2.95797
 Alpha virt. eigenvalues --    2.98756   2.99619   3.01222   3.02513   3.04246
 Alpha virt. eigenvalues --    3.06813   3.09294   3.10810   3.16361   3.33248
 Alpha virt. eigenvalues --    3.34703   3.37015   3.39252   3.43574   3.44692
 Alpha virt. eigenvalues --    3.47409   3.49707   3.52013   3.53928   3.55840
 Alpha virt. eigenvalues --    3.57305   3.58143   3.61429   3.64134   4.30528
 Alpha virt. eigenvalues --    4.32513   4.39607   4.48946   4.50367   4.56261
 Alpha virt. eigenvalues --    4.61460   4.73943   4.80212   4.81710   4.90100
 Alpha virt. eigenvalues --    5.02838
          Condensed to atoms (all electrons):
              1          2          3          4          5          6
     1  C    5.946452  -0.639241   0.034359   0.180881   0.001120   0.028183
     2  C   -0.639241   8.974689  -0.152506  -0.494731   0.279222  -1.086155
     3  N    0.034359  -0.152506   7.642228   0.228611  -0.151417  -0.578838
     4  C    0.180881  -0.494731   0.228611   6.057309  -0.083913  -0.429734
     5  C    0.001120   0.279222  -0.151417  -0.083913   5.625527   0.159960
     6  C    0.028183  -1.086155  -0.578838  -0.429734   0.159960  10.428810
     7  C   -0.081744   0.384079  -0.094618  -0.279256  -0.034329  -0.946734
     8  C    0.026126  -0.959576  -0.178565   0.071136   0.039995   0.867896
     9  H    0.410857  -0.065457   0.011694  -0.002855  -0.040376   0.008471
    10  H    0.420009  -0.131354   0.015040   0.028846  -0.031544   0.008738
    11  H    0.019316   0.192325  -0.019080  -0.004527   0.013104   0.044656
    12  H   -0.000019  -0.017727  -0.029374   0.371741  -0.027743   0.007613
    13  H    0.022188   0.023634  -0.064898   0.360816  -0.016259   0.039313
    14  H   -0.027370   0.020034   0.011509  -0.037602   0.357441   0.005825
    15  H   -0.063299  -0.002308   0.011840  -0.078318   0.451345   0.012510
    16  H    0.014246   0.040292  -0.012105   0.078303  -0.020416   0.132708
    17  H    0.015180  -0.023106   0.066418   0.020988  -0.004412  -0.167446
    18  H    0.031862  -0.127180   0.025575   0.006924  -0.015691   0.020737
    19  O    0.096354  -0.420073   0.060130   0.030838  -0.062550   0.039373
    20  H    0.001611   0.058865   0.002222   0.007037  -0.005757  -0.027796
    21  O   -0.004692   0.048981   0.028204   0.009204   0.003162  -0.150124
    22  H    0.000690   0.008035  -0.002907  -0.000317  -0.000540   0.029406
    23  C    0.089666  -0.113513   0.322996   0.195666  -0.170905  -2.067548
    24  H    0.007024  -0.016880  -0.013193   0.025230  -0.008343  -0.046417
    25  H   -0.001018   0.018764   0.017501  -0.000882   0.000934  -0.213005
    26  O    0.010137  -0.012253   0.048493   0.004874  -0.006631  -0.219053
    27  H   -0.000419   0.030726   0.061774   0.013172  -0.000946  -0.113677
              7          8          9         10         11         12
     1  C   -0.081744   0.026126   0.410857   0.420009   0.019316  -0.000019
     2  C    0.384079  -0.959576  -0.065457  -0.131354   0.192325  -0.017727
     3  N   -0.094618  -0.178565   0.011694   0.015040  -0.019080  -0.029374
     4  C   -0.279256   0.071136  -0.002855   0.028846  -0.004527   0.371741
     5  C   -0.034329   0.039995  -0.040376  -0.031544   0.013104  -0.027743
     6  C   -0.946734   0.867896   0.008471   0.008738   0.044656   0.007613
     7  C    7.265976  -0.661423  -0.002227  -0.011850  -0.036258   0.008389
     8  C   -0.661423   6.442906   0.009364   0.040065   0.061598  -0.003330
     9  H   -0.002227   0.009364   0.527553  -0.025217  -0.007741   0.001379
    10  H   -0.011850   0.040065  -0.025217   0.507998   0.002654  -0.000037
    11  H   -0.036258   0.061598  -0.007741   0.002654   0.557674   0.000767
    12  H    0.008389  -0.003330   0.001379  -0.000037   0.000767   0.545394
    13  H    0.020302  -0.014221  -0.000108  -0.000139  -0.000175  -0.029928
    14  H    0.004185   0.002139  -0.005096   0.000705  -0.000055  -0.003382
    15  H    0.004303   0.000279   0.004101  -0.005330  -0.000119   0.003935
    16  H   -0.012656  -0.033358  -0.000001  -0.000038  -0.000504  -0.000241
    17  H    0.316945   0.000024   0.000003  -0.000006   0.000374   0.000011
    18  H    0.033033   0.328279   0.000005   0.000346  -0.001519   0.000006
    19  O   -0.078372   0.329173  -0.000213   0.000214   0.009333   0.000155
    20  H   -0.067286  -0.003334   0.000001  -0.000015  -0.000245   0.000000
    21  O    0.147420  -0.055434   0.000025  -0.000004  -0.000392   0.000024
    22  H    0.030970  -0.052458   0.000000   0.000000  -0.000006   0.000000
    23  C    0.254117  -0.256123   0.000203   0.000251  -0.000121   0.005185
    24  H    0.008470  -0.006656   0.000000   0.000000   0.000007  -0.000072
    25  H    0.011793  -0.012259   0.000000   0.000000  -0.000004   0.000003
    26  O    0.040784  -0.027351   0.000030   0.000003   0.001286   0.001353
    27  H   -0.026303  -0.011095   0.000001  -0.000002  -0.000853  -0.000277
             13         14         15         16         17         18
     1  C    0.022188  -0.027370  -0.063299   0.014246   0.015180   0.031862
     2  C    0.023634   0.020034  -0.002308   0.040292  -0.023106  -0.127180
     3  N   -0.064898   0.011509   0.011840  -0.012105   0.066418   0.025575
     4  C    0.360816  -0.037602  -0.078318   0.078303   0.020988   0.006924
     5  C   -0.016259   0.357441   0.451345  -0.020416  -0.004412  -0.015691
     6  C    0.039313   0.005825   0.012510   0.132708  -0.167446   0.020737
     7  C    0.020302   0.004185   0.004303  -0.012656   0.316945   0.033033
     8  C   -0.014221   0.002139   0.000279  -0.033358   0.000024   0.328279
     9  H   -0.000108  -0.005096   0.004101  -0.000001   0.000003   0.000005
    10  H   -0.000139   0.000705  -0.005330  -0.000038  -0.000006   0.000346
    11  H   -0.000175  -0.000055  -0.000119  -0.000504   0.000374  -0.001519
    12  H   -0.029928  -0.003382   0.003935  -0.000241   0.000011   0.000006
    13  H    0.529784   0.001019  -0.005628   0.001179  -0.000020   0.000005
    14  H    0.001019   0.525085  -0.024509  -0.000146   0.000000   0.000004
    15  H   -0.005628  -0.024509   0.509871   0.000307   0.000002   0.000022
    16  H    0.001179  -0.000146   0.000307   0.570040   0.004649  -0.000162
    17  H   -0.000020   0.000000   0.000002   0.004649   0.545847  -0.003140
    18  H    0.000005   0.000004   0.000022  -0.000162  -0.003140   0.575735
    19  O    0.000594   0.000514  -0.001713   0.003669   0.006969  -0.043816
    20  H   -0.000007   0.000000   0.000070   0.001322   0.001111  -0.000174
    21  O   -0.000159  -0.000016  -0.000015   0.008543  -0.019842  -0.006986
    22  H    0.000000   0.000000   0.000000   0.000090  -0.008082   0.001808
    23  C   -0.034157   0.000352   0.000157   0.041517   0.047711   0.014444
    24  H    0.001478   0.000001   0.000002  -0.001819   0.000182   0.000004
    25  H   -0.000034   0.000000  -0.000001   0.001559   0.000381  -0.000005
    26  O   -0.000548   0.000007   0.000050   0.008523   0.011632   0.000257
    27  H    0.000121  -0.000003   0.000000   0.000961   0.000057  -0.000025
             19         20         21         22         23         24
     1  C    0.096354   0.001611  -0.004692   0.000690   0.089666   0.007024
     2  C   -0.420073   0.058865   0.048981   0.008035  -0.113513  -0.016880
     3  N    0.060130   0.002222   0.028204  -0.002907   0.322996  -0.013193
     4  C    0.030838   0.007037   0.009204  -0.000317   0.195666   0.025230
     5  C   -0.062550  -0.005757   0.003162  -0.000540  -0.170905  -0.008343
     6  C    0.039373  -0.027796  -0.150124   0.029406  -2.067548  -0.046417
     7  C   -0.078372  -0.067286   0.147420   0.030970   0.254117   0.008470
     8  C    0.329173  -0.003334  -0.055434  -0.052458  -0.256123  -0.006656
     9  H   -0.000213   0.000001   0.000025   0.000000   0.000203   0.000000
    10  H    0.000214  -0.000015  -0.000004   0.000000   0.000251   0.000000
    11  H    0.009333  -0.000245  -0.000392  -0.000006  -0.000121   0.000007
    12  H    0.000155   0.000000   0.000024   0.000000   0.005185  -0.000072
    13  H    0.000594  -0.000007  -0.000159   0.000000  -0.034157   0.001478
    14  H    0.000514   0.000000  -0.000016   0.000000   0.000352   0.000001
    15  H   -0.001713   0.000070  -0.000015   0.000000   0.000157   0.000002
    16  H    0.003669   0.001322   0.008543   0.000090   0.041517  -0.001819
    17  H    0.006969   0.001111  -0.019842  -0.008082   0.047711   0.000182
    18  H   -0.043816  -0.000174  -0.006986   0.001808   0.014444   0.000004
    19  O    8.317934   0.238805  -0.025930   0.002511   0.063244   0.000276
    20  H    0.238805   0.358540   0.040352  -0.002666   0.006052  -0.000002
    21  O   -0.025930   0.040352   8.305376   0.243433   0.024370  -0.000711
    22  H    0.002511  -0.002666   0.243433   0.354018  -0.007911   0.000009
    23  C    0.063244   0.006052   0.024370  -0.007911   6.688604   0.408992
    24  H    0.000276  -0.000002  -0.000711   0.000009   0.408992   0.589191
    25  H   -0.000180   0.000008   0.008204  -0.000205   0.550002  -0.040142
    26  O    0.001086   0.000053   0.000680   0.000311   0.267907  -0.052849
    27  H   -0.000070   0.000001   0.000470  -0.000001   0.056549  -0.003033
             25         26         27
     1  C   -0.001018   0.010137  -0.000419
     2  C    0.018764  -0.012253   0.030726
     3  N    0.017501   0.048493   0.061774
     4  C   -0.000882   0.004874   0.013172
     5  C    0.000934  -0.006631  -0.000946
     6  C   -0.213005  -0.219053  -0.113677
     7  C    0.011793   0.040784  -0.026303
     8  C   -0.012259  -0.027351  -0.011095
     9  H    0.000000   0.000030   0.000001
    10  H    0.000000   0.000003  -0.000002
    11  H   -0.000004   0.001286  -0.000853
    12  H    0.000003   0.001353  -0.000277
    13  H   -0.000034  -0.000548   0.000121
    14  H    0.000000   0.000007  -0.000003
    15  H   -0.000001   0.000050   0.000000
    16  H    0.001559   0.008523   0.000961
    17  H    0.000381   0.011632   0.000057
    18  H   -0.000005   0.000257  -0.000025
    19  O   -0.000180   0.001086  -0.000070
    20  H    0.000008   0.000053   0.000001
    21  O    0.008204   0.000680   0.000470
    22  H   -0.000205   0.000311  -0.000001
    23  C    0.550002   0.267907   0.056549
    24  H   -0.040142  -0.052849  -0.003033
    25  H    0.539939  -0.052618   0.006221
    26  O   -0.052618   8.295610   0.242085
    27  H    0.006221   0.242085   0.353503
 Mulliken atomic charges:
              1
     1  C   -0.538459
     2  C    0.182416
     3  N   -0.291093
     4  C   -0.279441
     5  C   -0.250038
     6  C    0.212328
     7  C   -0.197709
     8  C    0.056201
     9  H    0.175604
    10  H    0.180665
    11  H    0.168504
    12  H    0.166176
    13  H    0.165844
    14  H    0.169358
    15  H    0.182447
    16  H    0.173539
    17  H    0.187569
    18  H    0.159649
    19  O   -0.568252
    20  H    0.391231
    21  O   -0.604143
    22  H    0.403814
    23  C   -0.387708
    24  H    0.149252
    25  H    0.165044
    26  O   -0.563860
    27  H    0.391062
 Sum of Mulliken atomic charges =   0.00000
 Mulliken charges with hydrogens summed into heavy atoms:
              1
     1  C   -0.182190
     2  C    0.350920
     3  N   -0.291093
     4  C    0.052579
     5  C    0.101767
     6  C    0.385868
     7  C   -0.010140
     8  C    0.215850
    19  O   -0.177021
    21  O   -0.200329
    23  C   -0.073413
    26  O   -0.172799
 Sum of Mulliken charges with hydrogens summed into heavy atoms =   0.00000
 Electronic spatial extent (au):  <R**2>=           1948.4341
 Charge=              0.0000 electrons
 Dipole moment (field-independent basis, Debye):
    X=             -1.3954    Y=              1.6378    Z=              0.5617  Tot=              2.2238
 Quadrupole moment (field-independent basis, Debye-Ang):
   XX=            -81.4446   YY=            -70.0014   ZZ=            -71.3371
   XY=             13.1177   XZ=             -3.1955   YZ=              6.9453
 Traceless Quadrupole moment (field-independent basis, Debye-Ang):
   XX=             -7.1836   YY=              4.2596   ZZ=              2.9239
   XY=             13.1177   XZ=             -3.1955   YZ=              6.9453
 Octapole moment (field-independent basis, Debye-Ang**2):
  XXX=            -16.5752  YYY=             33.5310  ZZZ=              1.9528  XYY=             11.0395
  XXY=             18.5955  XXZ=             -5.5782  XZZ=             -0.2405  YZZ=              2.8179
  YYZ=              1.8229  XYZ=             11.2883
 Hexadecapole moment (field-independent basis, Debye-Ang**3):
 XXXX=          -1364.8435 YYYY=           -823.3612 ZZZZ=           -306.1678 XXXY=             87.5614
 XXXZ=            -32.3641 YYYX=             92.0195 YYYZ=              2.9897 ZZZX=              3.0043
 ZZZY=            -10.5711 XXYY=           -382.9053 XXZZ=           -280.6969 YYZZ=           -193.0965
 XXYZ=             35.0454 YYXZ=              0.1844 ZZXY=             -1.9020
 N-N= 8.166214080447D+02 E-N=-3.019081053187D+03  KE= 5.886643074842D+02
 1\1\GINC-COMPUTE-3-1\SP\RmPW1PW91\6-31+G(d,p)\C8H15N1O3\MAMICHETTI.IQU
 IR\17-May-2024\0\\# mpw1pw91/6-31+G** nmr scrf=(pcm,solvent=water)\\co
 mment\\0,1\C,0,-2.474999,-0.134482,0.562317\C,0,-1.011022,0.08257,1.00
 6086\N,0,-0.191318,-0.960422,0.284029\C,0,-1.119865,-1.764317,-0.54713
 4\C,0,-2.35485,-0.883849,-0.774073\C,0,0.875022,-0.274887,-0.476987\C,
 0,1.06636,1.04163,0.283212\C,0,-0.372589,1.436694,0.660606\H,0,-2.9899
 88,-0.761403,1.299068\H,0,-3.026588,0.805853,0.481441\H,0,-0.914547,-0
 .066665,2.087301\H,0,-1.400973,-2.676256,-0.004423\H,0,-0.624548,-2.07
 5208,-1.472123\H,0,-3.248243,-1.466532,-1.021375\H,0,-2.171232,-0.1770
 49,-1.590602\H,0,0.568251,-0.033284,-1.50702\H,0,1.661927,0.87362,1.18
 7539\H,0,-0.404975,2.127995,1.513566\O,0,-0.998797,2.044316,-0.472599\
 H,0,-0.271448,2.500119,-0.940258\O,0,1.697726,2.001362,-0.564849\H,0,2
 .006909,2.73193,-0.002464\C,0,2.125113,-1.15468,-0.531459\H,0,1.955391
 ,-1.993407,-1.224001\H,0,2.97859,-0.578978,-0.905488\O,0,2.456587,-1.6
 39154,0.7695\H,0,1.577549,-1.832054,1.158807\\Version=AM64L-G09RevC.01
 \State=1-A\HF=-594.2032152\RMSD=3.886e-09\Dipole=-0.5489851,0.6443789,
 0.2209724\Quadrupole=-5.340816,3.1669403,2.1738757,9.752673,-2.3757989
 ,5.163627\PG=C01 [X(C8H15N1O3)]\\@


 The earth never tires,
 The earth is rude, silent, incomprehensible at first,
 Nature is rude and incomprehensible at first,
 Be not discouraged, keep on,
 There are divine things well envelop'd,
 I swear to you there are divine things more beautiful than words can tell.
                                 -- Walt Whitman
 Job cpu time:  0 days  0 hours  8 minutes 31.6 seconds.
 File lengths (MBytes):  RWF=    113 Int=      0 D2E=      0 Chk=      7 Scr=      1
 Normal termination of Gaussian 09 at Fri May 17 12:22:08 2024.
