 Entering Gaussian System, Link 0=g09
 Input=/home/mamichetti.iquir/Linux/01_Cardona_A1A3_R__S_R_R_013_OptB.gjc
 Output=/home/mamichetti.iquir/Linux/01_Cardona_A1A3_R__S_R_R_013_OptB.log
 Initial command:
 /opt/ohpc/pub/apps/software/Gaussian/09/AMD64.SSE4a-enabled/g09/l1.exe /local/mamichetti.iquir/Gau-406514.inp -scrdir=/local/mamichetti.iquir/
 Entering Link 1 = /opt/ohpc/pub/apps/software/Gaussian/09/AMD64.SSE4a-enabled/g09/l1.exe PID=    406515.
  
 Copyright (c) 1988,1990,1992,1993,1995,1998,2003,2009,2011,
            Gaussian, Inc.  All Rights Reserved.
  
 This is part of the Gaussian(R) 09 program.  It is based on
 the Gaussian(R) 03 system (copyright 2003, Gaussian, Inc.),
 the Gaussian(R) 98 system (copyright 1998, Gaussian, Inc.),
 the Gaussian(R) 94 system (copyright 1995, Gaussian, Inc.),
 the Gaussian 92(TM) system (copyright 1992, Gaussian, Inc.),
 the Gaussian 90(TM) system (copyright 1990, Gaussian, Inc.),
 the Gaussian 88(TM) system (copyright 1988, Gaussian, Inc.),
 the Gaussian 86(TM) system (copyright 1986, Carnegie Mellon
 University), and the Gaussian 82(TM) system (copyright 1983,
 Carnegie Mellon University). Gaussian is a federally registered
 trademark of Gaussian, Inc.
  
 This software contains proprietary and confidential information,
 including trade secrets, belonging to Gaussian, Inc.
  
 This software is provided under written license and may be
 used, copied, transmitted, or stored only in accord with that
 written license.
  
 The following legend is applicable only to US Government
 contracts under FAR:
  
                    RESTRICTED RIGHTS LEGEND
  
 Use, reproduction and disclosure by the US Government is
 subject to restrictions as set forth in subparagraphs (a)
 and (c) of the Commercial Computer Software - Restricted
 Rights clause in FAR 52.227-19.
  
 Gaussian, Inc.
 340 Quinnipiac St., Bldg. 40, Wallingford CT 06492
  
  
 ---------------------------------------------------------------
 Warning -- This program may not be used in any manner that
 competes with the business of Gaussian, Inc. or will provide
 assistance to any competitor of Gaussian, Inc.  The licensee
 of this program is prohibited from giving any competitor of
 Gaussian, Inc. access to this program.  By using this program,
 the user acknowledges that Gaussian, Inc. is engaged in the
 business of creating and licensing software in the field of
 computational chemistry and represents and warrants to the
 licensee that it is not a competitor of Gaussian, Inc. and that
 it will not use this program in any manner prohibited above.
 ---------------------------------------------------------------
  

 Cite this work as:
 Gaussian 09, Revision C.01,
 M. J. Frisch, G. W. Trucks, H. B. Schlegel, G. E. Scuseria, 
 M. A. Robb, J. R. Cheeseman, G. Scalmani, V. Barone, B. Mennucci, 
 G. A. Petersson, H. Nakatsuji, M. Caricato, X. Li, H. P. Hratchian, 
 A. F. Izmaylov, J. Bloino, G. Zheng, J. L. Sonnenberg, M. Hada, 
 M. Ehara, K. Toyota, R. Fukuda, J. Hasegawa, M. Ishida, T. Nakajima, 
 Y. Honda, O. Kitao, H. Nakai, T. Vreven, J. A. Montgomery, Jr., 
 J. E. Peralta, F. Ogliaro, M. Bearpark, J. J. Heyd, E. Brothers, 
 K. N. Kudin, V. N. Staroverov, T. Keith, R. Kobayashi, J. Normand, 
 K. Raghavachari, A. Rendell, J. C. Burant, S. S. Iyengar, J. Tomasi, 
 M. Cossi, N. Rega, J. M. Millam, M. Klene, J. E. Knox, J. B. Cross, 
 V. Bakken, C. Adamo, J. Jaramillo, R. Gomperts, R. E. Stratmann, 
 O. Yazyev, A. J. Austin, R. Cammi, C. Pomelli, J. W. Ochterski, 
 R. L. Martin, K. Morokuma, V. G. Zakrzewski, G. A. Voth, 
 P. Salvador, J. J. Dannenberg, S. Dapprich, A. D. Daniels, 
 O. Farkas, J. B. Foresman, J. V. Ortiz, J. Cioslowski, 
 and D. J. Fox, Gaussian, Inc., Wallingford CT, 2010.
 
 ******************************************
 Gaussian 09:  AM64L-G09RevC.01 23-Sep-2011
                17-May-2024 
 ******************************************
 %nprocshared=4
 Will use up to    4 processors via shared memory.
 ------------------------------------------------
 # mpw1pw91/6-31+G** nmr scrf=(pcm,solvent=water)
 ------------------------------------------------
 1/38=1/1;
 2/12=2,17=6,18=5,40=1/2;
 3/5=1,6=6,7=111,11=2,16=1,25=1,30=1,70=2201,72=1,74=-7/1,2,8,3;
 4//1;
 5/5=2,38=5,53=1/2;
 8/6=1,10=90,11=11/1;
 10/13=100,45=16/2;
 6/7=2,8=2,9=2,10=2,28=1/1;
 99/9=1/99;
 -------
 comment
 -------
 Charge =  0 Multiplicity = 1
 Symbolic Z-Matrix:
 6                    -2.65238   0.16518   0.19041 
 6                    -1.30125   0.33653   0.91896 
 7                    -0.50344  -0.92073   0.64739 
 6                    -1.35001  -1.80352  -0.18924 
 6                    -2.36572  -0.89189  -0.88769 
 6                     0.75226  -0.50809  -0.00304 
 6                     0.98375   0.90883   0.53549 
 6                    -0.42034   1.51672   0.46711 
 1                    -3.40319  -0.20997   0.89503 
 1                    -3.02316   1.1084   -0.21958 
 1                    -1.46048   0.43641   1.9985 
 1                    -1.87476  -2.52336   0.4527 
 1                    -0.72807  -2.38005  -0.88054 
 1                    -3.26358  -1.42873  -1.21167 
 1                    -1.91395  -0.42225  -1.76832 
 1                     0.6429   -0.43     -1.09899 
 1                     1.31063   0.85935   1.58431 
 1                    -0.53711   2.38359   1.13072 
 8                    -0.70263   1.90652  -0.88161 
 1                     0.16165   2.16607  -1.25465 
 8                     1.90815   1.67073  -0.23723 
 1                     2.63024   1.04529  -0.45011 
 6                     1.92499  -1.44079   0.28184 
 1                     2.12383  -1.48216   1.35743 
 1                     1.71912  -2.45994  -0.06953 
 8                     3.129    -0.93439  -0.32985 
 1                     3.03592  -1.05819  -1.29047 
 
                          Input orientation:                          
 ---------------------------------------------------------------------
 Center     Atomic      Atomic             Coordinates (Angstroms)
 Number     Number       Type             X           Y           Z
 ---------------------------------------------------------------------
      1          6           0       -2.652375    0.165178    0.190411
      2          6           0       -1.301249    0.336532    0.918959
      3          7           0       -0.503437   -0.920726    0.647385
      4          6           0       -1.350014   -1.803517   -0.189240
      5          6           0       -2.365720   -0.891885   -0.887693
      6          6           0        0.752260   -0.508094   -0.003044
      7          6           0        0.983754    0.908827    0.535487
      8          6           0       -0.420339    1.516719    0.467113
      9          1           0       -3.403193   -0.209965    0.895027
     10          1           0       -3.023156    1.108396   -0.219578
     11          1           0       -1.460481    0.436406    1.998495
     12          1           0       -1.874759   -2.523359    0.452696
     13          1           0       -0.728067   -2.380054   -0.880540
     14          1           0       -3.263585   -1.428727   -1.211673
     15          1           0       -1.913951   -0.422254   -1.768321
     16          1           0        0.642902   -0.430003   -1.098995
     17          1           0        1.310625    0.859349    1.584306
     18          1           0       -0.537114    2.383588    1.130724
     19          8           0       -0.702626    1.906516   -0.881609
     20          1           0        0.161649    2.166069   -1.254650
     21          8           0        1.908154    1.670727   -0.237229
     22          1           0        2.630238    1.045293   -0.450111
     23          6           0        1.924991   -1.440789    0.281837
     24          1           0        2.123830   -1.482158    1.357432
     25          1           0        1.719118   -2.459942   -0.069527
     26          8           0        3.129002   -0.934392   -0.329850
     27          1           0        3.035915   -1.058193   -1.290470
 ---------------------------------------------------------------------
                    Distance matrix (angstroms):
                    1          2          3          4          5
     1  C    0.000000
     2  C    1.544567   0.000000
     3  N    2.450703   1.513590   0.000000
     4  C    2.390824   2.410455   1.481875   0.000000
     5  C    1.536835   2.430247   2.413585   1.533156   0.000000
     6  C    3.475954   2.404242   1.473125   2.476357   3.263694
     7  C    3.727402   2.386590   2.360407   3.650824   4.060416
     8  C    2.623969   1.540457   2.445515   3.509852   3.379553
     9  H    1.095876   2.171958   2.995846   2.816130   2.172431
    10  H    1.093266   2.203861   3.349320   3.358506   2.209010
    11  H    2.182509   1.095777   2.140850   3.132993   3.303619
    12  H    2.810998   2.953860   2.118221   1.098003   2.167808
    13  H    3.365725   3.308561   2.124771   1.094125   2.212827
    14  H    2.209061   3.392122   3.366390   2.201724   1.095136
    15  H    2.174161   2.858782   2.841419   2.172420   1.095515
    16  H    3.588267   2.905071   2.145867   2.585712   3.051195
    17  H    4.257956   2.745525   2.708747   4.161168   4.763729
    18  H    3.206222   2.195264   3.339647   4.464858   4.259874
    19  O    2.825421   2.462772   3.220372   3.829208   3.255298
    20  H    3.743060   3.195599   3.686242   4.379251   3.984135
    21  O    4.821616   3.662938   3.648827   4.763227   5.025543
    22  H    5.393595   4.222947   3.858711   4.901651   5.376219
    23  C    4.851780   3.738104   2.510250   3.328535   4.480993
    24  H    5.185344   3.902699   2.778832   3.816157   5.054213
    25  H    5.105759   4.233201   2.796945   3.140827   4.451303
    26  O    5.907965   4.775133   3.761620   4.564727   5.523130
    27  H    6.003856   5.063381   4.037473   4.583076   5.419183
                    6          7          8          9         10
     6  C    0.000000
     7  C    1.533385   0.000000
     8  C    2.386609   1.531563   0.000000
     9  H    4.261831   4.541615   3.473034   0.000000
    10  H    4.112626   4.082313   2.722669   1.767724   0.000000
    11  H    3.129610   2.887535   2.143386   2.325848   2.795241
    12  H    3.342188   4.467421   4.293923   2.807768   3.867869
    13  H    2.542755   3.968904   4.134695   3.875335   4.227717
    14  H    4.293642   5.153311   4.424706   2.437838   2.734785
    15  H    3.198789   3.933955   3.314764   3.058812   2.443733
    16  H    1.104158   2.140135   2.715309   4.516129   4.071858
    17  H    2.168260   1.099688   2.162520   4.882481   4.700817
    18  H    3.362996   2.200515   1.097943   3.872529   3.103198
    19  O    2.952780   2.418144   1.432019   3.863805   2.541681
    20  H    3.011061   2.336901   1.929983   4.793198   3.511841
    21  O    2.477538   1.425516   2.437559   5.747122   4.963300
    22  H    2.477838   1.923782   3.220180   6.307722   5.658444
    23  C    1.525246   2.543808   3.779121   5.502770   5.588732
    24  H    2.163539   2.773477   4.032211   5.690367   5.974060
    25  H    2.179207   3.500772   4.547427   5.677220   5.936726
    26  O    2.436685   2.957762   4.386447   6.685409   6.483378
    27  H    2.678648   3.378558   4.654564   6.852591   6.523286
                   11         12         13         14         15
    11  H    0.000000
    12  H    3.364718   0.000000
    13  H    4.093619   1.764357   0.000000
    14  H    4.127358   2.428411   2.728282   0.000000
    15  H    3.889966   3.057629   2.455088   1.773233   0.000000
    16  H    3.843088   3.623327   2.393737   4.033706   2.643020
    17  H    2.833630   4.782251   4.552523   5.828910   4.824988
    18  H    2.323177   5.130998   5.174353   5.239677   4.262967
    19  O    3.321230   4.772636   4.286646   4.217973   2.770692
    20  H    4.025667   5.390058   4.647450   4.965545   3.357289
    21  O    4.227258   5.690060   4.875688   6.107622   4.618798
    22  H    4.806287   5.817674   4.816273   6.437228   4.953890
    23  C    4.234642   3.954649   3.045005   5.399263   4.469680
    24  H    4.115718   4.229818   3.734709   5.968869   5.215113
    25  H    4.772358   3.632174   2.579310   5.214905   4.498585
    26  O    5.325752   5.307996   4.155741   6.472028   5.269047
    27  H    5.767902   5.412953   4.010352   6.310880   5.013375
                   16         17         18         19         20
    16  H    0.000000
    17  H    3.050965   0.000000
    18  H    3.778939   2.437864   0.000000
    19  O    2.705000   3.351190   2.074723   0.000000
    20  H    2.644886   3.329765   2.495114   0.976473   0.000000
    21  O    2.599340   2.081674   2.891159   2.699443   2.081055
    22  H    2.558721   2.432037   3.784467   3.469276   2.827959
    23  C    2.138256   2.713762   4.626924   4.411624   4.298790
    24  H    3.055194   2.489062   4.698512   4.948259   4.897212
    25  H    2.517677   3.730914   5.476401   5.058683   5.022968
    26  O    2.650790   3.191864   5.155839   4.801726   4.390136
    27  H    2.481491   3.862374   5.520378   4.788878   4.319555
                   21         22         23         24         25
    21  O    0.000000
    22  H    0.978719   0.000000
    23  C    3.154559   2.685838   0.000000
    24  H    3.539794   3.148280   1.094602   0.000000
    25  H    4.138392   3.641656   1.097503   1.776532   0.000000
    26  O    2.878488   2.045087   1.442304   2.038955   2.093524
    27  H    3.134991   2.301180   1.962825   2.832495   2.278060
                   26         27
    26  O    0.000000
    27  H    0.973028   0.000000
 Stoichiometry    C8H15NO3
 Framework group  C1[X(C8H15NO3)]
 Deg. of freedom    75
 Full point group                 C1      NOp   1
 Largest Abelian subgroup         C1      NOp   1
 Largest concise Abelian subgroup C1      NOp   1
                         Standard orientation:                         
 ---------------------------------------------------------------------
 Center     Atomic      Atomic             Coordinates (Angstroms)
 Number     Number       Type             X           Y           Z
 ---------------------------------------------------------------------
      1          6           0       -2.652375    0.165178    0.190411
      2          6           0       -1.301249    0.336532    0.918959
      3          7           0       -0.503437   -0.920726    0.647385
      4          6           0       -1.350014   -1.803517   -0.189240
      5          6           0       -2.365720   -0.891885   -0.887693
      6          6           0        0.752260   -0.508094   -0.003044
      7          6           0        0.983754    0.908827    0.535487
      8          6           0       -0.420339    1.516719    0.467113
      9          1           0       -3.403193   -0.209965    0.895027
     10          1           0       -3.023156    1.108396   -0.219578
     11          1           0       -1.460481    0.436406    1.998495
     12          1           0       -1.874759   -2.523359    0.452696
     13          1           0       -0.728067   -2.380054   -0.880540
     14          1           0       -3.263585   -1.428727   -1.211673
     15          1           0       -1.913951   -0.422254   -1.768321
     16          1           0        0.642902   -0.430003   -1.098995
     17          1           0        1.310625    0.859349    1.584306
     18          1           0       -0.537114    2.383588    1.130724
     19          8           0       -0.702626    1.906516   -0.881609
     20          1           0        0.161649    2.166069   -1.254650
     21          8           0        1.908154    1.670727   -0.237229
     22          1           0        2.630238    1.045293   -0.450111
     23          6           0        1.924991   -1.440789    0.281837
     24          1           0        2.123830   -1.482158    1.357432
     25          1           0        1.719118   -2.459942   -0.069527
     26          8           0        3.129002   -0.934392   -0.329850
     27          1           0        3.035915   -1.058193   -1.290470
 ---------------------------------------------------------------------
 Rotational constants (GHZ):      1.4384541      0.8126593      0.6053277
 Standard basis: 6-31+G(d,p) (6D, 7F)
 There are   303 symmetry adapted basis functions of A   symmetry.
 Integral buffers will be    131072 words long.
 Raffenetti 2 integral format.
 Two-electron integral symmetry is turned on.
   303 basis functions,   489 primitive gaussians,   303 cartesian basis functions
    47 alpha electrons       47 beta electrons
       nuclear repulsion energy       813.8081842889 Hartrees.
 NAtoms=   27 NActive=   27 NUniq=   27 SFac= 1.00D+00 NAtFMM=   60 NAOKFM=F Big=F
 ------------------------------------------------------------------------------
 Polarizable Continuum Model (PCM)
 =================================
 Model                : PCM.
 Atomic radii         : UFF (Universal Force Field).
 Polarization charges : Total charges.
 Charge compensation  : None.
 Solution method      : Matrix inversion.
 Cavity type          : Scaled VdW (van der Waals Surface) (Alpha=1.100).
 Cavity algorithm     : GePol (No added spheres)
                        Default sphere list used, NSphG=   27.
                        Lebedev-Laikov grids with approx.  5.0 points / Ang**2.
                        Smoothing algorithm: Karplus/York (Gamma=1.0000).
                        Polarization charges: spherical gaussians, with
                                              point-specific exponents (IZeta= 3).
                        Self-potential: point-specific (ISelfS= 7).
                        Self-field    : sphere-specific E.n sum rule (ISelfD= 2).
 Solvent              : Water, Eps=  78.355300 Eps(inf)=   1.777849
 ------------------------------------------------------------------------------
 One-electron integrals computed using PRISM.
 NBasis=   303 RedAO= T  NBF=   303
 NBsUse=   303 1.00D-06 NBFU=   303
 Harris functional with IExCor=  908 diagonalized for initial guess.
 ExpMin= 4.38D-02 ExpMax= 5.48D+03 ExpMxC= 8.25D+02 IAcc=2 IRadAn=         4 AccDes= 0.00D+00
 HarFok:  IExCor=  908 AccDes= 0.00D+00 IRadAn=         4 IDoV= 1
 ScaDFX=  1.000000  1.000000  1.000000  1.000000
 FoFCou: FMM=F IPFlag=           0 FMFlag=      100000 FMFlg1=           0
         NFxFlg=           0 DoJE=T BraDBF=F KetDBF=T FulRan=T
         Omega=  0.000000  0.000000  1.000000  0.000000  0.000000 ICntrl=     500 IOpCl=  0
         NMat0=    1 NMatS0=    1 NMatT0=    0 NMatD0=    1 NMtDS0=    0 NMtDT0=    0
         I1Cent=           4 NGrid=           0.
 Petite list used in FoFCou.
 Initial guess orbital symmetries:
       Occupied  (A) (A) (A) (A) (A) (A) (A) (A) (A) (A) (A) (A)
                 (A) (A) (A) (A) (A) (A) (A) (A) (A) (A) (A) (A)
                 (A) (A) (A) (A) (A) (A) (A) (A) (A) (A) (A) (A)
                 (A) (A) (A) (A) (A) (A) (A) (A) (A) (A) (A)
       Virtual   (A) (A) (A) (A) (A) (A) (A) (A) (A) (A) (A) (A)
                 (A) (A) (A) (A) (A) (A) (A) (A) (A) (A) (A) (A)
                 (A) (A) (A) (A) (A) (A) (A) (A) (A) (A) (A) (A)
                 (A) (A) (A) (A) (A) (A) (A) (A) (A) (A) (A) (A)
                 (A) (A) (A) (A) (A) (A) (A) (A) (A) (A) (A) (A)
                 (A) (A) (A) (A) (A) (A) (A) (A) (A) (A) (A) (A)
                 (A) (A) (A) (A) (A) (A) (A) (A) (A) (A) (A) (A)
                 (A) (A) (A) (A) (A) (A) (A) (A) (A) (A) (A) (A)
                 (A) (A) (A) (A) (A) (A) (A) (A) (A) (A) (A) (A)
                 (A) (A) (A) (A) (A) (A) (A) (A) (A) (A) (A) (A)
                 (A) (A) (A) (A) (A) (A) (A) (A) (A) (A) (A) (A)
                 (A) (A) (A) (A) (A) (A) (A) (A) (A) (A) (A) (A)
                 (A) (A) (A) (A) (A) (A) (A) (A) (A) (A) (A) (A)
                 (A) (A) (A) (A) (A) (A) (A) (A) (A) (A) (A) (A)
                 (A) (A) (A) (A) (A) (A) (A) (A) (A) (A) (A) (A)
                 (A) (A) (A) (A) (A) (A) (A) (A) (A) (A) (A) (A)
                 (A) (A) (A) (A) (A) (A) (A) (A) (A) (A) (A) (A)
                 (A) (A) (A) (A) (A) (A) (A) (A) (A) (A) (A) (A)
                 (A) (A) (A) (A) (A) (A) (A) (A) (A) (A) (A) (A)
                 (A) (A) (A) (A) (A) (A) (A) (A) (A) (A) (A) (A)
                 (A) (A) (A) (A) (A) (A) (A) (A) (A) (A) (A) (A)
                 (A) (A) (A) (A)
 The electronic state of the initial guess is 1-A.
 Requested convergence on RMS density matrix=1.00D-08 within 128 cycles.
 Requested convergence on MAX density matrix=1.00D-06.
 Requested convergence on             energy=1.00D-06.
 No special actions if energy rises.
 Error on total polarization charges =  0.01456
 SCF Done:  E(RmPW1PW91) =  -594.200006509     A.U. after   13 cycles
             Convg  =    0.6147D-08             -V/T =  2.0094
 Range of M.O.s used for correlation:     1   303
 NBasis=   303 NAE=    47 NBE=    47 NFC=     0 NFV=     0
 NROrb=    303 NOA=    47 NOB=    47 NVA=   256 NVB=   256

 **** Warning!!: The largest alpha MO coefficient is  0.77542526D+02

 NEqPCM:  Using equilibrium solvation (IEInf=0, Eps=  78.3553, EpsInf=   1.7778)
          Differentiating once with respect to magnetic field using GIAOs.
          Electric field/nuclear overlap derivatives assumed to be zero.
 FoFCou: FMM=F IPFlag=           0 FMFlag=    10101102 FMFlg1=           0
         NFxFlg=    40000000 DoJE=F BraDBF=F KetDBF=T FulRan=T
         Omega=  0.000000  0.000000  1.000000  0.000000  0.000000 ICntrl=    6100 IOpCl=  0
         NMat0=    1 NMatS0=    1 NMatT0=    0 NMatD0=    1 NMtDS0=    0 NMtDT0=    0
         I1Cent=           7 NGrid=        1797.
 Symmetry not used in FoFCou.
          There are     3 degrees of freedom in the 1st order CPHF.  IDoFFX=0.
      3 vectors produced by pass  0 Test12= 4.01D-13 3.33D-08 XBig12= 3.90D+01 1.43D+00.
 AX will form     3 AO Fock derivatives at one time.
      3 vectors produced by pass  1 Test12= 4.01D-13 3.33D-08 XBig12= 9.25D-02 5.19D-02.
      3 vectors produced by pass  2 Test12= 4.01D-13 3.33D-08 XBig12= 2.20D-04 2.78D-03.
      3 vectors produced by pass  3 Test12= 4.01D-13 3.33D-08 XBig12= 8.82D-07 1.92D-04.
      3 vectors produced by pass  4 Test12= 4.01D-13 3.33D-08 XBig12= 3.11D-09 8.79D-06.
      3 vectors produced by pass  5 Test12= 4.01D-13 3.33D-08 XBig12= 9.39D-12 6.63D-07.
 Inverted reduced A of dimension    18 with in-core refinement.
 Calculating GIAO nuclear magnetic shielding tensors.
 SCF GIAO Magnetic shielding tensor (ppm):
      1  C    Isotropic =   167.6030   Anisotropy =    23.6954
   XX=   174.2079   YX=    -7.8604   ZX=    10.7067
   XY=    -5.5861   YY=   165.0693   ZY=    16.6672
   XZ=     5.0336   YZ=    21.3870   ZZ=   163.5318
   Eigenvalues:   141.9472   177.4619   183.4000
      2  C    Isotropic =   127.5598   Anisotropy =    53.7604
   XX=   131.8717   YX=   -16.6150   ZX=     9.0528
   XY=   -15.2566   YY=   154.6164   ZY=    12.9664
   XZ=     0.7219   YZ=     5.8946   ZZ=    96.1913
   Eigenvalues:    93.1869   126.0925   163.4001
      3  N    Isotropic =   196.1237   Anisotropy =    70.5499
   XX=   230.9187   YX=   -18.5168   ZX=    -4.6666
   XY=    -3.5694   YY=   219.1123   ZY=    38.4886
   XZ=    -8.0098   YZ=    25.6936   ZZ=   138.3402
   Eigenvalues:   127.0888   218.1253   243.1570
      4  C    Isotropic =   141.5974   Anisotropy =    54.3457
   XX=   142.5368   YX=    18.7797   ZX=    18.9969
   XY=     6.3157   YY=   147.3109   ZY=    21.4651
   XZ=    30.5268   YZ=    12.4890   ZZ=   134.9445
   Eigenvalues:   112.8417   134.1227   177.8279
      5  C    Isotropic =   168.5007   Anisotropy =    24.1110
   XX=   166.1230   YX=    -4.6241   ZX=    12.2281
   XY=    -6.3744   YY=   176.1802   ZY=     9.3985
   XZ=    18.7405   YZ=    14.8808   ZZ=   163.1990
   Eigenvalues:   144.0331   176.8943   184.5747
      6  C    Isotropic =   127.2286   Anisotropy =    54.3261
   XX=   144.4121   YX=    22.1468   ZX=   -11.3264
   XY=    15.2540   YY=   120.3756   ZY=    -6.1975
   XZ=   -32.3080   YZ=     2.9373   ZZ=   116.8982
   Eigenvalues:   100.8100   117.4299   163.4460
      7  C    Isotropic =   114.9641   Anisotropy =    43.0513
   XX=   125.0075   YX=    16.2168   ZX=   -16.0279
   XY=    12.5536   YY=   127.0899   ZY=    -7.0539
   XZ=    -8.0995   YZ=    -5.0804   ZZ=    92.7950
   Eigenvalues:    88.7327   112.4948   143.6650
      8  C    Isotropic =   121.7945   Anisotropy =    24.0044
   XX=   115.7890   YX=     2.2077   ZX=     3.5389
   XY=     2.8560   YY=   118.1979   ZY=   -10.3270
   XZ=     7.6963   YZ=   -10.5516   ZZ=   131.3966
   Eigenvalues:   108.7456   118.8404   137.7974
      9  H    Isotropic =    29.9257   Anisotropy =    12.5751
   XX=    35.0280   YX=     1.2714   ZX=    -4.8999
   XY=     2.0438   YY=    24.8936   ZY=     0.3568
   XZ=    -5.3937   YZ=     0.4702   ZZ=    29.8554
   Eigenvalues:    24.1921    27.2759    38.3090
     10  H    Isotropic =    29.3632   Anisotropy =     9.1104
   XX=    31.1586   YX=    -3.3186   ZX=     1.3454
   XY=    -3.5149   YY=    32.1178   ZY=    -1.8745
   XZ=     0.9632   YZ=    -1.2158   ZZ=    24.8132
   Eigenvalues:    24.4597    28.1931    35.4368
     11  H    Isotropic =    27.9819   Anisotropy =     9.2179
   XX=    26.4425   YX=    -1.3062   ZX=    -2.2731
   XY=    -0.6919   YY=    24.7449   ZY=     2.4189
   XZ=    -2.6236   YZ=     1.6129   ZZ=    32.7583
   Eigenvalues:    24.1585    25.6601    34.1272
     12  H    Isotropic =    28.9292   Anisotropy =    12.1479
   XX=    27.8160   YX=     5.3405   ZX=     0.0048
   XY=     4.5161   YY=    33.4384   ZY=    -3.5832
   XZ=     0.8440   YZ=    -3.4839   ZZ=    25.5331
   Eigenvalues:    22.8023    26.9575    37.0278
     13  H    Isotropic =    28.8457   Anisotropy =     8.5575
   XX=    28.5953   YX=    -1.4509   ZX=     1.2493
   XY=    -1.5299   YY=    31.9214   ZY=     4.8103
   XZ=    -0.3925   YZ=     4.1624   ZZ=    26.0203
   Eigenvalues:    23.3712    28.6152    34.5507
     14  H    Isotropic =    30.0984   Anisotropy =    12.7353
   XX=    33.4351   YX=     3.6787   ZX=     4.3179
   XY=     4.2925   YY=    28.9229   ZY=     3.3522
   XZ=     4.6272   YZ=     3.0818   ZZ=    27.9374
   Eigenvalues:    24.9770    26.7296    38.5887
     15  H    Isotropic =    29.6975   Anisotropy =     7.6495
   XX=    27.1310   YX=     0.5242   ZX=    -0.9522
   XY=     0.6535   YY=    27.5155   ZY=    -1.7612
   XZ=    -0.1017   YZ=    -1.1775   ZZ=    34.4459
   Eigenvalues:    26.6721    27.6231    34.7972
     16  H    Isotropic =    28.8637   Anisotropy =     4.3748
   XX=    30.9655   YX=    -0.8453   ZX=    -1.3130
   XY=     0.0215   YY=    27.2999   ZY=    -0.0374
   XZ=    -1.8776   YZ=     0.8034   ZZ=    28.3258
   Eigenvalues:    27.1653    27.6456    31.7803
     17  H    Isotropic =    27.4561   Anisotropy =     4.4709
   XX=    27.7590   YX=     1.6358   ZX=     0.0265
   XY=     1.4012   YY=    25.1395   ZY=    -0.0247
   XZ=     2.8252   YZ=     0.3270   ZZ=    29.4699
   Eigenvalues:    24.3988    27.5329    30.4368
     18  H    Isotropic =    27.5419   Anisotropy =     9.0344
   XX=    23.3072   YX=    -0.4510   ZX=     0.7716
   XY=    -0.4102   YY=    29.2913   ZY=     3.2326
   XZ=    -0.2756   YZ=     4.5417   ZZ=    30.0272
   Eigenvalues:    23.2134    25.8474    33.5649
     19  O    Isotropic =   314.1502   Anisotropy =    46.4140
   XX=   321.6416   YX=    15.7886   ZX=   -24.6457
   XY=    16.4254   YY=   304.7296   ZY=    23.0054
   XZ=   -23.9979   YZ=   -10.6678   ZZ=   316.0794
   Eigenvalues:   283.0184   314.3394   345.0929
     20  H    Isotropic =    28.6781   Anisotropy =    18.2013
   XX=    37.0963   YX=     4.0804   ZX=    -3.7063
   XY=     3.3168   YY=    22.3716   ZY=    -7.4028
   XZ=    -5.2756   YZ=    -6.4749   ZZ=    26.5666
   Eigenvalues:    17.2153    28.0068    40.8123
     21  O    Isotropic =   296.3502   Anisotropy =    35.9730
   XX=   310.4924   YX=    -7.8867   ZX=   -20.0299
   XY=     4.6102   YY=   319.1447   ZY=     0.5835
   XZ=     7.7435   YZ=    11.8239   ZZ=   259.4137
   Eigenvalues:   258.1008   310.6177   320.3322
     22  H    Isotropic =    27.6280   Anisotropy =    21.5314
   XX=    33.3518   YX=    -7.9577   ZX=    -5.8556
   XY=    -8.3554   YY=    32.1754   ZY=     0.8836
   XZ=    -6.8170   YZ=     0.0874   ZZ=    17.3568
   Eigenvalues:    14.8075    26.0943    41.9823
     23  C    Isotropic =   125.4989   Anisotropy =    59.6024
   XX=   153.4528   YX=     5.8191   ZX=   -24.4224
   XY=     2.1471   YY=   112.7218   ZY=   -13.7262
   XZ=   -22.4041   YZ=   -11.8574   ZZ=   110.3221
   Eigenvalues:    94.1845   117.0784   165.2338
     24  H    Isotropic =    27.9966   Anisotropy =     4.3785
   XX=    28.9044   YX=    -0.8217   ZX=    -1.0773
   XY=    -0.8216   YY=    26.1163   ZY=    -3.3452
   XZ=     1.1423   YZ=    -2.5227   ZZ=    28.9691
   Eigenvalues:    24.1820    28.8922    30.9156
     25  H    Isotropic =    27.5021   Anisotropy =     5.0489
   XX=    29.3109   YX=     0.6763   ZX=    -1.0243
   XY=    -0.3625   YY=    30.8504   ZY=     0.7740
   XZ=    -1.7620   YZ=    -0.2612   ZZ=    22.3451
   Eigenvalues:    22.0678    29.5706    30.8680
     26  O    Isotropic =   310.9747   Anisotropy =    62.1333
   XX=   293.1328   YX=    -6.7221   ZX=    11.9066
   XY=    -5.8352   YY=   287.6052   ZY=     0.4476
   XZ=    -4.8428   YZ=     0.0524   ZZ=   352.1862
   Eigenvalues:   283.4418   297.0854   352.3969
     27  H    Isotropic =    30.4442   Anisotropy =    16.9622
   XX=    27.7600   YX=     0.3930   ZX=    -3.4184
   XY=    -0.0314   YY=    22.7281   ZY=     1.9917
   XZ=    -2.2826   YZ=     3.0712   ZZ=    40.8444
   Eigenvalues:    22.3172    27.2630    41.7523
 End of Minotr Frequency-dependent properties file   721 does not exist.
 End of Minotr Frequency-dependent properties file   722 does not exist.

 **********************************************************************

            Population analysis using the SCF density.

 **********************************************************************

 Orbital symmetries:
       Occupied  (A) (A) (A) (A) (A) (A) (A) (A) (A) (A) (A) (A)
                 (A) (A) (A) (A) (A) (A) (A) (A) (A) (A) (A) (A)
                 (A) (A) (A) (A) (A) (A) (A) (A) (A) (A) (A) (A)
                 (A) (A) (A) (A) (A) (A) (A) (A) (A) (A) (A)
       Virtual   (A) (A) (A) (A) (A) (A) (A) (A) (A) (A) (A) (A)
                 (A) (A) (A) (A) (A) (A) (A) (A) (A) (A) (A) (A)
                 (A) (A) (A) (A) (A) (A) (A) (A) (A) (A) (A) (A)
                 (A) (A) (A) (A) (A) (A) (A) (A) (A) (A) (A) (A)
                 (A) (A) (A) (A) (A) (A) (A) (A) (A) (A) (A) (A)
                 (A) (A) (A) (A) (A) (A) (A) (A) (A) (A) (A) (A)
                 (A) (A) (A) (A) (A) (A) (A) (A) (A) (A) (A) (A)
                 (A) (A) (A) (A) (A) (A) (A) (A) (A) (A) (A) (A)
                 (A) (A) (A) (A) (A) (A) (A) (A) (A) (A) (A) (A)
                 (A) (A) (A) (A) (A) (A) (A) (A) (A) (A) (A) (A)
                 (A) (A) (A) (A) (A) (A) (A) (A) (A) (A) (A) (A)
                 (A) (A) (A) (A) (A) (A) (A) (A) (A) (A) (A) (A)
                 (A) (A) (A) (A) (A) (A) (A) (A) (A) (A) (A) (A)
                 (A) (A) (A) (A) (A) (A) (A) (A) (A) (A) (A) (A)
                 (A) (A) (A) (A) (A) (A) (A) (A) (A) (A) (A) (A)
                 (A) (A) (A) (A) (A) (A) (A) (A) (A) (A) (A) (A)
                 (A) (A) (A) (A) (A) (A) (A) (A) (A) (A) (A) (A)
                 (A) (A) (A) (A) (A) (A) (A) (A) (A) (A) (A) (A)
                 (A) (A) (A) (A) (A) (A) (A) (A) (A) (A) (A) (A)
                 (A) (A) (A) (A) (A) (A) (A) (A) (A) (A) (A) (A)
                 (A) (A) (A) (A) (A) (A) (A) (A) (A) (A) (A) (A)
                 (A) (A) (A) (A)
 The electronic state is 1-A.
 Alpha  occ. eigenvalues --  -19.27126 -19.26068 -19.24938 -14.41493 -10.30590
 Alpha  occ. eigenvalues --  -10.30188 -10.30077 -10.28120 -10.27862 -10.26814
 Alpha  occ. eigenvalues --  -10.24444 -10.24098  -1.08067  -1.06596  -1.04474
 Alpha  occ. eigenvalues --   -0.96455  -0.82634  -0.79324  -0.75221  -0.71589
 Alpha  occ. eigenvalues --   -0.66939  -0.61967  -0.60080  -0.58009  -0.54945
 Alpha  occ. eigenvalues --   -0.54109  -0.51791  -0.50304  -0.49850  -0.48409
 Alpha  occ. eigenvalues --   -0.45860  -0.43789  -0.43604  -0.42158  -0.40868
 Alpha  occ. eigenvalues --   -0.39406  -0.38520  -0.38106  -0.36934  -0.35290
 Alpha  occ. eigenvalues --   -0.35080  -0.34205  -0.33135  -0.30922  -0.30542
 Alpha  occ. eigenvalues --   -0.29031  -0.23493
 Alpha virt. eigenvalues --    0.00638   0.01107   0.02010   0.02333   0.03955
 Alpha virt. eigenvalues --    0.04217   0.04664   0.04770   0.05502   0.07352
 Alpha virt. eigenvalues --    0.07584   0.07831   0.08700   0.08861   0.09548
 Alpha virt. eigenvalues --    0.10187   0.11438   0.11911   0.12759   0.12842
 Alpha virt. eigenvalues --    0.13262   0.14244   0.14365   0.14758   0.15562
 Alpha virt. eigenvalues --    0.15812   0.16051   0.16563   0.18096   0.18660
 Alpha virt. eigenvalues --    0.19066   0.19378   0.19890   0.20384   0.20882
 Alpha virt. eigenvalues --    0.21193   0.21723   0.22140   0.22627   0.23090
 Alpha virt. eigenvalues --    0.23883   0.24228   0.24971   0.25398   0.25951
 Alpha virt. eigenvalues --    0.26519   0.26759   0.27230   0.28232   0.28552
 Alpha virt. eigenvalues --    0.29063   0.29664   0.30301   0.31351   0.31873
 Alpha virt. eigenvalues --    0.32791   0.33524   0.33583   0.33971   0.34896
 Alpha virt. eigenvalues --    0.35525   0.36092   0.37084   0.37190   0.38182
 Alpha virt. eigenvalues --    0.38576   0.39683   0.40211   0.41152   0.42135
 Alpha virt. eigenvalues --    0.43309   0.43649   0.44638   0.44830   0.47878
 Alpha virt. eigenvalues --    0.51635   0.63205   0.66935   0.67869   0.68172
 Alpha virt. eigenvalues --    0.69961   0.70598   0.71457   0.72728   0.73591
 Alpha virt. eigenvalues --    0.75520   0.78042   0.79174   0.80811   0.82315
 Alpha virt. eigenvalues --    0.82572   0.84108   0.85269   0.86956   0.87163
 Alpha virt. eigenvalues --    0.89421   0.89637   0.91595   0.94274   0.96988
 Alpha virt. eigenvalues --    0.99743   1.00973   1.02097   1.03512   1.04257
 Alpha virt. eigenvalues --    1.05086   1.06525   1.08719   1.10430   1.11070
 Alpha virt. eigenvalues --    1.11766   1.13162   1.13782   1.14605   1.16043
 Alpha virt. eigenvalues --    1.17308   1.18797   1.20555   1.22667   1.25608
 Alpha virt. eigenvalues --    1.26123   1.29007   1.29742   1.31043   1.33311
 Alpha virt. eigenvalues --    1.34472   1.34589   1.36322   1.38336   1.41402
 Alpha virt. eigenvalues --    1.42214   1.45546   1.47856   1.50789   1.52435
 Alpha virt. eigenvalues --    1.55005   1.56905   1.58542   1.60194   1.60914
 Alpha virt. eigenvalues --    1.63454   1.63880   1.66880   1.69687   1.71269
 Alpha virt. eigenvalues --    1.72010   1.75319   1.76775   1.77478   1.79330
 Alpha virt. eigenvalues --    1.81756   1.82763   1.84299   1.85301   1.87296
 Alpha virt. eigenvalues --    1.87710   1.88838   1.90883   1.93731   1.94139
 Alpha virt. eigenvalues --    1.97058   1.99871   2.02759   2.03310   2.03995
 Alpha virt. eigenvalues --    2.05334   2.06654   2.08154   2.09278   2.10177
 Alpha virt. eigenvalues --    2.13169   2.15832   2.16279   2.17601   2.19321
 Alpha virt. eigenvalues --    2.20647   2.22700   2.24550   2.26991   2.30470
 Alpha virt. eigenvalues --    2.32302   2.35092   2.36082   2.38688   2.40039
 Alpha virt. eigenvalues --    2.42240   2.42462   2.44335   2.46288   2.47642
 Alpha virt. eigenvalues --    2.48858   2.49697   2.51600   2.53571   2.55093
 Alpha virt. eigenvalues --    2.56674   2.56968   2.58721   2.60675   2.64100
 Alpha virt. eigenvalues --    2.65704   2.66361   2.68280   2.69621   2.71226
 Alpha virt. eigenvalues --    2.71802   2.72924   2.74981   2.76687   2.78272
 Alpha virt. eigenvalues --    2.79270   2.80527   2.82504   2.83871   2.86538
 Alpha virt. eigenvalues --    2.86915   2.88152   2.90356   2.94100   2.95014
 Alpha virt. eigenvalues --    2.98705   2.99483   3.00910   3.02637   3.04206
 Alpha virt. eigenvalues --    3.05755   3.09268   3.12518   3.15625   3.33074
 Alpha virt. eigenvalues --    3.33366   3.37068   3.39417   3.41335   3.44671
 Alpha virt. eigenvalues --    3.46544   3.47683   3.53930   3.54582   3.55960
 Alpha virt. eigenvalues --    3.57968   3.58972   3.61135   3.64293   4.29552
 Alpha virt. eigenvalues --    4.35549   4.40039   4.46108   4.53068   4.54564
 Alpha virt. eigenvalues --    4.61684   4.69293   4.78860   4.81647   4.85785
 Alpha virt. eigenvalues --    5.04059
          Condensed to atoms (all electrons):
              1          2          3          4          5          6
     1  C    5.892182  -0.538518   0.040706   0.079360   0.051700   0.103188
     2  C   -0.538518   8.440836  -0.230364  -0.411948   0.194583  -0.605654
     3  N    0.040706  -0.230364   7.361277   0.224367  -0.176165   0.115619
     4  C    0.079360  -0.411948   0.224367   5.818573   0.056239  -0.160592
     5  C    0.051700   0.194583  -0.176165   0.056239   5.590831   0.089477
     6  C    0.103188  -0.605654   0.115619  -0.160592   0.089477   9.087848
     7  C   -0.051984   0.316011  -0.185889  -0.348738  -0.086509  -1.643442
     8  C   -0.062187  -0.588149  -0.091683   0.070402   0.119961   0.436137
     9  H    0.412071  -0.063409   0.007926  -0.000223  -0.048830   0.014946
    10  H    0.419476  -0.126574   0.016156   0.027384  -0.030922   0.002314
    11  H    0.018045   0.214343  -0.015801  -0.000525   0.007027   0.006672
    12  H   -0.001033  -0.010308  -0.029837   0.387148  -0.046080  -0.001240
    13  H    0.022606   0.027711  -0.060597   0.352081  -0.019694   0.034118
    14  H   -0.028689   0.019912   0.015031  -0.038797   0.360215   0.001077
    15  H   -0.059275   0.000871   0.007309  -0.071422   0.435331   0.020684
    16  H    0.015321   0.018929  -0.065057   0.069555  -0.010563   0.434858
    17  H    0.013905  -0.032592   0.048694   0.018876  -0.002381  -0.004321
    18  H    0.032419  -0.104830   0.020597   0.007058  -0.017367   0.039451
    19  O    0.084212  -0.406641   0.056661   0.023015  -0.054326   0.048482
    20  H    0.000892   0.060416  -0.001421   0.005727  -0.005811  -0.013976
    21  O    0.003011   0.014232   0.015814   0.011626   0.000291  -0.023692
    22  H   -0.000154  -0.001731   0.001485  -0.003121   0.000894  -0.086860
    23  C    0.110950  -0.383401   0.041699   0.099991  -0.187770  -1.373744
    24  H    0.001098   0.003472   0.015601   0.015003  -0.000728  -0.044731
    25  H    0.002829   0.003125  -0.006821   0.001255  -0.003928  -0.064851
    26  O   -0.001976   0.015996   0.006819   0.001752   0.006023   0.073518
    27  H   -0.000050   0.000110   0.001263   0.003794   0.000011   0.028309
              7          8          9         10         11         12
     1  C   -0.051984  -0.062187   0.412071   0.419476   0.018045  -0.001033
     2  C    0.316011  -0.588149  -0.063409  -0.126574   0.214343  -0.010308
     3  N   -0.185889  -0.091683   0.007926   0.016156  -0.015801  -0.029837
     4  C   -0.348738   0.070402  -0.000223   0.027384  -0.000525   0.387148
     5  C   -0.086509   0.119961  -0.048830  -0.030922   0.007027  -0.046080
     6  C   -1.643442   0.436137   0.014946   0.002314   0.006672  -0.001240
     7  C    8.330281  -0.835618  -0.005521  -0.008058  -0.005479   0.008693
     8  C   -0.835618   6.592199   0.012268   0.036769   0.031374  -0.003474
     9  H   -0.005521   0.012268   0.528528  -0.025322  -0.007626   0.001473
    10  H   -0.008058   0.036769  -0.025322   0.508500   0.002834  -0.000024
    11  H   -0.005479   0.031374  -0.007626   0.002834   0.562546   0.000878
    12  H    0.008693  -0.003474   0.001473  -0.000024   0.000878   0.550053
    13  H    0.024760  -0.017674  -0.000108  -0.000140  -0.000171  -0.029587
    14  H    0.006361   0.000368  -0.005055   0.000815  -0.000046  -0.003218
    15  H    0.002359  -0.002265   0.004124  -0.005420  -0.000113   0.004047
    16  H   -0.173087   0.008393  -0.000009  -0.000052  -0.000569  -0.000341
    17  H    0.233304   0.005380   0.000003  -0.000004   0.000589   0.000015
    18  H    0.045112   0.272851  -0.000002   0.000288  -0.001573   0.000004
    19  O   -0.103275   0.351146  -0.000298   0.000424   0.010143   0.000170
    20  H   -0.058836  -0.010406   0.000000   0.000017  -0.000241   0.000000
    21  O    0.173323  -0.134747   0.000021  -0.000023  -0.000459   0.000009
    22  H    0.083578   0.020322   0.000000   0.000000   0.000008   0.000000
    23  C    0.494165  -0.340796   0.000105   0.000843   0.011460   0.009033
    24  H   -0.065783  -0.000376   0.000000   0.000000  -0.000030   0.000017
    25  H    0.021047  -0.012888   0.000000   0.000000   0.000009  -0.000152
    26  O   -0.060261   0.027603   0.000000  -0.000005  -0.000078   0.000012
    27  H   -0.052464  -0.000032   0.000000   0.000000   0.000000   0.000000
             13         14         15         16         17         18
     1  C    0.022606  -0.028689  -0.059275   0.015321   0.013905   0.032419
     2  C    0.027711   0.019912   0.000871   0.018929  -0.032592  -0.104830
     3  N   -0.060597   0.015031   0.007309  -0.065057   0.048694   0.020597
     4  C    0.352081  -0.038797  -0.071422   0.069555   0.018876   0.007058
     5  C   -0.019694   0.360215   0.435331  -0.010563  -0.002381  -0.017367
     6  C    0.034118   0.001077   0.020684   0.434858  -0.004321   0.039451
     7  C    0.024760   0.006361   0.002359  -0.173087   0.233304   0.045112
     8  C   -0.017674   0.000368  -0.002265   0.008393   0.005380   0.272851
     9  H   -0.000108  -0.005055   0.004124  -0.000009   0.000003  -0.000002
    10  H   -0.000140   0.000815  -0.005420  -0.000052  -0.000004   0.000288
    11  H   -0.000171  -0.000046  -0.000113  -0.000569   0.000589  -0.001573
    12  H   -0.029587  -0.003218   0.004047  -0.000341   0.000015   0.000004
    13  H    0.532865   0.001079  -0.005568   0.000929  -0.000024   0.000005
    14  H    0.001079   0.525809  -0.024349  -0.000165   0.000000   0.000004
    15  H   -0.005568  -0.024349   0.512119  -0.000008   0.000001   0.000016
    16  H    0.000929  -0.000165  -0.000008   0.567217   0.004190  -0.000172
    17  H   -0.000024   0.000000   0.000001   0.004190   0.564125  -0.003620
    18  H    0.000005   0.000004   0.000016  -0.000172  -0.003620   0.576855
    19  O    0.000572   0.000605  -0.002108   0.002027   0.006293  -0.045536
    20  H   -0.000008   0.000000   0.000065   0.001446   0.000834   0.000187
    21  O   -0.000061  -0.000014  -0.000028   0.010073  -0.031060  -0.000358
    22  H   -0.000003   0.000000  -0.000001  -0.002924  -0.002807  -0.000146
    23  C   -0.028055   0.000464   0.002755  -0.061597   0.002610   0.021582
    24  H    0.000009   0.000000   0.000000   0.004441   0.003444  -0.000008
    25  H    0.001019   0.000001  -0.000007  -0.005899   0.000065   0.000003
    26  O   -0.000021  -0.000006   0.000012  -0.001596  -0.001899   0.000001
    27  H    0.000008   0.000000   0.000000   0.003322   0.000080   0.000001
             19         20         21         22         23         24
     1  C    0.084212   0.000892   0.003011  -0.000154   0.110950   0.001098
     2  C   -0.406641   0.060416   0.014232  -0.001731  -0.383401   0.003472
     3  N    0.056661  -0.001421   0.015814   0.001485   0.041699   0.015601
     4  C    0.023015   0.005727   0.011626  -0.003121   0.099991   0.015003
     5  C   -0.054326  -0.005811   0.000291   0.000894  -0.187770  -0.000728
     6  C    0.048482  -0.013976  -0.023692  -0.086860  -1.373744  -0.044731
     7  C   -0.103275  -0.058836   0.173323   0.083578   0.494165  -0.065783
     8  C    0.351146  -0.010406  -0.134747   0.020322  -0.340796  -0.000376
     9  H   -0.000298   0.000000   0.000021   0.000000   0.000105   0.000000
    10  H    0.000424   0.000017  -0.000023   0.000000   0.000843   0.000000
    11  H    0.010143  -0.000241  -0.000459   0.000008   0.011460  -0.000030
    12  H    0.000170   0.000000   0.000009   0.000000   0.009033   0.000017
    13  H    0.000572  -0.000008  -0.000061  -0.000003  -0.028055   0.000009
    14  H    0.000605   0.000000  -0.000014   0.000000   0.000464   0.000000
    15  H   -0.002108   0.000065  -0.000028  -0.000001   0.002755   0.000000
    16  H    0.002027   0.001446   0.010073  -0.002924  -0.061597   0.004441
    17  H    0.006293   0.000834  -0.031060  -0.002807   0.002610   0.003444
    18  H   -0.045536   0.000187  -0.000358  -0.000146   0.021582  -0.000008
    19  O    8.293533   0.244015  -0.012883  -0.000146   0.078424   0.000112
    20  H    0.244015   0.359291   0.028749  -0.001229   0.001349   0.000000
    21  O   -0.012883   0.028749   8.333053   0.226319  -0.002975   0.002177
    22  H   -0.000146  -0.001229   0.226319   0.336682  -0.020765  -0.000177
    23  C    0.078424   0.001349  -0.002975  -0.020765   6.693962   0.448679
    24  H    0.000112   0.000000   0.002177  -0.000177   0.448679   0.516852
    25  H    0.000091   0.000002  -0.001142   0.000217   0.425575  -0.031782
    26  O   -0.001164  -0.000233  -0.020576   0.043835   0.010271  -0.051453
    27  H    0.000220   0.000004   0.002188  -0.004970   0.008185   0.005325
             25         26         27
     1  C    0.002829  -0.001976  -0.000050
     2  C    0.003125   0.015996   0.000110
     3  N   -0.006821   0.006819   0.001263
     4  C    0.001255   0.001752   0.003794
     5  C   -0.003928   0.006023   0.000011
     6  C   -0.064851   0.073518   0.028309
     7  C    0.021047  -0.060261  -0.052464
     8  C   -0.012888   0.027603  -0.000032
     9  H    0.000000   0.000000   0.000000
    10  H    0.000000  -0.000005   0.000000
    11  H    0.000009  -0.000078   0.000000
    12  H   -0.000152   0.000012   0.000000
    13  H    0.001019  -0.000021   0.000008
    14  H    0.000001  -0.000006   0.000000
    15  H   -0.000007   0.000012   0.000000
    16  H   -0.005899  -0.001596   0.003322
    17  H    0.000065  -0.001899   0.000080
    18  H    0.000003   0.000001   0.000001
    19  O    0.000091  -0.001164   0.000220
    20  H    0.000002  -0.000233   0.000004
    21  O   -0.001142  -0.020576   0.002188
    22  H    0.000217   0.043835  -0.004970
    23  C    0.425575   0.010271   0.008185
    24  H   -0.031782  -0.051453   0.005325
    25  H    0.551263  -0.039721  -0.007577
    26  O   -0.039721   8.334487   0.263788
    27  H   -0.007577   0.263788   0.344322
 Mulliken atomic charges:
              1
     1  C   -0.560105
     2  C    0.173574
     3  N   -0.133390
     4  C   -0.237842
     5  C   -0.221509
     6  C   -0.513596
     7  C   -0.054051
     8  C    0.115123
     9  H    0.174941
    10  H    0.180723
    11  H    0.166785
    12  H    0.163742
    13  H    0.163950
    14  H    0.168598
    15  H    0.180870
    16  H    0.181339
    17  H    0.176300
    18  H    0.157181
    19  O   -0.573769
    20  H    0.389167
    21  O   -0.592866
    22  H    0.411694
    23  C   -0.063000
    24  H    0.178838
    25  H    0.168268
    26  O   -0.605129
    27  H    0.404165
 Sum of Mulliken atomic charges =   0.00000
 Mulliken charges with hydrogens summed into heavy atoms:
              1
     1  C   -0.204442
     2  C    0.340359
     3  N   -0.133390
     4  C    0.089850
     5  C    0.127959
     6  C   -0.332257
     7  C    0.122248
     8  C    0.272303
    19  O   -0.184602
    21  O   -0.181172
    23  C    0.284106
    26  O   -0.200963
 Sum of Mulliken charges with hydrogens summed into heavy atoms =   0.00000
 Electronic spatial extent (au):  <R**2>=           2002.7239
 Charge=              0.0000 electrons
 Dipole moment (field-independent basis, Debye):
    X=             -0.2045    Y=             -2.7077    Z=             -0.9902  Tot=              2.8903
 Quadrupole moment (field-independent basis, Debye-Ang):
   XX=            -76.3263   YY=            -76.7377   ZZ=            -69.7911
   XY=             -0.3540   XZ=             -6.4879   YZ=              6.1653
 Traceless Quadrupole moment (field-independent basis, Debye-Ang):
   XX=             -2.0413   YY=             -2.4527   ZZ=              4.4939
   XY=             -0.3540   XZ=             -6.4879   YZ=              6.1653
 Octapole moment (field-independent basis, Debye-Ang**2):
  XXX=            -14.0887  YYY=            -11.2503  ZZZ=            -10.2890  XYY=              2.7741
  XXY=             -5.8806  XXZ=            -12.1000  XZZ=             19.3350  YZZ=              3.4906
  YYZ=             -3.6338  XYZ=             -1.1020
 Hexadecapole moment (field-independent basis, Debye-Ang**3):
 XXXX=          -1581.3491 YYYY=           -820.4536 ZZZZ=           -269.0824 XXXY=             30.4553
 XXXZ=            -58.6541 YYYX=            -15.7582 YYYZ=              9.5449 ZZZX=            -23.8780
 ZZZY=              2.5746 XXYY=           -403.8532 XXZZ=           -260.5524 YYZZ=           -175.0840
 XXYZ=             11.8851 YYXZ=            -16.4908 ZZXY=             -8.1666
 N-N= 8.138081842889D+02 E-N=-3.013406959133D+03  KE= 5.886739896476D+02
 1\1\GINC-COMPUTE-3-1\SP\RmPW1PW91\6-31+G(d,p)\C8H15N1O3\MAMICHETTI.IQU
 IR\17-May-2024\0\\# mpw1pw91/6-31+G** nmr scrf=(pcm,solvent=water)\\co
 mment\\0,1\C,0,-2.652375,0.165178,0.190411\C,0,-1.301249,0.336532,0.91
 8959\N,0,-0.503437,-0.920726,0.647385\C,0,-1.350014,-1.803517,-0.18924
 \C,0,-2.36572,-0.891885,-0.887693\C,0,0.75226,-0.508094,-0.003044\C,0,
 0.983754,0.908827,0.535487\C,0,-0.420339,1.516719,0.467113\H,0,-3.4031
 93,-0.209965,0.895027\H,0,-3.023156,1.108396,-0.219578\H,0,-1.460481,0
 .436406,1.998495\H,0,-1.874759,-2.523359,0.452696\H,0,-0.728067,-2.380
 054,-0.88054\H,0,-3.263585,-1.428727,-1.211673\H,0,-1.913951,-0.422254
 ,-1.768321\H,0,0.642902,-0.430003,-1.098995\H,0,1.310625,0.859349,1.58
 4306\H,0,-0.537114,2.383588,1.130724\O,0,-0.702626,1.906516,-0.881609\
 H,0,0.161649,2.166069,-1.25465\O,0,1.908154,1.670727,-0.237229\H,0,2.6
 30238,1.045293,-0.450111\C,0,1.924991,-1.440789,0.281837\H,0,2.12383,-
 1.482158,1.357432\H,0,1.719118,-2.459942,-0.069527\O,0,3.129002,-0.934
 392,-0.32985\H,0,3.035915,-1.058193,-1.29047\\Version=AM64L-G09RevC.01
 \State=1-A\HF=-594.2000065\RMSD=6.147e-09\Dipole=-0.0804416,-1.0652989
 ,-0.389567\Quadrupole=-1.5176221,-1.8235121,3.3411342,-0.2632141,-4.82
 35864,4.5837281\PG=C01 [X(C8H15N1O3)]\\@


 IT IS THE BEHAVIOR AND DISTRIBUTION OF THE ELECTRONS 
 AROUND THE NUCLEUS THAT GIVES THE FUNDAMENTAL 
 CHARACTER OF AN ATOM:  IT MUST BE THE SAME FOR MOLECULES.

                               -- C. A. COULSON, 1951
 Job cpu time:  0 days  0 hours  8 minutes 51.2 seconds.
 File lengths (MBytes):  RWF=    111 Int=      0 D2E=      0 Chk=      7 Scr=      1
 Normal termination of Gaussian 09 at Fri May 17 12:38:26 2024.
