 Entering Gaussian System, Link 0=g09
 Input=/home/mamichetti.iquir/Linux/01_Cardona_A1A3_R__S_R_R_009_OptB.gjc
 Output=/home/mamichetti.iquir/Linux/01_Cardona_A1A3_R__S_R_R_009_OptB.log
 Initial command:
 /opt/ohpc/pub/apps/software/Gaussian/09/AMD64.SSE4a-enabled/g09/l1.exe /local/mamichetti.iquir/Gau-405524.inp -scrdir=/local/mamichetti.iquir/
 Entering Link 1 = /opt/ohpc/pub/apps/software/Gaussian/09/AMD64.SSE4a-enabled/g09/l1.exe PID=    405525.
  
 Copyright (c) 1988,1990,1992,1993,1995,1998,2003,2009,2011,
            Gaussian, Inc.  All Rights Reserved.
  
 This is part of the Gaussian(R) 09 program.  It is based on
 the Gaussian(R) 03 system (copyright 2003, Gaussian, Inc.),
 the Gaussian(R) 98 system (copyright 1998, Gaussian, Inc.),
 the Gaussian(R) 94 system (copyright 1995, Gaussian, Inc.),
 the Gaussian 92(TM) system (copyright 1992, Gaussian, Inc.),
 the Gaussian 90(TM) system (copyright 1990, Gaussian, Inc.),
 the Gaussian 88(TM) system (copyright 1988, Gaussian, Inc.),
 the Gaussian 86(TM) system (copyright 1986, Carnegie Mellon
 University), and the Gaussian 82(TM) system (copyright 1983,
 Carnegie Mellon University). Gaussian is a federally registered
 trademark of Gaussian, Inc.
  
 This software contains proprietary and confidential information,
 including trade secrets, belonging to Gaussian, Inc.
  
 This software is provided under written license and may be
 used, copied, transmitted, or stored only in accord with that
 written license.
  
 The following legend is applicable only to US Government
 contracts under FAR:
  
                    RESTRICTED RIGHTS LEGEND
  
 Use, reproduction and disclosure by the US Government is
 subject to restrictions as set forth in subparagraphs (a)
 and (c) of the Commercial Computer Software - Restricted
 Rights clause in FAR 52.227-19.
  
 Gaussian, Inc.
 340 Quinnipiac St., Bldg. 40, Wallingford CT 06492
  
  
 ---------------------------------------------------------------
 Warning -- This program may not be used in any manner that
 competes with the business of Gaussian, Inc. or will provide
 assistance to any competitor of Gaussian, Inc.  The licensee
 of this program is prohibited from giving any competitor of
 Gaussian, Inc. access to this program.  By using this program,
 the user acknowledges that Gaussian, Inc. is engaged in the
 business of creating and licensing software in the field of
 computational chemistry and represents and warrants to the
 licensee that it is not a competitor of Gaussian, Inc. and that
 it will not use this program in any manner prohibited above.
 ---------------------------------------------------------------
  

 Cite this work as:
 Gaussian 09, Revision C.01,
 M. J. Frisch, G. W. Trucks, H. B. Schlegel, G. E. Scuseria, 
 M. A. Robb, J. R. Cheeseman, G. Scalmani, V. Barone, B. Mennucci, 
 G. A. Petersson, H. Nakatsuji, M. Caricato, X. Li, H. P. Hratchian, 
 A. F. Izmaylov, J. Bloino, G. Zheng, J. L. Sonnenberg, M. Hada, 
 M. Ehara, K. Toyota, R. Fukuda, J. Hasegawa, M. Ishida, T. Nakajima, 
 Y. Honda, O. Kitao, H. Nakai, T. Vreven, J. A. Montgomery, Jr., 
 J. E. Peralta, F. Ogliaro, M. Bearpark, J. J. Heyd, E. Brothers, 
 K. N. Kudin, V. N. Staroverov, T. Keith, R. Kobayashi, J. Normand, 
 K. Raghavachari, A. Rendell, J. C. Burant, S. S. Iyengar, J. Tomasi, 
 M. Cossi, N. Rega, J. M. Millam, M. Klene, J. E. Knox, J. B. Cross, 
 V. Bakken, C. Adamo, J. Jaramillo, R. Gomperts, R. E. Stratmann, 
 O. Yazyev, A. J. Austin, R. Cammi, C. Pomelli, J. W. Ochterski, 
 R. L. Martin, K. Morokuma, V. G. Zakrzewski, G. A. Voth, 
 P. Salvador, J. J. Dannenberg, S. Dapprich, A. D. Daniels, 
 O. Farkas, J. B. Foresman, J. V. Ortiz, J. Cioslowski, 
 and D. J. Fox, Gaussian, Inc., Wallingford CT, 2010.
 
 ******************************************
 Gaussian 09:  AM64L-G09RevC.01 23-Sep-2011
                17-May-2024 
 ******************************************
 %nprocshared=4
 Will use up to    4 processors via shared memory.
 ------------------------------------------------
 # mpw1pw91/6-31+G** nmr scrf=(pcm,solvent=water)
 ------------------------------------------------
 1/38=1/1;
 2/12=2,17=6,18=5,40=1/2;
 3/5=1,6=6,7=111,11=2,16=1,25=1,30=1,70=2201,72=1,74=-7/1,2,8,3;
 4//1;
 5/5=2,38=5,53=1/2;
 8/6=1,10=90,11=11/1;
 10/13=100,45=16/2;
 6/7=2,8=2,9=2,10=2,28=1/1;
 99/9=1/99;
 -------
 comment
 -------
 Charge =  0 Multiplicity = 1
 Symbolic Z-Matrix:
 6                    -2.53287   0.00183   0.11474 
 6                    -1.19887   0.33728   0.79828 
 7                    -0.25062  -0.78245   0.44535 
 6                    -0.95977  -1.7072   -0.46125 
 6                    -2.43915  -1.51474  -0.12173 
 6                     0.99082  -0.19417  -0.08925 
 6                     0.99356   1.23923   0.48426 
 6                    -0.48664   1.63938   0.39394 
 1                    -3.39624   0.2933    0.72025 
 1                    -2.60185   0.52056  -0.84727 
 1                    -1.33185   0.35885   1.88798 
 1                    -0.62722  -2.74175  -0.31724 
 1                    -0.77647  -1.44875  -1.51831 
 1                    -2.69491  -2.06395   0.79248 
 1                    -3.09762  -1.86683  -0.92206 
 1                     0.94938  -0.12079  -1.19055 
 1                     1.30191   1.21848   1.53546 
 1                    -0.73866   2.47582   1.05415 
 8                    -0.69557   2.0194   -0.97452 
 1                    -1.52162   2.52731  -1.02026 
 8                     1.86889   2.13653  -0.18188 
 1                     1.39548   2.393    -0.99519 
 6                     2.25477  -0.96544   0.2727 
 1                     3.12431  -0.4081   -0.09191 
 1                     2.34291  -1.05489   1.3647 
 8                     2.33144  -2.25703  -0.34355 
 1                     1.65765  -2.81341   0.07977 
 
                          Input orientation:                          
 ---------------------------------------------------------------------
 Center     Atomic      Atomic             Coordinates (Angstroms)
 Number     Number       Type             X           Y           Z
 ---------------------------------------------------------------------
      1          6           0       -2.532874    0.001831    0.114743
      2          6           0       -1.198874    0.337278    0.798279
      3          7           0       -0.250615   -0.782446    0.445351
      4          6           0       -0.959768   -1.707201   -0.461252
      5          6           0       -2.439152   -1.514736   -0.121731
      6          6           0        0.990816   -0.194169   -0.089249
      7          6           0        0.993561    1.239229    0.484258
      8          6           0       -0.486636    1.639376    0.393935
      9          1           0       -3.396243    0.293298    0.720251
     10          1           0       -2.601850    0.520562   -0.847271
     11          1           0       -1.331845    0.358851    1.887980
     12          1           0       -0.627222   -2.741747   -0.317238
     13          1           0       -0.776467   -1.448753   -1.518307
     14          1           0       -2.694907   -2.063954    0.792480
     15          1           0       -3.097619   -1.866826   -0.922055
     16          1           0        0.949375   -0.120791   -1.190554
     17          1           0        1.301912    1.218481    1.535455
     18          1           0       -0.738656    2.475823    1.054146
     19          8           0       -0.695574    2.019405   -0.974517
     20          1           0       -1.521621    2.527311   -1.020256
     21          8           0        1.868886    2.136534   -0.181882
     22          1           0        1.395479    2.393002   -0.995189
     23          6           0        2.254773   -0.965440    0.272701
     24          1           0        3.124314   -0.408100   -0.091910
     25          1           0        2.342914   -1.054895    1.364704
     26          8           0        2.331440   -2.257031   -0.343546
     27          1           0        1.657648   -2.813412    0.079773
 ---------------------------------------------------------------------
                    Distance matrix (angstroms):
                    1          2          3          4          5
     1  C    0.000000
     2  C    1.536002   0.000000
     3  N    2.435795   1.509150   0.000000
     4  C    2.393162   2.413190   1.476482   0.000000
     5  C    1.537751   2.411361   2.376452   1.529998   0.000000
     6  C    3.535028   2.421752   1.474116   2.496484   3.675545
     7  C    3.755455   2.391421   2.374165   3.659362   4.442417
     8  C    2.635639   1.538258   2.433839   3.486370   3.745217
     9  H    1.094074   2.199194   3.335831   3.366654   2.212226
    10  H    1.095130   2.170200   2.982785   2.794346   2.166868
    11  H    2.171245   1.097996   2.133728   3.150540   2.962329
    12  H    3.368284   3.324389   2.135939   1.096181   2.197014
    13  H    2.802858   2.955487   2.139261   1.103522   2.172395
    14  H    2.180149   2.829145   2.781605   2.170213   1.096737
    15  H    2.210377   3.379772   3.339328   2.192767   1.094561
    16  H    3.720873   2.963150   2.133998   2.587162   3.816750
    17  H    4.266643   2.752068   2.757241   4.202577   4.920600
    18  H    3.197238   2.202418   3.350393   4.454550   4.494322
    19  O    2.938156   2.495129   3.172441   3.771052   4.032054
    20  H    2.947695   2.864870   3.836398   4.308046   4.241150
    21  O    4.901065   3.689063   3.661441   4.780547   5.647529
    22  H    4.730920   3.764731   3.855937   4.758565   5.544163
    23  C    4.886934   3.728402   2.517988   3.379670   4.742387
    24  H    5.675784   4.476380   3.437867   4.301605   5.672538
    25  H    5.143188   3.847499   2.765110   3.829795   5.028827
    26  O    5.382754   4.527397   3.076324   3.338895   4.833089
    27  H    5.048494   4.313098   2.810683   2.892625   4.302433
                    6          7          8          9         10
     6  C    0.000000
     7  C    1.543874   0.000000
     8  C    2.403793   1.535988   0.000000
     9  H    4.487672   4.496761   3.222456   0.000000
    10  H    3.740680   3.900825   2.695639   1.771958   0.000000
    11  H    3.100003   2.855348   2.141563   2.372684   3.020043
    12  H    3.026579   4.372357   4.440695   4.237376   3.850033
    13  H    2.596050   3.790582   3.643791   3.861232   2.767763
    14  H    4.225884   4.960929   4.330121   2.460432   3.062216
    15  H    4.495181   5.325697   4.565360   2.729923   2.439467
    16  H    1.104525   2.157916   2.769643   4.765191   3.624966
    17  H    2.175322   1.095685   2.163128   4.857281   4.626428
    18  H    3.380426   2.203296   1.095005   3.455093   3.303017
    19  O    2.920192   2.364292   1.435527   3.625644   2.428294
    20  H    3.819106   3.201384   1.964576   3.396231   2.285577
    21  O    2.492341   1.419540   2.475321   5.650924   4.800165
    22  H    2.770908   1.918722   2.457636   5.505642   4.416622
    23  C    1.524288   2.548721   3.783528   5.806781   5.200897
    24  H    2.144199   2.754228   4.179374   6.608270   5.849952
    25  H    2.164023   2.803381   4.025896   5.930503   5.641417
    26  O    2.473326   3.833929   4.864917   6.359418   5.683847
    27  H    2.708074   4.126563   4.952168   5.966881   5.487997
                   11         12         13         14         15
    11  H    0.000000
    12  H    3.869520   0.000000
    13  H    3.895981   1.771066   0.000000
    14  H    2.987983   2.442580   3.065717   0.000000
    15  H    3.995985   2.689638   2.432704   1.772193   0.000000
    16  H    3.861527   3.180841   2.202143   4.581386   4.415755
    17  H    2.792833   4.778853   4.556233   5.225031   5.908836
    18  H    2.351324   5.395938   4.692679   4.950249   5.322469
    19  O    3.369892   4.806793   3.511463   4.877851   4.568957
    20  H    3.632640   5.390469   4.075830   5.073690   4.669245
    21  O    4.205849   5.481469   4.651689   6.278669   6.421909
    22  H    4.459678   5.560268   4.444107   6.308048   6.191883
    23  C    4.150506   3.436450   3.553831   5.096689   5.557701
    24  H    4.936145   4.423879   4.281782   6.114518   6.444336
    25  H    3.971945   3.807375   4.265843   5.169650   5.957172
    26  O    5.024162   2.998220   3.419424   5.156743   5.473720
    27  H    4.719103   2.320212   3.215753   4.473743   4.950985
                   16         17         18         19         20
    16  H    0.000000
    17  H    3.057623   0.000000
    18  H    3.824988   2.444685   0.000000
    19  O    2.707945   3.306265   2.079819   0.000000
    20  H    3.625916   4.027038   2.217843   0.970780   0.000000
    21  O    2.637885   2.028183   2.905539   2.686716   3.514415
    22  H    2.560533   2.791489   2.959927   2.124266   2.920298
    23  C    2.135090   2.696665   4.627479   4.378287   5.303980
    24  H    2.453553   2.935171   4.955098   4.611217   5.573435
    25  H    3.056770   2.506208   4.696647   4.914843   5.784018
    26  O    2.681613   4.082861   5.811965   5.277200   6.180125
    27  H    3.060325   4.301362   5.887927   5.477709   6.311984
                   21         22         23         24         25
    21  O    0.000000
    22  H    0.975376   0.000000
    23  C    3.158765   3.691214   0.000000
    24  H    2.838901   3.413350   1.095295   0.000000
    25  H    3.577967   4.284241   1.099200   1.775008   0.000000
    26  O    4.420804   4.787846   1.433124   2.027441   2.088871
    27  H    4.961356   5.322689   1.951610   2.822430   2.283204
                   26         27
    26  O    0.000000
    27  H    0.970955   0.000000
 Stoichiometry    C8H15NO3
 Framework group  C1[X(C8H15NO3)]
 Deg. of freedom    75
 Full point group                 C1      NOp   1
 Largest Abelian subgroup         C1      NOp   1
 Largest concise Abelian subgroup C1      NOp   1
                         Standard orientation:                         
 ---------------------------------------------------------------------
 Center     Atomic      Atomic             Coordinates (Angstroms)
 Number     Number       Type             X           Y           Z
 ---------------------------------------------------------------------
      1          6           0       -2.532874    0.001831    0.114743
      2          6           0       -1.198874    0.337278    0.798279
      3          7           0       -0.250615   -0.782446    0.445351
      4          6           0       -0.959768   -1.707201   -0.461252
      5          6           0       -2.439152   -1.514736   -0.121731
      6          6           0        0.990816   -0.194169   -0.089249
      7          6           0        0.993561    1.239229    0.484258
      8          6           0       -0.486636    1.639376    0.393935
      9          1           0       -3.396243    0.293298    0.720251
     10          1           0       -2.601850    0.520562   -0.847271
     11          1           0       -1.331845    0.358851    1.887980
     12          1           0       -0.627222   -2.741747   -0.317238
     13          1           0       -0.776467   -1.448753   -1.518307
     14          1           0       -2.694907   -2.063954    0.792480
     15          1           0       -3.097619   -1.866826   -0.922055
     16          1           0        0.949375   -0.120791   -1.190554
     17          1           0        1.301912    1.218481    1.535455
     18          1           0       -0.738656    2.475823    1.054146
     19          8           0       -0.695574    2.019405   -0.974517
     20          1           0       -1.521621    2.527311   -1.020256
     21          8           0        1.868886    2.136534   -0.181882
     22          1           0        1.395479    2.393002   -0.995189
     23          6           0        2.254773   -0.965440    0.272701
     24          1           0        3.124314   -0.408100   -0.091910
     25          1           0        2.342914   -1.054895    1.364704
     26          8           0        2.331440   -2.257031   -0.343546
     27          1           0        1.657648   -2.813412    0.079773
 ---------------------------------------------------------------------
 Rotational constants (GHZ):      1.1089767      0.9473602      0.5737569
 Standard basis: 6-31+G(d,p) (6D, 7F)
 There are   303 symmetry adapted basis functions of A   symmetry.
 Integral buffers will be    131072 words long.
 Raffenetti 2 integral format.
 Two-electron integral symmetry is turned on.
   303 basis functions,   489 primitive gaussians,   303 cartesian basis functions
    47 alpha electrons       47 beta electrons
       nuclear repulsion energy       805.4053008514 Hartrees.
 NAtoms=   27 NActive=   27 NUniq=   27 SFac= 1.00D+00 NAtFMM=   60 NAOKFM=F Big=F
 ------------------------------------------------------------------------------
 Polarizable Continuum Model (PCM)
 =================================
 Model                : PCM.
 Atomic radii         : UFF (Universal Force Field).
 Polarization charges : Total charges.
 Charge compensation  : None.
 Solution method      : Matrix inversion.
 Cavity type          : Scaled VdW (van der Waals Surface) (Alpha=1.100).
 Cavity algorithm     : GePol (No added spheres)
                        Default sphere list used, NSphG=   27.
                        Lebedev-Laikov grids with approx.  5.0 points / Ang**2.
                        Smoothing algorithm: Karplus/York (Gamma=1.0000).
                        Polarization charges: spherical gaussians, with
                                              point-specific exponents (IZeta= 3).
                        Self-potential: point-specific (ISelfS= 7).
                        Self-field    : sphere-specific E.n sum rule (ISelfD= 2).
 Solvent              : Water, Eps=  78.355300 Eps(inf)=   1.777849
 ------------------------------------------------------------------------------
 One-electron integrals computed using PRISM.
 NBasis=   303 RedAO= T  NBF=   303
 NBsUse=   303 1.00D-06 NBFU=   303
 Harris functional with IExCor=  908 diagonalized for initial guess.
 ExpMin= 4.38D-02 ExpMax= 5.48D+03 ExpMxC= 8.25D+02 IAcc=2 IRadAn=         4 AccDes= 0.00D+00
 HarFok:  IExCor=  908 AccDes= 0.00D+00 IRadAn=         4 IDoV= 1
 ScaDFX=  1.000000  1.000000  1.000000  1.000000
 FoFCou: FMM=F IPFlag=           0 FMFlag=      100000 FMFlg1=           0
         NFxFlg=           0 DoJE=T BraDBF=F KetDBF=T FulRan=T
         Omega=  0.000000  0.000000  1.000000  0.000000  0.000000 ICntrl=     500 IOpCl=  0
         NMat0=    1 NMatS0=    1 NMatT0=    0 NMatD0=    1 NMtDS0=    0 NMtDT0=    0
         I1Cent=           4 NGrid=           0.
 Petite list used in FoFCou.
 Initial guess orbital symmetries:
       Occupied  (A) (A) (A) (A) (A) (A) (A) (A) (A) (A) (A) (A)
                 (A) (A) (A) (A) (A) (A) (A) (A) (A) (A) (A) (A)
                 (A) (A) (A) (A) (A) (A) (A) (A) (A) (A) (A) (A)
                 (A) (A) (A) (A) (A) (A) (A) (A) (A) (A) (A)
       Virtual   (A) (A) (A) (A) (A) (A) (A) (A) (A) (A) (A) (A)
                 (A) (A) (A) (A) (A) (A) (A) (A) (A) (A) (A) (A)
                 (A) (A) (A) (A) (A) (A) (A) (A) (A) (A) (A) (A)
                 (A) (A) (A) (A) (A) (A) (A) (A) (A) (A) (A) (A)
                 (A) (A) (A) (A) (A) (A) (A) (A) (A) (A) (A) (A)
                 (A) (A) (A) (A) (A) (A) (A) (A) (A) (A) (A) (A)
                 (A) (A) (A) (A) (A) (A) (A) (A) (A) (A) (A) (A)
                 (A) (A) (A) (A) (A) (A) (A) (A) (A) (A) (A) (A)
                 (A) (A) (A) (A) (A) (A) (A) (A) (A) (A) (A) (A)
                 (A) (A) (A) (A) (A) (A) (A) (A) (A) (A) (A) (A)
                 (A) (A) (A) (A) (A) (A) (A) (A) (A) (A) (A) (A)
                 (A) (A) (A) (A) (A) (A) (A) (A) (A) (A) (A) (A)
                 (A) (A) (A) (A) (A) (A) (A) (A) (A) (A) (A) (A)
                 (A) (A) (A) (A) (A) (A) (A) (A) (A) (A) (A) (A)
                 (A) (A) (A) (A) (A) (A) (A) (A) (A) (A) (A) (A)
                 (A) (A) (A) (A) (A) (A) (A) (A) (A) (A) (A) (A)
                 (A) (A) (A) (A) (A) (A) (A) (A) (A) (A) (A) (A)
                 (A) (A) (A) (A) (A) (A) (A) (A) (A) (A) (A) (A)
                 (A) (A) (A) (A) (A) (A) (A) (A) (A) (A) (A) (A)
                 (A) (A) (A) (A) (A) (A) (A) (A) (A) (A) (A) (A)
                 (A) (A) (A) (A) (A) (A) (A) (A) (A) (A) (A) (A)
                 (A) (A) (A) (A)
 The electronic state of the initial guess is 1-A.
 Requested convergence on RMS density matrix=1.00D-08 within 128 cycles.
 Requested convergence on MAX density matrix=1.00D-06.
 Requested convergence on             energy=1.00D-06.
 No special actions if energy rises.
 Error on total polarization charges =  0.01442
 SCF Done:  E(RmPW1PW91) =  -594.200067687     A.U. after   13 cycles
             Convg  =    0.6338D-08             -V/T =  2.0094
 Range of M.O.s used for correlation:     1   303
 NBasis=   303 NAE=    47 NBE=    47 NFC=     0 NFV=     0
 NROrb=    303 NOA=    47 NOB=    47 NVA=   256 NVB=   256

 **** Warning!!: The largest alpha MO coefficient is  0.69186502D+02

 NEqPCM:  Using equilibrium solvation (IEInf=0, Eps=  78.3553, EpsInf=   1.7778)
          Differentiating once with respect to magnetic field using GIAOs.
          Electric field/nuclear overlap derivatives assumed to be zero.
 FoFCou: FMM=F IPFlag=           0 FMFlag=    10101102 FMFlg1=           0
         NFxFlg=    40000000 DoJE=F BraDBF=F KetDBF=T FulRan=T
         Omega=  0.000000  0.000000  1.000000  0.000000  0.000000 ICntrl=    6100 IOpCl=  0
         NMat0=    1 NMatS0=    1 NMatT0=    0 NMatD0=    1 NMtDS0=    0 NMtDT0=    0
         I1Cent=           7 NGrid=        1839.
 Symmetry not used in FoFCou.
          There are     3 degrees of freedom in the 1st order CPHF.  IDoFFX=0.
      3 vectors produced by pass  0 Test12= 4.01D-13 3.33D-08 XBig12= 4.37D+01 1.23D+00.
 AX will form     3 AO Fock derivatives at one time.
      3 vectors produced by pass  1 Test12= 4.01D-13 3.33D-08 XBig12= 1.10D-01 5.83D-02.
      3 vectors produced by pass  2 Test12= 4.01D-13 3.33D-08 XBig12= 2.96D-04 3.83D-03.
      3 vectors produced by pass  3 Test12= 4.01D-13 3.33D-08 XBig12= 1.36D-06 2.79D-04.
      3 vectors produced by pass  4 Test12= 4.01D-13 3.33D-08 XBig12= 4.53D-09 1.12D-05.
      3 vectors produced by pass  5 Test12= 4.01D-13 3.33D-08 XBig12= 1.34D-11 6.54D-07.
      1 vectors produced by pass  6 Test12= 4.01D-13 3.33D-08 XBig12= 5.05D-14 3.65D-08.
 Inverted reduced A of dimension    19 with in-core refinement.
 Calculating GIAO nuclear magnetic shielding tensors.
 SCF GIAO Magnetic shielding tensor (ppm):
      1  C    Isotropic =   170.7830   Anisotropy =    18.9983
   XX=   177.7917   YX=     2.6360   ZX=     4.9677
   XY=    -6.8745   YY=   180.3221   ZY=    12.4499
   XZ=     5.6197   YZ=     6.5610   ZZ=   154.2352
   Eigenvalues:   149.9751   178.9254   183.4485
      2  C    Isotropic =   127.2159   Anisotropy =    50.2165
   XX=   139.2021   YX=   -13.5570   ZX=    -0.0461
   XY=   -14.4118   YY=   150.2177   ZY=    10.0134
   XZ=    -2.4057   YZ=     7.7959   ZZ=    92.2281
   Eigenvalues:    90.8750   130.0793   160.6936
      3  N    Isotropic =   191.3341   Anisotropy =    87.3766
   XX=   248.0556   YX=    -2.4844   ZX=   -14.5451
   XY=     8.7349   YY=   194.5714   ZY=    24.6426
   XZ=   -12.3307   YZ=    24.7980   ZZ=   131.3754
   Eigenvalues:   121.3677   203.0494   249.5851
      4  C    Isotropic =   136.0831   Anisotropy =    56.9062
   XX=   143.6491   YX=    16.1657   ZX=    13.7182
   XY=    25.6215   YY=   133.0259   ZY=    19.7602
   XZ=    10.6466   YZ=    26.7203   ZZ=   131.5744
   Eigenvalues:   107.6759   126.5529   174.0206
      5  C    Isotropic =   164.6692   Anisotropy =    24.7599
   XX=   180.2636   YX=    -1.1687   ZX=     2.1204
   XY=     0.3428   YY=   174.4769   ZY=    17.9452
   XZ=    -7.1665   YZ=     9.9345   ZZ=   139.2670
   Eigenvalues:   134.3064   178.5253   181.1758
      6  C    Isotropic =   121.7171   Anisotropy =    44.9988
   XX=   131.5163   YX=    14.0075   ZX=    -6.0879
   XY=    30.9715   YY=   122.4801   ZY=   -10.4871
   XZ=   -11.8312   YZ=     5.6511   ZZ=   111.1549
   Eigenvalues:   102.1332   111.3018   151.7163
      7  C    Isotropic =   117.8229   Anisotropy =    53.1174
   XX=   130.6989   YX=    19.4494   ZX=   -23.4533
   XY=    13.3676   YY=   135.6136   ZY=    -7.1299
   XZ=   -12.5025   YZ=    -0.9556   ZZ=    87.1563
   Eigenvalues:    80.6319   119.6024   153.2345
      8  C    Isotropic =   121.7197   Anisotropy =    27.9974
   XX=   115.6580   YX=     9.3887   ZX=     3.8084
   XY=     8.4864   YY=   114.6351   ZY=   -13.2750
   XZ=    11.0559   YZ=    -9.2989   ZZ=   134.8659
   Eigenvalues:   100.9370   123.8374   140.3846
      9  H    Isotropic =    29.9652   Anisotropy =    11.7236
   XX=    34.9776   YX=    -1.9818   ZX=    -3.9927
   XY=    -3.1854   YY=    27.8739   ZY=     2.2160
   XZ=    -4.3924   YZ=     1.6518   ZZ=    27.0441
   Eigenvalues:    24.9648    27.1499    37.7809
     10  H    Isotropic =    29.7668   Anisotropy =     7.1826
   XX=    29.3474   YX=     0.5275   ZX=     2.8757
   XY=     0.8964   YY=    30.5607   ZY=    -4.0162
   XZ=     3.2333   YZ=    -4.0684   ZZ=    29.3922
   Eigenvalues:    24.2979    30.4473    34.5552
     11  H    Isotropic =    28.0087   Anisotropy =     8.8963
   XX=    26.7104   YX=    -1.1762   ZX=    -2.7711
   XY=    -0.8058   YY=    25.0140   ZY=     2.5199
   XZ=    -2.5862   YZ=     1.5093   ZZ=    32.3016
   Eigenvalues:    24.4303    25.6562    33.9396
     12  H    Isotropic =    28.4070   Anisotropy =     8.7571
   XX=    28.0685   YX=    -0.3713   ZX=     0.6974
   XY=    -1.1768   YY=    33.9102   ZY=     1.3520
   XZ=     0.9704   YZ=     2.0762   ZZ=    23.2424
   Eigenvalues:    22.8034    28.1726    34.2451
     13  H    Isotropic =    29.0531   Anisotropy =     7.3815
   XX=    27.9003   YX=     0.2982   ZX=     0.8134
   XY=     0.7255   YY=    26.7166   ZY=     3.6341
   XZ=    -0.7038   YZ=     2.7834   ZZ=    32.5424
   Eigenvalues:    25.2214    27.9638    33.9741
     14  H    Isotropic =    29.4917   Anisotropy =    10.9287
   XX=    28.8287   YX=     2.7718   ZX=    -3.3590
   XY=     3.0575   YY=    31.3905   ZY=    -4.0389
   XZ=    -3.5845   YZ=    -4.4152   ZZ=    28.2561
   Eigenvalues:    24.6699    27.0278    36.7775
     15  H    Isotropic =    29.4622   Anisotropy =    11.5752
   XX=    31.4697   YX=     3.2083   ZX=     4.3347
   XY=     3.8801   YY=    28.8851   ZY=     3.5700
   XZ=     4.2852   YZ=     3.0648   ZZ=    28.0318
   Eigenvalues:    24.7764    26.4312    37.1790
     16  H    Isotropic =    28.8410   Anisotropy =     3.8975
   XX=    29.7078   YX=    -0.5150   ZX=    -2.2511
   XY=    -1.3967   YY=    28.4871   ZY=    -1.8484
   XZ=    -2.3681   YZ=    -0.1567   ZZ=    28.3281
   Eigenvalues:    25.8807    29.2029    31.4393
     17  H    Isotropic =    27.7199   Anisotropy =     4.4179
   XX=    26.4674   YX=     1.9683   ZX=     0.0787
   XY=     1.1002   YY=    27.1479   ZY=     0.4470
   XZ=     3.0223   YZ=     0.9657   ZZ=    29.5443
   Eigenvalues:    25.0797    27.4148    30.6652
     18  H    Isotropic =    27.6750   Anisotropy =     8.5350
   XX=    23.6874   YX=    -1.1774   ZX=    -0.1712
   XY=    -0.9677   YY=    28.7479   ZY=     2.6296
   XZ=    -0.6991   YZ=     4.3156   ZZ=    30.5896
   Eigenvalues:    23.4552    26.2048    33.3650
     19  O    Isotropic =   302.5158   Anisotropy =    43.0245
   XX=   313.2746   YX=   -19.1456   ZX=    -1.0893
   XY=   -21.3065   YY=   302.0415   ZY=    20.2919
   XZ=    -7.8798   YZ=     0.5521   ZZ=   292.2313
   Eigenvalues:   282.5476   293.8010   331.1989
     20  H    Isotropic =    29.6738   Anisotropy =    20.7940
   XX=    34.8219   YX=    -9.5743   ZX=     2.8969
   XY=    -9.5426   YY=    29.8469   ZY=    -5.5707
   XZ=     2.6688   YZ=    -3.6412   ZZ=    24.3528
   Eigenvalues:    20.8411    24.6439    43.5365
     21  O    Isotropic =   303.5750   Anisotropy =    35.0586
   XX=   289.7127   YX=    -1.5604   ZX=    15.5885
   XY=    23.9233   YY=   323.1845   ZY=   -11.4130
   XZ=    17.1941   YZ=    -4.3890   ZZ=   297.8278
   Eigenvalues:   273.1462   310.6315   326.9474
     22  H    Isotropic =    28.6424   Anisotropy =    14.4616
   XX=    29.9339   YX=     1.8672   ZX=     4.3641
   XY=    -0.1908   YY=    23.2246   ZY=    -7.1785
   XZ=     4.2898   YZ=    -7.6911   ZZ=    32.7686
   Eigenvalues:    18.4356    29.2080    38.2835
     23  C    Isotropic =   124.9982   Anisotropy =    50.7084
   XX=   116.6480   YX=   -10.0949   ZX=     9.5989
   XY=   -15.2911   YY=   146.0150   ZY=    22.6193
   XZ=     5.0762   YZ=    22.0617   ZZ=   112.3317
   Eigenvalues:    94.2076   121.9832   158.8039
     24  H    Isotropic =    27.6896   Anisotropy =     5.2859
   XX=    31.0863   YX=    -0.4142   ZX=    -0.7951
   XY=     1.2298   YY=    29.7466   ZY=     0.2789
   XZ=    -0.4135   YZ=     1.6108   ZZ=    22.2360
   Eigenvalues:    22.0721    29.7832    31.2136
     25  H    Isotropic =    27.9467   Anisotropy =     5.4318
   XX=    26.0450   YX=    -1.8788   ZX=     3.3960
   XY=    -1.5863   YY=    28.6263   ZY=     3.1948
   XZ=     3.2836   YZ=     0.8086   ZZ=    29.1687
   Eigenvalues:    22.8024    29.4698    31.5678
     26  O    Isotropic =   306.2125   Anisotropy =    22.4136
   XX=   308.4329   YX=    15.7171   ZX=     3.7057
   XY=     5.3515   YY=   309.5516   ZY=    -2.2306
   XZ=   -14.2445   YZ=    -3.5716   ZZ=   300.6530
   Eigenvalues:   296.9551   300.5275   321.1549
     27  H    Isotropic =    30.1295   Anisotropy =    14.8573
   XX=    31.3793   YX=     4.4978   ZX=    -5.5141
   XY=     4.9591   YY=    35.2460   ZY=    -2.7226
   XZ=    -4.5288   YZ=    -2.6455   ZZ=    23.7634
   Eigenvalues:    21.2616    29.0926    40.0344
 End of Minotr Frequency-dependent properties file   721 does not exist.
 End of Minotr Frequency-dependent properties file   722 does not exist.

 **********************************************************************

            Population analysis using the SCF density.

 **********************************************************************

 Orbital symmetries:
       Occupied  (A) (A) (A) (A) (A) (A) (A) (A) (A) (A) (A) (A)
                 (A) (A) (A) (A) (A) (A) (A) (A) (A) (A) (A) (A)
                 (A) (A) (A) (A) (A) (A) (A) (A) (A) (A) (A) (A)
                 (A) (A) (A) (A) (A) (A) (A) (A) (A) (A) (A)
       Virtual   (A) (A) (A) (A) (A) (A) (A) (A) (A) (A) (A) (A)
                 (A) (A) (A) (A) (A) (A) (A) (A) (A) (A) (A) (A)
                 (A) (A) (A) (A) (A) (A) (A) (A) (A) (A) (A) (A)
                 (A) (A) (A) (A) (A) (A) (A) (A) (A) (A) (A) (A)
                 (A) (A) (A) (A) (A) (A) (A) (A) (A) (A) (A) (A)
                 (A) (A) (A) (A) (A) (A) (A) (A) (A) (A) (A) (A)
                 (A) (A) (A) (A) (A) (A) (A) (A) (A) (A) (A) (A)
                 (A) (A) (A) (A) (A) (A) (A) (A) (A) (A) (A) (A)
                 (A) (A) (A) (A) (A) (A) (A) (A) (A) (A) (A) (A)
                 (A) (A) (A) (A) (A) (A) (A) (A) (A) (A) (A) (A)
                 (A) (A) (A) (A) (A) (A) (A) (A) (A) (A) (A) (A)
                 (A) (A) (A) (A) (A) (A) (A) (A) (A) (A) (A) (A)
                 (A) (A) (A) (A) (A) (A) (A) (A) (A) (A) (A) (A)
                 (A) (A) (A) (A) (A) (A) (A) (A) (A) (A) (A) (A)
                 (A) (A) (A) (A) (A) (A) (A) (A) (A) (A) (A) (A)
                 (A) (A) (A) (A) (A) (A) (A) (A) (A) (A) (A) (A)
                 (A) (A) (A) (A) (A) (A) (A) (A) (A) (A) (A) (A)
                 (A) (A) (A) (A) (A) (A) (A) (A) (A) (A) (A) (A)
                 (A) (A) (A) (A) (A) (A) (A) (A) (A) (A) (A) (A)
                 (A) (A) (A) (A) (A) (A) (A) (A) (A) (A) (A) (A)
                 (A) (A) (A) (A) (A) (A) (A) (A) (A) (A) (A) (A)
                 (A) (A) (A) (A)
 The electronic state is 1-A.
 Alpha  occ. eigenvalues --  -19.26633 -19.25698 -19.25535 -14.41271 -10.30768
 Alpha  occ. eigenvalues --  -10.30736 -10.29296 -10.27910 -10.27654 -10.26982
 Alpha  occ. eigenvalues --  -10.24699 -10.24665  -1.08147  -1.05584  -1.05178
 Alpha  occ. eigenvalues --   -0.96354  -0.83027  -0.79430  -0.75234  -0.71799
 Alpha  occ. eigenvalues --   -0.66345  -0.62164  -0.60609  -0.57944  -0.56004
 Alpha  occ. eigenvalues --   -0.53046  -0.52579  -0.50788  -0.49254  -0.46485
 Alpha  occ. eigenvalues --   -0.45449  -0.44790  -0.43191  -0.42991  -0.39982
 Alpha  occ. eigenvalues --   -0.39690  -0.38985  -0.38162  -0.36427  -0.35853
 Alpha  occ. eigenvalues --   -0.35022  -0.34494  -0.33333  -0.31060  -0.30519
 Alpha  occ. eigenvalues --   -0.28911  -0.23061
 Alpha virt. eigenvalues --    0.00345   0.01402   0.01954   0.02412   0.03672
 Alpha virt. eigenvalues --    0.04344   0.04789   0.05150   0.05457   0.07085
 Alpha virt. eigenvalues --    0.07410   0.08096   0.08637   0.09243   0.09589
 Alpha virt. eigenvalues --    0.10076   0.11402   0.11800   0.12232   0.12937
 Alpha virt. eigenvalues --    0.13591   0.14312   0.14448   0.15032   0.15203
 Alpha virt. eigenvalues --    0.15561   0.16321   0.17038   0.18223   0.18573
 Alpha virt. eigenvalues --    0.18871   0.19359   0.20137   0.20480   0.21221
 Alpha virt. eigenvalues --    0.21345   0.22427   0.22695   0.22870   0.23288
 Alpha virt. eigenvalues --    0.23870   0.24905   0.25256   0.25954   0.26287
 Alpha virt. eigenvalues --    0.26626   0.27010   0.27460   0.27702   0.28355
 Alpha virt. eigenvalues --    0.29510   0.30002   0.30281   0.31770   0.32014
 Alpha virt. eigenvalues --    0.32632   0.33022   0.33549   0.33642   0.34478
 Alpha virt. eigenvalues --    0.35630   0.35894   0.35956   0.37292   0.37854
 Alpha virt. eigenvalues --    0.38280   0.39495   0.40354   0.40803   0.41586
 Alpha virt. eigenvalues --    0.42115   0.42652   0.44346   0.44963   0.45154
 Alpha virt. eigenvalues --    0.49129   0.63723   0.66183   0.67617   0.68331
 Alpha virt. eigenvalues --    0.68966   0.71126   0.71586   0.73022   0.73694
 Alpha virt. eigenvalues --    0.74671   0.76347   0.78917   0.79434   0.81984
 Alpha virt. eigenvalues --    0.82806   0.85397   0.86877   0.87446   0.88644
 Alpha virt. eigenvalues --    0.90172   0.91016   0.92322   0.94075   0.95600
 Alpha virt. eigenvalues --    0.98081   0.99763   1.01516   1.02053   1.05271
 Alpha virt. eigenvalues --    1.06028   1.07057   1.07702   1.08832   1.11468
 Alpha virt. eigenvalues --    1.12302   1.12650   1.13801   1.14130   1.16049
 Alpha virt. eigenvalues --    1.17092   1.18256   1.19968   1.22039   1.24532
 Alpha virt. eigenvalues --    1.26001   1.28315   1.29731   1.31339   1.33175
 Alpha virt. eigenvalues --    1.34405   1.37284   1.39220   1.40292   1.42322
 Alpha virt. eigenvalues --    1.42531   1.45697   1.46701   1.47648   1.49870
 Alpha virt. eigenvalues --    1.53956   1.54545   1.58657   1.59881   1.61178
 Alpha virt. eigenvalues --    1.62110   1.62373   1.66063   1.69287   1.70358
 Alpha virt. eigenvalues --    1.71646   1.74090   1.75489   1.76829   1.78881
 Alpha virt. eigenvalues --    1.80518   1.83283   1.83633   1.84467   1.85659
 Alpha virt. eigenvalues --    1.88132   1.90280   1.92088   1.93629   1.94733
 Alpha virt. eigenvalues --    1.96058   1.99081   2.01770   2.02239   2.05652
 Alpha virt. eigenvalues --    2.05839   2.06800   2.08552   2.10055   2.10556
 Alpha virt. eigenvalues --    2.13427   2.15211   2.15884   2.16842   2.17814
 Alpha virt. eigenvalues --    2.22037   2.24791   2.25744   2.27489   2.28347
 Alpha virt. eigenvalues --    2.29046   2.31560   2.35561   2.37167   2.39938
 Alpha virt. eigenvalues --    2.40969   2.42988   2.44342   2.45406   2.46837
 Alpha virt. eigenvalues --    2.47579   2.49976   2.51390   2.52792   2.55599
 Alpha virt. eigenvalues --    2.57048   2.57993   2.60114   2.62014   2.63091
 Alpha virt. eigenvalues --    2.65095   2.67307   2.67848   2.68805   2.69219
 Alpha virt. eigenvalues --    2.69923   2.74174   2.75131   2.75942   2.77838
 Alpha virt. eigenvalues --    2.79908   2.80761   2.81294   2.83103   2.85295
 Alpha virt. eigenvalues --    2.85896   2.88447   2.90757   2.92959   2.95579
 Alpha virt. eigenvalues --    2.99081   2.99642   3.01740   3.03117   3.04389
 Alpha virt. eigenvalues --    3.06841   3.09243   3.11355   3.12437   3.32242
 Alpha virt. eigenvalues --    3.34735   3.36140   3.36884   3.40215   3.46324
 Alpha virt. eigenvalues --    3.47753   3.50263   3.51767   3.54763   3.55847
 Alpha virt. eigenvalues --    3.56935   3.58470   3.60252   3.61618   4.29859
 Alpha virt. eigenvalues --    4.31511   4.36679   4.45011   4.48196   4.51417
 Alpha virt. eigenvalues --    4.59096   4.68563   4.77917   4.80669   4.88263
 Alpha virt. eigenvalues --    5.00585
          Condensed to atoms (all electrons):
              1          2          3          4          5          6
     1  C    5.890814  -0.629681   0.052747  -0.295608   0.254244   0.035483
     2  C   -0.629681   9.369349  -0.265900  -0.421391   0.402021  -0.743798
     3  N    0.052747  -0.265900   7.459756   0.250355  -0.165570  -0.352652
     4  C   -0.295608  -0.421391   0.250355   5.843106  -0.070476  -0.064497
     5  C    0.254244   0.402021  -0.165570  -0.070476   5.745796  -0.182922
     6  C    0.035483  -0.743798  -0.352652  -0.064497  -0.182922   9.790484
     7  C    0.151429   0.189341   0.095541  -0.065545  -0.063339  -1.867087
     8  C    0.076670  -1.784809  -0.072493   0.274736  -0.195178   0.911380
     9  H    0.378391  -0.060514   0.012908   0.032718  -0.038296   0.004831
    10  H    0.487996  -0.214143   0.028174   0.019377  -0.060501   0.006421
    11  H    0.060079   0.096653  -0.005364   0.015487  -0.025041   0.037250
    12  H    0.029713   0.013642  -0.045204   0.365582  -0.018651  -0.013437
    13  H    0.008544  -0.006764  -0.095081   0.434699  -0.045388   0.003204
    14  H   -0.023166  -0.049915   0.014997  -0.033428   0.401920   0.005769
    15  H   -0.066822   0.045338   0.005814  -0.014448   0.376799  -0.006355
    16  H   -0.002524   0.022016  -0.072709   0.022527   0.008492   0.298538
    17  H    0.009965  -0.002445   0.040416   0.007807   0.002314  -0.151494
    18  H   -0.000018  -0.034501   0.015505   0.002162  -0.000800   0.013034
    19  O    0.027393  -0.085498   0.031058   0.016334  -0.008900   0.100952
    20  H    0.006267  -0.069561  -0.001707  -0.001740  -0.001396  -0.006877
    21  O   -0.001480   0.032001   0.003516  -0.007927   0.002865  -0.190673
    22  H    0.003399   0.007038   0.005996   0.002482   0.000112  -0.048803
    23  C   -0.004169   0.199506   0.190297  -0.112155   0.049160  -1.236618
    24  H   -0.000228   0.016197   0.011926  -0.006093   0.001419  -0.220907
    25  H    0.001919   0.002518   0.010124   0.015051   0.002187  -0.065415
    26  O   -0.002580   0.039517   0.023521  -0.008885   0.021044  -0.110295
    27  H   -0.001708   0.014302   0.021964  -0.001973   0.011908  -0.115448
              7          8          9         10         11         12
     1  C    0.151429   0.076670   0.378391   0.487996   0.060079   0.029713
     2  C    0.189341  -1.784809  -0.060514  -0.214143   0.096653   0.013642
     3  N    0.095541  -0.072493   0.012908   0.028174  -0.005364  -0.045204
     4  C   -0.065545   0.274736   0.032718   0.019377   0.015487   0.365582
     5  C   -0.063339  -0.195178  -0.038296  -0.060501  -0.025041  -0.018651
     6  C   -1.867087   0.911380   0.004831   0.006421   0.037250  -0.013437
     7  C    7.858995  -0.905826  -0.006379  -0.003895  -0.044087   0.000007
     8  C   -0.905826   7.321919   0.018866   0.046760   0.125004  -0.007777
     9  H   -0.006379   0.018866   0.514567  -0.024887  -0.004688  -0.000105
    10  H   -0.003895   0.046760  -0.024887   0.527514   0.004289  -0.000027
    11  H   -0.044087   0.125004  -0.004688   0.004289   0.564684   0.000195
    12  H    0.000007  -0.007777  -0.000105  -0.000027   0.000195   0.559028
    13  H    0.016594  -0.000396  -0.000147   0.001224  -0.000505  -0.044075
    14  H   -0.000156   0.012219  -0.005178   0.004100   0.000755  -0.006001
    15  H    0.002232  -0.001541   0.000586  -0.005629  -0.000111   0.000752
    16  H    0.041544  -0.028453  -0.000007  -0.000139  -0.000600  -0.001167
    17  H    0.463128  -0.081654   0.000002  -0.000011   0.000336   0.000007
    18  H   -0.010893   0.334373   0.000227   0.000218  -0.002010   0.000004
    19  O   -0.200401   0.089706  -0.001190   0.010827   0.006108   0.000094
    20  H    0.025959   0.067084   0.000062   0.000474   0.000098  -0.000001
    21  O    0.363473  -0.091218   0.000016  -0.000191  -0.000525   0.000014
    22  H    0.061426  -0.067089   0.000000   0.000002  -0.000016   0.000000
    23  C    0.139723  -0.302713   0.000284  -0.000432   0.002667   0.011003
    24  H    0.061964  -0.021024   0.000000   0.000000  -0.000007  -0.000045
    25  H   -0.006816  -0.009558   0.000000   0.000000  -0.000024   0.000028
    26  O    0.028831  -0.036931   0.000000  -0.000004  -0.000099  -0.000963
    27  H    0.006215  -0.004783   0.000000   0.000000  -0.000006   0.000462
             13         14         15         16         17         18
     1  C    0.008544  -0.023166  -0.066822  -0.002524   0.009965  -0.000018
     2  C   -0.006764  -0.049915   0.045338   0.022016  -0.002445  -0.034501
     3  N   -0.095081   0.014997   0.005814  -0.072709   0.040416   0.015505
     4  C    0.434699  -0.033428  -0.014448   0.022527   0.007807   0.002162
     5  C   -0.045388   0.401920   0.376799   0.008492   0.002314  -0.000800
     6  C    0.003204   0.005769  -0.006355   0.298538  -0.151494   0.013034
     7  C    0.016594  -0.000156   0.002232   0.041544   0.463128  -0.010893
     8  C   -0.000396   0.012219  -0.001541  -0.028453  -0.081654   0.334373
     9  H   -0.000147  -0.005178   0.000586  -0.000007   0.000002   0.000227
    10  H    0.001224   0.004100  -0.005629  -0.000139  -0.000011   0.000218
    11  H   -0.000505   0.000755  -0.000111  -0.000600   0.000336  -0.002010
    12  H   -0.044075  -0.006001   0.000752  -0.001167   0.000007   0.000004
    13  H    0.578349   0.004025  -0.004631   0.013280  -0.000019  -0.000019
    14  H    0.004025   0.519971  -0.024747  -0.000011  -0.000002  -0.000001
    15  H   -0.004631  -0.024747   0.514221  -0.000012   0.000000   0.000002
    16  H    0.013280  -0.000011  -0.000012   0.577962   0.004099  -0.000208
    17  H   -0.000019  -0.000002   0.000000   0.004099   0.532738  -0.004216
    18  H   -0.000019  -0.000001   0.000002  -0.000208  -0.004216   0.547261
    19  O    0.000411   0.000086   0.000176   0.006415   0.009383  -0.038538
    20  H    0.000022   0.000000   0.000002  -0.000019  -0.000176  -0.008194
    21  O   -0.000057  -0.000007  -0.000007  -0.003948  -0.053809   0.001973
    22  H   -0.000004   0.000000   0.000000   0.002534   0.006433  -0.000133
    23  C   -0.015165  -0.000289   0.000394  -0.051064   0.029606   0.010397
    24  H    0.000040   0.000000   0.000000  -0.002124   0.000023  -0.000001
    25  H   -0.000003  -0.000001   0.000000   0.004713   0.003782   0.000000
    26  O   -0.001594  -0.000020   0.000006   0.001575  -0.000031   0.000028
    27  H    0.000095  -0.000005  -0.000001   0.000149   0.000019   0.000000
             19         20         21         22         23         24
     1  C    0.027393   0.006267  -0.001480   0.003399  -0.004169  -0.000228
     2  C   -0.085498  -0.069561   0.032001   0.007038   0.199506   0.016197
     3  N    0.031058  -0.001707   0.003516   0.005996   0.190297   0.011926
     4  C    0.016334  -0.001740  -0.007927   0.002482  -0.112155  -0.006093
     5  C   -0.008900  -0.001396   0.002865   0.000112   0.049160   0.001419
     6  C    0.100952  -0.006877  -0.190673  -0.048803  -1.236618  -0.220907
     7  C   -0.200401   0.025959   0.363473   0.061426   0.139723   0.061964
     8  C    0.089706   0.067084  -0.091218  -0.067089  -0.302713  -0.021024
     9  H   -0.001190   0.000062   0.000016   0.000000   0.000284   0.000000
    10  H    0.010827   0.000474  -0.000191   0.000002  -0.000432   0.000000
    11  H    0.006108   0.000098  -0.000525  -0.000016   0.002667  -0.000007
    12  H    0.000094  -0.000001   0.000014   0.000000   0.011003  -0.000045
    13  H    0.000411   0.000022  -0.000057  -0.000004  -0.015165   0.000040
    14  H    0.000086   0.000000  -0.000007   0.000000  -0.000289   0.000000
    15  H    0.000176   0.000002  -0.000007   0.000000   0.000394   0.000000
    16  H    0.006415  -0.000019  -0.003948   0.002534  -0.051064  -0.002124
    17  H    0.009383  -0.000176  -0.053809   0.006433   0.029606   0.000023
    18  H   -0.038538  -0.008194   0.001973  -0.000133   0.010397  -0.000001
    19  O    8.393753   0.240197  -0.001772   0.024977   0.032941  -0.000222
    20  H    0.240197   0.347565  -0.000959  -0.000435  -0.003138   0.000000
    21  O   -0.001772  -0.000959   8.199124   0.253424   0.027329   0.005209
    22  H    0.024977  -0.000435   0.253424   0.355748   0.005764  -0.000087
    23  C    0.032941  -0.003138   0.027329   0.005764   6.175820   0.530218
    24  H   -0.000222   0.000000   0.005209  -0.000087   0.530218   0.542231
    25  H    0.000208   0.000000  -0.000237   0.000007   0.400704  -0.033267
    26  O    0.000503  -0.000004  -0.000437   0.000018   0.170336  -0.059581
    27  H   -0.000033   0.000000   0.000057   0.000001   0.061485   0.006599
             25         26         27
     1  C    0.001919  -0.002580  -0.001708
     2  C    0.002518   0.039517   0.014302
     3  N    0.010124   0.023521   0.021964
     4  C    0.015051  -0.008885  -0.001973
     5  C    0.002187   0.021044   0.011908
     6  C   -0.065415  -0.110295  -0.115448
     7  C   -0.006816   0.028831   0.006215
     8  C   -0.009558  -0.036931  -0.004783
     9  H    0.000000   0.000000   0.000000
    10  H    0.000000  -0.000004   0.000000
    11  H   -0.000024  -0.000099  -0.000006
    12  H    0.000028  -0.000963   0.000462
    13  H   -0.000003  -0.001594   0.000095
    14  H   -0.000001  -0.000020  -0.000005
    15  H    0.000000   0.000006  -0.000001
    16  H    0.004713   0.001575   0.000149
    17  H    0.003782  -0.000031   0.000019
    18  H    0.000000   0.000028   0.000000
    19  O    0.000208   0.000503  -0.000033
    20  H    0.000000  -0.000004   0.000000
    21  O   -0.000237  -0.000437   0.000057
    22  H    0.000007   0.000018   0.000001
    23  C    0.400704   0.170336   0.061485
    24  H   -0.033267  -0.059581   0.006599
    25  H    0.563178  -0.043189  -0.006852
    26  O   -0.043189   8.262638   0.256695
    27  H   -0.006852   0.256695   0.378134
 Mulliken atomic charges:
              1
     1  C   -0.447071
     2  C   -0.080521
     3  N   -0.197934
     4  C   -0.198258
     5  C   -0.403822
     6  C    0.169933
     7  C   -0.331977
     8  C    0.332725
     9  H    0.177931
    10  H    0.172485
    11  H    0.169480
    12  H    0.156920
    13  H    0.153362
    14  H    0.179085
    15  H    0.177981
    16  H    0.159141
    17  H    0.183798
    18  H    0.174348
    19  O   -0.654968
    20  H    0.406477
    21  O   -0.535754
    22  H    0.387203
    23  C   -0.311892
    24  H    0.167761
    25  H    0.160941
    26  O   -0.540099
    27  H    0.372723
 Sum of Mulliken atomic charges =   0.00000
 Mulliken charges with hydrogens summed into heavy atoms:
              1
     1  C   -0.096655
     2  C    0.088959
     3  N   -0.197934
     4  C    0.112024
     5  C   -0.046756
     6  C    0.329074
     7  C   -0.148179
     8  C    0.507074
    19  O   -0.248491
    21  O   -0.148550
    23  C    0.016810
    26  O   -0.167375
 Sum of Mulliken charges with hydrogens summed into heavy atoms =   0.00000
 Electronic spatial extent (au):  <R**2>=           2061.6626
 Charge=              0.0000 electrons
 Dipole moment (field-independent basis, Debye):
    X=             -5.8994    Y=              1.3930    Z=              1.3149  Tot=              6.2026
 Quadrupole moment (field-independent basis, Debye-Ang):
   XX=            -77.9064   YY=            -72.0152   ZZ=            -72.6559
   XY=             -2.7239   XZ=              3.3184   YZ=             -2.1432
 Traceless Quadrupole moment (field-independent basis, Debye-Ang):
   XX=             -3.7139   YY=              2.1773   ZZ=              1.5366
   XY=             -2.7239   XZ=              3.3184   YZ=             -2.1432
 Octapole moment (field-independent basis, Debye-Ang**2):
  XXX=            -36.9084  YYY=              7.5117  ZZZ=             -2.0786  XYY=            -37.2498
  XXY=             17.1226  XXZ=              3.7637  XZZ=              1.8250  YZZ=             10.8505
  YYZ=             -0.8557  XYZ=             -8.2371
 Hexadecapole moment (field-independent basis, Debye-Ang**3):
 XXXX=          -1401.5046 YYYY=          -1004.5730 ZZZZ=           -234.5756 XXXY=              4.9067
 XXXZ=             20.1380 YYYX=            -50.0421 YYYZ=            -48.5325 ZZZX=              2.4453
 ZZZY=             -8.6581 XXYY=           -457.4883 XXZZ=           -251.4032 YYZZ=           -209.9738
 XXYZ=            -30.6256 YYXZ=             19.4544 ZZXY=              4.3149
 N-N= 8.054053008514D+02 E-N=-2.996654719494D+03  KE= 5.886617655646D+02
 1\1\GINC-COMPUTE-3-1\SP\RmPW1PW91\6-31+G(d,p)\C8H15N1O3\MAMICHETTI.IQU
 IR\17-May-2024\0\\# mpw1pw91/6-31+G** nmr scrf=(pcm,solvent=water)\\co
 mment\\0,1\C,0,-2.532874,0.001831,0.114743\C,0,-1.198874,0.337278,0.79
 8279\N,0,-0.250615,-0.782446,0.445351\C,0,-0.959768,-1.707201,-0.46125
 2\C,0,-2.439152,-1.514736,-0.121731\C,0,0.990816,-0.194169,-0.089249\C
 ,0,0.993561,1.239229,0.484258\C,0,-0.486636,1.639376,0.393935\H,0,-3.3
 96243,0.293298,0.720251\H,0,-2.60185,0.520562,-0.847271\H,0,-1.331845,
 0.358851,1.88798\H,0,-0.627222,-2.741747,-0.317238\H,0,-0.776467,-1.44
 8753,-1.518307\H,0,-2.694907,-2.063954,0.79248\H,0,-3.097619,-1.866826
 ,-0.922055\H,0,0.949375,-0.120791,-1.190554\H,0,1.301912,1.218481,1.53
 5455\H,0,-0.738656,2.475823,1.054146\O,0,-0.695574,2.019405,-0.974517\
 H,0,-1.521621,2.527311,-1.020256\O,0,1.868886,2.136534,-0.181882\H,0,1
 .395479,2.393002,-0.995189\C,0,2.254773,-0.96544,0.272701\H,0,3.124314
 ,-0.4081,-0.09191\H,0,2.342914,-1.054895,1.364704\O,0,2.33144,-2.25703
 1,-0.343546\H,0,1.657648,-2.813412,0.079773\\Version=AM64L-G09RevC.01\
 State=1-A\HF=-594.2000677\RMSD=6.338e-09\Dipole=-2.3210085,0.5480365,0
 .5173076\Quadrupole=-2.7612269,1.6187807,1.1424462,-2.0251625,2.467167
 9,-1.5934128\PG=C01 [X(C8H15N1O3)]\\@


 A MATHEMATICIAN IS A MACHINE FOR TURNING COFFEE INTO THEOREMS.
     -- QUOTED BY PAUL ERDOS
 Job cpu time:  0 days  0 hours  8 minutes 40.9 seconds.
 File lengths (MBytes):  RWF=    114 Int=      0 D2E=      0 Chk=      7 Scr=      1
 Normal termination of Gaussian 09 at Fri May 17 12:29:30 2024.
