 Entering Gaussian System, Link 0=g09
 Input=/home/mamichetti.iquir/Linux/02_Cardona_A1A3_R__R_R_R_027_OptB.gjc
 Output=/home/mamichetti.iquir/Linux/02_Cardona_A1A3_R__R_R_R_027_OptB.log
 Initial command:
 /opt/ohpc/pub/apps/software/Gaussian/09/AMD64.SSE4a-enabled/g09/l1.exe /local/mamichetti.iquir/Gau-713921.inp -scrdir=/local/mamichetti.iquir/
 Entering Link 1 = /opt/ohpc/pub/apps/software/Gaussian/09/AMD64.SSE4a-enabled/g09/l1.exe PID=    713922.
  
 Copyright (c) 1988,1990,1992,1993,1995,1998,2003,2009,2011,
            Gaussian, Inc.  All Rights Reserved.
  
 This is part of the Gaussian(R) 09 program.  It is based on
 the Gaussian(R) 03 system (copyright 2003, Gaussian, Inc.),
 the Gaussian(R) 98 system (copyright 1998, Gaussian, Inc.),
 the Gaussian(R) 94 system (copyright 1995, Gaussian, Inc.),
 the Gaussian 92(TM) system (copyright 1992, Gaussian, Inc.),
 the Gaussian 90(TM) system (copyright 1990, Gaussian, Inc.),
 the Gaussian 88(TM) system (copyright 1988, Gaussian, Inc.),
 the Gaussian 86(TM) system (copyright 1986, Carnegie Mellon
 University), and the Gaussian 82(TM) system (copyright 1983,
 Carnegie Mellon University). Gaussian is a federally registered
 trademark of Gaussian, Inc.
  
 This software contains proprietary and confidential information,
 including trade secrets, belonging to Gaussian, Inc.
  
 This software is provided under written license and may be
 used, copied, transmitted, or stored only in accord with that
 written license.
  
 The following legend is applicable only to US Government
 contracts under FAR:
  
                    RESTRICTED RIGHTS LEGEND
  
 Use, reproduction and disclosure by the US Government is
 subject to restrictions as set forth in subparagraphs (a)
 and (c) of the Commercial Computer Software - Restricted
 Rights clause in FAR 52.227-19.
  
 Gaussian, Inc.
 340 Quinnipiac St., Bldg. 40, Wallingford CT 06492
  
  
 ---------------------------------------------------------------
 Warning -- This program may not be used in any manner that
 competes with the business of Gaussian, Inc. or will provide
 assistance to any competitor of Gaussian, Inc.  The licensee
 of this program is prohibited from giving any competitor of
 Gaussian, Inc. access to this program.  By using this program,
 the user acknowledges that Gaussian, Inc. is engaged in the
 business of creating and licensing software in the field of
 computational chemistry and represents and warrants to the
 licensee that it is not a competitor of Gaussian, Inc. and that
 it will not use this program in any manner prohibited above.
 ---------------------------------------------------------------
  

 Cite this work as:
 Gaussian 09, Revision C.01,
 M. J. Frisch, G. W. Trucks, H. B. Schlegel, G. E. Scuseria, 
 M. A. Robb, J. R. Cheeseman, G. Scalmani, V. Barone, B. Mennucci, 
 G. A. Petersson, H. Nakatsuji, M. Caricato, X. Li, H. P. Hratchian, 
 A. F. Izmaylov, J. Bloino, G. Zheng, J. L. Sonnenberg, M. Hada, 
 M. Ehara, K. Toyota, R. Fukuda, J. Hasegawa, M. Ishida, T. Nakajima, 
 Y. Honda, O. Kitao, H. Nakai, T. Vreven, J. A. Montgomery, Jr., 
 J. E. Peralta, F. Ogliaro, M. Bearpark, J. J. Heyd, E. Brothers, 
 K. N. Kudin, V. N. Staroverov, T. Keith, R. Kobayashi, J. Normand, 
 K. Raghavachari, A. Rendell, J. C. Burant, S. S. Iyengar, J. Tomasi, 
 M. Cossi, N. Rega, J. M. Millam, M. Klene, J. E. Knox, J. B. Cross, 
 V. Bakken, C. Adamo, J. Jaramillo, R. Gomperts, R. E. Stratmann, 
 O. Yazyev, A. J. Austin, R. Cammi, C. Pomelli, J. W. Ochterski, 
 R. L. Martin, K. Morokuma, V. G. Zakrzewski, G. A. Voth, 
 P. Salvador, J. J. Dannenberg, S. Dapprich, A. D. Daniels, 
 O. Farkas, J. B. Foresman, J. V. Ortiz, J. Cioslowski, 
 and D. J. Fox, Gaussian, Inc., Wallingford CT, 2010.
 
 ******************************************
 Gaussian 09:  AM64L-G09RevC.01 23-Sep-2011
                17-May-2024 
 ******************************************
 %nprocshared=4
 Will use up to    4 processors via shared memory.
 ------------------------------------------------
 # mpw1pw91/6-31+G** nmr scrf=(pcm,solvent=water)
 ------------------------------------------------
 1/38=1/1;
 2/12=2,17=6,18=5,40=1/2;
 3/5=1,6=6,7=111,11=2,16=1,25=1,30=1,70=2201,72=1,74=-7/1,2,8,3;
 4//1;
 5/5=2,38=5,53=1/2;
 8/6=1,10=90,11=11/1;
 10/13=100,45=16/2;
 6/7=2,8=2,9=2,10=2,28=1/1;
 99/9=1/99;
 -------
 comment
 -------
 Charge =  0 Multiplicity = 1
 Symbolic Z-Matrix:
 6                     2.12136   0.67641  -0.73779 
 6                     0.63868   0.31368  -0.92508 
 7                     0.41124  -0.91452  -0.08456 
 6                     1.71551  -1.33264   0.48887 
 6                     2.76598  -0.67727  -0.41264 
 6                    -0.65734  -0.6261    0.90165 
 6                    -0.78322   0.90748   0.95255 
 6                    -0.39718   1.36726  -0.46835 
 1                     2.54373   1.16261  -1.62282 
 1                     2.23836   1.35881   0.11189 
 1                     0.44477   0.08094  -1.9796 
 1                     1.80177  -2.42539   0.51124 
 1                     1.82907  -0.97255   1.52159 
 1                     2.90367  -1.26404  -1.32911 
 1                     3.73844  -0.58994   0.08181 
 1                    -0.3693   -0.99025   1.89425 
 1                    -1.79386   1.24754   1.2136 
 1                     0.03184   2.37401  -0.44957 
 8                    -1.53544   1.44423  -1.32826 
 1                    -1.95715   0.55468  -1.30875 
 8                     0.16581   1.36479   1.92761 
 1                     0.19569   2.3347    1.86839 
 6                    -1.94862  -1.35824   0.51315 
 1                    -1.8409   -2.42679   0.73805 
 1                    -2.80497  -0.97295   1.07356 
 8                    -2.2669   -1.20364  -0.88116 
 1                    -1.47862  -1.53621  -1.35232 
 
                          Input orientation:                          
 ---------------------------------------------------------------------
 Center     Atomic      Atomic             Coordinates (Angstroms)
 Number     Number       Type             X           Y           Z
 ---------------------------------------------------------------------
      1          6           0        2.121358    0.676408   -0.737785
      2          6           0        0.638675    0.313683   -0.925075
      3          7           0        0.411238   -0.914523   -0.084558
      4          6           0        1.715510   -1.332635    0.488865
      5          6           0        2.765976   -0.677274   -0.412641
      6          6           0       -0.657335   -0.626104    0.901647
      7          6           0       -0.783217    0.907478    0.952548
      8          6           0       -0.397180    1.367256   -0.468346
      9          1           0        2.543731    1.162609   -1.622818
     10          1           0        2.238355    1.358808    0.111893
     11          1           0        0.444772    0.080936   -1.979600
     12          1           0        1.801769   -2.425386    0.511235
     13          1           0        1.829073   -0.972550    1.521590
     14          1           0        2.903672   -1.264036   -1.329106
     15          1           0        3.738443   -0.589943    0.081810
     16          1           0       -0.369299   -0.990247    1.894245
     17          1           0       -1.793858    1.247539    1.213603
     18          1           0        0.031839    2.374008   -0.449565
     19          8           0       -1.535435    1.444232   -1.328262
     20          1           0       -1.957147    0.554676   -1.308750
     21          8           0        0.165808    1.364788    1.927614
     22          1           0        0.195685    2.334703    1.868385
     23          6           0       -1.948620   -1.358237    0.513148
     24          1           0       -1.840895   -2.426789    0.738050
     25          1           0       -2.804973   -0.972949    1.073563
     26          8           0       -2.266899   -1.203640   -0.881162
     27          1           0       -1.478617   -1.536210   -1.352318
 ---------------------------------------------------------------------
                    Distance matrix (angstroms):
                    1          2          3          4          5
     1  C    0.000000
     2  C    1.537854   0.000000
     3  N    2.425341   1.505552   0.000000
     4  C    2.388647   2.422636   1.484842   0.000000
     5  C    1.534179   2.402081   2.389292   1.531565   0.000000
     6  C    3.479283   2.428941   1.482442   2.509974   3.667292
     7  C    3.368557   2.428958   2.412882   3.387734   4.119703
     8  C    2.625434   1.546484   2.450989   3.559371   3.766797
     9  H    1.094566   2.199263   3.350858   3.372150   2.213389
    10  H    1.096043   2.174066   2.923180   2.767551   2.167752
    11  H    2.169708   1.097175   2.140852   3.115490   2.901419
    12  H    3.359064   3.304281   2.138049   1.096378   2.199804
    13  H    2.812342   3.009587   2.143207   1.099581   2.169383
    14  H    2.174166   2.789740   2.807719   2.172891   1.096886
    15  H    2.211412   3.382147   3.347137   2.193067   1.094441
    16  H    3.988570   3.265702   2.128528   2.537469   3.905077
    17  H    4.411692   3.370942   3.349953   4.415677   5.209766
    18  H    2.707583   2.199841   3.330407   4.177870   4.097217
    19  O    3.782903   2.483436   3.301524   4.645598   4.882754
    20  H    4.120076   2.635067   3.044083   4.503529   4.962721
    21  O    3.376743   3.076729   3.050300   3.427487   4.050640
    22  H    3.640094   3.476231   3.797094   4.202655   4.569626
    23  C    4.719040   3.399691   2.474483   3.664300   4.852650
    24  H    5.244747   4.052708   2.834737   3.729247   5.060450
    25  H    5.501827   4.184338   3.418870   4.572309   5.773361
    26  O    4.776184   3.278194   2.809018   4.213454   5.081969
    27  H    4.270029   2.843865   2.359081   3.692404   4.431403
                    6          7          8          9         10
     6  C    0.000000
     7  C    1.539581   0.000000
     8  C    2.432703   1.542517   0.000000
     9  H    4.451881   4.214995   3.166014   0.000000
    10  H    3.598417   3.168643   2.698665   1.772278   0.000000
    11  H    3.164827   3.284604   2.155781   2.388083   3.037143
    12  H    3.071975   4.240860   4.492114   4.240094   3.830170
    13  H    2.585842   3.268390   3.793513   3.867421   2.754993
    14  H    4.250175   4.849182   4.308158   2.470715   3.065687
    15  H    4.471723   4.842093   4.608327   2.721127   2.459431
    16  H    1.095817   2.158583   3.337729   5.048788   3.936330
    17  H    2.213490   1.097810   2.189519   5.183356   4.181493
    18  H    3.361756   2.186538   1.094513   3.025494   2.492906
    19  O    3.166993   2.460900   1.428638   4.099472   4.040153
    20  H    2.823049   2.572168   1.949375   4.552595   4.501899
    21  O    2.386173   1.435456   2.461216   4.277962   2.755418
    22  H    3.229335   1.958055   2.597644   4.367565   2.865333
    23  C    1.534395   2.585479   3.286124   5.576579   5.007404
    24  H    2.161029   3.504573   4.234912   6.138601   5.600277
    25  H    2.182248   2.763720   3.694795   6.359223   5.638888
    26  O    2.470355   3.165537   3.205585   5.412148   5.277273
    27  H    2.565766   3.430393   3.221960   4.851400   4.933652
                   11         12         13         14         15
    11  H    0.000000
    12  H    3.785149   0.000000
    13  H    3.909534   1.769829   0.000000
    14  H    2.877200   2.439217   3.060424   0.000000
    15  H    3.943065   2.702585   2.421786   1.772548   0.000000
    16  H    4.100832   2.947181   2.229804   4.601879   4.507628
    17  H    4.070500   5.187700   4.260197   5.902556   5.938320
    18  H    2.787418   5.204803   4.279597   4.717667   4.775592
    19  O    2.490790   5.430895   5.028161   5.200037   5.825801
    20  H    2.538441   5.130552   4.967767   5.189960   5.973571
    21  O    4.122186   4.364392   2.897319   5.001284   4.471206
    22  H    4.466374   5.203826   3.704881   5.523411   4.929152
    23  C    3.743439   3.899260   3.928953   5.191099   5.754912
    24  H    4.347250   3.649719   4.024601   5.304342   5.910471
    25  H    4.581847   4.862906   4.655654   6.200498   6.629220
    26  O    3.195287   4.470514   4.754325   5.190290   6.112943
    27  H    2.589994   3.876132   4.417904   4.390794   5.492710
                   16         17         18         19         20
    16  H    0.000000
    17  H    2.738673   0.000000
    18  H    4.119778   2.714448   0.000000
    19  O    4.203702   2.562528   2.023101   0.000000
    20  H    3.894512   2.620875   2.829175   0.984648   0.000000
    21  O    2.415294   2.088983   2.586011   3.674407   3.954399
    22  H    3.372709   2.359862   2.324066   3.742762   4.230528
    23  C    2.130047   2.702713   4.333438   3.378660   2.641708
    24  H    2.359244   3.705273   5.288215   4.398608   3.618292
    25  H    2.570277   2.443876   4.644302   3.636379   2.954296
    26  O    3.368873   3.258847   4.274346   2.783193   1.835879
    27  H    3.474023   3.799024   4.287919   2.981081   2.145389
                   21         22         23         24         25
    21  O    0.000000
    22  H    0.972181   0.000000
    23  C    3.726444   4.480236   0.000000
    24  H    4.451738   5.300672   1.097264   0.000000
    25  H    3.875559   4.536105   1.093550   1.776419   0.000000
    26  O    4.517091   5.113140   1.438507   2.073504   2.040513
    27  H    4.677379   5.306617   1.931978   2.300873   2.821592
                   26         27
    26  O    0.000000
    27  H    0.976719   0.000000
 Stoichiometry    C8H15NO3
 Framework group  C1[X(C8H15NO3)]
 Deg. of freedom    75
 Full point group                 C1      NOp   1
 Largest Abelian subgroup         C1      NOp   1
 Largest concise Abelian subgroup C1      NOp   1
                         Standard orientation:                         
 ---------------------------------------------------------------------
 Center     Atomic      Atomic             Coordinates (Angstroms)
 Number     Number       Type             X           Y           Z
 ---------------------------------------------------------------------
      1          6           0        2.121358    0.676408   -0.737785
      2          6           0        0.638675    0.313683   -0.925075
      3          7           0        0.411238   -0.914523   -0.084558
      4          6           0        1.715510   -1.332635    0.488865
      5          6           0        2.765976   -0.677274   -0.412641
      6          6           0       -0.657335   -0.626104    0.901647
      7          6           0       -0.783217    0.907478    0.952548
      8          6           0       -0.397180    1.367256   -0.468346
      9          1           0        2.543731    1.162609   -1.622818
     10          1           0        2.238355    1.358808    0.111893
     11          1           0        0.444772    0.080936   -1.979600
     12          1           0        1.801769   -2.425386    0.511235
     13          1           0        1.829073   -0.972550    1.521590
     14          1           0        2.903672   -1.264036   -1.329106
     15          1           0        3.738443   -0.589943    0.081810
     16          1           0       -0.369299   -0.990247    1.894245
     17          1           0       -1.793858    1.247539    1.213603
     18          1           0        0.031839    2.374008   -0.449565
     19          8           0       -1.535435    1.444232   -1.328262
     20          1           0       -1.957147    0.554676   -1.308750
     21          8           0        0.165808    1.364788    1.927614
     22          1           0        0.195685    2.334703    1.868385
     23          6           0       -1.948620   -1.358237    0.513148
     24          1           0       -1.840895   -2.426789    0.738050
     25          1           0       -2.804973   -0.972949    1.073563
     26          8           0       -2.266899   -1.203640   -0.881162
     27          1           0       -1.478617   -1.536210   -1.352318
 ---------------------------------------------------------------------
 Rotational constants (GHZ):      1.2657600      0.8370432      0.7696227
 Standard basis: 6-31+G(d,p) (6D, 7F)
 There are   303 symmetry adapted basis functions of A   symmetry.
 Integral buffers will be    131072 words long.
 Raffenetti 2 integral format.
 Two-electron integral symmetry is turned on.
   303 basis functions,   489 primitive gaussians,   303 cartesian basis functions
    47 alpha electrons       47 beta electrons
       nuclear repulsion energy       823.2088375976 Hartrees.
 NAtoms=   27 NActive=   27 NUniq=   27 SFac= 1.00D+00 NAtFMM=   60 NAOKFM=F Big=F
 ------------------------------------------------------------------------------
 Polarizable Continuum Model (PCM)
 =================================
 Model                : PCM.
 Atomic radii         : UFF (Universal Force Field).
 Polarization charges : Total charges.
 Charge compensation  : None.
 Solution method      : Matrix inversion.
 Cavity type          : Scaled VdW (van der Waals Surface) (Alpha=1.100).
 Cavity algorithm     : GePol (No added spheres)
                        Default sphere list used, NSphG=   27.
                        Lebedev-Laikov grids with approx.  5.0 points / Ang**2.
                        Smoothing algorithm: Karplus/York (Gamma=1.0000).
                        Polarization charges: spherical gaussians, with
                                              point-specific exponents (IZeta= 3).
                        Self-potential: point-specific (ISelfS= 7).
                        Self-field    : sphere-specific E.n sum rule (ISelfD= 2).
 Solvent              : Water, Eps=  78.355300 Eps(inf)=   1.777849
 ------------------------------------------------------------------------------
 One-electron integrals computed using PRISM.
 NBasis=   303 RedAO= T  NBF=   303
 NBsUse=   303 1.00D-06 NBFU=   303
 Harris functional with IExCor=  908 diagonalized for initial guess.
 ExpMin= 4.38D-02 ExpMax= 5.48D+03 ExpMxC= 8.25D+02 IAcc=2 IRadAn=         4 AccDes= 0.00D+00
 HarFok:  IExCor=  908 AccDes= 0.00D+00 IRadAn=         4 IDoV= 1
 ScaDFX=  1.000000  1.000000  1.000000  1.000000
 FoFCou: FMM=F IPFlag=           0 FMFlag=      100000 FMFlg1=           0
         NFxFlg=           0 DoJE=T BraDBF=F KetDBF=T FulRan=T
         Omega=  0.000000  0.000000  1.000000  0.000000  0.000000 ICntrl=     500 IOpCl=  0
         NMat0=    1 NMatS0=    1 NMatT0=    0 NMatD0=    1 NMtDS0=    0 NMtDT0=    0
         I1Cent=           4 NGrid=           0.
 Petite list used in FoFCou.
 Initial guess orbital symmetries:
       Occupied  (A) (A) (A) (A) (A) (A) (A) (A) (A) (A) (A) (A)
                 (A) (A) (A) (A) (A) (A) (A) (A) (A) (A) (A) (A)
                 (A) (A) (A) (A) (A) (A) (A) (A) (A) (A) (A) (A)
                 (A) (A) (A) (A) (A) (A) (A) (A) (A) (A) (A)
       Virtual   (A) (A) (A) (A) (A) (A) (A) (A) (A) (A) (A) (A)
                 (A) (A) (A) (A) (A) (A) (A) (A) (A) (A) (A) (A)
                 (A) (A) (A) (A) (A) (A) (A) (A) (A) (A) (A) (A)
                 (A) (A) (A) (A) (A) (A) (A) (A) (A) (A) (A) (A)
                 (A) (A) (A) (A) (A) (A) (A) (A) (A) (A) (A) (A)
                 (A) (A) (A) (A) (A) (A) (A) (A) (A) (A) (A) (A)
                 (A) (A) (A) (A) (A) (A) (A) (A) (A) (A) (A) (A)
                 (A) (A) (A) (A) (A) (A) (A) (A) (A) (A) (A) (A)
                 (A) (A) (A) (A) (A) (A) (A) (A) (A) (A) (A) (A)
                 (A) (A) (A) (A) (A) (A) (A) (A) (A) (A) (A) (A)
                 (A) (A) (A) (A) (A) (A) (A) (A) (A) (A) (A) (A)
                 (A) (A) (A) (A) (A) (A) (A) (A) (A) (A) (A) (A)
                 (A) (A) (A) (A) (A) (A) (A) (A) (A) (A) (A) (A)
                 (A) (A) (A) (A) (A) (A) (A) (A) (A) (A) (A) (A)
                 (A) (A) (A) (A) (A) (A) (A) (A) (A) (A) (A) (A)
                 (A) (A) (A) (A) (A) (A) (A) (A) (A) (A) (A) (A)
                 (A) (A) (A) (A) (A) (A) (A) (A) (A) (A) (A) (A)
                 (A) (A) (A) (A) (A) (A) (A) (A) (A) (A) (A) (A)
                 (A) (A) (A) (A) (A) (A) (A) (A) (A) (A) (A) (A)
                 (A) (A) (A) (A) (A) (A) (A) (A) (A) (A) (A) (A)
                 (A) (A) (A) (A) (A) (A) (A) (A) (A) (A) (A) (A)
                 (A) (A) (A) (A)
 The electronic state of the initial guess is 1-A.
 Requested convergence on RMS density matrix=1.00D-08 within 128 cycles.
 Requested convergence on MAX density matrix=1.00D-06.
 Requested convergence on             energy=1.00D-06.
 No special actions if energy rises.
 Error on total polarization charges =  0.01428
 SCF Done:  E(RmPW1PW91) =  -594.201446286     A.U. after   13 cycles
             Convg  =    0.3060D-08             -V/T =  2.0094
 Range of M.O.s used for correlation:     1   303
 NBasis=   303 NAE=    47 NBE=    47 NFC=     0 NFV=     0
 NROrb=    303 NOA=    47 NOB=    47 NVA=   256 NVB=   256

 **** Warning!!: The largest alpha MO coefficient is  0.63985519D+02

 NEqPCM:  Using equilibrium solvation (IEInf=0, Eps=  78.3553, EpsInf=   1.7778)
          Differentiating once with respect to magnetic field using GIAOs.
          Electric field/nuclear overlap derivatives assumed to be zero.
 FoFCou: FMM=F IPFlag=           0 FMFlag=    10101102 FMFlg1=           0
         NFxFlg=    40000000 DoJE=F BraDBF=F KetDBF=T FulRan=T
         Omega=  0.000000  0.000000  1.000000  0.000000  0.000000 ICntrl=    6100 IOpCl=  0
         NMat0=    1 NMatS0=    1 NMatT0=    0 NMatD0=    1 NMtDS0=    0 NMtDT0=    0
         I1Cent=           7 NGrid=        1779.
 Symmetry not used in FoFCou.
          There are     3 degrees of freedom in the 1st order CPHF.  IDoFFX=0.
      3 vectors produced by pass  0 Test12= 4.01D-13 3.33D-08 XBig12= 2.70D+01 9.12D-01.
 AX will form     3 AO Fock derivatives at one time.
      3 vectors produced by pass  1 Test12= 4.01D-13 3.33D-08 XBig12= 6.25D-02 4.74D-02.
      3 vectors produced by pass  2 Test12= 4.01D-13 3.33D-08 XBig12= 1.39D-04 3.07D-03.
      3 vectors produced by pass  3 Test12= 4.01D-13 3.33D-08 XBig12= 6.46D-07 1.65D-04.
      3 vectors produced by pass  4 Test12= 4.01D-13 3.33D-08 XBig12= 2.00D-09 9.20D-06.
      3 vectors produced by pass  5 Test12= 4.01D-13 3.33D-08 XBig12= 6.76D-12 4.42D-07.
 Inverted reduced A of dimension    18 with in-core refinement.
 Calculating GIAO nuclear magnetic shielding tensors.
 SCF GIAO Magnetic shielding tensor (ppm):
      1  C    Isotropic =   162.6029   Anisotropy =    24.6747
   XX=   177.9950   YX=    -6.7083   ZX=     2.7810
   XY=     2.1081   YY=   167.7841   ZY=   -11.6786
   XZ=     3.2734   YZ=    -1.8184   ZZ=   142.0296
   Eigenvalues:   140.2161   168.5399   179.0527
      2  C    Isotropic =   117.0188   Anisotropy =    41.6733
   XX=   114.0578   YX=    -9.8777   ZX=   -15.4448
   XY=    -8.3987   YY=   134.8809   ZY=   -20.1308
   XZ=    -1.4737   YZ=   -18.9989   ZZ=   102.1175
   Eigenvalues:    87.8340   118.4213   144.8010
      3  N    Isotropic =   198.5705   Anisotropy =    76.0657
   XX=   211.2687   YX=   -17.9002   ZX=   -40.2166
   XY=   -29.4357   YY=   200.5559   ZY=   -50.1748
   XZ=   -44.2662   YZ=   -52.5152   ZZ=   183.8868
   Eigenvalues:   116.2718   230.1586   249.2809
      4  C    Isotropic =   137.4485   Anisotropy =    61.9604
   XX=   172.6998   YX=    -9.8031   ZX=     8.4384
   XY=   -16.3358   YY=   112.2702   ZY=    -8.0821
   XZ=    11.7756   YZ=   -20.9833   ZZ=   127.3755
   Eigenvalues:   102.8847   130.7054   178.7554
      5  C    Isotropic =   166.5289   Anisotropy =    21.2188
   XX=   178.5162   YX=    -2.0808   ZX=    -2.9735
   XY=    -7.1576   YY=   169.4121   ZY=   -17.2552
   XZ=    -8.7582   YZ=   -16.3388   ZZ=   151.6582
   Eigenvalues:   140.1071   178.8048   180.6747
      6  C    Isotropic =   120.9593   Anisotropy =    36.3263
   XX=   124.0809   YX=    -4.7324   ZX=   -20.5467
   XY=   -10.8644   YY=   111.3433   ZY=     0.2983
   XZ=   -11.8442   YZ=    13.3188   ZZ=   127.4538
   Eigenvalues:   107.5118   110.1893   145.1769
      7  C    Isotropic =   107.2406   Anisotropy =    16.4894
   XX=   107.1476   YX=    10.7192   ZX=    13.5053
   XY=    -4.7581   YY=   100.4080   ZY=     1.0410
   XZ=    -3.8296   YZ=     7.8992   ZZ=   114.1661
   Eigenvalues:    98.7500   104.7382   118.2335
      8  C    Isotropic =   112.5680   Anisotropy =    21.7415
   XX=   117.5245   YX=   -12.7426   ZX=     8.1908
   XY=     4.0793   YY=   100.3784   ZY=    10.1457
   XZ=     8.4376   YZ=    -3.7561   ZZ=   119.8011
   Eigenvalues:    98.0224   112.6193   127.0623
      9  H    Isotropic =    29.6124   Anisotropy =    10.2729
   XX=    29.6575   YX=     2.0017   ZX=    -3.8079
   XY=     2.3284   YY=    29.1297   ZY=    -4.6324
   XZ=    -3.4064   YZ=    -4.0045   ZZ=    30.0499
   Eigenvalues:    25.0117    27.3644    36.4610
     10  H    Isotropic =    29.8241   Anisotropy =     7.1888
   XX=    30.5824   YX=     1.7878   ZX=    -0.2375
   XY=     1.5368   YY=    31.2104   ZY=     4.0683
   XZ=     0.7286   YZ=     4.4097   ZZ=    27.6795
   Eigenvalues:    24.7605    30.0951    34.6167
     11  H    Isotropic =    28.0744   Anisotropy =     6.8274
   XX=    26.9230   YX=     0.3810   ZX=    -0.0059
   XY=     0.9270   YY=    25.0723   ZY=    -1.8664
   XZ=     0.9552   YZ=    -1.5172   ZZ=    32.2280
   Eigenvalues:    24.4671    27.1302    32.6260
     12  H    Isotropic =    28.2339   Anisotropy =     9.9655
   XX=    27.9588   YX=    -3.6528   ZX=     0.5510
   XY=    -2.3067   YY=    32.8918   ZY=    -2.3288
   XZ=     0.7143   YZ=    -2.6778   ZZ=    23.8512
   Eigenvalues:    23.1998    26.6245    34.8776
     13  H    Isotropic =    28.5794   Anisotropy =     8.1790
   XX=    29.3650   YX=    -1.9807   ZX=     3.3942
   XY=    -2.1774   YY=    24.4863   ZY=    -0.8141
   XZ=     2.0787   YZ=    -1.0655   ZZ=    31.8870
   Eigenvalues:    23.7200    27.9863    34.0321
     14  H    Isotropic =    29.7216   Anisotropy =    10.9264
   XX=    28.4949   YX=    -2.8494   ZX=    -4.2591
   XY=    -3.0196   YY=    30.0049   ZY=     3.5124
   XZ=    -4.3299   YZ=     3.5258   ZZ=    30.6650
   Eigenvalues:    25.1411    27.0178    37.0059
     15  H    Isotropic =    29.6549   Anisotropy =    11.7074
   XX=    36.7144   YX=    -0.5497   ZX=     2.6054
   XY=    -1.2333   YY=    26.1013   ZY=    -0.7134
   XZ=     2.8165   YZ=    -0.5309   ZZ=    26.1488
   Eigenvalues:    25.2812    26.2235    37.4598
     16  H    Isotropic =    28.4604   Anisotropy =     5.5804
   XX=    27.2673   YX=     0.7195   ZX=    -1.7064
   XY=     0.5277   YY=    27.0101   ZY=    -2.0698
   XZ=    -0.1105   YZ=    -2.0018   ZZ=    31.1039
   Eigenvalues:    26.1146    27.0860    32.1807
     17  H    Isotropic =    27.3467   Anisotropy =     5.3927
   XX=    29.7478   YX=    -1.7260   ZX=    -0.5541
   XY=    -1.1595   YY=    25.7129   ZY=     3.1111
   XZ=    -0.3490   YZ=     3.4426   ZZ=    26.5794
   Eigenvalues:    22.7490    28.3493    30.9419
     18  H    Isotropic =    27.9395   Anisotropy =     4.7689
   XX=    27.7814   YX=     0.3521   ZX=     1.9248
   XY=    -0.0183   YY=    31.0571   ZY=    -0.8065
   XZ=     1.8952   YZ=    -0.4214   ZZ=    24.9799
   Eigenvalues:    23.9573    28.7424    31.1187
     19  O    Isotropic =   275.2304   Anisotropy =    34.0556
   XX=   292.1238   YX=   -21.2958   ZX=     9.0825
   XY=    -6.1295   YY=   262.4681   ZY=    17.4321
   XZ=    -7.3648   YZ=     4.8310   ZZ=   271.0992
   Eigenvalues:   251.2788   276.4782   297.9341
     20  H    Isotropic =    26.4480   Anisotropy =    22.9092
   XX=    23.8254   YX=     8.5883   ZX=     4.3671
   XY=     8.3932   YY=    37.6552   ZY=    -2.6813
   XZ=     4.5727   YZ=    -3.3962   ZZ=    17.8633
   Eigenvalues:    13.3847    24.2383    41.7208
     21  O    Isotropic =   276.1684   Anisotropy =    82.6981
   XX=   233.7314   YX=    18.3500   ZX=    14.2820
   XY=    25.5479   YY=   326.2540   ZY=     5.0118
   XZ=     7.5612   YZ=   -15.1049   ZZ=   268.5199
   Eigenvalues:   225.5627   271.6421   331.3005
     22  H    Isotropic =    30.3734   Anisotropy =    18.3303
   XX=    23.3198   YX=     3.5700   ZX=     2.8731
   XY=     1.3787   YY=    41.5700   ZY=     2.5783
   XZ=     2.6287   YZ=     3.4310   ZZ=    26.2305
   Eigenvalues:    21.6445    26.8821    42.5936
     23  C    Isotropic =   128.4701   Anisotropy =    39.3878
   XX=   121.6226   YX=    10.2664   ZX=     4.8832
   XY=     6.8742   YY=   112.0831   ZY=    -4.5036
   XZ=    14.3422   YZ=    -6.6102   ZZ=   151.7046
   Eigenvalues:   104.9855   125.6961   154.7286
     24  H    Isotropic =    27.7721   Anisotropy =     8.8749
   XX=    25.0337   YX=     3.0585   ZX=     1.3201
   XY=     2.5745   YY=    30.4827   ZY=    -3.4052
   XZ=     1.1329   YZ=    -4.6276   ZZ=    27.8001
   Eigenvalues:    22.2183    27.4094    33.6888
     25  H    Isotropic =    27.9901   Anisotropy =     7.5036
   XX=    30.5819   YX=     1.8349   ZX=    -2.6860
   XY=     1.0803   YY=    24.6074   ZY=    -0.1957
   XZ=    -3.3698   YZ=     0.3573   ZZ=    28.7809
   Eigenvalues:    24.1018    26.8760    32.9925
     26  O    Isotropic =   304.7952   Anisotropy =    27.9609
   XX=   316.4507   YX=    -2.4663   ZX=   -20.3007
   XY=    -4.3386   YY=   300.8620   ZY=   -19.0335
   XZ=    -6.8394   YZ=     5.7170   ZZ=   297.0730
   Eigenvalues:   286.2592   304.6906   323.4358
     27  H    Isotropic =    29.0019   Anisotropy =    13.6912
   XX=    34.0371   YX=    -3.4937   ZX=    -3.1573
   XY=    -2.1048   YY=    23.8461   ZY=     5.8957
   XZ=    -4.4591   YZ=     5.3343   ZZ=    29.1225
   Eigenvalues:    20.2717    28.6046    38.1294
 End of Minotr Frequency-dependent properties file   721 does not exist.
 End of Minotr Frequency-dependent properties file   722 does not exist.

 **********************************************************************

            Population analysis using the SCF density.

 **********************************************************************

 Orbital symmetries:
       Occupied  (A) (A) (A) (A) (A) (A) (A) (A) (A) (A) (A) (A)
                 (A) (A) (A) (A) (A) (A) (A) (A) (A) (A) (A) (A)
                 (A) (A) (A) (A) (A) (A) (A) (A) (A) (A) (A) (A)
                 (A) (A) (A) (A) (A) (A) (A) (A) (A) (A) (A)
       Virtual   (A) (A) (A) (A) (A) (A) (A) (A) (A) (A) (A) (A)
                 (A) (A) (A) (A) (A) (A) (A) (A) (A) (A) (A) (A)
                 (A) (A) (A) (A) (A) (A) (A) (A) (A) (A) (A) (A)
                 (A) (A) (A) (A) (A) (A) (A) (A) (A) (A) (A) (A)
                 (A) (A) (A) (A) (A) (A) (A) (A) (A) (A) (A) (A)
                 (A) (A) (A) (A) (A) (A) (A) (A) (A) (A) (A) (A)
                 (A) (A) (A) (A) (A) (A) (A) (A) (A) (A) (A) (A)
                 (A) (A) (A) (A) (A) (A) (A) (A) (A) (A) (A) (A)
                 (A) (A) (A) (A) (A) (A) (A) (A) (A) (A) (A) (A)
                 (A) (A) (A) (A) (A) (A) (A) (A) (A) (A) (A) (A)
                 (A) (A) (A) (A) (A) (A) (A) (A) (A) (A) (A) (A)
                 (A) (A) (A) (A) (A) (A) (A) (A) (A) (A) (A) (A)
                 (A) (A) (A) (A) (A) (A) (A) (A) (A) (A) (A) (A)
                 (A) (A) (A) (A) (A) (A) (A) (A) (A) (A) (A) (A)
                 (A) (A) (A) (A) (A) (A) (A) (A) (A) (A) (A) (A)
                 (A) (A) (A) (A) (A) (A) (A) (A) (A) (A) (A) (A)
                 (A) (A) (A) (A) (A) (A) (A) (A) (A) (A) (A) (A)
                 (A) (A) (A) (A) (A) (A) (A) (A) (A) (A) (A) (A)
                 (A) (A) (A) (A) (A) (A) (A) (A) (A) (A) (A) (A)
                 (A) (A) (A) (A) (A) (A) (A) (A) (A) (A) (A) (A)
                 (A) (A) (A) (A) (A) (A) (A) (A) (A) (A) (A) (A)
                 (A) (A) (A) (A)
 The electronic state is 1-A.
 Alpha  occ. eigenvalues --  -19.26955 -19.25925 -19.24394 -14.41542 -10.30437
 Alpha  occ. eigenvalues --  -10.30184 -10.30006 -10.28347 -10.27650 -10.26865
 Alpha  occ. eigenvalues --  -10.24557 -10.24473  -1.07486  -1.06355  -1.04572
 Alpha  occ. eigenvalues --   -0.96026  -0.82781  -0.78654  -0.75594  -0.71476
 Alpha  occ. eigenvalues --   -0.67293  -0.61341  -0.60879  -0.58485  -0.54817
 Alpha  occ. eigenvalues --   -0.54353  -0.51568  -0.50135  -0.48791  -0.46436
 Alpha  occ. eigenvalues --   -0.46083  -0.45218  -0.43280  -0.42404  -0.40516
 Alpha  occ. eigenvalues --   -0.39666  -0.39215  -0.37386  -0.37050  -0.35723
 Alpha  occ. eigenvalues --   -0.35167  -0.34549  -0.33167  -0.31115  -0.31009
 Alpha  occ. eigenvalues --   -0.27743  -0.23467
 Alpha virt. eigenvalues --    0.00870   0.01462   0.02363   0.02520   0.03458
 Alpha virt. eigenvalues --    0.04075   0.04330   0.04777   0.05351   0.07018
 Alpha virt. eigenvalues --    0.07447   0.08716   0.08801   0.09091   0.09375
 Alpha virt. eigenvalues --    0.10468   0.10933   0.11505   0.11998   0.12874
 Alpha virt. eigenvalues --    0.13288   0.13659   0.14216   0.14866   0.15322
 Alpha virt. eigenvalues --    0.15866   0.16254   0.17010   0.17658   0.17865
 Alpha virt. eigenvalues --    0.18933   0.19442   0.20347   0.20839   0.20931
 Alpha virt. eigenvalues --    0.21598   0.22306   0.22531   0.22893   0.23225
 Alpha virt. eigenvalues --    0.23633   0.24632   0.25319   0.25671   0.26297
 Alpha virt. eigenvalues --    0.26406   0.26952   0.27790   0.28150   0.28782
 Alpha virt. eigenvalues --    0.29191   0.29870   0.30439   0.31366   0.32375
 Alpha virt. eigenvalues --    0.32502   0.33192   0.33597   0.34055   0.34489
 Alpha virt. eigenvalues --    0.35679   0.36382   0.36464   0.37469   0.37958
 Alpha virt. eigenvalues --    0.39450   0.39696   0.40882   0.41520   0.42586
 Alpha virt. eigenvalues --    0.44042   0.45133   0.46102   0.46916   0.48331
 Alpha virt. eigenvalues --    0.54239   0.64440   0.65684   0.67422   0.69011
 Alpha virt. eigenvalues --    0.70262   0.70802   0.71698   0.72830   0.74037
 Alpha virt. eigenvalues --    0.74785   0.77694   0.79008   0.80827   0.81940
 Alpha virt. eigenvalues --    0.83205   0.83709   0.85545   0.86396   0.87483
 Alpha virt. eigenvalues --    0.90711   0.92110   0.93480   0.95572   0.96584
 Alpha virt. eigenvalues --    0.97298   0.99731   1.01666   1.02345   1.04884
 Alpha virt. eigenvalues --    1.05571   1.07943   1.09101   1.09791   1.10114
 Alpha virt. eigenvalues --    1.11614   1.13391   1.13723   1.14824   1.16657
 Alpha virt. eigenvalues --    1.17187   1.18404   1.19062   1.23115   1.24815
 Alpha virt. eigenvalues --    1.27594   1.29886   1.31286   1.31856   1.33917
 Alpha virt. eigenvalues --    1.35529   1.37518   1.38519   1.40454   1.43061
 Alpha virt. eigenvalues --    1.43589   1.47069   1.48348   1.50432   1.52288
 Alpha virt. eigenvalues --    1.54074   1.55408   1.57713   1.59184   1.61899
 Alpha virt. eigenvalues --    1.63211   1.65813   1.66564   1.71593   1.72088
 Alpha virt. eigenvalues --    1.73338   1.75074   1.76318   1.78459   1.80019
 Alpha virt. eigenvalues --    1.80808   1.83361   1.84110   1.85289   1.86610
 Alpha virt. eigenvalues --    1.87953   1.90497   1.91113   1.91841   1.95394
 Alpha virt. eigenvalues --    1.96809   1.98656   2.01514   2.03188   2.04637
 Alpha virt. eigenvalues --    2.06172   2.07219   2.09742   2.10746   2.12623
 Alpha virt. eigenvalues --    2.13764   2.14760   2.16673   2.19216   2.19931
 Alpha virt. eigenvalues --    2.21742   2.22586   2.23831   2.26816   2.29278
 Alpha virt. eigenvalues --    2.31470   2.32053   2.34338   2.37580   2.40694
 Alpha virt. eigenvalues --    2.42210   2.44676   2.45078   2.48063   2.49253
 Alpha virt. eigenvalues --    2.50068   2.50972   2.52843   2.53768   2.56042
 Alpha virt. eigenvalues --    2.57311   2.57844   2.60652   2.61078   2.63347
 Alpha virt. eigenvalues --    2.64077   2.66043   2.67835   2.68750   2.70434
 Alpha virt. eigenvalues --    2.71897   2.73784   2.75483   2.76761   2.77811
 Alpha virt. eigenvalues --    2.79211   2.80834   2.82173   2.83163   2.84552
 Alpha virt. eigenvalues --    2.86473   2.87105   2.89665   2.90597   2.93248
 Alpha virt. eigenvalues --    2.98052   2.99117   3.00220   3.01591   3.03326
 Alpha virt. eigenvalues --    3.06879   3.09524   3.13824   3.16958   3.32485
 Alpha virt. eigenvalues --    3.34768   3.36651   3.36840   3.43319   3.45350
 Alpha virt. eigenvalues --    3.47857   3.49581   3.51866   3.52970   3.56841
 Alpha virt. eigenvalues --    3.57426   3.58323   3.63010   3.68428   4.30789
 Alpha virt. eigenvalues --    4.36907   4.42263   4.46892   4.53153   4.59087
 Alpha virt. eigenvalues --    4.62278   4.73607   4.78776   4.87301   4.90463
 Alpha virt. eigenvalues --    4.98009
          Condensed to atoms (all electrons):
              1          2          3          4          5          6
     1  C    5.877208  -0.627400   0.060320  -0.179403   0.255490   0.168948
     2  C   -0.627400   8.434239  -0.098440  -0.291395   0.071393  -1.126560
     3  N    0.060320  -0.098440   7.564999   0.099324  -0.126233  -0.061585
     4  C   -0.179403  -0.291395   0.099324   5.637483   0.185155  -0.053624
     5  C    0.255490   0.071393  -0.126233   0.185155   5.478879   0.013232
     6  C    0.168948  -1.126560  -0.061585  -0.053624   0.013232   8.241123
     7  C   -0.202421   0.991771  -0.014458  -0.094004   0.030239  -1.229735
     8  C    0.245193  -1.490520  -0.157916   0.230160  -0.094294   0.876127
     9  H    0.353867  -0.032920   0.013483   0.022783  -0.010747  -0.003584
    10  H    0.489404  -0.189545   0.027498   0.022422  -0.076512   0.008304
    11  H    0.044401   0.233167  -0.016234   0.001252  -0.018869   0.039469
    12  H    0.027196   0.001943  -0.059685   0.380771  -0.034081   0.011688
    13  H    0.003375  -0.016127  -0.079864   0.445918  -0.027856  -0.016568
    14  H   -0.026604  -0.036510   0.012314  -0.026030   0.385204   0.003660
    15  H   -0.054000   0.040946   0.006233  -0.029262   0.380538  -0.005500
    16  H   -0.005332   0.024290  -0.040594   0.025439   0.002827   0.273712
    17  H    0.002135   0.011659   0.008927  -0.008343   0.000830  -0.064859
    18  H    0.032850  -0.107943   0.020521  -0.007352   0.011307   0.026617
    19  O   -0.008016  -0.058470   0.015062   0.003886  -0.005767   0.012118
    20  H    0.006555  -0.052242   0.007415  -0.000641   0.002233   0.034198
    21  O   -0.028747   0.037980  -0.008293  -0.040914   0.005659  -0.051088
    22  H   -0.005008  -0.003361  -0.002735  -0.001147   0.005929   0.012212
    23  C    0.021097   0.242631  -0.022696  -0.159777  -0.021543  -0.771848
    24  H    0.002131  -0.000282  -0.002476   0.005311   0.000706  -0.046341
    25  H    0.000728   0.014239   0.017804   0.001202   0.000150  -0.153350
    26  O    0.010992  -0.066495   0.068821   0.034243  -0.003985  -0.220462
    27  H    0.004435   0.027677   0.033700   0.004732  -0.001221  -0.054902
              7          8          9         10         11         12
     1  C   -0.202421   0.245193   0.353867   0.489404   0.044401   0.027196
     2  C    0.991771  -1.490520  -0.032920  -0.189545   0.233167   0.001943
     3  N   -0.014458  -0.157916   0.013483   0.027498  -0.016234  -0.059685
     4  C   -0.094004   0.230160   0.022783   0.022422   0.001252   0.380771
     5  C    0.030239  -0.094294  -0.010747  -0.076512  -0.018869  -0.034081
     6  C   -1.229735   0.876127  -0.003584   0.008304   0.039469   0.011688
     7  C    6.992993  -1.030756   0.001855  -0.009169  -0.011529  -0.000886
     8  C   -1.030756   7.197445  -0.005246   0.050236  -0.022393  -0.009958
     9  H    0.001855  -0.005246   0.518436  -0.024988  -0.004164  -0.000094
    10  H   -0.009169   0.050236  -0.024988   0.518473   0.004013  -0.000055
    11  H   -0.011529  -0.022393  -0.004164   0.004013   0.557158   0.000214
    12  H   -0.000886  -0.009958  -0.000094  -0.000055   0.000214   0.556536
    13  H   -0.008922   0.031537  -0.000136   0.001294  -0.000434  -0.041966
    14  H   -0.000651   0.013404  -0.005097   0.004172   0.000882  -0.006533
    15  H    0.003045  -0.000847   0.000249  -0.004997  -0.000087   0.001151
    16  H    0.055068   0.013822   0.000004  -0.000033  -0.000253  -0.000552
    17  H    0.298916   0.023125   0.000005  -0.000080  -0.000113   0.000008
    18  H   -0.023743   0.384135   0.000518   0.000355   0.002579   0.000007
    19  O   -0.094584   0.256700  -0.000171   0.000820   0.003473   0.000054
    20  H   -0.020676   0.024138   0.000000  -0.000008  -0.000294   0.000002
    21  O    0.208605  -0.026473   0.000734  -0.001881  -0.000120   0.000110
    22  H    0.056184  -0.045173  -0.000011  -0.000012  -0.000016  -0.000003
    23  C    0.217151  -0.474288   0.000115  -0.000349   0.018055   0.013771
    24  H    0.029867  -0.002488   0.000000   0.000000   0.000001   0.000014
    25  H    0.006518  -0.009781   0.000000   0.000000  -0.000024  -0.000009
    26  O    0.074878   0.062129   0.000070  -0.000016  -0.001666   0.000300
    27  H   -0.012559  -0.015143  -0.000007   0.000000  -0.000739  -0.000164
             13         14         15         16         17         18
     1  C    0.003375  -0.026604  -0.054000  -0.005332   0.002135   0.032850
     2  C   -0.016127  -0.036510   0.040946   0.024290   0.011659  -0.107943
     3  N   -0.079864   0.012314   0.006233  -0.040594   0.008927   0.020521
     4  C    0.445918  -0.026030  -0.029262   0.025439  -0.008343  -0.007352
     5  C   -0.027856   0.385204   0.380538   0.002827   0.000830   0.011307
     6  C   -0.016568   0.003660  -0.005500   0.273712  -0.064859   0.026617
     7  C   -0.008922  -0.000651   0.003045   0.055068   0.298916  -0.023743
     8  C    0.031537   0.013404  -0.000847   0.013822   0.023125   0.384135
     9  H   -0.000136  -0.005097   0.000249   0.000004   0.000005   0.000518
    10  H    0.001294   0.004172  -0.004997  -0.000033  -0.000080   0.000355
    11  H   -0.000434   0.000882  -0.000087  -0.000253  -0.000113   0.002579
    12  H   -0.041966  -0.006533   0.001151  -0.000552   0.000008   0.000007
    13  H    0.559717   0.004004  -0.004893   0.005906  -0.000111  -0.000042
    14  H    0.004004   0.524717  -0.024412  -0.000010   0.000000  -0.000008
    15  H   -0.004893  -0.024412   0.514720  -0.000012   0.000000  -0.000005
    16  H    0.005906  -0.000010  -0.000012   0.533206   0.000079  -0.000197
    17  H   -0.000111   0.000000   0.000000   0.000079   0.563331  -0.001889
    18  H   -0.000042  -0.000008  -0.000005  -0.000197  -0.001889   0.546073
    19  O   -0.000183   0.000008   0.000017  -0.000047  -0.002328  -0.053423
    20  H    0.000002   0.000001   0.000000  -0.000208  -0.000863   0.005893
    21  O   -0.000027  -0.000127  -0.000002  -0.003287  -0.038340  -0.012612
    22  H    0.000155   0.000000   0.000000   0.000411  -0.005877   0.004406
    23  C   -0.015483   0.000856  -0.000334  -0.069565   0.041690   0.002052
    24  H    0.000034   0.000001   0.000000  -0.003193   0.000078   0.000002
    25  H    0.000006   0.000000   0.000000   0.002312   0.001856  -0.000019
    26  O   -0.000275  -0.000044   0.000007   0.011559  -0.001314   0.000150
    27  H    0.000034   0.000004  -0.000001   0.000004   0.000013  -0.000048
             19         20         21         22         23         24
     1  C   -0.008016   0.006555  -0.028747  -0.005008   0.021097   0.002131
     2  C   -0.058470  -0.052242   0.037980  -0.003361   0.242631  -0.000282
     3  N    0.015062   0.007415  -0.008293  -0.002735  -0.022696  -0.002476
     4  C    0.003886  -0.000641  -0.040914  -0.001147  -0.159777   0.005311
     5  C   -0.005767   0.002233   0.005659   0.005929  -0.021543   0.000706
     6  C    0.012118   0.034198  -0.051088   0.012212  -0.771848  -0.046341
     7  C   -0.094584  -0.020676   0.208605   0.056184   0.217151   0.029867
     8  C    0.256700   0.024138  -0.026473  -0.045173  -0.474288  -0.002488
     9  H   -0.000171   0.000000   0.000734  -0.000011   0.000115   0.000000
    10  H    0.000820  -0.000008  -0.001881  -0.000012  -0.000349   0.000000
    11  H    0.003473  -0.000294  -0.000120  -0.000016   0.018055   0.000001
    12  H    0.000054   0.000002   0.000110  -0.000003   0.013771   0.000014
    13  H   -0.000183   0.000002  -0.000027   0.000155  -0.015483   0.000034
    14  H    0.000008   0.000001  -0.000127   0.000000   0.000856   0.000001
    15  H    0.000017   0.000000  -0.000002   0.000000  -0.000334   0.000000
    16  H   -0.000047  -0.000208  -0.003287   0.000411  -0.069565  -0.003193
    17  H   -0.002328  -0.000863  -0.038340  -0.005877   0.041690   0.000078
    18  H   -0.053423   0.005893  -0.012612   0.004406   0.002052   0.000002
    19  O    8.288483   0.231412   0.004801  -0.000303   0.010492  -0.000993
    20  H    0.231412   0.320141  -0.000408   0.000036  -0.018227   0.000519
    21  O    0.004801  -0.000408   8.239291   0.230746   0.029233  -0.000539
    22  H   -0.000303   0.000036   0.230746   0.381731  -0.006650   0.000005
    23  C    0.010492  -0.018227   0.029233  -0.006650   6.103872   0.379767
    24  H   -0.000993   0.000519  -0.000539   0.000005   0.379767   0.549339
    25  H    0.000974  -0.000895   0.000212  -0.000008   0.492950  -0.031158
    26  O   -0.027259   0.047013  -0.002504   0.000150   0.143692  -0.043033
    27  H   -0.000787  -0.007511  -0.000026   0.000000   0.018376  -0.006043
             25         26         27
     1  C    0.000728   0.010992   0.004435
     2  C    0.014239  -0.066495   0.027677
     3  N    0.017804   0.068821   0.033700
     4  C    0.001202   0.034243   0.004732
     5  C    0.000150  -0.003985  -0.001221
     6  C   -0.153350  -0.220462  -0.054902
     7  C    0.006518   0.074878  -0.012559
     8  C   -0.009781   0.062129  -0.015143
     9  H    0.000000   0.000070  -0.000007
    10  H    0.000000  -0.000016   0.000000
    11  H   -0.000024  -0.001666  -0.000739
    12  H   -0.000009   0.000300  -0.000164
    13  H    0.000006  -0.000275   0.000034
    14  H    0.000000  -0.000044   0.000004
    15  H    0.000000   0.000007  -0.000001
    16  H    0.002312   0.011559   0.000004
    17  H    0.001856  -0.001314   0.000013
    18  H   -0.000019   0.000150  -0.000048
    19  O    0.000974  -0.027259  -0.000787
    20  H   -0.000895   0.047013  -0.007511
    21  O    0.000212  -0.002504  -0.000026
    22  H   -0.000008   0.000150   0.000000
    23  C    0.492950   0.143692   0.018376
    24  H   -0.031158  -0.043033  -0.006043
    25  H    0.530478  -0.053454   0.006459
    26  O   -0.053454   8.309601   0.254861
    27  H    0.006459   0.254861   0.337033
 Mulliken atomic charges:
              1
     1  C   -0.469394
     2  C    0.066278
     3  N   -0.265211
     4  C   -0.208190
     5  C   -0.408664
     6  C    0.138600
     7  C   -0.213000
     8  C   -0.022879
     9  H    0.175045
    10  H    0.180652
    11  H    0.172268
    12  H    0.160222
    13  H    0.160904
    14  H    0.176801
    15  H    0.177446
    16  H    0.174644
    17  H    0.171466
    18  H    0.169813
    19  O   -0.575972
    20  H    0.422415
    21  O   -0.541983
    22  H    0.378341
    23  C   -0.175041
    24  H    0.168769
    25  H    0.172808
    26  O   -0.597958
    27  H    0.411820
 Sum of Mulliken atomic charges =   0.00000
 Mulliken charges with hydrogens summed into heavy atoms:
              1
     1  C   -0.113698
     2  C    0.238546
     3  N   -0.265211
     4  C    0.112937
     5  C   -0.054418
     6  C    0.313244
     7  C   -0.041535
     8  C    0.146934
    19  O   -0.153557
    21  O   -0.163642
    23  C    0.166537
    26  O   -0.186138
 Sum of Mulliken charges with hydrogens summed into heavy atoms =   0.00000
 Electronic spatial extent (au):  <R**2>=           1862.6492
 Charge=              0.0000 electrons
 Dipole moment (field-independent basis, Debye):
    X=              2.5948    Y=             -0.6595    Z=              1.8352  Tot=              3.2459
 Quadrupole moment (field-independent basis, Debye-Ang):
   XX=            -76.2277   YY=            -69.1004   ZZ=            -77.1575
   XY=              3.0588   XZ=             -7.9319   YZ=              3.3512
 Traceless Quadrupole moment (field-independent basis, Debye-Ang):
   XX=             -2.0658   YY=              5.0615   ZZ=             -2.9957
   XY=              3.0588   XZ=             -7.9319   YZ=              3.3512
 Octapole moment (field-independent basis, Debye-Ang**2):
  XXX=             12.0776  YYY=             14.5430  ZZZ=             -8.6874  XYY=              7.1918
  XXY=             -1.6395  XXZ=             16.1843  XZZ=             -0.2179  YZZ=             -8.6531
  YYZ=             19.4042  XYZ=             -4.5388
 Hexadecapole moment (field-independent basis, Debye-Ang**3):
 XXXX=          -1252.0866 YYYY=           -604.1641 ZZZZ=           -547.2045 XXXY=            -10.4883
 XXXZ=            -27.0095 YYYX=             27.0077 YYYZ=             52.4244 ZZZX=             -0.7312
 ZZZY=             19.8186 XXYY=           -338.2878 XXZZ=           -294.2630 YYZZ=           -188.2905
 XXYZ=              0.7249 YYXZ=            -13.8484 ZZXY=             14.4660
 N-N= 8.232088375976D+02 E-N=-3.032235814179D+03  KE= 5.886671070136D+02
 1\1\GINC-COMPUTE-3-0\SP\RmPW1PW91\6-31+G(d,p)\C8H15N1O3\MAMICHETTI.IQU
 IR\17-May-2024\0\\# mpw1pw91/6-31+G** nmr scrf=(pcm,solvent=water)\\co
 mment\\0,1\C,0,2.121358,0.676408,-0.737785\C,0,0.638675,0.313683,-0.92
 5075\N,0,0.411238,-0.914523,-0.084558\C,0,1.71551,-1.332635,0.488865\C
 ,0,2.765976,-0.677274,-0.412641\C,0,-0.657335,-0.626104,0.901647\C,0,-
 0.783217,0.907478,0.952548\C,0,-0.39718,1.367256,-0.468346\H,0,2.54373
 1,1.162609,-1.622818\H,0,2.238355,1.358808,0.111893\H,0,0.444772,0.080
 936,-1.9796\H,0,1.801769,-2.425386,0.511235\H,0,1.829073,-0.97255,1.52
 159\H,0,2.903672,-1.264036,-1.329106\H,0,3.738443,-0.589943,0.08181\H,
 0,-0.369299,-0.990247,1.894245\H,0,-1.793858,1.247539,1.213603\H,0,0.0
 31839,2.374008,-0.449565\O,0,-1.535435,1.444232,-1.328262\H,0,-1.95714
 7,0.554676,-1.30875\O,0,0.165808,1.364788,1.927614\H,0,0.195685,2.3347
 03,1.868385\C,0,-1.94862,-1.358237,0.513148\H,0,-1.840895,-2.426789,0.
 73805\H,0,-2.804973,-0.972949,1.073563\O,0,-2.266899,-1.20364,-0.88116
 2\H,0,-1.478617,-1.53621,-1.352318\\Version=AM64L-G09RevC.01\State=1-A
 \HF=-594.2014463\RMSD=3.060e-09\Dipole=1.0208766,-0.259471,0.7220062\Q
 uadrupole=-1.535871,3.7630684,-2.2271974,2.2741719,-5.8971419,2.491541
 4\PG=C01 [X(C8H15N1O3)]\\@


 THE CAUTIOUS SELDOM ERR...CONFUCIUS                   
 Job cpu time:  0 days  0 hours  9 minutes 11.7 seconds.
 File lengths (MBytes):  RWF=    110 Int=      0 D2E=      0 Chk=      7 Scr=      1
 Normal termination of Gaussian 09 at Fri May 17 12:44:00 2024.
