 Entering Gaussian System, Link 0=g09
 Input=/home/mamichetti.iquir/Linux/02_Cardona_A1A3_R__R_R_R_049_OptB.gjc
 Output=/home/mamichetti.iquir/Linux/02_Cardona_A1A3_R__R_R_R_049_OptB.log
 Initial command:
 /opt/ohpc/pub/apps/software/Gaussian/09/AMD64.SSE4a-enabled/g09/l1.exe /local/mamichetti.iquir/Gau-711153.inp -scrdir=/local/mamichetti.iquir/
 Entering Link 1 = /opt/ohpc/pub/apps/software/Gaussian/09/AMD64.SSE4a-enabled/g09/l1.exe PID=    711154.
  
 Copyright (c) 1988,1990,1992,1993,1995,1998,2003,2009,2011,
            Gaussian, Inc.  All Rights Reserved.
  
 This is part of the Gaussian(R) 09 program.  It is based on
 the Gaussian(R) 03 system (copyright 2003, Gaussian, Inc.),
 the Gaussian(R) 98 system (copyright 1998, Gaussian, Inc.),
 the Gaussian(R) 94 system (copyright 1995, Gaussian, Inc.),
 the Gaussian 92(TM) system (copyright 1992, Gaussian, Inc.),
 the Gaussian 90(TM) system (copyright 1990, Gaussian, Inc.),
 the Gaussian 88(TM) system (copyright 1988, Gaussian, Inc.),
 the Gaussian 86(TM) system (copyright 1986, Carnegie Mellon
 University), and the Gaussian 82(TM) system (copyright 1983,
 Carnegie Mellon University). Gaussian is a federally registered
 trademark of Gaussian, Inc.
  
 This software contains proprietary and confidential information,
 including trade secrets, belonging to Gaussian, Inc.
  
 This software is provided under written license and may be
 used, copied, transmitted, or stored only in accord with that
 written license.
  
 The following legend is applicable only to US Government
 contracts under FAR:
  
                    RESTRICTED RIGHTS LEGEND
  
 Use, reproduction and disclosure by the US Government is
 subject to restrictions as set forth in subparagraphs (a)
 and (c) of the Commercial Computer Software - Restricted
 Rights clause in FAR 52.227-19.
  
 Gaussian, Inc.
 340 Quinnipiac St., Bldg. 40, Wallingford CT 06492
  
  
 ---------------------------------------------------------------
 Warning -- This program may not be used in any manner that
 competes with the business of Gaussian, Inc. or will provide
 assistance to any competitor of Gaussian, Inc.  The licensee
 of this program is prohibited from giving any competitor of
 Gaussian, Inc. access to this program.  By using this program,
 the user acknowledges that Gaussian, Inc. is engaged in the
 business of creating and licensing software in the field of
 computational chemistry and represents and warrants to the
 licensee that it is not a competitor of Gaussian, Inc. and that
 it will not use this program in any manner prohibited above.
 ---------------------------------------------------------------
  

 Cite this work as:
 Gaussian 09, Revision C.01,
 M. J. Frisch, G. W. Trucks, H. B. Schlegel, G. E. Scuseria, 
 M. A. Robb, J. R. Cheeseman, G. Scalmani, V. Barone, B. Mennucci, 
 G. A. Petersson, H. Nakatsuji, M. Caricato, X. Li, H. P. Hratchian, 
 A. F. Izmaylov, J. Bloino, G. Zheng, J. L. Sonnenberg, M. Hada, 
 M. Ehara, K. Toyota, R. Fukuda, J. Hasegawa, M. Ishida, T. Nakajima, 
 Y. Honda, O. Kitao, H. Nakai, T. Vreven, J. A. Montgomery, Jr., 
 J. E. Peralta, F. Ogliaro, M. Bearpark, J. J. Heyd, E. Brothers, 
 K. N. Kudin, V. N. Staroverov, T. Keith, R. Kobayashi, J. Normand, 
 K. Raghavachari, A. Rendell, J. C. Burant, S. S. Iyengar, J. Tomasi, 
 M. Cossi, N. Rega, J. M. Millam, M. Klene, J. E. Knox, J. B. Cross, 
 V. Bakken, C. Adamo, J. Jaramillo, R. Gomperts, R. E. Stratmann, 
 O. Yazyev, A. J. Austin, R. Cammi, C. Pomelli, J. W. Ochterski, 
 R. L. Martin, K. Morokuma, V. G. Zakrzewski, G. A. Voth, 
 P. Salvador, J. J. Dannenberg, S. Dapprich, A. D. Daniels, 
 O. Farkas, J. B. Foresman, J. V. Ortiz, J. Cioslowski, 
 and D. J. Fox, Gaussian, Inc., Wallingford CT, 2010.
 
 ******************************************
 Gaussian 09:  AM64L-G09RevC.01 23-Sep-2011
                17-May-2024 
 ******************************************
 %nprocshared=4
 Will use up to    4 processors via shared memory.
 ------------------------------------------------
 # mpw1pw91/6-31+G** nmr scrf=(pcm,solvent=water)
 ------------------------------------------------
 1/38=1/1;
 2/12=2,17=6,18=5,40=1/2;
 3/5=1,6=6,7=111,11=2,16=1,25=1,30=1,70=2201,72=1,74=-7/1,2,8,3;
 4//1;
 5/5=2,38=5,53=1/2;
 8/6=1,10=90,11=11/1;
 10/13=100,45=16/2;
 6/7=2,8=2,9=2,10=2,28=1/1;
 99/9=1/99;
 -------
 comment
 -------
 Charge =  0 Multiplicity = 1
 Symbolic Z-Matrix:
 6                     2.64999  -0.01781   0.10722 
 6                     1.34084   0.38058  -0.60595 
 7                     0.4935   -0.86734  -0.68306 
 6                     1.27963  -1.95912  -0.06282 
 6                     2.2668   -1.28003   0.89395 
 6                    -0.77723  -0.58928   0.02007 
 6                    -0.93955   0.92253  -0.12954 
 6                     0.48165   1.42552   0.11744 
 1                     3.42275  -0.2589   -0.63199 
 1                     3.03252   0.7933    0.73542 
 1                     1.54675   0.75906  -1.61438 
 1                     1.82814  -2.50353  -0.84268 
 1                     0.61179  -2.6746    0.42586 
 1                     3.12582  -1.91138   1.14307 
 1                     1.76184  -1.01219   1.83055 
 1                    -0.70899  -0.81354   1.09867 
 1                    -1.23245   1.17108  -1.15936 
 1                     0.67086   1.40013   1.2009 
 8                     0.75595   2.72824  -0.39597 
 1                     0.23298   3.35717   0.12959 
 8                    -1.92788   1.40867   0.7858 
 1                    -2.1536    2.31488   0.51535 
 6                    -1.96184  -1.37508  -0.53978 
 1                    -2.1069   -1.11887  -1.60058 
 1                    -1.77369  -2.45271  -0.47944 
 8                    -3.15224  -1.11988   0.2149 
 1                    -3.16077  -0.15861   0.38895 
 
                          Input orientation:                          
 ---------------------------------------------------------------------
 Center     Atomic      Atomic             Coordinates (Angstroms)
 Number     Number       Type             X           Y           Z
 ---------------------------------------------------------------------
      1          6           0        2.649992   -0.017807    0.107219
      2          6           0        1.340844    0.380577   -0.605952
      3          7           0        0.493499   -0.867336   -0.683057
      4          6           0        1.279631   -1.959122   -0.062816
      5          6           0        2.266801   -1.280028    0.893953
      6          6           0       -0.777232   -0.589283    0.020065
      7          6           0       -0.939554    0.922531   -0.129535
      8          6           0        0.481651    1.425518    0.117444
      9          1           0        3.422753   -0.258903   -0.631989
     10          1           0        3.032524    0.793295    0.735416
     11          1           0        1.546747    0.759060   -1.614375
     12          1           0        1.828136   -2.503530   -0.842684
     13          1           0        0.611790   -2.674597    0.425855
     14          1           0        3.125825   -1.911383    1.143067
     15          1           0        1.761839   -1.012193    1.830551
     16          1           0       -0.708991   -0.813541    1.098674
     17          1           0       -1.232451    1.171081   -1.159356
     18          1           0        0.670857    1.400127    1.200903
     19          8           0        0.755951    2.728241   -0.395971
     20          1           0        0.232977    3.357171    0.129591
     21          8           0       -1.927881    1.408668    0.785804
     22          1           0       -2.153596    2.314879    0.515346
     23          6           0       -1.961838   -1.375084   -0.539782
     24          1           0       -2.106903   -1.118871   -1.600580
     25          1           0       -1.773688   -2.452707   -0.479436
     26          8           0       -3.152235   -1.119876    0.214904
     27          1           0       -3.160766   -0.158614    0.388948
 ---------------------------------------------------------------------
                    Distance matrix (angstroms):
                    1          2          3          4          5
     1  C    0.000000
     2  C    1.543111   0.000000
     3  N    2.448816   1.510373   0.000000
     4  C    2.382332   2.402693   1.481452   0.000000
     5  C    1.535900   2.421718   2.408708   1.533323   0.000000
     6  C    3.475636   2.412213   1.478665   2.472653   3.241442
     7  C    3.718216   2.391841   2.358739   3.637741   4.022376
     8  C    2.604802   1.534085   2.428605   3.482105   3.333123
     9  H    1.096228   2.178063   2.992211   2.794222   2.169659
    10  H    1.094919   2.198041   3.349091   3.359406   2.215882
    11  H    2.187363   1.096614   2.149848   3.141210   3.311807
    12  H    2.785064   2.934547   2.117514   1.097922   2.169169
    13  H    3.363678   3.306090   2.123646   1.093945   2.214272
    14  H    2.210210   3.390915   3.369555   2.205644   1.094801
    15  H    2.178874   2.837885   2.819201   2.171183   1.097241
    16  H    3.591510   2.921214   2.150219   2.572165   3.019082
    17  H    4.253355   2.748272   2.713099   4.160664   4.740124
    18  H    2.669018   2.180158   2.953329   3.640350   3.134404
    19  O    3.373629   2.428522   3.616555   4.728277   4.473566
    20  H    4.151257   3.260139   4.309841   5.421760   5.120967
    21  O    4.842750   3.698448   3.633294   4.727610   4.983587
    22  H    5.355600   4.148487   4.309266   5.512568   5.710220
    23  C    4.850751   3.740913   2.511377   3.328020   4.466097
    24  H    5.172714   3.889034   2.768973   3.813050   5.037654
    25  H    5.083488   4.212341   2.773986   3.120890   4.425712
    26  O    5.906944   4.807590   3.763175   4.519170   5.463763
    27  H    5.819287   4.641664   3.873646   4.812800   5.565167
                    6          7          8          9         10
     6  C    0.000000
     7  C    1.527845   0.000000
     8  C    2.377749   1.527684   0.000000
     9  H    4.263121   4.547303   3.471168   0.000000
    10  H    4.115518   4.067216   2.699731   1.768953   0.000000
    11  H    3.144885   2.900546   2.139578   2.349623   2.780328
    12  H    3.346135   4.461679   4.262896   2.761439   3.848377
    13  H    2.538224   3.956571   4.113757   3.854364   4.240525
    14  H    4.271175   5.116433   4.379323   2.443293   2.736817
    15  H    3.146998   3.857800   3.242846   3.064341   2.464498
    16  H    1.103787   2.139066   2.719159   4.513771   4.088131
    17  H    2.167289   1.099135   2.152464   4.898356   4.682189
    18  H    2.729303   2.142799   1.100149   3.699298   2.482417
    19  O    3.678274   2.491247   1.426858   4.011305   3.194814
    20  H    4.075171   2.714673   1.947632   4.881666   3.844210
    21  O    2.429436   1.432119   2.500567   5.781022   4.998684
    22  H    3.251744   1.956630   2.809594   6.247912   5.409204
    23  C    1.527810   2.548019   3.774382   5.499835   5.592106
    24  H    2.162170   2.773806   4.015736   5.679332   5.960450
    25  H    2.171353   3.494344   4.525864   5.642610   5.925544
    26  O    2.441338   3.030845   4.437754   6.684981   6.494798
    27  H    2.450058   2.524179   3.981255   6.662964   6.275589
                   11         12         13         14         15
    11  H    0.000000
    12  H    3.364399   0.000000
    13  H    4.102034   1.765773   0.000000
    14  H    4.150691   2.444963   2.723465   0.000000
    15  H    3.879577   3.061808   2.461579   1.772466   0.000000
    16  H    3.862909   3.614132   2.379218   3.989115   2.584590
    17  H    2.846181   4.792728   4.550094   5.813545   4.761513
    18  H    3.017274   4.555665   4.148200   4.122658   2.721394
    19  O    2.446945   5.359157   5.466886   5.432408   4.467668
    20  H    3.393757   6.151233   6.050909   6.095356   4.931737
    21  O    4.272691   5.662590   4.822089   6.057253   4.534986
    22  H    4.544098   6.396523   5.705282   6.791731   5.303754
    23  C    4.244937   3.965986   3.040518   5.385528   4.428988
    24  H    4.108038   4.239837   3.730685   5.961302   5.172157
    25  H    4.756976   3.620451   2.561112   5.189487   4.462182
    26  O    5.381180   5.276086   4.077934   6.395468   5.173977
    27  H    5.197702   5.648424   4.534723   6.569789   5.199890
                   16         17         18         19         20
    16  H    0.000000
    17  H    3.051464   0.000000
    18  H    2.610509   3.040702   0.000000
    19  O    4.113908   2.638417   2.078734   0.000000
    20  H    4.384206   2.930504   2.273647   0.972250   0.000000
    21  O    2.553780   2.079355   2.631695   3.215714   2.982715
    22  H    3.494877   2.227422   3.047014   3.076822   2.632662
    23  C    2.137638   2.720080   4.202721   4.923854   5.259231
    24  H    3.055054   2.490627   4.680770   4.944420   5.338865
    25  H    2.512146   3.726536   4.862476   5.766131   6.176755
    26  O    2.616167   3.289779   4.683870   5.518613   5.613456
    27  H    2.635117   2.807799   4.215481   4.928560   4.893414
                   21         22         23         24         25
    21  O    0.000000
    22  H    0.972272   0.000000
    23  C    3.083441   3.842641   0.000000
    24  H    3.480708   4.033604   1.100900   0.000000
    25  H    4.066304   4.885059   1.095588   1.774011   0.000000
    26  O    2.866793   3.589580   1.432385   2.094923   2.039348
    27  H    2.033193   2.673675   1.944162   2.447640   2.817967
                   26         27
    26  O    0.000000
    27  H    0.976928   0.000000
 Stoichiometry    C8H15NO3
 Framework group  C1[X(C8H15NO3)]
 Deg. of freedom    75
 Full point group                 C1      NOp   1
 Largest Abelian subgroup         C1      NOp   1
 Largest concise Abelian subgroup C1      NOp   1
                         Standard orientation:                         
 ---------------------------------------------------------------------
 Center     Atomic      Atomic             Coordinates (Angstroms)
 Number     Number       Type             X           Y           Z
 ---------------------------------------------------------------------
      1          6           0        2.649992   -0.017806    0.107219
      2          6           0        1.340844    0.380577   -0.605952
      3          7           0        0.493499   -0.867336   -0.683057
      4          6           0        1.279632   -1.959122   -0.062816
      5          6           0        2.266801   -1.280027    0.893953
      6          6           0       -0.777232   -0.589283    0.020065
      7          6           0       -0.939554    0.922531   -0.129535
      8          6           0        0.481651    1.425518    0.117444
      9          1           0        3.422753   -0.258902   -0.631989
     10          1           0        3.032524    0.793296    0.735416
     11          1           0        1.546747    0.759060   -1.614375
     12          1           0        1.828137   -2.503530   -0.842684
     13          1           0        0.611791   -2.674597    0.425855
     14          1           0        3.125826   -1.911382    1.143067
     15          1           0        1.761839   -1.012193    1.830551
     16          1           0       -0.708991   -0.813541    1.098674
     17          1           0       -1.232451    1.171081   -1.159356
     18          1           0        0.670857    1.400127    1.200903
     19          8           0        0.755950    2.728241   -0.395971
     20          1           0        0.232976    3.357171    0.129591
     21          8           0       -1.927881    1.408668    0.785804
     22          1           0       -2.153597    2.314878    0.515346
     23          6           0       -1.961838   -1.375084   -0.539782
     24          1           0       -2.106903   -1.118871   -1.600580
     25          1           0       -1.773687   -2.452707   -0.479436
     26          8           0       -3.152235   -1.119877    0.214904
     27          1           0       -3.160766   -0.158615    0.388948
 ---------------------------------------------------------------------
 Rotational constants (GHZ):      1.2277975      0.8361879      0.5566551
 Standard basis: 6-31+G(d,p) (6D, 7F)
 There are   303 symmetry adapted basis functions of A   symmetry.
 Integral buffers will be    131072 words long.
 Raffenetti 2 integral format.
 Two-electron integral symmetry is turned on.
   303 basis functions,   489 primitive gaussians,   303 cartesian basis functions
    47 alpha electrons       47 beta electrons
       nuclear repulsion energy       801.2800633804 Hartrees.
 NAtoms=   27 NActive=   27 NUniq=   27 SFac= 1.00D+00 NAtFMM=   60 NAOKFM=F Big=F
 ------------------------------------------------------------------------------
 Polarizable Continuum Model (PCM)
 =================================
 Model                : PCM.
 Atomic radii         : UFF (Universal Force Field).
 Polarization charges : Total charges.
 Charge compensation  : None.
 Solution method      : Matrix inversion.
 Cavity type          : Scaled VdW (van der Waals Surface) (Alpha=1.100).
 Cavity algorithm     : GePol (No added spheres)
                        Default sphere list used, NSphG=   27.
                        Lebedev-Laikov grids with approx.  5.0 points / Ang**2.
                        Smoothing algorithm: Karplus/York (Gamma=1.0000).
                        Polarization charges: spherical gaussians, with
                                              point-specific exponents (IZeta= 3).
                        Self-potential: point-specific (ISelfS= 7).
                        Self-field    : sphere-specific E.n sum rule (ISelfD= 2).
 Solvent              : Water, Eps=  78.355300 Eps(inf)=   1.777849
 ------------------------------------------------------------------------------
 One-electron integrals computed using PRISM.
 NBasis=   303 RedAO= T  NBF=   303
 NBsUse=   303 1.00D-06 NBFU=   303
 Harris functional with IExCor=  908 diagonalized for initial guess.
 ExpMin= 4.38D-02 ExpMax= 5.48D+03 ExpMxC= 8.25D+02 IAcc=2 IRadAn=         4 AccDes= 0.00D+00
 HarFok:  IExCor=  908 AccDes= 0.00D+00 IRadAn=         4 IDoV= 1
 ScaDFX=  1.000000  1.000000  1.000000  1.000000
 FoFCou: FMM=F IPFlag=           0 FMFlag=      100000 FMFlg1=           0
         NFxFlg=           0 DoJE=T BraDBF=F KetDBF=T FulRan=T
         Omega=  0.000000  0.000000  1.000000  0.000000  0.000000 ICntrl=     500 IOpCl=  0
         NMat0=    1 NMatS0=    1 NMatT0=    0 NMatD0=    1 NMtDS0=    0 NMtDT0=    0
         I1Cent=           4 NGrid=           0.
 Petite list used in FoFCou.
 Initial guess orbital symmetries:
       Occupied  (A) (A) (A) (A) (A) (A) (A) (A) (A) (A) (A) (A)
                 (A) (A) (A) (A) (A) (A) (A) (A) (A) (A) (A) (A)
                 (A) (A) (A) (A) (A) (A) (A) (A) (A) (A) (A) (A)
                 (A) (A) (A) (A) (A) (A) (A) (A) (A) (A) (A)
       Virtual   (A) (A) (A) (A) (A) (A) (A) (A) (A) (A) (A) (A)
                 (A) (A) (A) (A) (A) (A) (A) (A) (A) (A) (A) (A)
                 (A) (A) (A) (A) (A) (A) (A) (A) (A) (A) (A) (A)
                 (A) (A) (A) (A) (A) (A) (A) (A) (A) (A) (A) (A)
                 (A) (A) (A) (A) (A) (A) (A) (A) (A) (A) (A) (A)
                 (A) (A) (A) (A) (A) (A) (A) (A) (A) (A) (A) (A)
                 (A) (A) (A) (A) (A) (A) (A) (A) (A) (A) (A) (A)
                 (A) (A) (A) (A) (A) (A) (A) (A) (A) (A) (A) (A)
                 (A) (A) (A) (A) (A) (A) (A) (A) (A) (A) (A) (A)
                 (A) (A) (A) (A) (A) (A) (A) (A) (A) (A) (A) (A)
                 (A) (A) (A) (A) (A) (A) (A) (A) (A) (A) (A) (A)
                 (A) (A) (A) (A) (A) (A) (A) (A) (A) (A) (A) (A)
                 (A) (A) (A) (A) (A) (A) (A) (A) (A) (A) (A) (A)
                 (A) (A) (A) (A) (A) (A) (A) (A) (A) (A) (A) (A)
                 (A) (A) (A) (A) (A) (A) (A) (A) (A) (A) (A) (A)
                 (A) (A) (A) (A) (A) (A) (A) (A) (A) (A) (A) (A)
                 (A) (A) (A) (A) (A) (A) (A) (A) (A) (A) (A) (A)
                 (A) (A) (A) (A) (A) (A) (A) (A) (A) (A) (A) (A)
                 (A) (A) (A) (A) (A) (A) (A) (A) (A) (A) (A) (A)
                 (A) (A) (A) (A) (A) (A) (A) (A) (A) (A) (A) (A)
                 (A) (A) (A) (A) (A) (A) (A) (A) (A) (A) (A) (A)
                 (A) (A) (A) (A)
 The electronic state of the initial guess is 1-A.
 Requested convergence on RMS density matrix=1.00D-08 within 128 cycles.
 Requested convergence on MAX density matrix=1.00D-06.
 Requested convergence on             energy=1.00D-06.
 No special actions if energy rises.
 Error on total polarization charges =  0.01477
 SCF Done:  E(RmPW1PW91) =  -594.199519000     A.U. after   13 cycles
             Convg  =    0.6036D-08             -V/T =  2.0094
 Range of M.O.s used for correlation:     1   303
 NBasis=   303 NAE=    47 NBE=    47 NFC=     0 NFV=     0
 NROrb=    303 NOA=    47 NOB=    47 NVA=   256 NVB=   256

 **** Warning!!: The largest alpha MO coefficient is  0.59087799D+02

 NEqPCM:  Using equilibrium solvation (IEInf=0, Eps=  78.3553, EpsInf=   1.7778)
          Differentiating once with respect to magnetic field using GIAOs.
          Electric field/nuclear overlap derivatives assumed to be zero.
 FoFCou: FMM=F IPFlag=           0 FMFlag=    10101102 FMFlg1=           0
         NFxFlg=    40000000 DoJE=F BraDBF=F KetDBF=T FulRan=T
         Omega=  0.000000  0.000000  1.000000  0.000000  0.000000 ICntrl=    6100 IOpCl=  0
         NMat0=    1 NMatS0=    1 NMatT0=    0 NMatD0=    1 NMtDS0=    0 NMtDT0=    0
         I1Cent=           7 NGrid=        1829.
 Symmetry not used in FoFCou.
          There are     3 degrees of freedom in the 1st order CPHF.  IDoFFX=0.
      3 vectors produced by pass  0 Test12= 4.01D-13 3.33D-08 XBig12= 3.13D+01 1.23D+00.
 AX will form     3 AO Fock derivatives at one time.
      3 vectors produced by pass  1 Test12= 4.01D-13 3.33D-08 XBig12= 7.96D-02 6.76D-02.
      3 vectors produced by pass  2 Test12= 4.01D-13 3.33D-08 XBig12= 1.66D-04 2.56D-03.
      3 vectors produced by pass  3 Test12= 4.01D-13 3.33D-08 XBig12= 8.72D-07 3.28D-04.
      3 vectors produced by pass  4 Test12= 4.01D-13 3.33D-08 XBig12= 3.04D-09 1.37D-05.
      3 vectors produced by pass  5 Test12= 4.01D-13 3.33D-08 XBig12= 9.24D-12 6.49D-07.
 Inverted reduced A of dimension    18 with in-core refinement.
 Calculating GIAO nuclear magnetic shielding tensors.
 SCF GIAO Magnetic shielding tensor (ppm):
      1  C    Isotropic =   163.0521   Anisotropy =    24.7342
   XX=   170.3209   YX=     3.8088   ZX=    15.7375
   XY=    -2.5143   YY=   165.9887   ZY=    -4.2012
   XZ=    11.4926   YZ=   -16.5813   ZZ=   152.8468
   Eigenvalues:   141.6680   167.9469   179.5416
      2  C    Isotropic =   128.0064   Anisotropy =    56.9495
   XX=   124.8786   YX=    11.3275   ZX=    11.8906
   XY=    19.4089   YY=   160.0815   ZY=    -1.4907
   XZ=    -0.5253   YZ=     3.4101   ZZ=    99.0591
   Eigenvalues:    97.7723   120.2742   165.9727
      3  N    Isotropic =   201.5738   Anisotropy =    66.8763
   XX=   238.5988   YX=    17.6790   ZX=     4.9751
   XY=     6.5804   YY=   226.4884   ZY=   -15.7239
   XZ=     1.5997   YZ=    -4.1295   ZZ=   139.6342
   Eigenvalues:   138.2973   220.2660   246.1580
      4  C    Isotropic =   141.6290   Anisotropy =    52.7651
   XX=   139.6927   YX=   -21.4275   ZX=    12.4283
   XY=   -12.2898   YY=   155.8427   ZY=   -17.4466
   XZ=    27.0630   YZ=    -8.9585   ZZ=   129.3514
   Eigenvalues:   114.1099   133.9713   176.8057
      5  C    Isotropic =   171.3398   Anisotropy =    19.7309
   XX=   169.3444   YX=     5.2392   ZX=    14.2880
   XY=     5.0141   YY=   182.4826   ZY=    -3.6606
   XZ=    19.6147   YZ=    -9.7314   ZZ=   162.1924
   Eigenvalues:   146.4706   183.0551   184.4937
      6  C    Isotropic =   129.9967   Anisotropy =    50.2851
   XX=   148.4803   YX=   -19.3232   ZX=   -16.8164
   XY=     0.7130   YY=   122.9304   ZY=     8.1234
   XZ=   -29.6872   YZ=    -1.4971   ZZ=   118.5795
   Eigenvalues:   105.7311   120.7389   163.5202
      7  C    Isotropic =   111.5303   Anisotropy =    26.1912
   XX=   122.7899   YX=     1.6676   ZX=   -16.4858
   XY=    -0.3306   YY=   113.7609   ZY=    17.0597
   XZ=    -7.6141   YZ=     6.9144   ZZ=    98.0400
   Eigenvalues:    88.0504   117.5494   128.9911
      8  C    Isotropic =   112.6729   Anisotropy =    25.9736
   XX=   121.9281   YX=    10.2868   ZX=    -3.8315
   XY=     3.5322   YY=   123.6553   ZY=   -12.2638
   XZ=     2.2229   YZ=     5.7983   ZZ=    92.4353
   Eigenvalues:    92.1038   115.9263   129.9886
      9  H    Isotropic =    29.7779   Anisotropy =    11.7737
   XX=    35.0272   YX=    -0.5422   ZX=    -4.4441
   XY=    -1.7129   YY=    25.6626   ZY=    -0.7063
   XZ=    -5.1714   YZ=    -1.4048   ZZ=    28.6438
   Eigenvalues:    24.3762    27.3304    37.6270
     10  H    Isotropic =    29.7267   Anisotropy =     9.4336
   XX=    30.6152   YX=     2.9450   ZX=     3.4407
   XY=     3.5361   YY=    31.7366   ZY=     2.4546
   XZ=     2.7051   YZ=     2.1928   ZZ=    26.8284
   Eigenvalues:    25.0677    28.0967    36.0158
     11  H    Isotropic =    28.2915   Anisotropy =     6.9639
   XX=    27.3721   YX=     1.3143   ZX=    -1.9934
   XY=     1.0209   YY=    27.3099   ZY=    -3.1984
   XZ=    -1.4467   YZ=    -2.9746   ZZ=    30.1926
   Eigenvalues:    25.3421    26.5984    32.9341
     12  H    Isotropic =    28.9522   Anisotropy =    12.0070
   XX=    27.5334   YX=    -5.2675   ZX=    -1.1864
   XY=    -4.5912   YY=    31.5920   ZY=     4.7753
   XZ=    -0.1050   YZ=     4.6651   ZZ=    27.7313
   Eigenvalues:    22.9064    26.9934    36.9569
     13  H    Isotropic =    28.8220   Anisotropy =     8.4778
   XX=    28.6677   YX=     1.5152   ZX=     1.7094
   XY=     1.9185   YY=    33.5073   ZY=    -2.8536
   XZ=     0.2307   YZ=    -2.0090   ZZ=    24.2911
   Eigenvalues:    23.3325    28.6597    34.4739
     14  H    Isotropic =    30.0518   Anisotropy =    12.6414
   XX=    32.7057   YX=    -4.5335   ZX=     3.7081
   XY=    -4.9034   YY=    30.3762   ZY=    -3.2681
   XZ=     3.7848   YZ=    -2.9565   ZZ=    27.0735
   Eigenvalues:    24.9855    26.6905    38.4794
     15  H    Isotropic =    29.7896   Anisotropy =     8.7878
   XX=    27.4739   YX=     0.2542   ZX=    -1.3741
   XY=    -0.0795   YY=    26.4040   ZY=     0.2456
   XZ=    -0.8753   YZ=    -0.5278   ZZ=    35.4909
   Eigenvalues:    26.3966    27.3240    35.6482
     16  H    Isotropic =    28.8690   Anisotropy =     4.9744
   XX=    31.3282   YX=     0.3844   ZX=    -1.7245
   XY=    -0.6039   YY=    26.7263   ZY=    -0.6209
   XZ=    -1.7494   YZ=    -1.3906   ZZ=    28.5526
   Eigenvalues:    26.1331    28.2888    32.1853
     17  H    Isotropic =    27.6581   Anisotropy =     2.1516
   XX=    28.4022   YX=    -1.4755   ZX=    -0.9582
   XY=    -0.9904   YY=    26.0468   ZY=     0.6781
   XZ=     0.3520   YZ=    -0.5507   ZZ=    28.5253
   Eigenvalues:    25.5182    28.3635    29.0925
     18  H    Isotropic =    27.9124   Anisotropy =     3.6969
   XX=    25.8924   YX=    -0.5047   ZX=     0.5424
   XY=    -0.7768   YY=    30.2558   ZY=    -1.0005
   XZ=     0.2542   YZ=     0.5427   ZZ=    27.5890
   Eigenvalues:    25.7292    27.6309    30.3770
     19  O    Isotropic =   298.9667   Anisotropy =    41.3856
   XX=   273.0881   YX=   -27.6608   ZX=     8.3043
   XY=   -13.4157   YY=   317.4029   ZY=    -0.4636
   XZ=   -10.7141   YZ=   -10.5531   ZZ=   306.4092
   Eigenvalues:   264.7955   305.5475   326.5571
     20  H    Isotropic =    29.5125   Anisotropy =    18.9527
   XX=    25.9238   YX=    -3.8925   ZX=    -5.7950
   XY=    -5.2987   YY=    37.5282   ZY=     5.5384
   XZ=    -4.9688   YZ=     5.6510   ZZ=    25.0855
   Eigenvalues:    20.0303    26.3595    42.1476
     21  O    Isotropic =   299.0769   Anisotropy =    34.7462
   XX=   276.7882   YX=    -7.6771   ZX=     8.2534
   XY=   -23.1131   YY=   312.6450   ZY=    11.2788
   XZ=   -16.4619   YZ=     1.6459   ZZ=   307.7976
   Eigenvalues:   271.0130   303.9767   322.2410
     22  H    Isotropic =    29.1700   Anisotropy =    19.6919
   XX=    26.6917   YX=    -7.4994   ZX=    -2.0149
   XY=    -6.8241   YY=    38.7956   ZY=    -3.4159
   XZ=    -1.0961   YZ=    -2.1785   ZZ=    22.0227
   Eigenvalues:    19.9195    25.2926    42.2979
     23  C    Isotropic =   125.5641   Anisotropy =    58.7204
   XX=   155.1340   YX=    -1.5035   ZX=   -21.6484
   XY=     1.0553   YY=   102.1954   ZY=     7.9422
   XZ=   -19.5635   YZ=     7.0031   ZZ=   119.3630
   Eigenvalues:    98.2061   113.7753   164.7111
     24  H    Isotropic =    27.8379   Anisotropy =     4.1299
   XX=    28.7232   YX=     0.6059   ZX=    -1.0032
   XY=     0.2716   YY=    24.4884   ZY=     1.7311
   XZ=     1.0404   YZ=     0.8930   ZZ=    30.3021
   Eigenvalues:    24.1663    28.7562    30.5912
     25  H    Isotropic =    27.8212   Anisotropy =     4.4821
   XX=    29.4169   YX=    -0.5540   ZX=    -0.4272
   XY=     0.9698   YY=    30.4830   ZY=     1.2044
   XZ=    -1.3083   YZ=     1.8688   ZZ=    23.5638
   Eigenvalues:    23.1117    29.5426    30.8093
     26  O    Isotropic =   314.3326   Anisotropy =    40.3588
   XX=   307.5995   YX=    14.6565   ZX=     3.1653
   XY=     4.2974   YY=   334.9415   ZY=    14.9871
   XZ=     3.3985   YZ=     7.3922   ZZ=   300.4569
   Eigenvalues:   297.1183   304.6411   341.2384
     27  H    Isotropic =    28.3162   Anisotropy =    19.7344
   XX=    27.1996   YX=     1.4909   ZX=    -2.8136
   XY=     1.9572   YY=    40.1083   ZY=     5.2190
   XZ=    -3.0143   YZ=     5.8503   ZZ=    17.6407
   Eigenvalues:    15.4600    28.0161    41.4725
 End of Minotr Frequency-dependent properties file   721 does not exist.
 End of Minotr Frequency-dependent properties file   722 does not exist.

 **********************************************************************

            Population analysis using the SCF density.

 **********************************************************************

 Orbital symmetries:
       Occupied  (A) (A) (A) (A) (A) (A) (A) (A) (A) (A) (A) (A)
                 (A) (A) (A) (A) (A) (A) (A) (A) (A) (A) (A) (A)
                 (A) (A) (A) (A) (A) (A) (A) (A) (A) (A) (A) (A)
                 (A) (A) (A) (A) (A) (A) (A) (A) (A) (A) (A)
       Virtual   (A) (A) (A) (A) (A) (A) (A) (A) (A) (A) (A) (A)
                 (A) (A) (A) (A) (A) (A) (A) (A) (A) (A) (A) (A)
                 (A) (A) (A) (A) (A) (A) (A) (A) (A) (A) (A) (A)
                 (A) (A) (A) (A) (A) (A) (A) (A) (A) (A) (A) (A)
                 (A) (A) (A) (A) (A) (A) (A) (A) (A) (A) (A) (A)
                 (A) (A) (A) (A) (A) (A) (A) (A) (A) (A) (A) (A)
                 (A) (A) (A) (A) (A) (A) (A) (A) (A) (A) (A) (A)
                 (A) (A) (A) (A) (A) (A) (A) (A) (A) (A) (A) (A)
                 (A) (A) (A) (A) (A) (A) (A) (A) (A) (A) (A) (A)
                 (A) (A) (A) (A) (A) (A) (A) (A) (A) (A) (A) (A)
                 (A) (A) (A) (A) (A) (A) (A) (A) (A) (A) (A) (A)
                 (A) (A) (A) (A) (A) (A) (A) (A) (A) (A) (A) (A)
                 (A) (A) (A) (A) (A) (A) (A) (A) (A) (A) (A) (A)
                 (A) (A) (A) (A) (A) (A) (A) (A) (A) (A) (A) (A)
                 (A) (A) (A) (A) (A) (A) (A) (A) (A) (A) (A) (A)
                 (A) (A) (A) (A) (A) (A) (A) (A) (A) (A) (A) (A)
                 (A) (A) (A) (A) (A) (A) (A) (A) (A) (A) (A) (A)
                 (A) (A) (A) (A) (A) (A) (A) (A) (A) (A) (A) (A)
                 (A) (A) (A) (A) (A) (A) (A) (A) (A) (A) (A) (A)
                 (A) (A) (A) (A) (A) (A) (A) (A) (A) (A) (A) (A)
                 (A) (A) (A) (A) (A) (A) (A) (A) (A) (A) (A) (A)
                 (A) (A) (A) (A)
 The electronic state is 1-A.
 Alpha  occ. eigenvalues --  -19.27494 -19.26387 -19.24846 -14.41822 -10.30961
 Alpha  occ. eigenvalues --  -10.30578 -10.29385 -10.28443 -10.28092 -10.27028
 Alpha  occ. eigenvalues --  -10.24757 -10.24577  -1.08284  -1.06331  -1.04891
 Alpha  occ. eigenvalues --   -0.97044  -0.83078  -0.79828  -0.75286  -0.71621
 Alpha  occ. eigenvalues --   -0.66978  -0.62100  -0.60538  -0.58439  -0.56660
 Alpha  occ. eigenvalues --   -0.54119  -0.51897  -0.49847  -0.49704  -0.48105
 Alpha  occ. eigenvalues --   -0.45910  -0.44257  -0.43681  -0.41817  -0.40725
 Alpha  occ. eigenvalues --   -0.40323  -0.39559  -0.38818  -0.35889  -0.35682
 Alpha  occ. eigenvalues --   -0.34987  -0.34382  -0.34041  -0.32746  -0.29464
 Alpha  occ. eigenvalues --   -0.28499  -0.23831
 Alpha virt. eigenvalues --    0.00114   0.01476   0.01761   0.02343   0.03671
 Alpha virt. eigenvalues --    0.04050   0.04461   0.05051   0.05389   0.06806
 Alpha virt. eigenvalues --    0.07834   0.08224   0.08502   0.09214   0.09465
 Alpha virt. eigenvalues --    0.10077   0.11334   0.11630   0.12411   0.12632
 Alpha virt. eigenvalues --    0.13179   0.13448   0.14377   0.14722   0.15017
 Alpha virt. eigenvalues --    0.15788   0.16006   0.17000   0.17309   0.18549
 Alpha virt. eigenvalues --    0.18857   0.18910   0.19592   0.20117   0.20496
 Alpha virt. eigenvalues --    0.21521   0.21813   0.22440   0.22804   0.23193
 Alpha virt. eigenvalues --    0.23714   0.24525   0.24805   0.25290   0.25589
 Alpha virt. eigenvalues --    0.26348   0.26863   0.27500   0.28185   0.28633
 Alpha virt. eigenvalues --    0.29492   0.29548   0.30612   0.31111   0.31320
 Alpha virt. eigenvalues --    0.32263   0.32793   0.33330   0.33840   0.34487
 Alpha virt. eigenvalues --    0.35375   0.36225   0.36675   0.37347   0.37777
 Alpha virt. eigenvalues --    0.39160   0.40021   0.40429   0.41282   0.41433
 Alpha virt. eigenvalues --    0.41958   0.42100   0.43645   0.44662   0.45444
 Alpha virt. eigenvalues --    0.48464   0.63197   0.64231   0.66720   0.68630
 Alpha virt. eigenvalues --    0.69787   0.70134   0.71217   0.71764   0.76125
 Alpha virt. eigenvalues --    0.76498   0.77409   0.79357   0.79935   0.81600
 Alpha virt. eigenvalues --    0.82642   0.82878   0.85698   0.86643   0.87449
 Alpha virt. eigenvalues --    0.88291   0.89656   0.91653   0.94223   0.97046
 Alpha virt. eigenvalues --    0.99096   1.00734   1.02132   1.02884   1.04268
 Alpha virt. eigenvalues --    1.05162   1.06620   1.08718   1.09132   1.10468
 Alpha virt. eigenvalues --    1.12012   1.13031   1.13385   1.14219   1.15618
 Alpha virt. eigenvalues --    1.16402   1.18415   1.21066   1.24609   1.25057
 Alpha virt. eigenvalues --    1.25748   1.27572   1.28464   1.30765   1.31775
 Alpha virt. eigenvalues --    1.32474   1.33499   1.36528   1.39870   1.40966
 Alpha virt. eigenvalues --    1.43609   1.44850   1.48136   1.50331   1.51831
 Alpha virt. eigenvalues --    1.54692   1.55839   1.56719   1.59949   1.61118
 Alpha virt. eigenvalues --    1.62553   1.65807   1.68128   1.70343   1.70947
 Alpha virt. eigenvalues --    1.72494   1.75280   1.75955   1.77556   1.78491
 Alpha virt. eigenvalues --    1.81597   1.82684   1.83204   1.84131   1.87330
 Alpha virt. eigenvalues --    1.88433   1.89740   1.91815   1.92499   1.94503
 Alpha virt. eigenvalues --    1.95663   1.97642   2.00741   2.01928   2.03384
 Alpha virt. eigenvalues --    2.03906   2.04636   2.06681   2.07607   2.10686
 Alpha virt. eigenvalues --    2.12394   2.13029   2.16415   2.17697   2.19123
 Alpha virt. eigenvalues --    2.20645   2.21473   2.24480   2.28109   2.29868
 Alpha virt. eigenvalues --    2.31481   2.34229   2.35012   2.36193   2.39839
 Alpha virt. eigenvalues --    2.40327   2.41873   2.42616   2.44352   2.46677
 Alpha virt. eigenvalues --    2.47025   2.47949   2.51555   2.52688   2.55063
 Alpha virt. eigenvalues --    2.56652   2.57502   2.58770   2.61213   2.63089
 Alpha virt. eigenvalues --    2.64311   2.65767   2.67169   2.68096   2.69529
 Alpha virt. eigenvalues --    2.71372   2.72243   2.73329   2.77135   2.80092
 Alpha virt. eigenvalues --    2.80692   2.81545   2.82548   2.84711   2.85312
 Alpha virt. eigenvalues --    2.87150   2.87745   2.91993   2.94468   2.95128
 Alpha virt. eigenvalues --    2.95285   2.99175   3.00607   3.01895   3.03557
 Alpha virt. eigenvalues --    3.06456   3.07790   3.12003   3.17035   3.32160
 Alpha virt. eigenvalues --    3.33212   3.36489   3.38676   3.39574   3.42646
 Alpha virt. eigenvalues --    3.46386   3.49823   3.52805   3.54583   3.55159
 Alpha virt. eigenvalues --    3.55986   3.58109   3.59270   3.65287   4.30439
 Alpha virt. eigenvalues --    4.37985   4.39901   4.44679   4.49383   4.54074
 Alpha virt. eigenvalues --    4.58083   4.66562   4.76380   4.80867   4.85795
 Alpha virt. eigenvalues --    4.93303
          Condensed to atoms (all electrons):
              1          2          3          4          5          6
     1  C    5.877092  -0.744776   0.084920  -0.073254   0.254311  -0.026273
     2  C   -0.744776   8.268669  -0.415899  -0.269190   0.046820  -0.093507
     3  N    0.084920  -0.415899   7.396310   0.204386  -0.145750  -0.030290
     4  C   -0.073254  -0.269190   0.204386   5.711315   0.179160  -0.297508
     5  C    0.254311   0.046820  -0.145750   0.179160   5.348187   0.133294
     6  C   -0.026273  -0.093507  -0.030290  -0.297508   0.133294   9.468916
     7  C    0.001651   0.054182  -0.170885  -0.170457  -0.068053  -1.601935
     8  C    0.132057  -0.413390   0.023628   0.084232  -0.094310  -0.081037
     9  H    0.428414  -0.067376   0.009816   0.003771  -0.053417   0.010876
    10  H    0.426765  -0.148025   0.018929   0.025633  -0.025066   0.003085
    11  H    0.064198   0.151084   0.005856  -0.008238   0.009810   0.019413
    12  H    0.004857  -0.026011  -0.024888   0.385113  -0.044187   0.007197
    13  H    0.016265   0.028997  -0.064134   0.352975  -0.019946   0.044008
    14  H   -0.039703   0.026639   0.013108  -0.038183   0.369811  -0.000154
    15  H   -0.054624  -0.000470   0.011243  -0.064372   0.415756   0.018802
    16  H    0.004093   0.058505  -0.060352   0.065548  -0.020038   0.249657
    17  H    0.013812  -0.023422   0.042266   0.010990  -0.002005  -0.121851
    18  H    0.071330  -0.215245   0.047405   0.010579  -0.014265   0.024526
    19  O    0.016983  -0.185054   0.029700   0.007593  -0.003753   0.018277
    20  H   -0.011937   0.045698  -0.003379  -0.002093   0.002921   0.019324
    21  O   -0.008185   0.028297   0.013852  -0.002630   0.005560  -0.171257
    22  H   -0.000275   0.003466  -0.003261  -0.000017  -0.000087   0.063647
    23  C    0.105441  -0.265686   0.150599   0.084553  -0.040746  -1.126008
    24  H    0.000477  -0.000685   0.018699   0.016221  -0.001664  -0.083282
    25  H    0.002267   0.000502  -0.008792   0.000135  -0.001046  -0.056936
    26  O   -0.001630   0.008198  -0.003521   0.010530   0.000314  -0.005853
    27  H    0.000285   0.001349   0.001982   0.000213  -0.000038  -0.026667
              7          8          9         10         11         12
     1  C    0.001651   0.132057   0.428414   0.426765   0.064198   0.004857
     2  C    0.054182  -0.413390  -0.067376  -0.148025   0.151084  -0.026011
     3  N   -0.170885   0.023628   0.009816   0.018929   0.005856  -0.024888
     4  C   -0.170457   0.084232   0.003771   0.025633  -0.008238   0.385113
     5  C   -0.068053  -0.094310  -0.053417  -0.025066   0.009810  -0.044187
     6  C   -1.601935  -0.081037   0.010876   0.003085   0.019413   0.007197
     7  C    7.500964  -0.032707  -0.007209  -0.004400  -0.026502   0.001347
     8  C   -0.032707   5.880466   0.005380   0.030440   0.033157   0.005972
     9  H   -0.007209   0.005380   0.519978  -0.023655  -0.006561   0.001625
    10  H   -0.004400   0.030440  -0.023655   0.513547   0.003004  -0.000009
    11  H   -0.026502   0.033157  -0.006561   0.003004   0.554889   0.000880
    12  H    0.001347   0.005972   0.001625  -0.000009   0.000880   0.544113
    13  H    0.018076  -0.004169  -0.000109  -0.000141  -0.000163  -0.028259
    14  H    0.003725   0.006214  -0.004895   0.000613  -0.000050  -0.002550
    15  H   -0.006126   0.010113   0.004161  -0.005117  -0.000105   0.004061
    16  H   -0.040100  -0.054026  -0.000002  -0.000053  -0.000558  -0.000292
    17  H    0.403737  -0.068229   0.000007  -0.000006   0.000735   0.000011
    18  H   -0.106758   0.465967   0.000217   0.000621   0.004366   0.000016
    19  O   -0.128488   0.334155  -0.000358   0.003730   0.008540   0.000071
    20  H   -0.051287   0.008043   0.000006  -0.000093  -0.000011   0.000000
    21  O    0.305217  -0.132524   0.000026  -0.000058  -0.000430   0.000012
    22  H   -0.020525  -0.021712   0.000000   0.000000  -0.000001   0.000000
    23  C    0.258134  -0.061961  -0.000146   0.000557   0.015377   0.004066
    24  H   -0.062238   0.000835   0.000000   0.000000  -0.000032   0.000025
    25  H    0.002844  -0.000285   0.000000   0.000000   0.000008  -0.000170
    26  O   -0.065433  -0.007284  -0.000001  -0.000003  -0.000054  -0.000023
    27  H    0.005278   0.013551   0.000000   0.000000   0.000001   0.000000
             13         14         15         16         17         18
     1  C    0.016265  -0.039703  -0.054624   0.004093   0.013812   0.071330
     2  C    0.028997   0.026639  -0.000470   0.058505  -0.023422  -0.215245
     3  N   -0.064134   0.013108   0.011243  -0.060352   0.042266   0.047405
     4  C    0.352975  -0.038183  -0.064372   0.065548   0.010990   0.010579
     5  C   -0.019946   0.369811   0.415756  -0.020038  -0.002005  -0.014265
     6  C    0.044008  -0.000154   0.018802   0.249657  -0.121851   0.024526
     7  C    0.018076   0.003725  -0.006126  -0.040100   0.403737  -0.106758
     8  C   -0.004169   0.006214   0.010113  -0.054026  -0.068229   0.465967
     9  H   -0.000109  -0.004895   0.004161  -0.000002   0.000007   0.000217
    10  H   -0.000141   0.000613  -0.005117  -0.000053  -0.000006   0.000621
    11  H   -0.000163  -0.000050  -0.000105  -0.000558   0.000735   0.004366
    12  H   -0.028259  -0.002550   0.004061  -0.000292   0.000011   0.000016
    13  H    0.527975   0.000931  -0.005526   0.000696  -0.000016  -0.000019
    14  H    0.000931   0.514605  -0.022792  -0.000159   0.000000  -0.000047
    15  H   -0.005526  -0.022792   0.521429   0.000009   0.000002  -0.000070
    16  H    0.000696  -0.000159   0.000009   0.557828   0.004159  -0.000013
    17  H   -0.000016   0.000000   0.000002   0.004159   0.539294   0.004313
    18  H   -0.000019  -0.000047  -0.000070  -0.000013   0.004313   0.552503
    19  O   -0.000016  -0.000007  -0.000019  -0.000944  -0.001369  -0.039670
    20  H    0.000000   0.000000  -0.000001   0.000008  -0.000037  -0.006022
    21  O   -0.000104  -0.000012  -0.000013   0.006535  -0.046731  -0.001780
    22  H    0.000000   0.000000   0.000000   0.000063  -0.006205  -0.000076
    23  C   -0.035838  -0.001851  -0.001504   0.037253   0.056341   0.022894
    24  H   -0.000024   0.000000   0.000000   0.004727   0.003562  -0.000008
    25  H    0.001370   0.000001  -0.000007  -0.005698   0.000095   0.000007
    26  O   -0.000079  -0.000003  -0.000032   0.010619  -0.000439  -0.000215
    27  H   -0.000003   0.000000   0.000000  -0.002182   0.000055   0.000013
             19         20         21         22         23         24
     1  C    0.016983  -0.011937  -0.008185  -0.000275   0.105441   0.000477
     2  C   -0.185054   0.045698   0.028297   0.003466  -0.265686  -0.000685
     3  N    0.029700  -0.003379   0.013852  -0.003261   0.150599   0.018699
     4  C    0.007593  -0.002093  -0.002630  -0.000017   0.084553   0.016221
     5  C   -0.003753   0.002921   0.005560  -0.000087  -0.040746  -0.001664
     6  C    0.018277   0.019324  -0.171257   0.063647  -1.126008  -0.083282
     7  C   -0.128488  -0.051287   0.305217  -0.020525   0.258134  -0.062238
     8  C    0.334155   0.008043  -0.132524  -0.021712  -0.061961   0.000835
     9  H   -0.000358   0.000006   0.000026   0.000000  -0.000146   0.000000
    10  H    0.003730  -0.000093  -0.000058   0.000000   0.000557   0.000000
    11  H    0.008540  -0.000011  -0.000430  -0.000001   0.015377  -0.000032
    12  H    0.000071   0.000000   0.000012   0.000000   0.004066   0.000025
    13  H   -0.000016   0.000000  -0.000104   0.000000  -0.035838  -0.000024
    14  H   -0.000007   0.000000  -0.000012   0.000000  -0.001851   0.000000
    15  H   -0.000019  -0.000001  -0.000013   0.000000  -0.001504   0.000000
    16  H   -0.000944   0.000008   0.006535   0.000063   0.037253   0.004727
    17  H   -0.001369  -0.000037  -0.046731  -0.006205   0.056341   0.003562
    18  H   -0.039670  -0.006022  -0.001780  -0.000076   0.022894  -0.000008
    19  O    8.249199   0.236216   0.001093   0.000808   0.002466  -0.000120
    20  H    0.236216   0.377749   0.004141   0.000975  -0.002231   0.000001
    21  O    0.001093   0.004141   8.307081   0.243999   0.025978   0.002821
    22  H    0.000808   0.000975   0.243999   0.357719  -0.016005   0.000029
    23  C    0.002466  -0.002231   0.025978  -0.016005   5.847688   0.465377
    24  H   -0.000120   0.000001   0.002821   0.000029   0.465377   0.573563
    25  H    0.000043   0.000000  -0.001178   0.000008   0.449481  -0.041215
    26  O   -0.000234  -0.000001  -0.007994   0.000536   0.200359  -0.050835
    27  H    0.000113  -0.000003   0.010876  -0.000672  -0.011245  -0.003443
             25         26         27
     1  C    0.002267  -0.001630   0.000285
     2  C    0.000502   0.008198   0.001349
     3  N   -0.008792  -0.003521   0.001982
     4  C    0.000135   0.010530   0.000213
     5  C   -0.001046   0.000314  -0.000038
     6  C   -0.056936  -0.005853  -0.026667
     7  C    0.002844  -0.065433   0.005278
     8  C   -0.000285  -0.007284   0.013551
     9  H    0.000000  -0.000001   0.000000
    10  H    0.000000  -0.000003   0.000000
    11  H    0.000008  -0.000054   0.000001
    12  H   -0.000170  -0.000023   0.000000
    13  H    0.001370  -0.000079  -0.000003
    14  H    0.000001  -0.000003   0.000000
    15  H   -0.000007  -0.000032   0.000000
    16  H   -0.005698   0.010619  -0.002182
    17  H    0.000095  -0.000439   0.000055
    18  H    0.000007  -0.000215   0.000013
    19  O    0.000043  -0.000234   0.000113
    20  H    0.000000  -0.000001  -0.000003
    21  O   -0.001178  -0.007994   0.010876
    22  H    0.000008   0.000536  -0.000672
    23  C    0.449481   0.200359  -0.011245
    24  H   -0.041215  -0.050835  -0.003443
    25  H    0.550981  -0.059070   0.006001
    26  O   -0.059070   8.273894   0.252347
    27  H    0.006001   0.252347   0.359086
 Mulliken atomic charges:
              1
     1  C   -0.544560
     2  C    0.146330
     3  N   -0.141546
     4  C   -0.227003
     5  C   -0.231574
     6  C   -0.358465
     7  C    0.007946
     8  C   -0.062576
     9  H    0.179451
    10  H    0.179704
    11  H    0.171388
    12  H    0.167024
    13  H    0.167256
    14  H    0.174761
    15  H    0.175203
    16  H    0.184717
    17  H    0.190930
    18  H    0.179432
    19  O   -0.548954
    20  H    0.382012
    21  O   -0.582592
    22  H    0.397588
    23  C   -0.163343
    24  H    0.157207
    25  H    0.160653
    26  O   -0.554090
    27  H    0.393100
 Sum of Mulliken atomic charges =   0.00000
 Mulliken charges with hydrogens summed into heavy atoms:
              1
     1  C   -0.185405
     2  C    0.317719
     3  N   -0.141546
     4  C    0.107277
     5  C    0.118390
     6  C   -0.173748
     7  C    0.198876
     8  C    0.116856
    19  O   -0.166942
    21  O   -0.185004
    23  C    0.154517
    26  O   -0.160990
 Sum of Mulliken charges with hydrogens summed into heavy atoms =   0.00000
 Electronic spatial extent (au):  <R**2>=           2112.3812
 Charge=              0.0000 electrons
 Dipole moment (field-independent basis, Debye):
    X=              2.1304    Y=              2.6421    Z=              1.0143  Tot=              3.5423
 Quadrupole moment (field-independent basis, Debye-Ang):
   XX=            -81.7661   YY=            -65.9674   ZZ=            -76.9243
   XY=            -15.1915   XZ=              5.2834   YZ=              2.9773
 Traceless Quadrupole moment (field-independent basis, Debye-Ang):
   XX=             -6.8801   YY=              8.9185   ZZ=             -2.0384
   XY=            -15.1915   XZ=              5.2834   YZ=              2.9773
 Octapole moment (field-independent basis, Debye-Ang**2):
  XXX=             35.1106  YYY=             36.6638  ZZZ=              2.9488  XYY=            -20.5238
  XXY=             29.7237  XXZ=             -8.0912  XZZ=             -1.0592  YZZ=              3.8779
  YYZ=             15.1057  XYZ=              0.6258
 Hexadecapole moment (field-independent basis, Debye-Ang**3):
 XXXX=          -1629.2595 YYYY=           -833.3946 ZZZZ=           -249.3375 XXXY=           -138.0083
 XXXZ=              3.2775 YYYX=            -87.3041 YYYZ=             50.5201 ZZZX=             -0.0102
 ZZZY=             -3.0915 XXYY=           -420.3210 XXZZ=           -291.9448 YYZZ=           -215.3686
 XXYZ=             14.4702 YYXZ=             11.1465 ZZXY=              1.3390
 N-N= 8.012800633804D+02 E-N=-2.988108052248D+03  KE= 5.886731857447D+02
 1\1\GINC-COMPUTE-3-0\SP\RmPW1PW91\6-31+G(d,p)\C8H15N1O3\MAMICHETTI.IQU
 IR\17-May-2024\0\\# mpw1pw91/6-31+G** nmr scrf=(pcm,solvent=water)\\co
 mment\\0,1\C,0,2.649992,-0.017807,0.107219\C,0,1.340844,0.380577,-0.60
 5952\N,0,0.493499,-0.867336,-0.683057\C,0,1.279631,-1.959122,-0.062816
 \C,0,2.266801,-1.280028,0.893953\C,0,-0.777232,-0.589283,0.020065\C,0,
 -0.939554,0.922531,-0.129535\C,0,0.481651,1.425518,0.117444\H,0,3.4227
 53,-0.258903,-0.631989\H,0,3.032524,0.793295,0.735416\H,0,1.546747,0.7
 5906,-1.614375\H,0,1.828136,-2.50353,-0.842684\H,0,0.61179,-2.674597,0
 .425855\H,0,3.125825,-1.911383,1.143067\H,0,1.761839,-1.012193,1.83055
 1\H,0,-0.708991,-0.813541,1.098674\H,0,-1.232451,1.171081,-1.159356\H,
 0,0.670857,1.400127,1.200903\O,0,0.755951,2.728241,-0.395971\H,0,0.232
 977,3.357171,0.129591\O,0,-1.927881,1.408668,0.785804\H,0,-2.153596,2.
 314879,0.515346\C,0,-1.961838,-1.375084,-0.539782\H,0,-2.106903,-1.118
 871,-1.60058\H,0,-1.773688,-2.452707,-0.479436\O,0,-3.152235,-1.119876
 ,0.214904\H,0,-3.160766,-0.158614,0.388948\\Version=AM64L-G09RevC.01\S
 tate=1-A\HF=-594.199519\RMSD=6.036e-09\Dipole=0.8381648,1.0394702,0.39
 90575\Quadrupole=-5.1152288,6.6307223,-1.5154936,-11.2945052,3.9281055
 ,2.2135767\PG=C01 [X(C8H15N1O3)]\\@


 Time has a wonderful way of weeding out the trivial.
                                -- Richard Ben Sapir
 Job cpu time:  0 days  0 hours  8 minutes 48.9 seconds.
 File lengths (MBytes):  RWF=    113 Int=      0 D2E=      0 Chk=      7 Scr=      1
 Normal termination of Gaussian 09 at Fri May 17 12:18:13 2024.
