 Entering Gaussian System, Link 0=g09
 Input=/home/mamichetti.iquir/Linux/02_Cardona_A1A3_R__R_R_R_018_OptB.gjc
 Output=/home/mamichetti.iquir/Linux/02_Cardona_A1A3_R__R_R_R_018_OptB.log
 Initial command:
 /opt/ohpc/pub/apps/software/Gaussian/09/AMD64.SSE4a-enabled/g09/l1.exe /local/mamichetti.iquir/Gau-711118.inp -scrdir=/local/mamichetti.iquir/
 Entering Link 1 = /opt/ohpc/pub/apps/software/Gaussian/09/AMD64.SSE4a-enabled/g09/l1.exe PID=    711119.
  
 Copyright (c) 1988,1990,1992,1993,1995,1998,2003,2009,2011,
            Gaussian, Inc.  All Rights Reserved.
  
 This is part of the Gaussian(R) 09 program.  It is based on
 the Gaussian(R) 03 system (copyright 2003, Gaussian, Inc.),
 the Gaussian(R) 98 system (copyright 1998, Gaussian, Inc.),
 the Gaussian(R) 94 system (copyright 1995, Gaussian, Inc.),
 the Gaussian 92(TM) system (copyright 1992, Gaussian, Inc.),
 the Gaussian 90(TM) system (copyright 1990, Gaussian, Inc.),
 the Gaussian 88(TM) system (copyright 1988, Gaussian, Inc.),
 the Gaussian 86(TM) system (copyright 1986, Carnegie Mellon
 University), and the Gaussian 82(TM) system (copyright 1983,
 Carnegie Mellon University). Gaussian is a federally registered
 trademark of Gaussian, Inc.
  
 This software contains proprietary and confidential information,
 including trade secrets, belonging to Gaussian, Inc.
  
 This software is provided under written license and may be
 used, copied, transmitted, or stored only in accord with that
 written license.
  
 The following legend is applicable only to US Government
 contracts under FAR:
  
                    RESTRICTED RIGHTS LEGEND
  
 Use, reproduction and disclosure by the US Government is
 subject to restrictions as set forth in subparagraphs (a)
 and (c) of the Commercial Computer Software - Restricted
 Rights clause in FAR 52.227-19.
  
 Gaussian, Inc.
 340 Quinnipiac St., Bldg. 40, Wallingford CT 06492
  
  
 ---------------------------------------------------------------
 Warning -- This program may not be used in any manner that
 competes with the business of Gaussian, Inc. or will provide
 assistance to any competitor of Gaussian, Inc.  The licensee
 of this program is prohibited from giving any competitor of
 Gaussian, Inc. access to this program.  By using this program,
 the user acknowledges that Gaussian, Inc. is engaged in the
 business of creating and licensing software in the field of
 computational chemistry and represents and warrants to the
 licensee that it is not a competitor of Gaussian, Inc. and that
 it will not use this program in any manner prohibited above.
 ---------------------------------------------------------------
  

 Cite this work as:
 Gaussian 09, Revision C.01,
 M. J. Frisch, G. W. Trucks, H. B. Schlegel, G. E. Scuseria, 
 M. A. Robb, J. R. Cheeseman, G. Scalmani, V. Barone, B. Mennucci, 
 G. A. Petersson, H. Nakatsuji, M. Caricato, X. Li, H. P. Hratchian, 
 A. F. Izmaylov, J. Bloino, G. Zheng, J. L. Sonnenberg, M. Hada, 
 M. Ehara, K. Toyota, R. Fukuda, J. Hasegawa, M. Ishida, T. Nakajima, 
 Y. Honda, O. Kitao, H. Nakai, T. Vreven, J. A. Montgomery, Jr., 
 J. E. Peralta, F. Ogliaro, M. Bearpark, J. J. Heyd, E. Brothers, 
 K. N. Kudin, V. N. Staroverov, T. Keith, R. Kobayashi, J. Normand, 
 K. Raghavachari, A. Rendell, J. C. Burant, S. S. Iyengar, J. Tomasi, 
 M. Cossi, N. Rega, J. M. Millam, M. Klene, J. E. Knox, J. B. Cross, 
 V. Bakken, C. Adamo, J. Jaramillo, R. Gomperts, R. E. Stratmann, 
 O. Yazyev, A. J. Austin, R. Cammi, C. Pomelli, J. W. Ochterski, 
 R. L. Martin, K. Morokuma, V. G. Zakrzewski, G. A. Voth, 
 P. Salvador, J. J. Dannenberg, S. Dapprich, A. D. Daniels, 
 O. Farkas, J. B. Foresman, J. V. Ortiz, J. Cioslowski, 
 and D. J. Fox, Gaussian, Inc., Wallingford CT, 2010.
 
 ******************************************
 Gaussian 09:  AM64L-G09RevC.01 23-Sep-2011
                17-May-2024 
 ******************************************
 %nprocshared=4
 Will use up to    4 processors via shared memory.
 ------------------------------------------------
 # mpw1pw91/6-31+G** nmr scrf=(pcm,solvent=water)
 ------------------------------------------------
 1/38=1/1;
 2/12=2,17=6,18=5,40=1/2;
 3/5=1,6=6,7=111,11=2,16=1,25=1,30=1,70=2201,72=1,74=-7/1,2,8,3;
 4//1;
 5/5=2,38=5,53=1/2;
 8/6=1,10=90,11=11/1;
 10/13=100,45=16/2;
 6/7=2,8=2,9=2,10=2,28=1/1;
 99/9=1/99;
 -------
 comment
 -------
 Charge =  0 Multiplicity = 1
 Symbolic Z-Matrix:
 6                     2.57965   0.2303    0.39634 
 6                     1.30341   0.50541  -0.41242 
 7                     0.57093  -0.80886  -0.48953 
 6                     1.40075  -1.84072   0.16763 
 6                     2.82193  -1.26722   0.15056 
 6                    -0.76465  -0.61401   0.0956 
 6                    -1.05155   0.86956  -0.16161 
 6                     0.29614   1.51597   0.15407 
 1                     3.41752   0.86295   0.08744 
 1                     2.39634   0.40894   1.46331 
 1                     1.57002   0.83435  -1.42606 
 1                     1.32968  -2.80105  -0.35564 
 1                     1.07224  -2.00743   1.20684 
 1                     3.28434  -1.42259  -0.83195 
 1                     3.46606  -1.73249   0.9031 
 1                    -0.75031  -0.76571   1.19183 
 1                    -1.27341   1.02116  -1.23021 
 1                     0.39296   1.58516   1.24735 
 8                     0.50047   2.79979  -0.43557 
 1                    -0.13198   3.40695  -0.01616 
 8                    -2.09948   1.40373   0.64256 
 1                    -2.84476   0.78277   0.52364 
 6                    -1.83178  -1.53972  -0.48456 
 1                    -1.91399  -1.39337  -1.56582 
 1                    -1.58386  -2.59309  -0.2984 
 8                    -3.13059  -1.22969   0.05514 
 1                    -3.11384  -1.47265   0.9968 
 
                          Input orientation:                          
 ---------------------------------------------------------------------
 Center     Atomic      Atomic             Coordinates (Angstroms)
 Number     Number       Type             X           Y           Z
 ---------------------------------------------------------------------
      1          6           0        2.579647    0.230304    0.396341
      2          6           0        1.303406    0.505405   -0.412419
      3          7           0        0.570934   -0.808859   -0.489527
      4          6           0        1.400750   -1.840722    0.167626
      5          6           0        2.821933   -1.267221    0.150556
      6          6           0       -0.764652   -0.614009    0.095597
      7          6           0       -1.051552    0.869559   -0.161614
      8          6           0        0.296135    1.515974    0.154069
      9          1           0        3.417516    0.862950    0.087435
     10          1           0        2.396342    0.408942    1.463308
     11          1           0        1.570020    0.834352   -1.426061
     12          1           0        1.329681   -2.801053   -0.355644
     13          1           0        1.072238   -2.007430    1.206836
     14          1           0        3.284341   -1.422592   -0.831951
     15          1           0        3.466063   -1.732492    0.903099
     16          1           0       -0.750313   -0.765712    1.191834
     17          1           0       -1.273411    1.021161   -1.230213
     18          1           0        0.392956    1.585161    1.247354
     19          8           0        0.500467    2.799793   -0.435571
     20          1           0       -0.131984    3.406947   -0.016159
     21          8           0       -2.099482    1.403734    0.642564
     22          1           0       -2.844762    0.782768    0.523639
     23          6           0       -1.831783   -1.539723   -0.484564
     24          1           0       -1.913988   -1.393374   -1.565821
     25          1           0       -1.583855   -2.593085   -0.298403
     26          8           0       -3.130592   -1.229688    0.055143
     27          1           0       -3.113845   -1.472646    0.996801
 ---------------------------------------------------------------------
                    Distance matrix (angstroms):
                    1          2          3          4          5
     1  C    0.000000
     2  C    1.535762   0.000000
     3  N    2.428899   1.506569   0.000000
     4  C    2.394004   2.418727   1.478237   0.000000
     5  C    1.536780   2.401056   2.384701   1.532630   0.000000
     6  C    3.462318   2.405833   1.471097   2.489775   3.645998
     7  C    3.729017   2.396109   2.357345   3.669851   4.434768
     8  C    2.631743   1.535172   2.427875   3.533803   3.758436
     9  H    1.094389   2.201625   3.351247   3.373962   2.212766
    10  H    1.097238   2.173055   2.937468   2.780465   2.171167
    11  H    2.169186   1.098526   2.139021   3.118415   2.910261
    12  H    3.364078   3.307050   2.135991   1.095946   2.199021
    13  H    2.817204   2.998294   2.136709   1.102574   2.173722
    14  H    2.176548   2.795940   2.802945   2.172994   1.096942
    15  H    2.212488   3.378736   3.342795   2.195029   1.094396
    16  H    3.565598   2.899505   2.138815   2.613756   3.754559
    17  H    4.256429   2.752231   2.701703   4.158782   4.890302
    18  H    2.709516   2.179367   2.963067   3.730702   3.903713
    19  O    3.408422   2.430939   3.609743   4.765368   4.719465
    20  H    4.196923   3.261336   4.300139   5.470016   5.531841
    21  O    4.830301   3.674184   3.648057   4.796216   5.621067
    22  H    5.453956   4.261506   3.902148   5.003381   6.037638
    23  C    4.834222   3.743950   2.511421   3.311378   4.704754
    24  H    5.165188   3.909901   2.770362   3.767286   5.038930
    25  H    5.078282   4.236734   2.804123   3.113053   4.622818
    26  O    5.903797   4.784297   3.764978   4.573738   5.953408
    27  H    5.972976   5.040902   4.028322   4.604843   5.999316
                    6          7          8          9         10
     6  C    0.000000
     7  C    1.532789   0.000000
     8  C    2.380234   1.527668   0.000000
     9  H    4.435313   4.476007   3.189655   0.000000
    10  H    3.592902   3.839338   2.711180   1.772554   0.000000
    11  H    3.140682   2.910791   2.141075   2.388458   3.035166
    12  H    3.061537   4.379647   4.468193   4.240317   3.840628
    13  H    2.559422   3.828865   3.758328   3.872011   2.767288
    14  H    4.231843   4.950078   4.305436   2.467126   3.067780
    15  H    4.449945   5.321008   4.600220   2.721026   2.458430
    16  H    1.106777   2.143986   2.716266   4.609017   3.369710
    17  H    2.165731   1.101866   2.150477   4.875041   4.593142
    18  H    2.739151   2.141000   1.099742   3.318880   2.333170
    19  O    3.679227   2.491911   1.427452   3.540349   3.593919
    20  H    4.071958   2.702795   1.946289   4.368249   4.191574
    21  O    2.480369   1.424852   2.447490   5.571165   4.677143
    22  H    2.541862   1.921642   3.246445   6.277964   5.337780
    23  C    1.527188   2.552978   3.777985   5.801307   5.046637
    24  H    2.165339   2.799368   4.038189   6.020730   5.568026
    25  H    2.177859   3.505989   4.541306   6.091532   5.287510
    26  O    2.445070   2.962470   4.392141   6.874438   5.934226
    27  H    2.658596   3.328799   4.611942   6.995758   5.841247
                   11         12         13         14         15
    11  H    0.000000
    12  H    3.797331   0.000000
    13  H    3.905849   1.771287   0.000000
    14  H    2.895800   2.438795   3.064651   0.000000
    15  H    3.950779   2.700071   2.428630   1.771852   0.000000
    16  H    3.846755   3.296009   2.205398   4.561319   4.335419
    17  H    2.856283   4.706408   4.540225   5.186872   5.881857
    18  H    3.016014   4.762975   3.656470   4.661566   4.535341
    19  O    2.447033   5.662461   5.112124   5.073027   5.579283
    20  H    3.391591   6.386782   5.679907   5.971703   6.340726
    21  O    4.250723   5.516866   4.691935   6.256825   6.393675
    22  H    4.826416   5.571614   4.857453   6.653356   6.804192
    23  C    4.253812   3.406234   3.393070   5.129242   5.479958
    24  H    4.137706   3.737309   4.120951   5.249957   5.929209
    25  H    4.792271   2.921510   3.108628   5.035281   5.261739
    26  O    5.343218   4.746785   4.426631   6.478851   6.669910
    27  H    5.755961   4.831014   4.225328   6.654594   6.585703
                   16         17         18         19         20
    16  H    0.000000
    17  H    3.054973   0.000000
    18  H    2.614718   3.038620   0.000000
    19  O    4.114088   2.634697   2.078251   0.000000
    20  H    4.387785   2.910113   2.278362   0.971873   0.000000
    21  O    2.613130   2.082318   2.571174   3.141829   2.884064
    22  H    2.689050   2.366849   3.413271   4.022317   3.812724
    23  C    2.139855   2.725050   4.208789   4.926783   5.251501
    24  H    3.058228   2.520506   4.701874   4.968874   5.349773
    25  H    2.500978   3.745320   4.873898   5.783282   6.179642
    26  O    2.678258   3.188665   4.664776   5.446293   5.522238
    27  H    2.474687   3.816525   4.659465   5.776563   5.807582
                   21         22         23         24         25
    21  O    0.000000
    22  H    0.977335   0.000000
    23  C    3.163229   2.727006   0.000000
    24  H    3.568639   3.157179   1.094209   0.000000
    25  H    4.138339   3.696217   1.098042   1.776131   0.000000
    26  O    2.888453   2.085945   1.440247   2.033333   2.091947
    27  H    3.070501   2.320168   1.960261   2.830719   2.296477
                   26         27
    26  O    0.000000
    27  H    0.972640   0.000000
 Stoichiometry    C8H15NO3
 Framework group  C1[X(C8H15NO3)]
 Deg. of freedom    75
 Full point group                 C1      NOp   1
 Largest Abelian subgroup         C1      NOp   1
 Largest concise Abelian subgroup C1      NOp   1
                         Standard orientation:                         
 ---------------------------------------------------------------------
 Center     Atomic      Atomic             Coordinates (Angstroms)
 Number     Number       Type             X           Y           Z
 ---------------------------------------------------------------------
      1          6           0        2.579647    0.230304    0.396341
      2          6           0        1.303406    0.505405   -0.412419
      3          7           0        0.570934   -0.808859   -0.489527
      4          6           0        1.400750   -1.840722    0.167626
      5          6           0        2.821933   -1.267221    0.150556
      6          6           0       -0.764652   -0.614009    0.095597
      7          6           0       -1.051552    0.869559   -0.161614
      8          6           0        0.296135    1.515974    0.154069
      9          1           0        3.417516    0.862950    0.087435
     10          1           0        2.396342    0.408942    1.463308
     11          1           0        1.570020    0.834352   -1.426061
     12          1           0        1.329681   -2.801053   -0.355644
     13          1           0        1.072238   -2.007430    1.206836
     14          1           0        3.284341   -1.422592   -0.831951
     15          1           0        3.466063   -1.732492    0.903099
     16          1           0       -0.750313   -0.765712    1.191834
     17          1           0       -1.273411    1.021161   -1.230213
     18          1           0        0.392956    1.585161    1.247354
     19          8           0        0.500467    2.799793   -0.435571
     20          1           0       -0.131984    3.406947   -0.016159
     21          8           0       -2.099482    1.403734    0.642564
     22          1           0       -2.844762    0.782768    0.523639
     23          6           0       -1.831783   -1.539723   -0.484564
     24          1           0       -1.913988   -1.393374   -1.565821
     25          1           0       -1.583855   -2.593085   -0.298403
     26          8           0       -3.130592   -1.229688    0.055143
     27          1           0       -3.113845   -1.472646    0.996801
 ---------------------------------------------------------------------
 Rotational constants (GHZ):      1.2443682      0.8074169      0.5272425
 Standard basis: 6-31+G(d,p) (6D, 7F)
 There are   303 symmetry adapted basis functions of A   symmetry.
 Integral buffers will be    131072 words long.
 Raffenetti 2 integral format.
 Two-electron integral symmetry is turned on.
   303 basis functions,   489 primitive gaussians,   303 cartesian basis functions
    47 alpha electrons       47 beta electrons
       nuclear repulsion energy       796.4205790920 Hartrees.
 NAtoms=   27 NActive=   27 NUniq=   27 SFac= 1.00D+00 NAtFMM=   60 NAOKFM=F Big=F
 ------------------------------------------------------------------------------
 Polarizable Continuum Model (PCM)
 =================================
 Model                : PCM.
 Atomic radii         : UFF (Universal Force Field).
 Polarization charges : Total charges.
 Charge compensation  : None.
 Solution method      : Matrix inversion.
 Cavity type          : Scaled VdW (van der Waals Surface) (Alpha=1.100).
 Cavity algorithm     : GePol (No added spheres)
                        Default sphere list used, NSphG=   27.
                        Lebedev-Laikov grids with approx.  5.0 points / Ang**2.
                        Smoothing algorithm: Karplus/York (Gamma=1.0000).
                        Polarization charges: spherical gaussians, with
                                              point-specific exponents (IZeta= 3).
                        Self-potential: point-specific (ISelfS= 7).
                        Self-field    : sphere-specific E.n sum rule (ISelfD= 2).
 Solvent              : Water, Eps=  78.355300 Eps(inf)=   1.777849
 ------------------------------------------------------------------------------
 One-electron integrals computed using PRISM.
 NBasis=   303 RedAO= T  NBF=   303
 NBsUse=   303 1.00D-06 NBFU=   303
 Harris functional with IExCor=  908 diagonalized for initial guess.
 ExpMin= 4.38D-02 ExpMax= 5.48D+03 ExpMxC= 8.25D+02 IAcc=2 IRadAn=         4 AccDes= 0.00D+00
 HarFok:  IExCor=  908 AccDes= 0.00D+00 IRadAn=         4 IDoV= 1
 ScaDFX=  1.000000  1.000000  1.000000  1.000000
 FoFCou: FMM=F IPFlag=           0 FMFlag=      100000 FMFlg1=           0
         NFxFlg=           0 DoJE=T BraDBF=F KetDBF=T FulRan=T
         Omega=  0.000000  0.000000  1.000000  0.000000  0.000000 ICntrl=     500 IOpCl=  0
         NMat0=    1 NMatS0=    1 NMatT0=    0 NMatD0=    1 NMtDS0=    0 NMtDT0=    0
         I1Cent=           4 NGrid=           0.
 Petite list used in FoFCou.
 Initial guess orbital symmetries:
       Occupied  (A) (A) (A) (A) (A) (A) (A) (A) (A) (A) (A) (A)
                 (A) (A) (A) (A) (A) (A) (A) (A) (A) (A) (A) (A)
                 (A) (A) (A) (A) (A) (A) (A) (A) (A) (A) (A) (A)
                 (A) (A) (A) (A) (A) (A) (A) (A) (A) (A) (A)
       Virtual   (A) (A) (A) (A) (A) (A) (A) (A) (A) (A) (A) (A)
                 (A) (A) (A) (A) (A) (A) (A) (A) (A) (A) (A) (A)
                 (A) (A) (A) (A) (A) (A) (A) (A) (A) (A) (A) (A)
                 (A) (A) (A) (A) (A) (A) (A) (A) (A) (A) (A) (A)
                 (A) (A) (A) (A) (A) (A) (A) (A) (A) (A) (A) (A)
                 (A) (A) (A) (A) (A) (A) (A) (A) (A) (A) (A) (A)
                 (A) (A) (A) (A) (A) (A) (A) (A) (A) (A) (A) (A)
                 (A) (A) (A) (A) (A) (A) (A) (A) (A) (A) (A) (A)
                 (A) (A) (A) (A) (A) (A) (A) (A) (A) (A) (A) (A)
                 (A) (A) (A) (A) (A) (A) (A) (A) (A) (A) (A) (A)
                 (A) (A) (A) (A) (A) (A) (A) (A) (A) (A) (A) (A)
                 (A) (A) (A) (A) (A) (A) (A) (A) (A) (A) (A) (A)
                 (A) (A) (A) (A) (A) (A) (A) (A) (A) (A) (A) (A)
                 (A) (A) (A) (A) (A) (A) (A) (A) (A) (A) (A) (A)
                 (A) (A) (A) (A) (A) (A) (A) (A) (A) (A) (A) (A)
                 (A) (A) (A) (A) (A) (A) (A) (A) (A) (A) (A) (A)
                 (A) (A) (A) (A) (A) (A) (A) (A) (A) (A) (A) (A)
                 (A) (A) (A) (A) (A) (A) (A) (A) (A) (A) (A) (A)
                 (A) (A) (A) (A) (A) (A) (A) (A) (A) (A) (A) (A)
                 (A) (A) (A) (A) (A) (A) (A) (A) (A) (A) (A) (A)
                 (A) (A) (A) (A) (A) (A) (A) (A) (A) (A) (A) (A)
                 (A) (A) (A) (A)
 The electronic state of the initial guess is 1-A.
 Requested convergence on RMS density matrix=1.00D-08 within 128 cycles.
 Requested convergence on MAX density matrix=1.00D-06.
 Requested convergence on             energy=1.00D-06.
 No special actions if energy rises.
 Error on total polarization charges =  0.01471
 SCF Done:  E(RmPW1PW91) =  -594.200157157     A.U. after   13 cycles
             Convg  =    0.7212D-08             -V/T =  2.0094
 Range of M.O.s used for correlation:     1   303
 NBasis=   303 NAE=    47 NBE=    47 NFC=     0 NFV=     0
 NROrb=    303 NOA=    47 NOB=    47 NVA=   256 NVB=   256

 **** Warning!!: The largest alpha MO coefficient is  0.64584772D+02

 NEqPCM:  Using equilibrium solvation (IEInf=0, Eps=  78.3553, EpsInf=   1.7778)
          Differentiating once with respect to magnetic field using GIAOs.
          Electric field/nuclear overlap derivatives assumed to be zero.
 FoFCou: FMM=F IPFlag=           0 FMFlag=    10101102 FMFlg1=           0
         NFxFlg=    40000000 DoJE=F BraDBF=F KetDBF=T FulRan=T
         Omega=  0.000000  0.000000  1.000000  0.000000  0.000000 ICntrl=    6100 IOpCl=  0
         NMat0=    1 NMatS0=    1 NMatT0=    0 NMatD0=    1 NMtDS0=    0 NMtDT0=    0
         I1Cent=           7 NGrid=        1852.
 Symmetry not used in FoFCou.
          There are     3 degrees of freedom in the 1st order CPHF.  IDoFFX=0.
      3 vectors produced by pass  0 Test12= 4.01D-13 3.33D-08 XBig12= 4.25D+01 1.28D+00.
 AX will form     3 AO Fock derivatives at one time.
      3 vectors produced by pass  1 Test12= 4.01D-13 3.33D-08 XBig12= 1.14D-01 5.27D-02.
      3 vectors produced by pass  2 Test12= 4.01D-13 3.33D-08 XBig12= 2.54D-04 2.66D-03.
      3 vectors produced by pass  3 Test12= 4.01D-13 3.33D-08 XBig12= 1.24D-06 2.89D-04.
      3 vectors produced by pass  4 Test12= 4.01D-13 3.33D-08 XBig12= 3.57D-09 1.10D-05.
      3 vectors produced by pass  5 Test12= 4.01D-13 3.33D-08 XBig12= 1.09D-11 5.16D-07.
 Inverted reduced A of dimension    18 with in-core refinement.
 Calculating GIAO nuclear magnetic shielding tensors.
 SCF GIAO Magnetic shielding tensor (ppm):
      1  C    Isotropic =   162.3285   Anisotropy =    25.5037
   XX=   166.6727   YX=   -15.5376   ZX=    10.3758
   XY=    -5.2151   YY=   165.9127   ZY=     0.6609
   XZ=    15.6958   YZ=     5.6741   ZZ=   154.4002
   Eigenvalues:   142.9595   164.6951   179.3310
      2  C    Isotropic =   126.8134   Anisotropy =    54.3764
   XX=   126.3077   YX=     5.2384   ZX=     5.0437
   XY=    11.5205   YY=   160.9902   ZY=     3.5514
   XZ=     3.0483   YZ=     1.3520   ZZ=    93.1422
   Eigenvalues:    92.6247   124.7510   163.0643
      3  N    Isotropic =   201.1654   Anisotropy =    79.8415
   XX=   253.2946   YX=     7.6882   ZX=     5.7591
   XY=     2.8314   YY=   225.8556   ZY=    -8.7635
   XZ=     4.7627   YZ=    -4.1323   ZZ=   124.3459
   Eigenvalues:   123.6971   225.4061   254.3930
      4  C    Isotropic =   139.0055   Anisotropy =    58.2634
   XX=   149.4484   YX=   -17.3249   ZX=    15.1854
   XY=   -25.8644   YY=   140.7102   ZY=   -18.8333
   XZ=    10.1487   YZ=   -23.1993   ZZ=   126.8578
   Eigenvalues:   111.4180   127.7507   177.8478
      5  C    Isotropic =   164.1722   Anisotropy =    23.2909
   XX=   178.3956   YX=    -0.3784   ZX=    11.2849
   XY=    -0.2192   YY=   179.5474   ZY=    -3.0311
   XZ=     0.3590   YZ=     3.1703   ZZ=   134.5737
   Eigenvalues:   133.8131   179.0041   179.6995
      6  C    Isotropic =   124.2559   Anisotropy =    52.8017
   XX=   143.4492   YX=   -22.2616   ZX=   -14.8824
   XY=   -10.1721   YY=   109.3276   ZY=     3.3440
   XZ=   -26.3920   YZ=    -3.5198   ZZ=   119.9910
   Eigenvalues:    98.6390   114.6716   159.4570
      7  C    Isotropic =   109.0289   Anisotropy =    27.2093
   XX=   123.3581   YX=    -2.8177   ZX=   -15.7475
   XY=    -4.6554   YY=   116.1730   ZY=    10.3456
   XZ=    -1.3962   YZ=    -2.7420   ZZ=    87.5555
   Eigenvalues:    85.3356   114.5826   127.1684
      8  C    Isotropic =   112.7313   Anisotropy =    22.1598
   XX=   117.0148   YX=     4.8486   ZX=    -0.8936
   XY=     1.8823   YY=   123.6577   ZY=   -13.5528
   XZ=     0.7830   YZ=    -4.6287   ZZ=    97.5214
   Eigenvalues:    94.6291   116.0603   127.5045
      9  H    Isotropic =    29.4910   Anisotropy =     9.6579
   XX=    33.2706   YX=     3.5558   ZX=    -0.4643
   XY=     4.1238   YY=    30.1710   ZY=    -0.7341
   XZ=    -0.6355   YZ=    -0.7143   ZZ=    25.0315
   Eigenvalues:    24.9313    27.6121    35.9296
     10  H    Isotropic =    29.9948   Anisotropy =     8.0022
   XX=    28.1959   YX=    -0.7658   ZX=     2.2178
   XY=    -1.3638   YY=    28.0244   ZY=     2.8659
   XZ=     1.8579   YZ=     3.0443   ZZ=    33.7640
   Eigenvalues:    25.5006    29.1542    35.3296
     11  H    Isotropic =    28.1743   Anisotropy =     6.8571
   XX=    27.1896   YX=     2.0381   ZX=    -1.8464
   XY=     1.2940   YY=    28.2437   ZY=    -3.3670
   XZ=    -0.9817   YZ=    -3.0494   ZZ=    29.0896
   Eigenvalues:    25.3404    26.4368    32.7457
     12  H    Isotropic =    28.4752   Anisotropy =     9.4085
   XX=    27.0590   YX=    -1.5369   ZX=     0.8030
   XY=    -0.8709   YY=    34.1208   ZY=     2.3899
   XZ=     1.0234   YZ=     2.1647   ZZ=    24.2460
   Eigenvalues:    23.3782    27.2999    34.7476
     13  H    Isotropic =    29.1567   Anisotropy =     8.0004
   XX=    28.4141   YX=    -0.1642   ZX=     1.0426
   XY=    -0.2003   YY=    28.8977   ZY=    -5.2337
   XZ=    -1.0878   YZ=    -4.6070   ZZ=    30.1582
   Eigenvalues:    24.5614    28.4184    34.4903
     14  H    Isotropic =    29.5853   Anisotropy =    10.7449
   XX=    31.2463   YX=    -1.8685   ZX=    -4.7756
   XY=    -1.9241   YY=    27.9393   ZY=     2.7646
   XZ=    -5.2032   YZ=     3.1008   ZZ=    29.5704
   Eigenvalues:    24.8455    27.1619    36.7485
     15  H    Isotropic =    29.4862   Anisotropy =    11.5367
   XX=    32.0228   YX=    -3.6323   ZX=     4.4686
   XY=    -4.0950   YY=    29.0540   ZY=    -2.9218
   XZ=     3.9497   YZ=    -2.2988   ZZ=    27.3819
   Eigenvalues:    24.8551    26.4262    37.1774
     16  H    Isotropic =    29.1012   Anisotropy =     4.2435
   XX=    30.7700   YX=     1.6553   ZX=    -1.4901
   XY=     0.6479   YY=    27.5897   ZY=    -0.4615
   XZ=    -1.2139   YZ=    -1.1025   ZZ=    28.9440
   Eigenvalues:    27.1297    28.2437    31.9302
     17  H    Isotropic =    27.3781   Anisotropy =     2.0331
   XX=    28.1107   YX=    -1.0736   ZX=    -1.1288
   XY=    -1.1164   YY=    25.9980   ZY=     0.5137
   XZ=     0.3275   YZ=    -0.7151   ZZ=    28.0255
   Eigenvalues:    25.5078    27.8929    28.7335
     18  H    Isotropic =    27.6647   Anisotropy =     2.5871
   XX=    25.8253   YX=    -0.0328   ZX=     0.4291
   XY=    -0.5503   YY=    29.2683   ZY=    -0.9820
   XZ=     0.5689   YZ=     0.3207   ZZ=    27.9004
   Eigenvalues:    25.6989    27.9057    29.3894
     19  O    Isotropic =   296.5871   Anisotropy =    40.0242
   XX=   276.7020   YX=   -29.4351   ZX=     6.0479
   XY=   -17.6778   YY=   310.3781   ZY=    -2.7176
   XZ=   -11.5486   YZ=    -8.9936   ZZ=   302.6813
   Eigenvalues:   263.9026   302.5888   323.2699
     20  H    Isotropic =    29.4651   Anisotropy =    18.5851
   XX=    27.9832   YX=    -5.6683   ZX=    -5.7439
   XY=    -7.0251   YY=    36.9564   ZY=     3.3077
   XZ=    -4.9271   YZ=     3.2318   ZZ=    23.4557
   Eigenvalues:    19.8762    26.6639    41.8552
     21  O    Isotropic =   288.5507   Anisotropy =    36.7591
   XX=   308.0015   YX=    15.0280   ZX=    -1.4307
   XY=     9.7501   YY=   282.6586   ZY=     7.9670
   XZ=    -5.8173   YZ=    12.0579   ZZ=   274.9919
   Eigenvalues:   265.5782   287.0170   313.0567
     22  H    Isotropic =    27.9972   Anisotropy =    19.8967
   XX=    35.1367   YX=     7.9693   ZX=    -1.0134
   XY=     7.7972   YY=    30.8611   ZY=     3.8802
   XZ=    -1.7722   YZ=     4.5372   ZZ=    17.9937
   Eigenvalues:    15.9372    26.7926    41.2617
     23  C    Isotropic =   125.9971   Anisotropy =    58.2854
   XX=   157.2053   YX=     0.5698   ZX=   -20.1233
   XY=     4.8147   YY=   108.3348   ZY=    10.7131
   XZ=   -19.8202   YZ=    10.8670   ZZ=   112.4513
   Eigenvalues:    95.3952   117.7421   164.8541
     24  H    Isotropic =    28.0162   Anisotropy =     4.0541
   XX=    28.8903   YX=     0.7221   ZX=    -1.2959
   XY=     0.6086   YY=    25.2921   ZY=     2.5722
   XZ=     0.6722   YZ=     1.7270   ZZ=    29.8661
   Eigenvalues:    24.3226    29.0069    30.7189
     25  H    Isotropic =    27.4674   Anisotropy =     5.2739
   XX=    29.6825   YX=    -0.9428   ZX=    -0.4938
   XY=     0.5327   YY=    30.7309   ZY=     0.7837
   XZ=    -1.0706   YZ=     1.7088   ZZ=    21.9886
   Eigenvalues:    21.7442    29.6746    30.9833
     26  O    Isotropic =   311.9274   Anisotropy =    66.3811
   XX=   289.6159   YX=     6.2299   ZX=     9.5804
   XY=     7.1232   YY=   291.3117   ZY=    -9.1270
   XZ=    -9.6937   YZ=    -9.3203   ZZ=   354.8547
   Eigenvalues:   283.1960   296.4047   356.1815
     27  H    Isotropic =    30.5513   Anisotropy =    16.7641
   XX=    28.4914   YX=     0.8878   ZX=    -4.0887
   XY=     1.0610   YY=    23.8475   ZY=    -4.5229
   XZ=    -2.8121   YZ=    -5.3504   ZZ=    39.3149
   Eigenvalues:    22.4060    27.5205    41.7273
 End of Minotr Frequency-dependent properties file   721 does not exist.
 End of Minotr Frequency-dependent properties file   722 does not exist.

 **********************************************************************

            Population analysis using the SCF density.

 **********************************************************************

 Orbital symmetries:
       Occupied  (A) (A) (A) (A) (A) (A) (A) (A) (A) (A) (A) (A)
                 (A) (A) (A) (A) (A) (A) (A) (A) (A) (A) (A) (A)
                 (A) (A) (A) (A) (A) (A) (A) (A) (A) (A) (A) (A)
                 (A) (A) (A) (A) (A) (A) (A) (A) (A) (A) (A)
       Virtual   (A) (A) (A) (A) (A) (A) (A) (A) (A) (A) (A) (A)
                 (A) (A) (A) (A) (A) (A) (A) (A) (A) (A) (A) (A)
                 (A) (A) (A) (A) (A) (A) (A) (A) (A) (A) (A) (A)
                 (A) (A) (A) (A) (A) (A) (A) (A) (A) (A) (A) (A)
                 (A) (A) (A) (A) (A) (A) (A) (A) (A) (A) (A) (A)
                 (A) (A) (A) (A) (A) (A) (A) (A) (A) (A) (A) (A)
                 (A) (A) (A) (A) (A) (A) (A) (A) (A) (A) (A) (A)
                 (A) (A) (A) (A) (A) (A) (A) (A) (A) (A) (A) (A)
                 (A) (A) (A) (A) (A) (A) (A) (A) (A) (A) (A) (A)
                 (A) (A) (A) (A) (A) (A) (A) (A) (A) (A) (A) (A)
                 (A) (A) (A) (A) (A) (A) (A) (A) (A) (A) (A) (A)
                 (A) (A) (A) (A) (A) (A) (A) (A) (A) (A) (A) (A)
                 (A) (A) (A) (A) (A) (A) (A) (A) (A) (A) (A) (A)
                 (A) (A) (A) (A) (A) (A) (A) (A) (A) (A) (A) (A)
                 (A) (A) (A) (A) (A) (A) (A) (A) (A) (A) (A) (A)
                 (A) (A) (A) (A) (A) (A) (A) (A) (A) (A) (A) (A)
                 (A) (A) (A) (A) (A) (A) (A) (A) (A) (A) (A) (A)
                 (A) (A) (A) (A) (A) (A) (A) (A) (A) (A) (A) (A)
                 (A) (A) (A) (A) (A) (A) (A) (A) (A) (A) (A) (A)
                 (A) (A) (A) (A) (A) (A) (A) (A) (A) (A) (A) (A)
                 (A) (A) (A) (A) (A) (A) (A) (A) (A) (A) (A) (A)
                 (A) (A) (A) (A)
 The electronic state is 1-A.
 Alpha  occ. eigenvalues --  -19.26951 -19.25984 -19.25377 -14.41634 -10.30434
 Alpha  occ. eigenvalues --  -10.30206 -10.30053 -10.28262 -10.27967 -10.26997
 Alpha  occ. eigenvalues --  -10.24742 -10.24677  -1.07458  -1.06533  -1.05111
 Alpha  occ. eigenvalues --   -0.96914  -0.83160  -0.79647  -0.75232  -0.71674
 Alpha  occ. eigenvalues --   -0.66772  -0.61908  -0.60649  -0.58237  -0.55482
 Alpha  occ. eigenvalues --   -0.54433  -0.52056  -0.50113  -0.49640  -0.47290
 Alpha  occ. eigenvalues --   -0.45238  -0.44736  -0.43874  -0.42650  -0.41216
 Alpha  occ. eigenvalues --   -0.40212  -0.38376  -0.37669  -0.37076  -0.35627
 Alpha  occ. eigenvalues --   -0.35173  -0.34429  -0.34040  -0.31651  -0.29553
 Alpha  occ. eigenvalues --   -0.28799  -0.23419
 Alpha virt. eigenvalues --    0.00669   0.01508   0.01909   0.02084   0.03616
 Alpha virt. eigenvalues --    0.04316   0.04722   0.04851   0.05371   0.06870
 Alpha virt. eigenvalues --    0.07576   0.08050   0.08798   0.09175   0.09635
 Alpha virt. eigenvalues --    0.09837   0.10991   0.11979   0.12327   0.12840
 Alpha virt. eigenvalues --    0.13325   0.13533   0.14070   0.14795   0.15052
 Alpha virt. eigenvalues --    0.16472   0.16551   0.17244   0.17633   0.18651
 Alpha virt. eigenvalues --    0.18881   0.19142   0.19690   0.20099   0.20577
 Alpha virt. eigenvalues --    0.21338   0.22023   0.22278   0.22731   0.23917
 Alpha virt. eigenvalues --    0.24203   0.24712   0.25191   0.25408   0.25803
 Alpha virt. eigenvalues --    0.26501   0.26645   0.27995   0.28527   0.28876
 Alpha virt. eigenvalues --    0.29868   0.30451   0.30919   0.31436   0.32048
 Alpha virt. eigenvalues --    0.32362   0.32660   0.33047   0.33795   0.34228
 Alpha virt. eigenvalues --    0.35007   0.36048   0.36464   0.36895   0.37224
 Alpha virt. eigenvalues --    0.38081   0.38775   0.39912   0.39952   0.40321
 Alpha virt. eigenvalues --    0.41598   0.41993   0.44614   0.44694   0.45421
 Alpha virt. eigenvalues --    0.50024   0.61480   0.65480   0.66522   0.67517
 Alpha virt. eigenvalues --    0.69224   0.69873   0.71635   0.72150   0.74151
 Alpha virt. eigenvalues --    0.75428   0.76418   0.79037   0.80481   0.81258
 Alpha virt. eigenvalues --    0.83347   0.84618   0.85516   0.87307   0.87588
 Alpha virt. eigenvalues --    0.88715   0.91132   0.91868   0.95222   0.95767
 Alpha virt. eigenvalues --    0.98538   0.99189   1.01549   1.03048   1.05447
 Alpha virt. eigenvalues --    1.06020   1.06281   1.08277   1.09056   1.10116
 Alpha virt. eigenvalues --    1.11655   1.12630   1.13016   1.14354   1.16805
 Alpha virt. eigenvalues --    1.18206   1.19057   1.21181   1.22316   1.23870
 Alpha virt. eigenvalues --    1.24215   1.25591   1.29861   1.30658   1.33021
 Alpha virt. eigenvalues --    1.33994   1.34990   1.35434   1.39152   1.42371
 Alpha virt. eigenvalues --    1.43090   1.45506   1.48094   1.50990   1.52123
 Alpha virt. eigenvalues --    1.53513   1.55744   1.58106   1.59923   1.61754
 Alpha virt. eigenvalues --    1.62833   1.63542   1.66117   1.67212   1.68343
 Alpha virt. eigenvalues --    1.69747   1.73190   1.75885   1.76874   1.78178
 Alpha virt. eigenvalues --    1.81980   1.82697   1.84049   1.85602   1.86917
 Alpha virt. eigenvalues --    1.88035   1.88689   1.90999   1.92684   1.94529
 Alpha virt. eigenvalues --    1.95693   1.99656   2.00763   2.02285   2.04341
 Alpha virt. eigenvalues --    2.05100   2.06504   2.07713   2.08010   2.09928
 Alpha virt. eigenvalues --    2.11036   2.12652   2.15512   2.16385   2.17565
 Alpha virt. eigenvalues --    2.20907   2.22609   2.25476   2.25876   2.29144
 Alpha virt. eigenvalues --    2.32257   2.34328   2.35490   2.36241   2.36974
 Alpha virt. eigenvalues --    2.39278   2.41301   2.42159   2.43783   2.45322
 Alpha virt. eigenvalues --    2.47368   2.48861   2.51247   2.51796   2.52551
 Alpha virt. eigenvalues --    2.55565   2.58017   2.59726   2.61178   2.62132
 Alpha virt. eigenvalues --    2.66161   2.66486   2.67708   2.68769   2.70105
 Alpha virt. eigenvalues --    2.71546   2.74524   2.74775   2.75979   2.78762
 Alpha virt. eigenvalues --    2.79174   2.81006   2.82849   2.84311   2.87319
 Alpha virt. eigenvalues --    2.88241   2.88780   2.91232   2.93038   2.94458
 Alpha virt. eigenvalues --    2.95580   2.99890   3.00461   3.03431   3.03871
 Alpha virt. eigenvalues --    3.05452   3.07437   3.13104   3.17014   3.31192
 Alpha virt. eigenvalues --    3.32664   3.35847   3.36323   3.39301   3.43071
 Alpha virt. eigenvalues --    3.46751   3.49992   3.52707   3.54896   3.55932
 Alpha virt. eigenvalues --    3.56973   3.58104   3.59315   3.64158   4.30663
 Alpha virt. eigenvalues --    4.36907   4.39257   4.43833   4.47320   4.49311
 Alpha virt. eigenvalues --    4.58383   4.66644   4.75561   4.78080   4.84522
 Alpha virt. eigenvalues --    4.93213
          Condensed to atoms (all electrons):
              1          2          3          4          5          6
     1  C    6.123327  -1.085475   0.211574  -0.280882   0.205766   0.161190
     2  C   -1.085475   9.194508  -0.590074  -0.273048   0.333443  -0.161441
     3  N    0.211574  -0.590074   7.439705   0.239841  -0.190167   0.098762
     4  C   -0.280882  -0.273048   0.239841   5.639345   0.142622  -0.163644
     5  C    0.205766   0.333443  -0.190167   0.142622   5.520069   0.009249
     6  C    0.161190  -0.161441   0.098762  -0.163644   0.009249   8.301646
     7  C   -0.068821   0.052224  -0.189289  -0.126634  -0.016282  -1.392005
     8  C    0.069072  -0.677521   0.011921   0.145286  -0.147511  -0.108724
     9  H    0.384736  -0.066589   0.014196   0.029826  -0.019484   0.002406
    10  H    0.508240  -0.224286   0.030968   0.017650  -0.076200   0.020541
    11  H    0.092791   0.076189   0.018183   0.016719  -0.030809   0.040253
    12  H    0.041965  -0.014790  -0.041395   0.381399  -0.035687  -0.000841
    13  H   -0.006809   0.019521  -0.098262   0.411306  -0.030689   0.020353
    14  H   -0.023595  -0.040655   0.012601  -0.032770   0.389006   0.009783
    15  H   -0.062723   0.043943   0.005468  -0.021865   0.379808  -0.006608
    16  H   -0.012290   0.055547  -0.071612   0.025165   0.001461   0.313708
    17  H    0.012056  -0.022158   0.049667   0.013094  -0.000252  -0.087833
    18  H    0.043180  -0.238748   0.047926   0.010133  -0.002468   0.035089
    19  O    0.031970  -0.156320   0.031000  -0.000456  -0.003549   0.016229
    20  H   -0.006509   0.042614  -0.003548  -0.000400   0.000373   0.022612
    21  O   -0.000680   0.048649   0.006836  -0.001871   0.005882  -0.135898
    22  H    0.000573  -0.005695   0.001741  -0.000703  -0.000065  -0.055764
    23  C    0.054279  -0.276947   0.061280   0.007172  -0.049069  -0.578645
    24  H    0.001403   0.001454   0.014794   0.009459  -0.002844  -0.100243
    25  H    0.001179   0.001663  -0.010573   0.008147   0.006650   0.010119
    26  O    0.000287   0.015703   0.005103   0.006449   0.003636   0.110371
    27  H    0.000214  -0.001167   0.001645   0.002109  -0.000713  -0.000892
              7          8          9         10         11         12
     1  C   -0.068821   0.069072   0.384736   0.508240   0.092791   0.041965
     2  C    0.052224  -0.677521  -0.066589  -0.224286   0.076189  -0.014790
     3  N   -0.189289   0.011921   0.014196   0.030968   0.018183  -0.041395
     4  C   -0.126634   0.145286   0.029826   0.017650   0.016719   0.381399
     5  C   -0.016282  -0.147511  -0.019484  -0.076200  -0.030809  -0.035687
     6  C   -1.392005  -0.108724   0.002406   0.020541   0.040253  -0.000841
     7  C    7.301870  -0.121277  -0.003249  -0.008431  -0.032591   0.002135
     8  C   -0.121277   6.229503  -0.001621   0.045395   0.055778  -0.001288
     9  H   -0.003249  -0.001621   0.511580  -0.024154  -0.003493  -0.000095
    10  H   -0.008431   0.045395  -0.024154   0.529871   0.004280  -0.000032
    11  H   -0.032591   0.055778  -0.003493   0.004280   0.562130   0.000289
    12  H    0.002135  -0.001288  -0.000095  -0.000032   0.000289   0.544863
    13  H    0.004039   0.004095  -0.000151   0.001037  -0.000488  -0.041848
    14  H   -0.002305   0.014666  -0.004854   0.004197   0.000995  -0.006048
    15  H    0.001421   0.002768   0.000298  -0.005191  -0.000101   0.000925
    16  H   -0.042437  -0.019098  -0.000013  -0.000351  -0.000641  -0.000873
    17  H    0.417591  -0.130719   0.000005  -0.000010   0.000792   0.000015
    18  H   -0.086605   0.475791   0.000425   0.003261   0.004523   0.000013
    19  O   -0.140489   0.320341   0.000768   0.001691   0.009315   0.000060
    20  H   -0.053991   0.001571  -0.000013  -0.000008   0.000033   0.000000
    21  O    0.387692  -0.240039   0.000016  -0.000278  -0.000595   0.000025
    22  H    0.040481   0.040089   0.000000   0.000001   0.000008   0.000000
    23  C    0.246744  -0.049143   0.000522   0.001671   0.015718   0.003936
    24  H   -0.034533   0.001309   0.000000   0.000000  -0.000039   0.000075
    25  H   -0.022449  -0.006428   0.000000   0.000001   0.000010  -0.000379
    26  O   -0.108187   0.005243  -0.000002  -0.000015  -0.000113  -0.000005
    27  H   -0.038973   0.003388   0.000000   0.000000   0.000000   0.000003
             13         14         15         16         17         18
     1  C   -0.006809  -0.023595  -0.062723  -0.012290   0.012056   0.043180
     2  C    0.019521  -0.040655   0.043943   0.055547  -0.022158  -0.238748
     3  N   -0.098262   0.012601   0.005468  -0.071612   0.049667   0.047926
     4  C    0.411306  -0.032770  -0.021865   0.025165   0.013094   0.010133
     5  C   -0.030689   0.389006   0.379808   0.001461  -0.000252  -0.002468
     6  C    0.020353   0.009783  -0.006608   0.313708  -0.087833   0.035089
     7  C    0.004039  -0.002305   0.001421  -0.042437   0.417591  -0.086605
     8  C    0.004095   0.014666   0.002768  -0.019098  -0.130719   0.475791
     9  H   -0.000151  -0.004854   0.000298  -0.000013   0.000005   0.000425
    10  H    0.001037   0.004197  -0.005191  -0.000351  -0.000010   0.003261
    11  H   -0.000488   0.000995  -0.000101  -0.000641   0.000792   0.004523
    12  H   -0.041848  -0.006048   0.000925  -0.000873   0.000015   0.000013
    13  H    0.572459   0.003967  -0.004959   0.011730  -0.000031  -0.000225
    14  H    0.003967   0.519975  -0.024042  -0.000018  -0.000003  -0.000006
    15  H   -0.004959  -0.024042   0.511933  -0.000016   0.000000  -0.000021
    16  H    0.011730  -0.000018  -0.000016   0.582137   0.003940   0.000079
    17  H   -0.000031  -0.000003   0.000000   0.003940   0.561620   0.004634
    18  H   -0.000225  -0.000006  -0.000021   0.000079   0.004634   0.562682
    19  O   -0.000178   0.000025  -0.000005  -0.001467  -0.000861  -0.042854
    20  H    0.000000   0.000000   0.000000   0.000018   0.000005  -0.004937
    21  O   -0.000206  -0.000009  -0.000008   0.005919  -0.043855   0.000591
    22  H   -0.000001   0.000000   0.000000  -0.001363  -0.003557  -0.000006
    23  C   -0.017526  -0.000733   0.000017  -0.014114   0.047792   0.018559
    24  H    0.000028  -0.000001   0.000000   0.004469   0.003004  -0.000007
    25  H   -0.000005   0.000002   0.000000  -0.005913   0.000060   0.000008
    26  O    0.000291  -0.000002  -0.000002  -0.004010  -0.000071  -0.000305
    27  H   -0.000003   0.000000   0.000000   0.003831   0.000065   0.000005
             19         20         21         22         23         24
     1  C    0.031970  -0.006509  -0.000680   0.000573   0.054279   0.001403
     2  C   -0.156320   0.042614   0.048649  -0.005695  -0.276947   0.001454
     3  N    0.031000  -0.003548   0.006836   0.001741   0.061280   0.014794
     4  C   -0.000456  -0.000400  -0.001871  -0.000703   0.007172   0.009459
     5  C   -0.003549   0.000373   0.005882  -0.000065  -0.049069  -0.002844
     6  C    0.016229   0.022612  -0.135898  -0.055764  -0.578645  -0.100243
     7  C   -0.140489  -0.053991   0.387692   0.040481   0.246744  -0.034533
     8  C    0.320341   0.001571  -0.240039   0.040089  -0.049143   0.001309
     9  H    0.000768  -0.000013   0.000016   0.000000   0.000522   0.000000
    10  H    0.001691  -0.000008  -0.000278   0.000001   0.001671   0.000000
    11  H    0.009315   0.000033  -0.000595   0.000008   0.015718  -0.000039
    12  H    0.000060   0.000000   0.000025   0.000000   0.003936   0.000075
    13  H   -0.000178   0.000000  -0.000206  -0.000001  -0.017526   0.000028
    14  H    0.000025   0.000000  -0.000009   0.000000  -0.000733  -0.000001
    15  H   -0.000005   0.000000  -0.000008   0.000000   0.000017   0.000000
    16  H   -0.001467   0.000018   0.005919  -0.001363  -0.014114   0.004469
    17  H   -0.000861   0.000005  -0.043855  -0.003557   0.047792   0.003004
    18  H   -0.042854  -0.004937   0.000591  -0.000006   0.018559  -0.000007
    19  O    8.262975   0.235960  -0.003963   0.000531  -0.001460  -0.000125
    20  H    0.235960   0.374072   0.006510  -0.000195  -0.001162   0.000001
    21  O   -0.003963   0.006510   8.276348   0.230313   0.026016   0.001987
    22  H    0.000531  -0.000195   0.230313   0.347681  -0.028337  -0.000091
    23  C   -0.001460  -0.001162   0.026016  -0.028337   5.720901   0.484616
    24  H   -0.000125   0.000001   0.001987  -0.000091   0.484616   0.517664
    25  H    0.000046   0.000000  -0.001066   0.000138   0.375682  -0.032852
    26  O    0.000271  -0.000008  -0.010262   0.035140   0.042048  -0.054866
    27  H   -0.000016   0.000000   0.001089  -0.004197   0.024457   0.005740
             25         26         27
     1  C    0.001179   0.000287   0.000214
     2  C    0.001663   0.015703  -0.001167
     3  N   -0.010573   0.005103   0.001645
     4  C    0.008147   0.006449   0.002109
     5  C    0.006650   0.003636  -0.000713
     6  C    0.010119   0.110371  -0.000892
     7  C   -0.022449  -0.108187  -0.038973
     8  C   -0.006428   0.005243   0.003388
     9  H    0.000000  -0.000002   0.000000
    10  H    0.000001  -0.000015   0.000000
    11  H    0.000010  -0.000113   0.000000
    12  H   -0.000379  -0.000005   0.000003
    13  H   -0.000005   0.000291  -0.000003
    14  H    0.000002  -0.000002   0.000000
    15  H    0.000000  -0.000002   0.000000
    16  H   -0.005913  -0.004010   0.003831
    17  H    0.000060  -0.000071   0.000065
    18  H    0.000008  -0.000305   0.000005
    19  O    0.000046   0.000271  -0.000016
    20  H    0.000000  -0.000008   0.000000
    21  O   -0.001066  -0.010262   0.001089
    22  H    0.000138   0.035140  -0.004197
    23  C    0.375682   0.042048   0.024457
    24  H   -0.032852  -0.054866   0.005740
    25  H    0.552867  -0.038695  -0.007804
    26  O   -0.038695   8.329972   0.259282
    27  H   -0.007804   0.259282   0.351925
 Mulliken atomic charges:
              1
     1  C   -0.396018
     2  C   -0.050543
     3  N   -0.108293
     4  C   -0.203448
     5  C   -0.392174
     6  C   -0.379774
     7  C    0.034351
     8  C    0.077155
     9  H    0.178941
    10  H    0.170152
    11  H    0.170863
    12  H    0.167578
    13  H    0.152553
    14  H    0.179822
    15  H    0.178958
    16  H    0.166214
    17  H    0.175007
    18  H    0.169283
    19  O   -0.559439
    20  H    0.387003
    21  O   -0.559143
    22  H    0.403279
    23  C   -0.114274
    24  H    0.179599
    25  H    0.169592
    26  O   -0.597253
    27  H    0.400009
 Sum of Mulliken atomic charges =   0.00000
 Mulliken charges with hydrogens summed into heavy atoms:
              1
     1  C   -0.046924
     2  C    0.120321
     3  N   -0.108293
     4  C    0.116683
     5  C   -0.033394
     6  C   -0.213560
     7  C    0.209357
     8  C    0.246438
    19  O   -0.172437
    21  O   -0.155864
    23  C    0.234917
    26  O   -0.197243
 Sum of Mulliken charges with hydrogens summed into heavy atoms =   0.00000
 Electronic spatial extent (au):  <R**2>=           2178.9703
 Charge=              0.0000 electrons
 Dipole moment (field-independent basis, Debye):
    X=              0.9738    Y=             -3.1660    Z=              2.7363  Tot=              4.2964
 Quadrupole moment (field-independent basis, Debye-Ang):
   XX=            -75.3711   YY=            -73.4028   ZZ=            -73.2056
   XY=             -0.5467   XZ=             -1.0266   YZ=             -1.5588
 Traceless Quadrupole moment (field-independent basis, Debye-Ang):
   XX=             -1.3780   YY=              0.5904   ZZ=              0.7876
   XY=             -0.5467   XZ=             -1.0266   YZ=             -1.5588
 Octapole moment (field-independent basis, Debye-Ang**2):
  XXX=             12.3217  YYY=              0.5885  ZZZ=              5.0418  XYY=            -12.5334
  XXY=             -6.5571  XXZ=             13.9133  XZZ=            -10.9462  YZZ=             -3.9351
  YYZ=             13.3550  XYZ=             11.7795
 Hexadecapole moment (field-independent basis, Debye-Ang**3):
 XXXX=          -1639.0380 YYYY=           -931.1269 ZZZZ=           -194.4688 XXXY=            -16.5805
 XXXZ=            -66.0410 YYYX=            -20.7916 YYYZ=             23.1449 ZZZX=             -5.5752
 ZZZY=             -6.5344 XXYY=           -458.7168 XXZZ=           -272.0530 YYZZ=           -207.6042
 XXYZ=            -34.4352 YYXZ=              0.6733 ZZXY=             16.3586
 N-N= 7.964205790920D+02 E-N=-2.978563740455D+03  KE= 5.886659131498D+02
 1\1\GINC-COMPUTE-3-0\SP\RmPW1PW91\6-31+G(d,p)\C8H15N1O3\MAMICHETTI.IQU
 IR\17-May-2024\0\\# mpw1pw91/6-31+G** nmr scrf=(pcm,solvent=water)\\co
 mment\\0,1\C,0,2.579647,0.230304,0.396341\C,0,1.303406,0.505405,-0.412
 419\N,0,0.570934,-0.808859,-0.489527\C,0,1.40075,-1.840722,0.167626\C,
 0,2.821933,-1.267221,0.150556\C,0,-0.764652,-0.614009,0.095597\C,0,-1.
 051552,0.869559,-0.161614\C,0,0.296135,1.515974,0.154069\H,0,3.417516,
 0.86295,0.087435\H,0,2.396342,0.408942,1.463308\H,0,1.57002,0.834352,-
 1.426061\H,0,1.329681,-2.801053,-0.355644\H,0,1.072238,-2.00743,1.2068
 36\H,0,3.284341,-1.422592,-0.831951\H,0,3.466063,-1.732492,0.903099\H,
 0,-0.750313,-0.765712,1.191834\H,0,-1.273411,1.021161,-1.230213\H,0,0.
 392956,1.585161,1.247354\O,0,0.500467,2.799793,-0.435571\H,0,-0.131984
 ,3.406947,-0.016159\O,0,-2.099482,1.403734,0.642564\H,0,-2.844762,0.78
 2768,0.523639\C,0,-1.831783,-1.539723,-0.484564\H,0,-1.913988,-1.39337
 4,-1.565821\H,0,-1.583855,-2.593085,-0.298403\O,0,-3.130592,-1.229688,
 0.055143\H,0,-3.113845,-1.472646,0.996801\\Version=AM64L-G09RevC.01\St
 ate=1-A\HF=-594.2001572\RMSD=7.212e-09\Dipole=0.3831156,-1.2455895,1.0
 765345\Quadrupole=-1.0244801,0.4389467,0.5855334,-0.4064902,-0.7632327
 ,-1.1589661\PG=C01 [X(C8H15N1O3)]\\@


 TO DETECT ERRORS, THE PROGRAMMER MUST HAVE A CONNIVING MIND,
 ONE THAT DELIGHTS IN UNCOVERING FLAWS WHERE BEAUTY AND
 PERFECTION WERE ONCE THOUGHT TO LIE.

             -- THE PSYCHOLOGY OF COMPUTER PROGRAMMING
                GERALD M. WEINBERG
 Job cpu time:  0 days  0 hours  8 minutes 34.3 seconds.
 File lengths (MBytes):  RWF=    114 Int=      0 D2E=      0 Chk=      7 Scr=      1
 Normal termination of Gaussian 09 at Fri May 17 12:18:25 2024.
