 Entering Gaussian System, Link 0=g09
 Input=/home/mamichetti.iquir/Linux/02_Cardona_A1A3_R__R_R_R_039_OptB.gjc
 Output=/home/mamichetti.iquir/Linux/02_Cardona_A1A3_R__R_R_R_039_OptB.log
 Initial command:
 /opt/ohpc/pub/apps/software/Gaussian/09/AMD64.SSE4a-enabled/g09/l1.exe /local/mamichetti.iquir/Gau-713113.inp -scrdir=/local/mamichetti.iquir/
 Entering Link 1 = /opt/ohpc/pub/apps/software/Gaussian/09/AMD64.SSE4a-enabled/g09/l1.exe PID=    713114.
  
 Copyright (c) 1988,1990,1992,1993,1995,1998,2003,2009,2011,
            Gaussian, Inc.  All Rights Reserved.
  
 This is part of the Gaussian(R) 09 program.  It is based on
 the Gaussian(R) 03 system (copyright 2003, Gaussian, Inc.),
 the Gaussian(R) 98 system (copyright 1998, Gaussian, Inc.),
 the Gaussian(R) 94 system (copyright 1995, Gaussian, Inc.),
 the Gaussian 92(TM) system (copyright 1992, Gaussian, Inc.),
 the Gaussian 90(TM) system (copyright 1990, Gaussian, Inc.),
 the Gaussian 88(TM) system (copyright 1988, Gaussian, Inc.),
 the Gaussian 86(TM) system (copyright 1986, Carnegie Mellon
 University), and the Gaussian 82(TM) system (copyright 1983,
 Carnegie Mellon University). Gaussian is a federally registered
 trademark of Gaussian, Inc.
  
 This software contains proprietary and confidential information,
 including trade secrets, belonging to Gaussian, Inc.
  
 This software is provided under written license and may be
 used, copied, transmitted, or stored only in accord with that
 written license.
  
 The following legend is applicable only to US Government
 contracts under FAR:
  
                    RESTRICTED RIGHTS LEGEND
  
 Use, reproduction and disclosure by the US Government is
 subject to restrictions as set forth in subparagraphs (a)
 and (c) of the Commercial Computer Software - Restricted
 Rights clause in FAR 52.227-19.
  
 Gaussian, Inc.
 340 Quinnipiac St., Bldg. 40, Wallingford CT 06492
  
  
 ---------------------------------------------------------------
 Warning -- This program may not be used in any manner that
 competes with the business of Gaussian, Inc. or will provide
 assistance to any competitor of Gaussian, Inc.  The licensee
 of this program is prohibited from giving any competitor of
 Gaussian, Inc. access to this program.  By using this program,
 the user acknowledges that Gaussian, Inc. is engaged in the
 business of creating and licensing software in the field of
 computational chemistry and represents and warrants to the
 licensee that it is not a competitor of Gaussian, Inc. and that
 it will not use this program in any manner prohibited above.
 ---------------------------------------------------------------
  

 Cite this work as:
 Gaussian 09, Revision C.01,
 M. J. Frisch, G. W. Trucks, H. B. Schlegel, G. E. Scuseria, 
 M. A. Robb, J. R. Cheeseman, G. Scalmani, V. Barone, B. Mennucci, 
 G. A. Petersson, H. Nakatsuji, M. Caricato, X. Li, H. P. Hratchian, 
 A. F. Izmaylov, J. Bloino, G. Zheng, J. L. Sonnenberg, M. Hada, 
 M. Ehara, K. Toyota, R. Fukuda, J. Hasegawa, M. Ishida, T. Nakajima, 
 Y. Honda, O. Kitao, H. Nakai, T. Vreven, J. A. Montgomery, Jr., 
 J. E. Peralta, F. Ogliaro, M. Bearpark, J. J. Heyd, E. Brothers, 
 K. N. Kudin, V. N. Staroverov, T. Keith, R. Kobayashi, J. Normand, 
 K. Raghavachari, A. Rendell, J. C. Burant, S. S. Iyengar, J. Tomasi, 
 M. Cossi, N. Rega, J. M. Millam, M. Klene, J. E. Knox, J. B. Cross, 
 V. Bakken, C. Adamo, J. Jaramillo, R. Gomperts, R. E. Stratmann, 
 O. Yazyev, A. J. Austin, R. Cammi, C. Pomelli, J. W. Ochterski, 
 R. L. Martin, K. Morokuma, V. G. Zakrzewski, G. A. Voth, 
 P. Salvador, J. J. Dannenberg, S. Dapprich, A. D. Daniels, 
 O. Farkas, J. B. Foresman, J. V. Ortiz, J. Cioslowski, 
 and D. J. Fox, Gaussian, Inc., Wallingford CT, 2010.
 
 ******************************************
 Gaussian 09:  AM64L-G09RevC.01 23-Sep-2011
                17-May-2024 
 ******************************************
 %nprocshared=4
 Will use up to    4 processors via shared memory.
 ------------------------------------------------
 # mpw1pw91/6-31+G** nmr scrf=(pcm,solvent=water)
 ------------------------------------------------
 1/38=1/1;
 2/12=2,17=6,18=5,40=1/2;
 3/5=1,6=6,7=111,11=2,16=1,25=1,30=1,70=2201,72=1,74=-7/1,2,8,3;
 4//1;
 5/5=2,38=5,53=1/2;
 8/6=1,10=90,11=11/1;
 10/13=100,45=16/2;
 6/7=2,8=2,9=2,10=2,28=1/1;
 99/9=1/99;
 -------
 comment
 -------
 Charge =  0 Multiplicity = 1
 Symbolic Z-Matrix:
 6                     2.18117   0.57278  -0.7241 
 6                     0.66495   0.3671   -1.03887 
 7                     0.26082  -0.93112  -0.41072 
 6                     1.5138   -1.67504  -0.17903 
 6                     2.57727  -0.62246   0.16594 
 6                    -0.53982  -0.6372    0.8158 
 6                    -0.59785   0.89675   0.95598 
 6                    -0.29784   1.42067  -0.46217 
 1                     2.75328   0.56762  -1.65792 
 1                     2.3695    1.53243  -0.23377 
 1                     0.51707   0.31525  -2.12267 
 1                     1.78838  -2.1966   -1.10557 
 1                     1.36798  -2.43616   0.59285 
 1                     3.59573  -0.97705  -0.02292 
 1                     2.50574  -0.35292   1.22485 
 1                    -0.06401  -1.05184   1.71236 
 1                    -1.58054   1.2473    1.29684 
 1                     0.15907   2.41426  -0.43186 
 8                    -1.4954    1.5612   -1.23083 
 1                    -2.02206   0.74278  -1.09204 
 8                     0.41332   1.28651   1.89395 
 1                     0.43753   2.25862   1.90002 
 6                    -1.9205   -1.2904    0.67719 
 1                    -1.82696  -2.37861   0.7855 
 1                    -2.60738  -0.92687   1.44654 
 8                    -2.52333  -0.98996  -0.59269 
 1                    -1.86279  -1.29563  -1.24504 
 
                          Input orientation:                          
 ---------------------------------------------------------------------
 Center     Atomic      Atomic             Coordinates (Angstroms)
 Number     Number       Type             X           Y           Z
 ---------------------------------------------------------------------
      1          6           0        2.181167    0.572778   -0.724103
      2          6           0        0.664945    0.367100   -1.038869
      3          7           0        0.260819   -0.931122   -0.410724
      4          6           0        1.513804   -1.675036   -0.179033
      5          6           0        2.577268   -0.622457    0.165943
      6          6           0       -0.539822   -0.637201    0.815797
      7          6           0       -0.597846    0.896746    0.955978
      8          6           0       -0.297842    1.420670   -0.462165
      9          1           0        2.753276    0.567616   -1.657923
     10          1           0        2.369503    1.532430   -0.233769
     11          1           0        0.517068    0.315249   -2.122673
     12          1           0        1.788381   -2.196600   -1.105569
     13          1           0        1.367981   -2.436163    0.592851
     14          1           0        3.595731   -0.977051   -0.022921
     15          1           0        2.505740   -0.352922    1.224851
     16          1           0       -0.064011   -1.051839    1.712361
     17          1           0       -1.580543    1.247295    1.296837
     18          1           0        0.159066    2.414257   -0.431862
     19          8           0       -1.495395    1.561202   -1.230825
     20          1           0       -2.022060    0.742782   -1.092040
     21          8           0        0.413316    1.286513    1.893953
     22          1           0        0.437527    2.258619    1.900022
     23          6           0       -1.920499   -1.290397    0.677189
     24          1           0       -1.826961   -2.378615    0.785504
     25          1           0       -2.607375   -0.926873    1.446544
     26          8           0       -2.523334   -0.989956   -0.592694
     27          1           0       -1.862793   -1.295628   -1.245038
 ---------------------------------------------------------------------
                    Distance matrix (angstroms):
                    1          2          3          4          5
     1  C    0.000000
     2  C    1.562149   0.000000
     3  N    2.459199   1.497753   0.000000
     4  C    2.407310   2.372804   1.475486   0.000000
     5  C    1.541968   2.467342   2.407022   1.535541   0.000000
     6  C    3.352480   2.428965   1.493911   2.506824   3.184145
     7  C    3.263517   2.419624   2.438500   3.515875   3.607420
     8  C    2.633062   1.539336   2.417783   3.598002   3.582617
     9  H    1.095151   2.187364   3.164500   2.958529   2.184889
    10  H    1.093997   2.216235   3.247607   3.320099   2.201471
    11  H    2.188960   1.095074   2.133043   2.955073   3.218925
    12  H    2.822986   2.799842   2.101830   1.098130   2.171868
    13  H    3.383691   3.318893   2.120877   1.093793   2.221296
    14  H    2.212378   3.380591   3.357698   2.201357   1.094839
    15  H    2.181901   3.005226   2.837092   2.168597   1.095012
    16  H    3.690063   3.180256   2.151180   2.540718   3.090652
    17  H    4.323151   3.357452   3.324437   4.504797   4.697051
    18  H    2.750517   2.194362   3.346993   4.315270   3.927684
    19  O    3.840684   2.475842   3.157298   4.542552   4.827620
    20  H    4.222724   2.713662   2.911646   4.379699   4.959861
    21  O    3.238662   3.083842   3.201983   3.778772   3.363462
    22  H    3.573286   3.502377   3.942743   4.577607   3.985740
    23  C    4.717913   3.518049   2.463896   3.560267   4.575743
    24  H    5.201416   4.132419   2.808028   3.547685   4.781755
    25  H    5.467248   4.308100   3.417016   4.492924   5.349124
    26  O    4.959005   3.493679   2.790714   4.115694   5.169790
    27  H    4.485078   3.032595   2.310557   3.561141   4.707246
                    6          7          8          9         10
     6  C    0.000000
     7  C    1.541431   0.000000
     8  C    2.434456   1.541307   0.000000
     9  H    4.291313   4.262725   3.386275   0.000000
    10  H    3.777970   3.259563   2.679437   1.762488   0.000000
    11  H    3.264779   3.325547   2.154837   2.297892   2.912216
    12  H    3.397632   4.417335   4.225037   2.979431   3.873423
    13  H    2.631669   3.886466   4.331649   4.000964   4.175653
    14  H    4.233408   4.696323   4.593682   2.401866   2.800997
    15  H    3.086031   3.356517   3.721790   3.036289   2.387611
    16  H    1.096425   2.157331   3.300991   4.681726   4.048192
    17  H    2.205861   1.097617   2.183911   5.289098   4.245812
    18  H    3.369940   2.191314   1.094028   3.412218   2.388073
    19  O    3.151945   2.455444   1.429937   4.384157   3.991539
    20  H    2.782306   2.499294   1.956835   4.811937   4.543787
    21  O    2.402409   1.433236   2.464759   4.313705   2.900749
    22  H    3.242920   1.953948   2.612059   4.569590   2.968661
    23  C    1.533671   2.571134   3.358724   5.545190   5.215584
    24  H    2.165679   3.502538   4.281291   5.969019   5.826277
    25  H    2.180946   2.757616   3.806320   6.372424   5.800081
    26  O    2.458171   3.108944   3.283439   5.603870   5.516440
    27  H    2.535906   3.354261   3.231135   4.995022   5.189692
                   11         12         13         14         15
    11  H    0.000000
    12  H    2.993346   0.000000
    13  H    3.958332   1.766000   0.000000
    14  H    3.944257   2.434325   2.733323   0.000000
    15  H    3.950593   3.056895   2.456382   1.770467   0.000000
    16  H    4.112672   3.561259   2.284788   4.050989   2.707355
    17  H    4.118462   5.383458   4.770456   5.786475   4.389030
    18  H    2.718978   4.936451   5.102753   4.845500   3.988591
    19  O    2.529387   4.991989   5.244392   5.815610   5.069842
    20  H    2.773474   4.812443   4.943372   5.971634   5.202838
    21  O    4.133691   4.797917   4.057409   4.350390   2.741110
    22  H    4.468231   5.541422   4.961393   4.913402   3.399045
    23  C    4.044633   4.213694   3.483388   5.569303   4.557454
    24  H    4.605309   4.084114   3.201262   5.658933   4.802994
    25  H    4.903501   5.239099   4.337073   6.374980   5.150001
    26  O    3.645331   4.506652   4.317333   6.145548   5.385245
    27  H    3.004814   3.763280   3.888002   5.602727   5.106185
                   16         17         18         19         20
    16  H    0.000000
    17  H    2.785417   0.000000
    18  H    4.081823   2.715960   0.000000
    19  O    4.187981   2.548502   2.025657   0.000000
    20  H    3.862549   2.481170   2.826124   0.983081   0.000000
    21  O    2.393472   2.081720   2.597280   3.671903   3.891382
    22  H    3.353489   2.336496   2.353603   3.744967   4.159299
    23  C    2.138934   2.634277   4.390791   3.457289   2.697092
    24  H    2.393197   3.670069   5.328968   4.438206   3.647788
    25  H    2.560269   2.409108   4.727024   3.820382   3.094309
    26  O    3.371258   3.076439   4.337027   2.823522   1.871631
    27  H    3.470052   3.606557   4.302606   2.880392   2.050339
                   21         22         23         24         25
    21  O    0.000000
    22  H    0.972426   0.000000
    23  C    3.683432   4.432959   0.000000
    24  H    4.436289   5.279583   1.097588   0.000000
    25  H    3.771449   4.429947   1.093552   1.775831   0.000000
    26  O    4.470977   5.053075   1.437455   2.076713   2.041944
    27  H    4.658475   5.274045   1.923100   2.301575   2.816913
                   26         27
    26  O    0.000000
    27  H    0.977396   0.000000
 Stoichiometry    C8H15NO3
 Framework group  C1[X(C8H15NO3)]
 Deg. of freedom    75
 Full point group                 C1      NOp   1
 Largest Abelian subgroup         C1      NOp   1
 Largest concise Abelian subgroup C1      NOp   1
                         Standard orientation:                         
 ---------------------------------------------------------------------
 Center     Atomic      Atomic             Coordinates (Angstroms)
 Number     Number       Type             X           Y           Z
 ---------------------------------------------------------------------
      1          6           0        2.181167    0.572778   -0.724103
      2          6           0        0.664945    0.367100   -1.038869
      3          7           0        0.260819   -0.931122   -0.410724
      4          6           0        1.513804   -1.675036   -0.179033
      5          6           0        2.577268   -0.622457    0.165943
      6          6           0       -0.539822   -0.637201    0.815797
      7          6           0       -0.597846    0.896746    0.955978
      8          6           0       -0.297842    1.420670   -0.462165
      9          1           0        2.753276    0.567616   -1.657923
     10          1           0        2.369503    1.532430   -0.233769
     11          1           0        0.517068    0.315249   -2.122673
     12          1           0        1.788381   -2.196600   -1.105569
     13          1           0        1.367981   -2.436163    0.592851
     14          1           0        3.595731   -0.977050   -0.022921
     15          1           0        2.505740   -0.352922    1.224851
     16          1           0       -0.064011   -1.051839    1.712361
     17          1           0       -1.580543    1.247295    1.296837
     18          1           0        0.159066    2.414257   -0.431862
     19          8           0       -1.495395    1.561202   -1.230825
     20          1           0       -2.022060    0.742782   -1.092040
     21          8           0        0.413316    1.286513    1.893953
     22          1           0        0.437527    2.258619    1.900022
     23          6           0       -1.920499   -1.290397    0.677189
     24          1           0       -1.826961   -2.378615    0.785504
     25          1           0       -2.607375   -0.926873    1.446544
     26          8           0       -2.523334   -0.989956   -0.592694
     27          1           0       -1.862793   -1.295628   -1.245038
 ---------------------------------------------------------------------
 Rotational constants (GHZ):      1.2829893      0.8662145      0.7707714
 Standard basis: 6-31+G(d,p) (6D, 7F)
 There are   303 symmetry adapted basis functions of A   symmetry.
 Integral buffers will be    131072 words long.
 Raffenetti 2 integral format.
 Two-electron integral symmetry is turned on.
   303 basis functions,   489 primitive gaussians,   303 cartesian basis functions
    47 alpha electrons       47 beta electrons
       nuclear repulsion energy       825.6897783946 Hartrees.
 NAtoms=   27 NActive=   27 NUniq=   27 SFac= 1.00D+00 NAtFMM=   60 NAOKFM=F Big=F
 ------------------------------------------------------------------------------
 Polarizable Continuum Model (PCM)
 =================================
 Model                : PCM.
 Atomic radii         : UFF (Universal Force Field).
 Polarization charges : Total charges.
 Charge compensation  : None.
 Solution method      : Matrix inversion.
 Cavity type          : Scaled VdW (van der Waals Surface) (Alpha=1.100).
 Cavity algorithm     : GePol (No added spheres)
                        Default sphere list used, NSphG=   27.
                        Lebedev-Laikov grids with approx.  5.0 points / Ang**2.
                        Smoothing algorithm: Karplus/York (Gamma=1.0000).
                        Polarization charges: spherical gaussians, with
                                              point-specific exponents (IZeta= 3).
                        Self-potential: point-specific (ISelfS= 7).
                        Self-field    : sphere-specific E.n sum rule (ISelfD= 2).
 Solvent              : Water, Eps=  78.355300 Eps(inf)=   1.777849
 ------------------------------------------------------------------------------
 One-electron integrals computed using PRISM.
 NBasis=   303 RedAO= T  NBF=   303
 NBsUse=   303 1.00D-06 NBFU=   303
 Harris functional with IExCor=  908 diagonalized for initial guess.
 ExpMin= 4.38D-02 ExpMax= 5.48D+03 ExpMxC= 8.25D+02 IAcc=2 IRadAn=         4 AccDes= 0.00D+00
 HarFok:  IExCor=  908 AccDes= 0.00D+00 IRadAn=         4 IDoV= 1
 ScaDFX=  1.000000  1.000000  1.000000  1.000000
 FoFCou: FMM=F IPFlag=           0 FMFlag=      100000 FMFlg1=           0
         NFxFlg=           0 DoJE=T BraDBF=F KetDBF=T FulRan=T
         Omega=  0.000000  0.000000  1.000000  0.000000  0.000000 ICntrl=     500 IOpCl=  0
         NMat0=    1 NMatS0=    1 NMatT0=    0 NMatD0=    1 NMtDS0=    0 NMtDT0=    0
         I1Cent=           4 NGrid=           0.
 Petite list used in FoFCou.
 Initial guess orbital symmetries:
       Occupied  (A) (A) (A) (A) (A) (A) (A) (A) (A) (A) (A) (A)
                 (A) (A) (A) (A) (A) (A) (A) (A) (A) (A) (A) (A)
                 (A) (A) (A) (A) (A) (A) (A) (A) (A) (A) (A) (A)
                 (A) (A) (A) (A) (A) (A) (A) (A) (A) (A) (A)
       Virtual   (A) (A) (A) (A) (A) (A) (A) (A) (A) (A) (A) (A)
                 (A) (A) (A) (A) (A) (A) (A) (A) (A) (A) (A) (A)
                 (A) (A) (A) (A) (A) (A) (A) (A) (A) (A) (A) (A)
                 (A) (A) (A) (A) (A) (A) (A) (A) (A) (A) (A) (A)
                 (A) (A) (A) (A) (A) (A) (A) (A) (A) (A) (A) (A)
                 (A) (A) (A) (A) (A) (A) (A) (A) (A) (A) (A) (A)
                 (A) (A) (A) (A) (A) (A) (A) (A) (A) (A) (A) (A)
                 (A) (A) (A) (A) (A) (A) (A) (A) (A) (A) (A) (A)
                 (A) (A) (A) (A) (A) (A) (A) (A) (A) (A) (A) (A)
                 (A) (A) (A) (A) (A) (A) (A) (A) (A) (A) (A) (A)
                 (A) (A) (A) (A) (A) (A) (A) (A) (A) (A) (A) (A)
                 (A) (A) (A) (A) (A) (A) (A) (A) (A) (A) (A) (A)
                 (A) (A) (A) (A) (A) (A) (A) (A) (A) (A) (A) (A)
                 (A) (A) (A) (A) (A) (A) (A) (A) (A) (A) (A) (A)
                 (A) (A) (A) (A) (A) (A) (A) (A) (A) (A) (A) (A)
                 (A) (A) (A) (A) (A) (A) (A) (A) (A) (A) (A) (A)
                 (A) (A) (A) (A) (A) (A) (A) (A) (A) (A) (A) (A)
                 (A) (A) (A) (A) (A) (A) (A) (A) (A) (A) (A) (A)
                 (A) (A) (A) (A) (A) (A) (A) (A) (A) (A) (A) (A)
                 (A) (A) (A) (A) (A) (A) (A) (A) (A) (A) (A) (A)
                 (A) (A) (A) (A) (A) (A) (A) (A) (A) (A) (A) (A)
                 (A) (A) (A) (A)
 The electronic state of the initial guess is 1-A.
 Requested convergence on RMS density matrix=1.00D-08 within 128 cycles.
 Requested convergence on MAX density matrix=1.00D-06.
 Requested convergence on             energy=1.00D-06.
 No special actions if energy rises.
 Error on total polarization charges =  0.01431
 SCF Done:  E(RmPW1PW91) =  -594.200553541     A.U. after   12 cycles
             Convg  =    0.7873D-08             -V/T =  2.0094
 Range of M.O.s used for correlation:     1   303
 NBasis=   303 NAE=    47 NBE=    47 NFC=     0 NFV=     0
 NROrb=    303 NOA=    47 NOB=    47 NVA=   256 NVB=   256

 **** Warning!!: The largest alpha MO coefficient is  0.77406180D+02

 NEqPCM:  Using equilibrium solvation (IEInf=0, Eps=  78.3553, EpsInf=   1.7778)
          Differentiating once with respect to magnetic field using GIAOs.
          Electric field/nuclear overlap derivatives assumed to be zero.
 FoFCou: FMM=F IPFlag=           0 FMFlag=    10101102 FMFlg1=           0
         NFxFlg=    40000000 DoJE=F BraDBF=F KetDBF=T FulRan=T
         Omega=  0.000000  0.000000  1.000000  0.000000  0.000000 ICntrl=    6100 IOpCl=  0
         NMat0=    1 NMatS0=    1 NMatT0=    0 NMatD0=    1 NMtDS0=    0 NMtDT0=    0
         I1Cent=           7 NGrid=        1775.
 Symmetry not used in FoFCou.
          There are     3 degrees of freedom in the 1st order CPHF.  IDoFFX=0.
      3 vectors produced by pass  0 Test12= 4.01D-13 3.33D-08 XBig12= 2.40D+01 6.43D-01.
 AX will form     3 AO Fock derivatives at one time.
      3 vectors produced by pass  1 Test12= 4.01D-13 3.33D-08 XBig12= 5.74D-02 3.79D-02.
      3 vectors produced by pass  2 Test12= 4.01D-13 3.33D-08 XBig12= 1.29D-04 2.70D-03.
      3 vectors produced by pass  3 Test12= 4.01D-13 3.33D-08 XBig12= 6.34D-07 1.47D-04.
      3 vectors produced by pass  4 Test12= 4.01D-13 3.33D-08 XBig12= 1.81D-09 7.75D-06.
      3 vectors produced by pass  5 Test12= 4.01D-13 3.33D-08 XBig12= 6.18D-12 3.71D-07.
 Inverted reduced A of dimension    18 with in-core refinement.
 Calculating GIAO nuclear magnetic shielding tensors.
 SCF GIAO Magnetic shielding tensor (ppm):
      1  C    Isotropic =   163.4495   Anisotropy =    31.8162
   XX=   181.3219   YX=     2.1670   ZX=    10.5011
   XY=     4.1293   YY=   166.8902   ZY=   -12.7223
   XZ=    13.1969   YZ=   -14.8928   ZZ=   142.1365
   Eigenvalues:   132.9372   172.7511   184.6603
      2  C    Isotropic =   119.2734   Anisotropy =    47.0193
   XX=   115.4097   YX=     3.5096   ZX=    -9.2414
   XY=    -6.9301   YY=   144.7552   ZY=   -17.0304
   XZ=     4.2328   YZ=   -18.1516   ZZ=    97.6553
   Eigenvalues:    91.4556   115.7450   150.6196
      3  N    Isotropic =   192.4960   Anisotropy =    74.9160
   XX=   173.2664   YX=     0.8529   ZX=   -29.0653
   XY=   -28.3372   YY=   228.0811   ZY=   -32.9020
   XZ=   -42.1520   YZ=   -28.4829   ZZ=   176.1405
   Eigenvalues:   129.0553   205.9926   242.4400
      4  C    Isotropic =   138.9549   Anisotropy =    59.1966
   XX=   164.6977   YX=   -23.6338   ZX=     5.8101
   XY=   -14.4095   YY=   144.5893   ZY=   -14.6734
   XZ=    16.6120   YZ=     2.8513   ZZ=   107.5776
   Eigenvalues:   105.2993   133.1460   178.4193
      5  C    Isotropic =   169.3761   Anisotropy =    20.3738
   XX=   179.2710   YX=    -1.3358   ZX=     7.8920
   XY=     4.9721   YY=   179.5025   ZY=    -6.0045
   XZ=    13.3069   YZ=   -10.1149   ZZ=   149.3547
   Eigenvalues:   144.0671   181.1025   182.9586
      6  C    Isotropic =   119.8456   Anisotropy =    35.9911
   XX=   109.9067   YX=   -11.4136   ZX=   -16.3172
   XY=    -7.9889   YY=   119.9641   ZY=     2.9422
   XZ=   -19.3275   YZ=     7.0229   ZZ=   129.6661
   Eigenvalues:    97.7289   117.9683   143.8397
      7  C    Isotropic =   109.3881   Anisotropy =    16.4735
   XX=   107.9478   YX=    10.1785   ZX=     9.6406
   XY=     1.2584   YY=   102.2071   ZY=    -2.5106
   XZ=    -0.6638   YZ=     5.1551   ZZ=   118.0095
   Eigenvalues:    98.5940   109.1999   120.3704
      8  C    Isotropic =   110.0727   Anisotropy =    14.9644
   XX=   114.3592   YX=   -16.3814   ZX=     7.0389
   XY=     3.8245   YY=   102.1787   ZY=    10.9275
   XZ=     4.7531   YZ=    -1.2816   ZZ=   113.6803
   Eigenvalues:    96.7389   113.4304   120.0490
      9  H    Isotropic =    29.6432   Anisotropy =    11.5319
   XX=    32.0053   YX=     1.0435   ZX=    -5.1639
   XY=     0.6195   YY=    25.0083   ZY=    -2.5162
   XZ=    -4.4915   YZ=    -3.0953   ZZ=    31.9159
   Eigenvalues:    23.8874    27.7110    37.3311
     10  H    Isotropic =    29.8846   Anisotropy =     8.1008
   XX=    30.0347   YX=     2.8555   ZX=    -0.0662
   XY=     2.5593   YY=    33.5502   ZY=     1.6670
   XZ=     0.2294   YZ=     1.7834   ZZ=    26.0691
   Eigenvalues:    25.6200    28.7488    35.2852
     11  H    Isotropic =    28.1094   Anisotropy =     7.6904
   XX=    27.4206   YX=     0.4130   ZX=    -0.4505
   XY=     1.0944   YY=    24.2250   ZY=    -2.2953
   XZ=     0.6948   YZ=    -2.1692   ZZ=    32.6826
   Eigenvalues:    23.5234    27.5685    33.2363
     12  H    Isotropic =    28.6642   Anisotropy =    11.8966
   XX=    28.5797   YX=    -3.8419   ZX=    -2.4451
   XY=    -3.0449   YY=    30.5299   ZY=     5.6476
   XZ=    -0.9472   YZ=     5.9941   ZZ=    26.8831
   Eigenvalues:    22.5147    26.8827    36.5953
     13  H    Isotropic =    28.5741   Anisotropy =     9.7660
   XX=    27.6757   YX=    -1.6786   ZX=     0.8883
   XY=    -1.2980   YY=    33.3361   ZY=    -4.1702
   XZ=    -0.1928   YZ=    -3.4401   ZZ=    24.7105
   Eigenvalues:    23.2623    27.3753    35.0848
     14  H    Isotropic =    30.1008   Anisotropy =    12.5437
   XX=    37.2999   YX=    -3.4094   ZX=    -0.1783
   XY=    -3.6931   YY=    27.6138   ZY=    -0.6664
   XZ=     0.0023   YZ=    -0.5428   ZZ=    25.3887
   Eigenvalues:    25.1164    26.7227    38.4633
     15  H    Isotropic =    29.6551   Anisotropy =     8.4616
   XX=    28.0427   YX=    -0.5911   ZX=     1.8897
   XY=    -0.1928   YY=    26.5172   ZY=     1.4201
   XZ=     2.8882   YZ=     0.7456   ZZ=    34.4055
   Eigenvalues:    26.0139    27.6553    35.2962
     16  H    Isotropic =    28.7222   Anisotropy =     5.0623
   XX=    27.9571   YX=     0.5588   ZX=    -1.1445
   XY=    -0.0856   YY=    26.9594   ZY=    -1.7339
   XZ=    -0.2288   YZ=    -2.0638   ZZ=    31.2502
   Eigenvalues:    26.2395    27.8301    32.0971
     17  H    Isotropic =    27.5366   Anisotropy =     5.0772
   XX=    29.8007   YX=    -1.4024   ZX=    -0.7120
   XY=    -0.5655   YY=    25.6782   ZY=     3.2758
   XZ=    -0.3223   YZ=     3.7039   ZZ=    27.1310
   Eigenvalues:    22.8120    28.8764    30.9214
     18  H    Isotropic =    27.8522   Anisotropy =     5.4513
   XX=    27.8756   YX=     0.0095   ZX=     1.9660
   XY=     0.1252   YY=    31.4325   ZY=    -0.9199
   XZ=     2.0109   YZ=    -0.2918   ZZ=    24.2486
   Eigenvalues:    23.3291    28.7412    31.4864
     19  O    Isotropic =   275.7019   Anisotropy =    27.7865
   XX=   289.7383   YX=   -15.5180   ZX=     2.9492
   XY=    -6.1971   YY=   257.3167   ZY=    11.5755
   XZ=    -8.5693   YZ=    -2.1820   ZZ=   280.0507
   Eigenvalues:   253.4993   279.3801   294.2263
     20  H    Isotropic =    26.8406   Anisotropy =    22.4563
   XX=    27.7671   YX=     9.4438   ZX=     2.4767
   XY=     9.1048   YY=    35.0955   ZY=    -4.9668
   XZ=     2.3649   YZ=    -5.7258   ZZ=    17.6594
   Eigenvalues:    13.9693    24.7411    41.8115
     21  O    Isotropic =   279.0508   Anisotropy =    89.7977
   XX=   239.4274   YX=    22.2662   ZX=    20.0348
   XY=    27.1281   YY=   332.4675   ZY=     6.7453
   XZ=    10.2581   YZ=    -4.7441   ZZ=   265.2575
   Eigenvalues:   227.6871   270.5494   338.9160
     22  H    Isotropic =    30.2181   Anisotropy =    19.0434
   XX=    23.4992   YX=     3.5357   ZX=     3.0448
   XY=     1.3191   YY=    41.4247   ZY=     3.6093
   XZ=     3.0826   YZ=     4.5235   ZZ=    25.7304
   Eigenvalues:    21.3472    26.3934    42.9137
     23  C    Isotropic =   129.1073   Anisotropy =    35.4404
   XX=   128.1055   YX=     5.4024   ZX=     9.5999
   XY=     1.6976   YY=   115.7471   ZY=    -7.7834
   XZ=    18.5037   YZ=    -9.7597   ZZ=   143.4694
   Eigenvalues:   109.4704   125.1173   152.7343
     24  H    Isotropic =    27.9414   Anisotropy =     8.6573
   XX=    26.3364   YX=     1.8353   ZX=     1.7109
   XY=     1.8067   YY=    31.0800   ZY=    -3.6775
   XZ=     1.1194   YZ=    -4.8589   ZZ=    26.4079
   Eigenvalues:    22.6180    27.4934    33.7130
     25  H    Isotropic =    28.0326   Anisotropy =     7.6769
   XX=    29.4791   YX=     1.6756   ZX=    -2.7132
   XY=     0.8615   YY=    24.5354   ZY=    -0.3843
   XZ=    -3.7358   YZ=    -0.1609   ZZ=    30.0834
   Eigenvalues:    24.1697    26.7777    33.1505
     26  O    Isotropic =   309.5641   Anisotropy =    27.0932
   XX=   313.5053   YX=     1.9062   ZX=   -21.7640
   XY=    -7.7664   YY=   314.8316   ZY=   -27.1427
   XZ=   -11.9981   YZ=     1.5461   ZZ=   300.3556
   Eigenvalues:   283.8985   317.1676   327.6263
     27  H    Isotropic =    28.5102   Anisotropy =    13.9592
   XX=    32.2599   YX=    -2.6023   ZX=    -3.8488
   XY=    -0.7954   YY=    22.0000   ZY=     5.8852
   XZ=    -4.9322   YZ=     5.1498   ZZ=    31.2709
   Eigenvalues:    19.4204    28.2939    37.8163
 End of Minotr Frequency-dependent properties file   721 does not exist.
 End of Minotr Frequency-dependent properties file   722 does not exist.

 **********************************************************************

            Population analysis using the SCF density.

 **********************************************************************

 Orbital symmetries:
       Occupied  (A) (A) (A) (A) (A) (A) (A) (A) (A) (A) (A) (A)
                 (A) (A) (A) (A) (A) (A) (A) (A) (A) (A) (A) (A)
                 (A) (A) (A) (A) (A) (A) (A) (A) (A) (A) (A) (A)
                 (A) (A) (A) (A) (A) (A) (A) (A) (A) (A) (A)
       Virtual   (A) (A) (A) (A) (A) (A) (A) (A) (A) (A) (A) (A)
                 (A) (A) (A) (A) (A) (A) (A) (A) (A) (A) (A) (A)
                 (A) (A) (A) (A) (A) (A) (A) (A) (A) (A) (A) (A)
                 (A) (A) (A) (A) (A) (A) (A) (A) (A) (A) (A) (A)
                 (A) (A) (A) (A) (A) (A) (A) (A) (A) (A) (A) (A)
                 (A) (A) (A) (A) (A) (A) (A) (A) (A) (A) (A) (A)
                 (A) (A) (A) (A) (A) (A) (A) (A) (A) (A) (A) (A)
                 (A) (A) (A) (A) (A) (A) (A) (A) (A) (A) (A) (A)
                 (A) (A) (A) (A) (A) (A) (A) (A) (A) (A) (A) (A)
                 (A) (A) (A) (A) (A) (A) (A) (A) (A) (A) (A) (A)
                 (A) (A) (A) (A) (A) (A) (A) (A) (A) (A) (A) (A)
                 (A) (A) (A) (A) (A) (A) (A) (A) (A) (A) (A) (A)
                 (A) (A) (A) (A) (A) (A) (A) (A) (A) (A) (A) (A)
                 (A) (A) (A) (A) (A) (A) (A) (A) (A) (A) (A) (A)
                 (A) (A) (A) (A) (A) (A) (A) (A) (A) (A) (A) (A)
                 (A) (A) (A) (A) (A) (A) (A) (A) (A) (A) (A) (A)
                 (A) (A) (A) (A) (A) (A) (A) (A) (A) (A) (A) (A)
                 (A) (A) (A) (A) (A) (A) (A) (A) (A) (A) (A) (A)
                 (A) (A) (A) (A) (A) (A) (A) (A) (A) (A) (A) (A)
                 (A) (A) (A) (A) (A) (A) (A) (A) (A) (A) (A) (A)
                 (A) (A) (A) (A) (A) (A) (A) (A) (A) (A) (A) (A)
                 (A) (A) (A) (A)
 The electronic state is 1-A.
 Alpha  occ. eigenvalues --  -19.26706 -19.25988 -19.24566 -14.41802 -10.30636
 Alpha  occ. eigenvalues --  -10.30228 -10.29905 -10.28459 -10.27557 -10.26940
 Alpha  occ. eigenvalues --  -10.24352 -10.24020  -1.07401  -1.06376  -1.04694
 Alpha  occ. eigenvalues --   -0.96274  -0.82141  -0.78749  -0.75736  -0.71207
 Alpha  occ. eigenvalues --   -0.67516  -0.62077  -0.60140  -0.58422  -0.55020
 Alpha  occ. eigenvalues --   -0.53697  -0.51833  -0.50218  -0.48244  -0.46577
 Alpha  occ. eigenvalues --   -0.46074  -0.45564  -0.43147  -0.41869  -0.41205
 Alpha  occ. eigenvalues --   -0.40137  -0.39154  -0.37574  -0.36235  -0.35613
 Alpha  occ. eigenvalues --   -0.35092  -0.33590  -0.33044  -0.31224  -0.30920
 Alpha  occ. eigenvalues --   -0.27917  -0.24127
 Alpha virt. eigenvalues --    0.00777   0.01545   0.02229   0.02438   0.03485
 Alpha virt. eigenvalues --    0.04013   0.04360   0.04733   0.05325   0.07127
 Alpha virt. eigenvalues --    0.07574   0.07974   0.08516   0.08683   0.09865
 Alpha virt. eigenvalues --    0.10391   0.11178   0.11260   0.12094   0.12680
 Alpha virt. eigenvalues --    0.13036   0.13673   0.14216   0.15321   0.15359
 Alpha virt. eigenvalues --    0.16296   0.16774   0.17431   0.17854   0.18440
 Alpha virt. eigenvalues --    0.18773   0.19032   0.19697   0.20010   0.20729
 Alpha virt. eigenvalues --    0.21248   0.21688   0.22425   0.22803   0.23024
 Alpha virt. eigenvalues --    0.23526   0.24231   0.24443   0.25378   0.26143
 Alpha virt. eigenvalues --    0.26873   0.27359   0.27653   0.28075   0.28850
 Alpha virt. eigenvalues --    0.29376   0.30298   0.30708   0.31035   0.32054
 Alpha virt. eigenvalues --    0.32702   0.33521   0.33794   0.34359   0.34815
 Alpha virt. eigenvalues --    0.35173   0.36378   0.37302   0.37822   0.37968
 Alpha virt. eigenvalues --    0.39200   0.40965   0.41087   0.42085   0.42909
 Alpha virt. eigenvalues --    0.44549   0.44598   0.45054   0.45547   0.47870
 Alpha virt. eigenvalues --    0.53627   0.66142   0.66741   0.67203   0.68320
 Alpha virt. eigenvalues --    0.69882   0.70534   0.71653   0.73745   0.75817
 Alpha virt. eigenvalues --    0.77394   0.77928   0.78856   0.80693   0.81520
 Alpha virt. eigenvalues --    0.83273   0.85119   0.86261   0.87457   0.88674
 Alpha virt. eigenvalues --    0.91101   0.91850   0.93528   0.94423   0.96691
 Alpha virt. eigenvalues --    0.97941   0.99464   1.01713   1.03176   1.04474
 Alpha virt. eigenvalues --    1.04845   1.06619   1.08254   1.10132   1.11086
 Alpha virt. eigenvalues --    1.11560   1.12308   1.13596   1.15140   1.16089
 Alpha virt. eigenvalues --    1.18084   1.18769   1.21037   1.21977   1.24985
 Alpha virt. eigenvalues --    1.27925   1.29670   1.31086   1.31354   1.34113
 Alpha virt. eigenvalues --    1.34766   1.37674   1.38775   1.42536   1.42811
 Alpha virt. eigenvalues --    1.44490   1.45531   1.47598   1.49307   1.51684
 Alpha virt. eigenvalues --    1.53212   1.54826   1.55831   1.60884   1.61697
 Alpha virt. eigenvalues --    1.64551   1.66287   1.69027   1.70203   1.71940
 Alpha virt. eigenvalues --    1.74437   1.76187   1.77122   1.78843   1.79052
 Alpha virt. eigenvalues --    1.80488   1.82197   1.82569   1.84637   1.88365
 Alpha virt. eigenvalues --    1.88552   1.89257   1.89898   1.92516   1.93487
 Alpha virt. eigenvalues --    1.97367   1.98276   2.01315   2.02649   2.03989
 Alpha virt. eigenvalues --    2.06044   2.06784   2.07734   2.10528   2.11651
 Alpha virt. eigenvalues --    2.14554   2.16503   2.17975   2.19572   2.20028
 Alpha virt. eigenvalues --    2.21731   2.24473   2.27248   2.28972   2.29444
 Alpha virt. eigenvalues --    2.31695   2.33021   2.36678   2.37525   2.39775
 Alpha virt. eigenvalues --    2.42888   2.44481   2.47170   2.47325   2.48920
 Alpha virt. eigenvalues --    2.49465   2.51098   2.52461   2.54142   2.56104
 Alpha virt. eigenvalues --    2.57954   2.60121   2.61096   2.62240   2.62819
 Alpha virt. eigenvalues --    2.63199   2.65936   2.67084   2.68633   2.69416
 Alpha virt. eigenvalues --    2.70319   2.72476   2.74629   2.76353   2.76897
 Alpha virt. eigenvalues --    2.79684   2.81677   2.82057   2.83534   2.86453
 Alpha virt. eigenvalues --    2.86839   2.87167   2.88882   2.91240   2.94120
 Alpha virt. eigenvalues --    2.97284   3.00060   3.00441   3.03914   3.06086
 Alpha virt. eigenvalues --    3.06913   3.08130   3.12697   3.18602   3.33016
 Alpha virt. eigenvalues --    3.34663   3.36620   3.39367   3.43090   3.44306
 Alpha virt. eigenvalues --    3.47585   3.49862   3.51087   3.53982   3.56120
 Alpha virt. eigenvalues --    3.57979   3.60691   3.63179   3.69534   4.29771
 Alpha virt. eigenvalues --    4.36957   4.40107   4.49717   4.54079   4.58924
 Alpha virt. eigenvalues --    4.60087   4.71628   4.77907   4.88350   4.95048
 Alpha virt. eigenvalues --    5.00395
          Condensed to atoms (all electrons):
              1          2          3          4          5          6
     1  C    6.107663  -0.741182   0.210844   0.176375  -0.143321  -0.183123
     2  C   -0.741182   8.458886  -0.318510  -0.451814   0.290188  -0.878641
     3  N    0.210844  -0.318510   7.700648   0.199643  -0.276486  -0.272247
     4  C    0.176375  -0.451814   0.199643   5.998659   0.034014  -0.502892
     5  C   -0.143321   0.290188  -0.276486   0.034014   5.660055   0.264592
     6  C   -0.183123  -0.878641  -0.272247  -0.502892   0.264592   8.888320
     7  C    0.038018   0.793442  -0.018411   0.142567  -0.133562  -1.375425
     8  C    0.034290  -1.333575  -0.140959  -0.028791   0.061676   1.182258
     9  H    0.405725  -0.074595   0.011402  -0.001916  -0.034420   0.017619
    10  H    0.447891  -0.132162   0.019510   0.023380  -0.044348   0.001205
    11  H    0.011951   0.285517  -0.031678  -0.026440   0.009181   0.038640
    12  H    0.016299  -0.014672  -0.028794   0.394234  -0.059789   0.004345
    13  H    0.016104   0.020778  -0.055765   0.387841  -0.028713   0.007910
    14  H   -0.015186   0.012109   0.015509  -0.044106   0.358456   0.003072
    15  H   -0.060162  -0.001144   0.008901  -0.073429   0.444155   0.022253
    16  H   -0.005731   0.039123  -0.027897   0.051213  -0.007483   0.196697
    17  H    0.013360   0.001252   0.017160   0.000240  -0.007121  -0.115277
    18  H    0.039079  -0.103811   0.023428   0.007465  -0.005421   0.002704
    19  O    0.014538  -0.055727   0.027212   0.011858  -0.009298   0.000003
    20  H    0.005290  -0.059027   0.020529   0.005658  -0.000181   0.021944
    21  O    0.063650  -0.044787   0.024327  -0.005442  -0.065735  -0.065974
    22  H   -0.001030  -0.008120  -0.001828   0.006723  -0.002026   0.009595
    23  C    0.062427   0.146589   0.077546  -0.060734  -0.063482  -0.837109
    24  H    0.003016  -0.015349  -0.004288   0.014413  -0.002549  -0.055214
    25  H    0.001538   0.013764   0.020617   0.002974  -0.001045  -0.176387
    26  O    0.017195  -0.080548   0.066411   0.037550  -0.012796  -0.276551
    27  H    0.001727   0.029428   0.041189   0.007565  -0.001976  -0.069158
              7          8          9         10         11         12
     1  C    0.038018   0.034290   0.405725   0.447891   0.011951   0.016299
     2  C    0.793442  -1.333575  -0.074595  -0.132162   0.285517  -0.014672
     3  N   -0.018411  -0.140959   0.011402   0.019510  -0.031678  -0.028794
     4  C    0.142567  -0.028791  -0.001916   0.023380  -0.026440   0.394234
     5  C   -0.133562   0.061676  -0.034420  -0.044348   0.009181  -0.059789
     6  C   -1.375425   1.182258   0.017619   0.001205   0.038640   0.004345
     7  C    6.971054  -1.259916  -0.019355  -0.005598   0.001985   0.005245
     8  C   -1.259916   7.343830   0.030523   0.024989  -0.015673  -0.007973
     9  H   -0.019355   0.030523   0.526288  -0.026783  -0.007595   0.001040
    10  H   -0.005598   0.024989  -0.026783   0.522039   0.003677  -0.000043
    11  H    0.001985  -0.015673  -0.007595   0.003677   0.550307   0.001435
    12  H    0.005245  -0.007973   0.001040  -0.000043   0.001435   0.537941
    13  H    0.008447  -0.005582  -0.000126  -0.000130  -0.000142  -0.025389
    14  H    0.003983   0.002992  -0.006149   0.001722   0.000004  -0.003490
    15  H   -0.006816   0.000895   0.003799  -0.007092  -0.000122   0.003908
    16  H    0.070961  -0.014522   0.000003  -0.000031  -0.000257  -0.000008
    17  H    0.348168   0.002139   0.000005  -0.000073  -0.000143   0.000004
    18  H   -0.000724   0.381143   0.000111   0.001388   0.001130   0.000005
    19  O   -0.095840   0.253427  -0.000586   0.001006   0.000341   0.000138
    20  H   -0.010850   0.023775   0.000005  -0.000011  -0.000503   0.000004
    21  O    0.203813  -0.007545   0.000787  -0.001552   0.000519   0.000086
    22  H    0.058289  -0.044720  -0.000011   0.000033  -0.000024  -0.000001
    23  C    0.224869  -0.274318   0.001517  -0.001890   0.005231   0.007953
    24  H    0.019046   0.005480   0.000000   0.000000   0.000005  -0.000033
    25  H    0.002154  -0.013785   0.000000   0.000000  -0.000004   0.000001
    26  O    0.103096   0.031476  -0.000003   0.000023   0.000529   0.000657
    27  H   -0.018482  -0.015279  -0.000001  -0.000002  -0.000345  -0.000089
             13         14         15         16         17         18
     1  C    0.016104  -0.015186  -0.060162  -0.005731   0.013360   0.039079
     2  C    0.020778   0.012109  -0.001144   0.039123   0.001252  -0.103811
     3  N   -0.055765   0.015509   0.008901  -0.027897   0.017160   0.023428
     4  C    0.387841  -0.044106  -0.073429   0.051213   0.000240   0.007465
     5  C   -0.028713   0.358456   0.444155  -0.007483  -0.007121  -0.005421
     6  C    0.007910   0.003072   0.022253   0.196697  -0.115277   0.002704
     7  C    0.008447   0.003983  -0.006816   0.070961   0.348168  -0.000724
     8  C   -0.005582   0.002992   0.000895  -0.014522   0.002139   0.381143
     9  H   -0.000126  -0.006149   0.003799   0.000003   0.000005   0.000111
    10  H   -0.000130   0.001722  -0.007092  -0.000031  -0.000073   0.001388
    11  H   -0.000142   0.000004  -0.000122  -0.000257  -0.000143   0.001130
    12  H   -0.025389  -0.003490   0.003908  -0.000008   0.000004   0.000005
    13  H    0.527208   0.001370  -0.005431   0.001133  -0.000008   0.000007
    14  H    0.001370   0.527107  -0.025549  -0.000127   0.000000  -0.000007
    15  H   -0.005431  -0.025549   0.509278   0.000677   0.000027   0.000019
    16  H    0.001133  -0.000127   0.000677   0.532971   0.000932  -0.000147
    17  H   -0.000008   0.000000   0.000027   0.000932   0.558789  -0.001968
    18  H    0.000007  -0.000007   0.000019  -0.000147  -0.001968   0.544675
    19  O    0.000005   0.000010   0.000006   0.000302  -0.001396  -0.054278
    20  H    0.000001   0.000000   0.000001  -0.000170  -0.000933   0.005735
    21  O    0.000134   0.000163  -0.002123  -0.006436  -0.039445  -0.014416
    22  H    0.000001  -0.000006  -0.000071   0.000522  -0.005603   0.004620
    23  C   -0.016718  -0.000460   0.006154  -0.020189   0.054128  -0.001609
    24  H    0.000263   0.000000  -0.000001  -0.002859   0.000169   0.000002
    25  H   -0.000025   0.000000   0.000000   0.001987   0.001823  -0.000008
    26  O    0.000172   0.000013   0.000027   0.009718  -0.000400   0.000421
    27  H   -0.000041  -0.000001   0.000000   0.000176   0.000117  -0.000050
             19         20         21         22         23         24
     1  C    0.014538   0.005290   0.063650  -0.001030   0.062427   0.003016
     2  C   -0.055727  -0.059027  -0.044787  -0.008120   0.146589  -0.015349
     3  N    0.027212   0.020529   0.024327  -0.001828   0.077546  -0.004288
     4  C    0.011858   0.005658  -0.005442   0.006723  -0.060734   0.014413
     5  C   -0.009298  -0.000181  -0.065735  -0.002026  -0.063482  -0.002549
     6  C    0.000003   0.021944  -0.065974   0.009595  -0.837109  -0.055214
     7  C   -0.095840  -0.010850   0.203813   0.058289   0.224869   0.019046
     8  C    0.253427   0.023775  -0.007545  -0.044720  -0.274318   0.005480
     9  H   -0.000586   0.000005   0.000787  -0.000011   0.001517   0.000000
    10  H    0.001006  -0.000011  -0.001552   0.000033  -0.001890   0.000000
    11  H    0.000341  -0.000503   0.000519  -0.000024   0.005231   0.000005
    12  H    0.000138   0.000004   0.000086  -0.000001   0.007953  -0.000033
    13  H    0.000005   0.000001   0.000134   0.000001  -0.016718   0.000263
    14  H    0.000010   0.000000   0.000163  -0.000006  -0.000460   0.000000
    15  H    0.000006   0.000001  -0.002123  -0.000071   0.006154  -0.000001
    16  H    0.000302  -0.000170  -0.006436   0.000522  -0.020189  -0.002859
    17  H   -0.001396  -0.000933  -0.039445  -0.005603   0.054128   0.000169
    18  H   -0.054278   0.005735  -0.014416   0.004620  -0.001609   0.000002
    19  O    8.283603   0.226583   0.005184  -0.000305  -0.014454  -0.000894
    20  H    0.226583   0.326040  -0.000592   0.000048  -0.019372   0.000552
    21  O    0.005184  -0.000592   8.238480   0.229111   0.023596  -0.000449
    22  H   -0.000305   0.000048   0.229111   0.381779  -0.005307   0.000005
    23  C   -0.014454  -0.019372   0.023596  -0.005307   5.855930   0.402340
    24  H   -0.000894   0.000552  -0.000449   0.000005   0.402340   0.553538
    25  H    0.000857  -0.000475   0.000346  -0.000012   0.526155  -0.032107
    26  O   -0.022430   0.052028  -0.001746   0.000150   0.206748  -0.045749
    27  H   -0.001569  -0.008375  -0.000049   0.000000   0.034274  -0.006090
             25         26         27
     1  C    0.001538   0.017195   0.001727
     2  C    0.013764  -0.080548   0.029428
     3  N    0.020617   0.066411   0.041189
     4  C    0.002974   0.037550   0.007565
     5  C   -0.001045  -0.012796  -0.001976
     6  C   -0.176387  -0.276551  -0.069158
     7  C    0.002154   0.103096  -0.018482
     8  C   -0.013785   0.031476  -0.015279
     9  H    0.000000  -0.000003  -0.000001
    10  H    0.000000   0.000023  -0.000002
    11  H   -0.000004   0.000529  -0.000345
    12  H    0.000001   0.000657  -0.000089
    13  H   -0.000025   0.000172  -0.000041
    14  H    0.000000   0.000013  -0.000001
    15  H    0.000000   0.000027   0.000000
    16  H    0.001987   0.009718   0.000176
    17  H    0.001823  -0.000400   0.000117
    18  H   -0.000008   0.000421  -0.000050
    19  O    0.000857  -0.022430  -0.001569
    20  H   -0.000475   0.052028  -0.008375
    21  O    0.000346  -0.001746  -0.000049
    22  H   -0.000012   0.000150   0.000000
    23  C    0.526155   0.206748   0.034274
    24  H   -0.032107  -0.045749  -0.006090
    25  H    0.527313  -0.055739   0.006622
    26  O   -0.055739   8.290616   0.251806
    27  H    0.006622   0.251806   0.339127
 Mulliken atomic charges:
              1
     1  C   -0.537244
     2  C    0.222590
     3  N   -0.308014
     4  C   -0.306808
     5  C   -0.222564
     6  C    0.146841
     7  C   -0.050157
     8  C   -0.216257
     9  H    0.172714
    10  H    0.172855
    11  H    0.172477
    12  H    0.166986
    13  H    0.166696
    14  H    0.168571
    15  H    0.181842
    16  H    0.179444
    17  H    0.174053
    18  H    0.170508
    19  O   -0.568296
    20  H    0.412295
    21  O   -0.533903
    22  H    0.378190
    23  C   -0.319814
    24  H    0.166754
    25  H    0.173437
    26  O   -0.572671
    27  H    0.409474
 Sum of Mulliken atomic charges =   0.00000
 Mulliken charges with hydrogens summed into heavy atoms:
              1
     1  C   -0.191675
     2  C    0.395067
     3  N   -0.308014
     4  C    0.026874
     5  C    0.127848
     6  C    0.326284
     7  C    0.123896
     8  C   -0.045749
    19  O   -0.156001
    21  O   -0.155713
    23  C    0.020377
    26  O   -0.163196
 Sum of Mulliken charges with hydrogens summed into heavy atoms =   0.00000
 Electronic spatial extent (au):  <R**2>=           1835.9139
 Charge=              0.0000 electrons
 Dipole moment (field-independent basis, Debye):
    X=              2.7933    Y=             -0.9786    Z=              1.7941  Tot=              3.4611
 Quadrupole moment (field-independent basis, Debye-Ang):
   XX=            -79.0362   YY=            -68.4557   ZZ=            -75.8119
   XY=              2.7653   XZ=             -7.5729   YZ=              3.9519
 Traceless Quadrupole moment (field-independent basis, Debye-Ang):
   XX=             -4.6016   YY=              5.9789   ZZ=             -1.3773
   XY=              2.7653   XZ=             -7.5729   YZ=              3.9519
 Octapole moment (field-independent basis, Debye-Ang**2):
  XXX=             16.3468  YYY=             11.4344  ZZZ=             -6.0790  XYY=              9.9811
  XXY=             -2.2711  XXZ=              9.8066  XZZ=             -4.9723  YZZ=             -6.3801
  YYZ=             21.3385  XYZ=             -4.5346
 Hexadecapole moment (field-independent basis, Debye-Ang**3):
 XXXX=          -1269.7540 YYYY=           -636.2411 ZZZZ=           -511.8538 XXXY=            -21.5407
 XXXZ=            -29.3189 YYYX=             35.2326 YYYZ=             50.2415 ZZZX=             -0.7247
 ZZZY=             20.8905 XXYY=           -331.1536 XXZZ=           -274.2305 YYZZ=           -184.9441
 XXYZ=              8.6336 YYXZ=             -8.1123 ZZXY=             15.3533
 N-N= 8.256897783946D+02 E-N=-3.037159209684D+03  KE= 5.886639724560D+02
 1\1\GINC-COMPUTE-3-0\SP\RmPW1PW91\6-31+G(d,p)\C8H15N1O3\MAMICHETTI.IQU
 IR\17-May-2024\0\\# mpw1pw91/6-31+G** nmr scrf=(pcm,solvent=water)\\co
 mment\\0,1\C,0,2.181167,0.572778,-0.724103\C,0,0.664945,0.3671,-1.0388
 69\N,0,0.260819,-0.931122,-0.410724\C,0,1.513804,-1.675036,-0.179033\C
 ,0,2.577268,-0.622457,0.165943\C,0,-0.539822,-0.637201,0.815797\C,0,-0
 .597846,0.896746,0.955978\C,0,-0.297842,1.42067,-0.462165\H,0,2.753276
 ,0.567616,-1.657923\H,0,2.369503,1.53243,-0.233769\H,0,0.517068,0.3152
 49,-2.122673\H,0,1.788381,-2.1966,-1.105569\H,0,1.367981,-2.436163,0.5
 92851\H,0,3.595731,-0.977051,-0.022921\H,0,2.50574,-0.352922,1.224851\
 H,0,-0.064011,-1.051839,1.712361\H,0,-1.580543,1.247295,1.296837\H,0,0
 .159066,2.414257,-0.431862\O,0,-1.495395,1.561202,-1.230825\H,0,-2.022
 06,0.742782,-1.09204\O,0,0.413316,1.286513,1.893953\H,0,0.437527,2.258
 619,1.900022\C,0,-1.920499,-1.290397,0.677189\H,0,-1.826961,-2.378615,
 0.785504\H,0,-2.607375,-0.926873,1.446544\O,0,-2.523334,-0.989956,-0.5
 92694\H,0,-1.862793,-1.295628,-1.245038\\Version=AM64L-G09RevC.01\Stat
 e=1-A\HF=-594.2005535\RMSD=7.873e-09\Dipole=1.0989861,-0.3850268,0.705
 8505\Quadrupole=-3.4211721,4.4451753,-1.0240032,2.0559453,-5.6302858,2
 .9381096\PG=C01 [X(C8H15N1O3)]\\@


 ALTHOUGH J.J. COULD DIAGNOSE THE FAULTS OF AN
 APPARATUS WITH UNCANNY ACCURACY, IT WAS JUST AS
 WELL NOT TO LET HIM HANDLE IT.
   -- GEORGE THOMPSON, ABOUT HIS FATHER
 Job cpu time:  0 days  0 hours  8 minutes 50.2 seconds.
 File lengths (MBytes):  RWF=    110 Int=      0 D2E=      0 Chk=      7 Scr=      1
 Normal termination of Gaussian 09 at Fri May 17 12:36:34 2024.
