 Entering Gaussian System, Link 0=g09
 Input=/home/mamichetti.iquir/Linux/02_Cardona_A1A3_R__R_R_R_044_OptB.gjc
 Output=/home/mamichetti.iquir/Linux/02_Cardona_A1A3_R__R_R_R_044_OptB.log
 Initial command:
 /opt/ohpc/pub/apps/software/Gaussian/09/AMD64.SSE4a-enabled/g09/l1.exe /local/mamichetti.iquir/Gau-714432.inp -scrdir=/local/mamichetti.iquir/
 Entering Link 1 = /opt/ohpc/pub/apps/software/Gaussian/09/AMD64.SSE4a-enabled/g09/l1.exe PID=    714433.
  
 Copyright (c) 1988,1990,1992,1993,1995,1998,2003,2009,2011,
            Gaussian, Inc.  All Rights Reserved.
  
 This is part of the Gaussian(R) 09 program.  It is based on
 the Gaussian(R) 03 system (copyright 2003, Gaussian, Inc.),
 the Gaussian(R) 98 system (copyright 1998, Gaussian, Inc.),
 the Gaussian(R) 94 system (copyright 1995, Gaussian, Inc.),
 the Gaussian 92(TM) system (copyright 1992, Gaussian, Inc.),
 the Gaussian 90(TM) system (copyright 1990, Gaussian, Inc.),
 the Gaussian 88(TM) system (copyright 1988, Gaussian, Inc.),
 the Gaussian 86(TM) system (copyright 1986, Carnegie Mellon
 University), and the Gaussian 82(TM) system (copyright 1983,
 Carnegie Mellon University). Gaussian is a federally registered
 trademark of Gaussian, Inc.
  
 This software contains proprietary and confidential information,
 including trade secrets, belonging to Gaussian, Inc.
  
 This software is provided under written license and may be
 used, copied, transmitted, or stored only in accord with that
 written license.
  
 The following legend is applicable only to US Government
 contracts under FAR:
  
                    RESTRICTED RIGHTS LEGEND
  
 Use, reproduction and disclosure by the US Government is
 subject to restrictions as set forth in subparagraphs (a)
 and (c) of the Commercial Computer Software - Restricted
 Rights clause in FAR 52.227-19.
  
 Gaussian, Inc.
 340 Quinnipiac St., Bldg. 40, Wallingford CT 06492
  
  
 ---------------------------------------------------------------
 Warning -- This program may not be used in any manner that
 competes with the business of Gaussian, Inc. or will provide
 assistance to any competitor of Gaussian, Inc.  The licensee
 of this program is prohibited from giving any competitor of
 Gaussian, Inc. access to this program.  By using this program,
 the user acknowledges that Gaussian, Inc. is engaged in the
 business of creating and licensing software in the field of
 computational chemistry and represents and warrants to the
 licensee that it is not a competitor of Gaussian, Inc. and that
 it will not use this program in any manner prohibited above.
 ---------------------------------------------------------------
  

 Cite this work as:
 Gaussian 09, Revision C.01,
 M. J. Frisch, G. W. Trucks, H. B. Schlegel, G. E. Scuseria, 
 M. A. Robb, J. R. Cheeseman, G. Scalmani, V. Barone, B. Mennucci, 
 G. A. Petersson, H. Nakatsuji, M. Caricato, X. Li, H. P. Hratchian, 
 A. F. Izmaylov, J. Bloino, G. Zheng, J. L. Sonnenberg, M. Hada, 
 M. Ehara, K. Toyota, R. Fukuda, J. Hasegawa, M. Ishida, T. Nakajima, 
 Y. Honda, O. Kitao, H. Nakai, T. Vreven, J. A. Montgomery, Jr., 
 J. E. Peralta, F. Ogliaro, M. Bearpark, J. J. Heyd, E. Brothers, 
 K. N. Kudin, V. N. Staroverov, T. Keith, R. Kobayashi, J. Normand, 
 K. Raghavachari, A. Rendell, J. C. Burant, S. S. Iyengar, J. Tomasi, 
 M. Cossi, N. Rega, J. M. Millam, M. Klene, J. E. Knox, J. B. Cross, 
 V. Bakken, C. Adamo, J. Jaramillo, R. Gomperts, R. E. Stratmann, 
 O. Yazyev, A. J. Austin, R. Cammi, C. Pomelli, J. W. Ochterski, 
 R. L. Martin, K. Morokuma, V. G. Zakrzewski, G. A. Voth, 
 P. Salvador, J. J. Dannenberg, S. Dapprich, A. D. Daniels, 
 O. Farkas, J. B. Foresman, J. V. Ortiz, J. Cioslowski, 
 and D. J. Fox, Gaussian, Inc., Wallingford CT, 2010.
 
 ******************************************
 Gaussian 09:  AM64L-G09RevC.01 23-Sep-2011
                17-May-2024 
 ******************************************
 %nprocshared=4
 Will use up to    4 processors via shared memory.
 ------------------------------------------------
 # mpw1pw91/6-31+G** nmr scrf=(pcm,solvent=water)
 ------------------------------------------------
 1/38=1/1;
 2/12=2,17=6,18=5,40=1/2;
 3/5=1,6=6,7=111,11=2,16=1,25=1,30=1,70=2201,72=1,74=-7/1,2,8,3;
 4//1;
 5/5=2,38=5,53=1/2;
 8/6=1,10=90,11=11/1;
 10/13=100,45=16/2;
 6/7=2,8=2,9=2,10=2,28=1/1;
 99/9=1/99;
 -------
 comment
 -------
 Charge =  0 Multiplicity = 1
 Symbolic Z-Matrix:
 6                     2.64622  -0.03084   0.11486 
 6                     1.34293   0.37591  -0.6042 
 7                     0.48863  -0.86809  -0.68725 
 6                     1.26765  -1.96555  -0.06796 
 6                     2.25399  -1.29421   0.89508 
 6                    -0.78103  -0.58318   0.01241 
 6                    -0.93609   0.93369  -0.14247 
 6                     0.48694   1.42829   0.11235 
 1                     3.42178  -0.27236  -0.62122 
 1                     3.02891   0.77625   0.74812 
 1                     1.55591   0.75374  -1.61136 
 1                     1.81658  -2.50981  -0.84761 
 1                     0.59477  -2.67951   0.41598 
 1                     3.10914  -1.93034   1.14534 
 1                     1.74642  -1.02763   1.83061 
 1                    -0.71339  -0.80612   1.0927 
 1                    -1.22354   1.18136  -1.17063 
 1                     0.67216   1.40181   1.19806 
 8                     0.77385   2.72754  -0.39874 
 1                     0.20749   3.35206   0.08551 
 8                    -1.95246   1.51518   0.67942 
 1                    -1.72887   1.31427   1.60617 
 6                    -1.97143  -1.36329  -0.54122 
 1                    -2.11757  -1.11225  -1.60312 
 1                    -1.79363  -2.44228  -0.47474 
 8                    -3.1571   -1.09269   0.21635 
 1                    -3.16604  -0.12773   0.36763 
 
                          Input orientation:                          
 ---------------------------------------------------------------------
 Center     Atomic      Atomic             Coordinates (Angstroms)
 Number     Number       Type             X           Y           Z
 ---------------------------------------------------------------------
      1          6           0        2.646221   -0.030838    0.114858
      2          6           0        1.342934    0.375909   -0.604200
      3          7           0        0.488632   -0.868091   -0.687246
      4          6           0        1.267652   -1.965549   -0.067957
      5          6           0        2.253988   -1.294209    0.895082
      6          6           0       -0.781029   -0.583182    0.012405
      7          6           0       -0.936092    0.933691   -0.142465
      8          6           0        0.486935    1.428291    0.112346
      9          1           0        3.421776   -0.272364   -0.621218
     10          1           0        3.028910    0.776249    0.748119
     11          1           0        1.555912    0.753738   -1.611361
     12          1           0        1.816583   -2.509813   -0.847613
     13          1           0        0.594769   -2.679513    0.415975
     14          1           0        3.109142   -1.930336    1.145337
     15          1           0        1.746418   -1.027629    1.830606
     16          1           0       -0.713388   -0.806117    1.092704
     17          1           0       -1.223535    1.181357   -1.170630
     18          1           0        0.672164    1.401810    1.198062
     19          8           0        0.773852    2.727540   -0.398739
     20          1           0        0.207491    3.352061    0.085513
     21          8           0       -1.952457    1.515182    0.679420
     22          1           0       -1.728868    1.314273    1.606171
     23          6           0       -1.971434   -1.363290   -0.541224
     24          1           0       -2.117569   -1.112248   -1.603121
     25          1           0       -1.793634   -2.442281   -0.474736
     26          8           0       -3.157096   -1.092693    0.216345
     27          1           0       -3.166040   -0.127729    0.367628
 ---------------------------------------------------------------------
                    Distance matrix (angstroms):
                    1          2          3          4          5
     1  C    0.000000
     2  C    1.543063   0.000000
     3  N    2.449399   1.511378   0.000000
     4  C    2.382641   2.403258   1.481487   0.000000
     5  C    1.535807   2.422222   2.408697   1.533297   0.000000
     6  C    3.472985   2.410659   1.477404   2.472750   3.239754
     7  C    3.718803   2.391292   2.360729   3.642476   4.026991
     8  C    2.606066   1.534171   2.431609   3.487145   3.338736
     9  H    1.096188   2.177644   2.993758   2.795214   2.169576
    10  H    1.094925   2.198080   3.349200   3.359385   2.215603
    11  H    2.187273   1.096580   2.150210   3.140018   3.311141
    12  H    2.785672   2.934448   2.117646   1.097913   2.169332
    13  H    3.363719   3.306979   2.123585   1.093941   2.213960
    14  H    2.210040   3.391038   3.369540   2.205540   1.094794
    15  H    2.178768   2.839190   2.819052   2.171049   1.097223
    16  H    3.583882   2.916355   2.148701   2.572146   3.013737
    17  H    4.254046   2.748882   2.713929   4.162321   4.742231
    18  H    2.668841   2.179576   2.956437   3.646439   3.140459
    19  O    3.373158   2.428217   3.618446   4.730575   4.476521
    20  H    4.170404   3.259205   4.299521   5.424433   5.141145
    21  O    4.884337   3.715538   3.675144   4.800329   5.062941
    22  H    4.814015   3.899004   3.865201   4.747533   4.813831
    23  C    4.850630   3.743503   2.513657   3.328419   4.463400
    24  H    5.178281   3.897119   2.773215   3.813735   5.038317
    25  H    5.086747   4.218651   2.780643   3.124774   4.424671
    26  O    5.900536   4.804202   3.762746   4.518971   5.457208
    27  H    5.818562   4.639930   3.875245   4.819226   5.569164
                    6          7          8          9         10
     6  C    0.000000
     7  C    1.532623   0.000000
     8  C    2.379862   1.527928   0.000000
     9  H    4.261649   4.546954   3.470394   0.000000
    10  H    4.111565   4.066838   2.700186   1.768903   0.000000
    11  H    3.144084   2.898296   2.137498   2.348343   2.781614
    12  H    3.346510   4.464546   4.265929   2.762983   3.848935
    13  H    2.539743   3.963664   4.120421   3.855140   4.240006
    14  H    4.269870   5.121035   4.384452   2.442811   2.736754
    15  H    3.145056   3.864666   3.251193   3.064097   2.463847
    16  H    1.105134   2.145267   2.719275   4.507993   4.077673
    17  H    2.170019   1.095940   2.152373   4.898374   4.682841
    18  H    2.730887   2.145375   1.101721   3.697703   2.479522
    19  O    3.680703   2.491481   1.425334   4.007546   3.195013
    20  H    4.058159   2.684822   1.944145   4.895667   3.877404
    21  O    2.494050   1.430603   2.505944   5.811141   5.036344
    22  H    2.653078   1.957310   2.674752   5.831622   4.864378
    23  C    1.527134   2.550895   3.776726   5.503020   5.589586
    24  H    2.162446   2.777638   4.022512   5.688047   5.964981
    25  H    2.172309   3.498995   4.530672   5.650708   5.925474
    26  O    2.438624   3.027843   4.432284   6.682515   6.484011
    27  H    2.453956   2.521800   3.978768   6.663187   6.272109
                   11         12         13         14         15
    11  H    0.000000
    12  H    3.361849   0.000000
    13  H    4.101353   1.765866   0.000000
    14  H    4.149236   2.445067   2.723106   0.000000
    15  H    3.880296   3.061805   2.460934   1.772425   0.000000
    16  H    3.859383   3.614991   2.383034   3.984768   2.577637
    17  H    2.846476   4.792848   4.553006   5.815361   4.765255
    18  H    3.015604   4.560184   4.156302   4.128540   2.730624
    19  O    2.444988   5.358978   5.471019   5.434479   4.474054
    20  H    3.383623   6.149916   6.053022   6.119356   4.959368
    21  O    4.258653   5.721720   4.914594   6.140721   4.633875
    22  H    4.632115   5.763238   4.771392   5.843475   4.196724
    23  C    4.250785   3.969567   3.038761   5.383148   4.422745
    24  H    4.120247   4.242821   3.726908   5.961694   5.169917
    25  H    4.767170   3.630050   2.560100   5.188828   4.455088
    26  O    5.381660   5.279935   4.078522   6.389868   5.162802
    27  H    5.195211   5.654880   4.545066   6.575115   5.204072
                   16         17         18         19         20
    16  H    0.000000
    17  H    3.054993   0.000000
    18  H    2.608792   3.041870   0.000000
    19  O    4.113759   2.641222   2.077901   0.000000
    20  H    4.376402   2.887505   2.292851   0.972261   0.000000
    21  O    2.663555   2.016296   2.677775   3.172538   2.896934
    22  H    2.406429   2.825536   2.437041   3.504368   3.196008
    23  C    2.136081   2.725937   4.202321   4.928670   5.232117
    24  H    3.054982   2.499394   4.685053   4.955282   5.309185
    25  H    2.510146   3.733635   4.863687   5.772764   6.155711
    26  O    2.611865   3.291453   4.674350   5.515874   5.576146
    27  H    2.646025   2.802369   4.214371   4.925711   4.854816
                   21         22         23         24         25
    21  O    0.000000
    22  H    0.974281   0.000000
    23  C    3.126649   3.440856   0.000000
    24  H    3.484343   4.042109   1.100910   0.000000
    25  H    4.125387   4.294888   1.095562   1.774028   0.000000
    26  O    2.909743   3.124890   1.432804   2.095580   2.039120
    27  H    2.066193   2.383028   1.944147   2.439758   2.819615
                   26         27
    26  O    0.000000
    27  H    0.976792   0.000000
 Stoichiometry    C8H15NO3
 Framework group  C1[X(C8H15NO3)]
 Deg. of freedom    75
 Full point group                 C1      NOp   1
 Largest Abelian subgroup         C1      NOp   1
 Largest concise Abelian subgroup C1      NOp   1
                         Standard orientation:                         
 ---------------------------------------------------------------------
 Center     Atomic      Atomic             Coordinates (Angstroms)
 Number     Number       Type             X           Y           Z
 ---------------------------------------------------------------------
      1          6           0        2.646221   -0.030838    0.114858
      2          6           0        1.342934    0.375909   -0.604200
      3          7           0        0.488632   -0.868091   -0.687246
      4          6           0        1.267652   -1.965549   -0.067957
      5          6           0        2.253988   -1.294209    0.895082
      6          6           0       -0.781029   -0.583182    0.012405
      7          6           0       -0.936092    0.933691   -0.142465
      8          6           0        0.486935    1.428291    0.112346
      9          1           0        3.421776   -0.272364   -0.621218
     10          1           0        3.028910    0.776249    0.748119
     11          1           0        1.555912    0.753738   -1.611361
     12          1           0        1.816583   -2.509813   -0.847613
     13          1           0        0.594769   -2.679513    0.415975
     14          1           0        3.109142   -1.930336    1.145337
     15          1           0        1.746418   -1.027629    1.830606
     16          1           0       -0.713388   -0.806117    1.092704
     17          1           0       -1.223535    1.181357   -1.170630
     18          1           0        0.672164    1.401810    1.198062
     19          8           0        0.773852    2.727540   -0.398739
     20          1           0        0.207491    3.352061    0.085513
     21          8           0       -1.952457    1.515182    0.679420
     22          1           0       -1.728868    1.314273    1.606171
     23          6           0       -1.971434   -1.363290   -0.541224
     24          1           0       -2.117569   -1.112248   -1.603121
     25          1           0       -1.793634   -2.442281   -0.474736
     26          8           0       -3.157096   -1.092693    0.216345
     27          1           0       -3.166040   -0.127729    0.367628
 ---------------------------------------------------------------------
 Rotational constants (GHZ):      1.2245097      0.8365936      0.5561986
 Standard basis: 6-31+G(d,p) (6D, 7F)
 There are   303 symmetry adapted basis functions of A   symmetry.
 Integral buffers will be    131072 words long.
 Raffenetti 2 integral format.
 Two-electron integral symmetry is turned on.
   303 basis functions,   489 primitive gaussians,   303 cartesian basis functions
    47 alpha electrons       47 beta electrons
       nuclear repulsion energy       801.2870250899 Hartrees.
 NAtoms=   27 NActive=   27 NUniq=   27 SFac= 1.00D+00 NAtFMM=   60 NAOKFM=F Big=F
 ------------------------------------------------------------------------------
 Polarizable Continuum Model (PCM)
 =================================
 Model                : PCM.
 Atomic radii         : UFF (Universal Force Field).
 Polarization charges : Total charges.
 Charge compensation  : None.
 Solution method      : Matrix inversion.
 Cavity type          : Scaled VdW (van der Waals Surface) (Alpha=1.100).
 Cavity algorithm     : GePol (No added spheres)
                        Default sphere list used, NSphG=   27.
                        Lebedev-Laikov grids with approx.  5.0 points / Ang**2.
                        Smoothing algorithm: Karplus/York (Gamma=1.0000).
                        Polarization charges: spherical gaussians, with
                                              point-specific exponents (IZeta= 3).
                        Self-potential: point-specific (ISelfS= 7).
                        Self-field    : sphere-specific E.n sum rule (ISelfD= 2).
 Solvent              : Water, Eps=  78.355300 Eps(inf)=   1.777849
 ------------------------------------------------------------------------------
 One-electron integrals computed using PRISM.
 NBasis=   303 RedAO= T  NBF=   303
 NBsUse=   303 1.00D-06 NBFU=   303
 Harris functional with IExCor=  908 diagonalized for initial guess.
 ExpMin= 4.38D-02 ExpMax= 5.48D+03 ExpMxC= 8.25D+02 IAcc=2 IRadAn=         4 AccDes= 0.00D+00
 HarFok:  IExCor=  908 AccDes= 0.00D+00 IRadAn=         4 IDoV= 1
 ScaDFX=  1.000000  1.000000  1.000000  1.000000
 FoFCou: FMM=F IPFlag=           0 FMFlag=      100000 FMFlg1=           0
         NFxFlg=           0 DoJE=T BraDBF=F KetDBF=T FulRan=T
         Omega=  0.000000  0.000000  1.000000  0.000000  0.000000 ICntrl=     500 IOpCl=  0
         NMat0=    1 NMatS0=    1 NMatT0=    0 NMatD0=    1 NMtDS0=    0 NMtDT0=    0
         I1Cent=           4 NGrid=           0.
 Petite list used in FoFCou.
 Initial guess orbital symmetries:
       Occupied  (A) (A) (A) (A) (A) (A) (A) (A) (A) (A) (A) (A)
                 (A) (A) (A) (A) (A) (A) (A) (A) (A) (A) (A) (A)
                 (A) (A) (A) (A) (A) (A) (A) (A) (A) (A) (A) (A)
                 (A) (A) (A) (A) (A) (A) (A) (A) (A) (A) (A)
       Virtual   (A) (A) (A) (A) (A) (A) (A) (A) (A) (A) (A) (A)
                 (A) (A) (A) (A) (A) (A) (A) (A) (A) (A) (A) (A)
                 (A) (A) (A) (A) (A) (A) (A) (A) (A) (A) (A) (A)
                 (A) (A) (A) (A) (A) (A) (A) (A) (A) (A) (A) (A)
                 (A) (A) (A) (A) (A) (A) (A) (A) (A) (A) (A) (A)
                 (A) (A) (A) (A) (A) (A) (A) (A) (A) (A) (A) (A)
                 (A) (A) (A) (A) (A) (A) (A) (A) (A) (A) (A) (A)
                 (A) (A) (A) (A) (A) (A) (A) (A) (A) (A) (A) (A)
                 (A) (A) (A) (A) (A) (A) (A) (A) (A) (A) (A) (A)
                 (A) (A) (A) (A) (A) (A) (A) (A) (A) (A) (A) (A)
                 (A) (A) (A) (A) (A) (A) (A) (A) (A) (A) (A) (A)
                 (A) (A) (A) (A) (A) (A) (A) (A) (A) (A) (A) (A)
                 (A) (A) (A) (A) (A) (A) (A) (A) (A) (A) (A) (A)
                 (A) (A) (A) (A) (A) (A) (A) (A) (A) (A) (A) (A)
                 (A) (A) (A) (A) (A) (A) (A) (A) (A) (A) (A) (A)
                 (A) (A) (A) (A) (A) (A) (A) (A) (A) (A) (A) (A)
                 (A) (A) (A) (A) (A) (A) (A) (A) (A) (A) (A) (A)
                 (A) (A) (A) (A) (A) (A) (A) (A) (A) (A) (A) (A)
                 (A) (A) (A) (A) (A) (A) (A) (A) (A) (A) (A) (A)
                 (A) (A) (A) (A) (A) (A) (A) (A) (A) (A) (A) (A)
                 (A) (A) (A) (A) (A) (A) (A) (A) (A) (A) (A) (A)
                 (A) (A) (A) (A)
 The electronic state of the initial guess is 1-A.
 Requested convergence on RMS density matrix=1.00D-08 within 128 cycles.
 Requested convergence on MAX density matrix=1.00D-06.
 Requested convergence on             energy=1.00D-06.
 No special actions if energy rises.
 Error on total polarization charges =  0.01467
 SCF Done:  E(RmPW1PW91) =  -594.199652569     A.U. after   13 cycles
             Convg  =    0.6681D-08             -V/T =  2.0094
 Range of M.O.s used for correlation:     1   303
 NBasis=   303 NAE=    47 NBE=    47 NFC=     0 NFV=     0
 NROrb=    303 NOA=    47 NOB=    47 NVA=   256 NVB=   256

 **** Warning!!: The largest alpha MO coefficient is  0.53032800D+02

 NEqPCM:  Using equilibrium solvation (IEInf=0, Eps=  78.3553, EpsInf=   1.7778)
          Differentiating once with respect to magnetic field using GIAOs.
          Electric field/nuclear overlap derivatives assumed to be zero.
 FoFCou: FMM=F IPFlag=           0 FMFlag=    10101102 FMFlg1=           0
         NFxFlg=    40000000 DoJE=F BraDBF=F KetDBF=T FulRan=T
         Omega=  0.000000  0.000000  1.000000  0.000000  0.000000 ICntrl=    6100 IOpCl=  0
         NMat0=    1 NMatS0=    1 NMatT0=    0 NMatD0=    1 NMtDS0=    0 NMtDT0=    0
         I1Cent=           7 NGrid=        1819.
 Symmetry not used in FoFCou.
          There are     3 degrees of freedom in the 1st order CPHF.  IDoFFX=0.
      3 vectors produced by pass  0 Test12= 4.01D-13 3.33D-08 XBig12= 3.47D+01 9.72D-01.
 AX will form     3 AO Fock derivatives at one time.
      3 vectors produced by pass  1 Test12= 4.01D-13 3.33D-08 XBig12= 9.17D-02 4.97D-02.
      3 vectors produced by pass  2 Test12= 4.01D-13 3.33D-08 XBig12= 1.96D-04 2.57D-03.
      3 vectors produced by pass  3 Test12= 4.01D-13 3.33D-08 XBig12= 8.84D-07 1.72D-04.
      3 vectors produced by pass  4 Test12= 4.01D-13 3.33D-08 XBig12= 3.22D-09 1.31D-05.
      3 vectors produced by pass  5 Test12= 4.01D-13 3.33D-08 XBig12= 9.33D-12 4.89D-07.
 Inverted reduced A of dimension    18 with in-core refinement.
 Calculating GIAO nuclear magnetic shielding tensors.
 SCF GIAO Magnetic shielding tensor (ppm):
      1  C    Isotropic =   163.0651   Anisotropy =    24.7847
   XX=   170.1695   YX=     3.7328   ZX=    15.8317
   XY=    -2.5736   YY=   166.0491   ZY=    -4.2658
   XZ=    11.5031   YZ=   -16.5514   ZZ=   152.9766
   Eigenvalues:   141.7157   167.8913   179.5882
      2  C    Isotropic =   128.2594   Anisotropy =    55.1674
   XX=   124.7100   YX=    10.8893   ZX=    12.3472
   XY=    18.6106   YY=   159.5298   ZY=    -1.9247
   XZ=     0.2068   YZ=     2.6917   ZZ=   100.5383
   Eigenvalues:    98.8215   120.9190   165.0377
      3  N    Isotropic =   201.2848   Anisotropy =    65.9116
   XX=   237.7996   YX=    17.6326   ZX=     5.6170
   XY=     6.2664   YY=   225.9238   ZY=   -15.7254
   XZ=     3.3886   YZ=    -4.2761   ZZ=   140.1308
   Eigenvalues:   138.6316   219.9968   245.2258
      4  C    Isotropic =   141.7781   Anisotropy =    52.6079
   XX=   139.4376   YX=   -21.1624   ZX=    12.5323
   XY=   -12.1858   YY=   156.3026   ZY=   -17.3241
   XZ=    27.0894   YZ=    -8.9361   ZZ=   129.5941
   Eigenvalues:   114.1026   134.3817   176.8500
      5  C    Isotropic =   171.3604   Anisotropy =    20.0564
   XX=   169.1193   YX=     5.4480   ZX=    14.3181
   XY=     5.0656   YY=   182.6801   ZY=    -3.6888
   XZ=    19.7341   YZ=    -9.8665   ZZ=   162.2818
   Eigenvalues:   146.3129   183.0369   184.7313
      6  C    Isotropic =   128.5749   Anisotropy =    47.0733
   XX=   142.7173   YX=   -20.0300   ZX=   -15.6025
   XY=    -1.3106   YY=   122.1347   ZY=     7.6218
   XZ=   -29.7997   YZ=    -1.8429   ZZ=   120.8728
   Eigenvalues:   105.8615   119.9062   159.9571
      7  C    Isotropic =   110.8890   Anisotropy =    27.8221
   XX=   121.4252   YX=     0.3827   ZX=   -18.6466
   XY=    -0.9243   YY=   116.2403   ZY=    16.2322
   XZ=    -9.7154   YZ=     5.0001   ZZ=    95.0014
   Eigenvalues:    85.7441   117.4858   129.4370
      8  C    Isotropic =   113.0665   Anisotropy =    26.1264
   XX=   121.3160   YX=    11.1902   ZX=    -4.7467
   XY=     3.1558   YY=   124.2944   ZY=   -13.0099
   XZ=     3.1047   YZ=     5.0713   ZZ=    93.5891
   Eigenvalues:    93.0840   115.6314   130.4841
      9  H    Isotropic =    29.7745   Anisotropy =    11.7621
   XX=    35.0371   YX=    -0.5459   ZX=    -4.4377
   XY=    -1.7446   YY=    25.6807   ZY=    -0.7028
   XZ=    -5.1492   YZ=    -1.4161   ZZ=    28.6058
   Eigenvalues:    24.3686    27.3391    37.6159
     10  H    Isotropic =    29.7343   Anisotropy =     9.3934
   XX=    30.5865   YX=     2.9329   ZX=     3.4457
   XY=     3.4994   YY=    31.6909   ZY=     2.4604
   XZ=     2.7788   YZ=     2.1884   ZZ=    26.9254
   Eigenvalues:    25.1054    28.1010    35.9965
     11  H    Isotropic =    28.2651   Anisotropy =     7.0322
   XX=    27.3291   YX=     1.3458   ZX=    -2.0206
   XY=     1.0259   YY=    27.2475   ZY=    -3.1632
   XZ=    -1.4418   YZ=    -3.0384   ZZ=    30.2186
   Eigenvalues:    25.2901    26.5519    32.9532
     12  H    Isotropic =    28.9578   Anisotropy =    11.9906
   XX=    27.4850   YX=    -5.2226   ZX=    -1.1829
   XY=    -4.5843   YY=    31.5981   ZY=     4.8081
   XZ=    -0.1224   YZ=     4.6448   ZZ=    27.7903
   Eigenvalues:    22.9273    26.9946    36.9516
     13  H    Isotropic =    28.8454   Anisotropy =     8.4546
   XX=    28.7033   YX=     1.5582   ZX=     1.6896
   XY=     1.9537   YY=    33.5043   ZY=    -2.7978
   XZ=     0.2188   YZ=    -1.9951   ZZ=    24.3287
   Eigenvalues:    23.3865    28.6680    34.4818
     14  H    Isotropic =    30.0511   Anisotropy =    12.6146
   XX=    32.6176   YX=    -4.5256   ZX=     3.6775
   XY=    -4.9246   YY=    30.4471   ZY=    -3.2847
   XZ=     3.7624   YZ=    -2.9875   ZZ=    27.0885
   Eigenvalues:    24.9991    26.6933    38.4608
     15  H    Isotropic =    29.8107   Anisotropy =     8.8313
   XX=    27.5044   YX=     0.2688   ZX=    -1.4448
   XY=    -0.0771   YY=    26.4067   ZY=     0.2388
   XZ=    -0.9448   YZ=    -0.5418   ZZ=    35.5211
   Eigenvalues:    26.3981    27.3358    35.6983
     16  H    Isotropic =    29.1100   Anisotropy =     5.2663
   XX=    31.7320   YX=     0.3177   ZX=    -1.7270
   XY=    -0.5117   YY=    26.8583   ZY=    -0.5340
   XZ=    -1.9515   YZ=    -1.1867   ZZ=    28.7397
   Eigenvalues:    26.3909    28.3182    32.6209
     17  H    Isotropic =    27.7872   Anisotropy =     1.5238
   XX=    28.3378   YX=    -1.0621   ZX=    -0.7282
   XY=    -0.9736   YY=    26.5755   ZY=     0.4537
   XZ=     0.5901   YZ=    -0.7907   ZZ=    28.4482
   Eigenvalues:    26.0963    28.4622    28.8031
     18  H    Isotropic =    28.0789   Anisotropy =     3.5598
   XX=    26.0636   YX=    -0.4326   ZX=     0.3322
   XY=    -0.6234   YY=    30.3653   ZY=    -0.9652
   XZ=     0.1812   YZ=     0.5323   ZZ=    27.8077
   Eigenvalues:    25.9710    27.8135    30.4521
     19  O    Isotropic =   297.8248   Anisotropy =    43.2482
   XX=   273.4476   YX=   -27.0556   ZX=     7.5665
   XY=   -14.1566   YY=   316.6159   ZY=    -1.2331
   XZ=    -9.5236   YZ=   -13.3632   ZZ=   303.4109
   Eigenvalues:   264.8443   301.9732   326.6570
     20  H    Isotropic =    29.3092   Anisotropy =    18.7433
   XX=    26.5918   YX=    -4.3099   ZX=    -5.9202
   XY=    -5.8364   YY=    37.2331   ZY=     4.8568
   XZ=    -4.9623   YZ=     4.9864   ZZ=    24.1028
   Eigenvalues:    19.7296    26.3934    41.8048
     21  O    Isotropic =   287.8261   Anisotropy =    74.5396
   XX=   268.6119   YX=    -4.5160   ZX=    25.7359
   XY=   -11.3400   YY=   259.1911   ZY=    -6.4162
   XZ=    -3.3504   YZ=     6.1715   ZZ=   335.6755
   Eigenvalues:   254.2933   271.6659   337.5192
     22  H    Isotropic =    30.5594   Anisotropy =    14.8775
   XX=    26.6011   YX=    -2.9085   ZX=    -0.6542
   XY=    -1.7697   YY=    24.6077   ZY=     0.0558
   XZ=     0.1306   YZ=    -0.6042   ZZ=    40.4693
   Eigenvalues:    23.0538    28.1467    40.4777
     23  C    Isotropic =   125.7415   Anisotropy =    59.1514
   XX=   155.2459   YX=    -2.3770   ZX=   -21.8855
   XY=     0.4360   YY=   102.5703   ZY=     8.2922
   XZ=   -20.0002   YZ=     7.6011   ZZ=   119.4083
   Eigenvalues:    98.2682   113.7805   165.1758
     24  H    Isotropic =    27.8033   Anisotropy =     4.1714
   XX=    28.6507   YX=     0.5635   ZX=    -1.0523
   XY=     0.2986   YY=    24.4749   ZY=     1.8327
   XZ=     1.0349   YZ=     0.8575   ZZ=    30.2841
   Eigenvalues:    24.1390    28.6866    30.5842
     25  H    Isotropic =    27.8220   Anisotropy =     4.5172
   XX=    29.4034   YX=    -0.5845   ZX=    -0.4290
   XY=     0.9535   YY=    30.5022   ZY=     1.2284
   XZ=    -1.3174   YZ=     1.8758   ZZ=    23.5604
   Eigenvalues:    23.1027    29.5298    30.8334
     26  O    Isotropic =   314.1225   Anisotropy =    39.4126
   XX=   306.4856   YX=    14.0395   ZX=     3.2211
   XY=     4.6144   YY=   334.9391   ZY=    13.7767
   XZ=     4.4158   YZ=     5.3744   ZZ=   300.9429
   Eigenvalues:   298.1286   303.8414   340.3975
     27  H    Isotropic =    28.4553   Anisotropy =    19.4753
   XX=    27.4539   YX=     1.3487   ZX=    -2.7814
   XY=     1.6955   YY=    40.2619   ZY=     4.8781
   XZ=    -3.1657   YZ=     5.4476   ZZ=    17.6501
   Eigenvalues:    15.6421    28.2849    41.4388
 End of Minotr Frequency-dependent properties file   721 does not exist.
 End of Minotr Frequency-dependent properties file   722 does not exist.

 **********************************************************************

            Population analysis using the SCF density.

 **********************************************************************

 Orbital symmetries:
       Occupied  (A) (A) (A) (A) (A) (A) (A) (A) (A) (A) (A) (A)
                 (A) (A) (A) (A) (A) (A) (A) (A) (A) (A) (A) (A)
                 (A) (A) (A) (A) (A) (A) (A) (A) (A) (A) (A) (A)
                 (A) (A) (A) (A) (A) (A) (A) (A) (A) (A) (A)
       Virtual   (A) (A) (A) (A) (A) (A) (A) (A) (A) (A) (A) (A)
                 (A) (A) (A) (A) (A) (A) (A) (A) (A) (A) (A) (A)
                 (A) (A) (A) (A) (A) (A) (A) (A) (A) (A) (A) (A)
                 (A) (A) (A) (A) (A) (A) (A) (A) (A) (A) (A) (A)
                 (A) (A) (A) (A) (A) (A) (A) (A) (A) (A) (A) (A)
                 (A) (A) (A) (A) (A) (A) (A) (A) (A) (A) (A) (A)
                 (A) (A) (A) (A) (A) (A) (A) (A) (A) (A) (A) (A)
                 (A) (A) (A) (A) (A) (A) (A) (A) (A) (A) (A) (A)
                 (A) (A) (A) (A) (A) (A) (A) (A) (A) (A) (A) (A)
                 (A) (A) (A) (A) (A) (A) (A) (A) (A) (A) (A) (A)
                 (A) (A) (A) (A) (A) (A) (A) (A) (A) (A) (A) (A)
                 (A) (A) (A) (A) (A) (A) (A) (A) (A) (A) (A) (A)
                 (A) (A) (A) (A) (A) (A) (A) (A) (A) (A) (A) (A)
                 (A) (A) (A) (A) (A) (A) (A) (A) (A) (A) (A) (A)
                 (A) (A) (A) (A) (A) (A) (A) (A) (A) (A) (A) (A)
                 (A) (A) (A) (A) (A) (A) (A) (A) (A) (A) (A) (A)
                 (A) (A) (A) (A) (A) (A) (A) (A) (A) (A) (A) (A)
                 (A) (A) (A) (A) (A) (A) (A) (A) (A) (A) (A) (A)
                 (A) (A) (A) (A) (A) (A) (A) (A) (A) (A) (A) (A)
                 (A) (A) (A) (A) (A) (A) (A) (A) (A) (A) (A) (A)
                 (A) (A) (A) (A) (A) (A) (A) (A) (A) (A) (A) (A)
                 (A) (A) (A) (A)
 The electronic state is 1-A.
 Alpha  occ. eigenvalues --  -19.27617 -19.26285 -19.25049 -14.41923 -10.31024
 Alpha  occ. eigenvalues --  -10.30824 -10.29502 -10.28543 -10.28183 -10.27081
 Alpha  occ. eigenvalues --  -10.24798 -10.24620  -1.08388  -1.06326  -1.05049
 Alpha  occ. eigenvalues --   -0.97115  -0.83045  -0.79918  -0.75272  -0.71729
 Alpha  occ. eigenvalues --   -0.66971  -0.63627  -0.60418  -0.58517  -0.56148
 Alpha  occ. eigenvalues --   -0.53690  -0.51999  -0.50771  -0.48667  -0.47443
 Alpha  occ. eigenvalues --   -0.45714  -0.45084  -0.43751  -0.42797  -0.40494
 Alpha  occ. eigenvalues --   -0.40294  -0.39893  -0.37731  -0.37166  -0.35901
 Alpha  occ. eigenvalues --   -0.35224  -0.35003  -0.33432  -0.32616  -0.29654
 Alpha  occ. eigenvalues --   -0.28444  -0.23915
 Alpha virt. eigenvalues --    0.00504   0.01477   0.01738   0.02272   0.03690
 Alpha virt. eigenvalues --    0.04213   0.04527   0.04566   0.05123   0.07031
 Alpha virt. eigenvalues --    0.07791   0.08133   0.08418   0.09156   0.09508
 Alpha virt. eigenvalues --    0.09968   0.11332   0.11624   0.12274   0.12690
 Alpha virt. eigenvalues --    0.13002   0.13665   0.14199   0.14627   0.15084
 Alpha virt. eigenvalues --    0.15622   0.15839   0.16073   0.17873   0.18244
 Alpha virt. eigenvalues --    0.18814   0.18927   0.19912   0.20222   0.20837
 Alpha virt. eigenvalues --    0.21467   0.21567   0.22544   0.22766   0.23199
 Alpha virt. eigenvalues --    0.23930   0.24476   0.24707   0.24972   0.25561
 Alpha virt. eigenvalues --    0.25959   0.26836   0.27261   0.27955   0.28388
 Alpha virt. eigenvalues --    0.29562   0.29792   0.30042   0.31119   0.31739
 Alpha virt. eigenvalues --    0.32254   0.32631   0.33218   0.33756   0.34863
 Alpha virt. eigenvalues --    0.35304   0.35907   0.36296   0.37002   0.37267
 Alpha virt. eigenvalues --    0.39143   0.39495   0.40294   0.41158   0.41515
 Alpha virt. eigenvalues --    0.42068   0.42237   0.43850   0.45246   0.47252
 Alpha virt. eigenvalues --    0.49579   0.62354   0.64264   0.66726   0.68620
 Alpha virt. eigenvalues --    0.69757   0.69871   0.71060   0.72045   0.75754
 Alpha virt. eigenvalues --    0.76065   0.77073   0.79159   0.79910   0.82206
 Alpha virt. eigenvalues --    0.82928   0.83038   0.85438   0.86251   0.87761
 Alpha virt. eigenvalues --    0.89302   0.90012   0.91708   0.94478   0.96988
 Alpha virt. eigenvalues --    0.99098   1.00660   1.01815   1.03811   1.04736
 Alpha virt. eigenvalues --    1.05397   1.06401   1.08216   1.09499   1.10420
 Alpha virt. eigenvalues --    1.11685   1.12954   1.13537   1.14775   1.15695
 Alpha virt. eigenvalues --    1.16143   1.18381   1.20568   1.24022   1.24465
 Alpha virt. eigenvalues --    1.25591   1.28404   1.30057   1.30431   1.31389
 Alpha virt. eigenvalues --    1.33393   1.34606   1.37917   1.38840   1.39592
 Alpha virt. eigenvalues --    1.40630   1.43772   1.48049   1.48412   1.51423
 Alpha virt. eigenvalues --    1.54724   1.55959   1.57149   1.59194   1.60716
 Alpha virt. eigenvalues --    1.62880   1.64448   1.66103   1.68581   1.72855
 Alpha virt. eigenvalues --    1.73046   1.75053   1.76470   1.77920   1.78831
 Alpha virt. eigenvalues --    1.81335   1.82318   1.83410   1.84256   1.86181
 Alpha virt. eigenvalues --    1.88074   1.89145   1.91264   1.92642   1.94903
 Alpha virt. eigenvalues --    1.95281   1.99786   2.00099   2.01156   2.02904
 Alpha virt. eigenvalues --    2.04295   2.05066   2.06676   2.07573   2.10843
 Alpha virt. eigenvalues --    2.13020   2.13679   2.15412   2.17523   2.19096
 Alpha virt. eigenvalues --    2.20624   2.22242   2.24323   2.28125   2.29854
 Alpha virt. eigenvalues --    2.31964   2.32530   2.35117   2.36043   2.39465
 Alpha virt. eigenvalues --    2.40398   2.42053   2.43009   2.44232   2.46228
 Alpha virt. eigenvalues --    2.48573   2.49417   2.50222   2.52625   2.54762
 Alpha virt. eigenvalues --    2.55869   2.57326   2.58982   2.59868   2.61336
 Alpha virt. eigenvalues --    2.63342   2.64755   2.66613   2.69626   2.70499
 Alpha virt. eigenvalues --    2.70848   2.72449   2.74777   2.77077   2.80138
 Alpha virt. eigenvalues --    2.80837   2.82425   2.82622   2.84264   2.85202
 Alpha virt. eigenvalues --    2.87017   2.87300   2.90068   2.92962   2.95091
 Alpha virt. eigenvalues --    2.96844   2.98648   2.99680   3.03025   3.03162
 Alpha virt. eigenvalues --    3.07682   3.09196   3.11552   3.18406   3.31899
 Alpha virt. eigenvalues --    3.33163   3.36425   3.38169   3.39052   3.42100
 Alpha virt. eigenvalues --    3.45805   3.50385   3.53294   3.55003   3.55842
 Alpha virt. eigenvalues --    3.56649   3.58226   3.60459   3.65089   4.30231
 Alpha virt. eigenvalues --    4.38042   4.39574   4.43217   4.49141   4.53697
 Alpha virt. eigenvalues --    4.56928   4.64392   4.75729   4.80647   4.85823
 Alpha virt. eigenvalues --    4.93076
          Condensed to atoms (all electrons):
              1          2          3          4          5          6
     1  C    6.001145  -0.766363   0.136799   0.001861   0.207475  -0.021737
     2  C   -0.766363   8.285513  -0.461548  -0.279447   0.048283   0.090933
     3  N    0.136799  -0.461548   7.408373   0.227562  -0.170150   0.043089
     4  C    0.001861  -0.279447   0.227562   5.788980   0.133450  -0.226164
     5  C    0.207475   0.048283  -0.170150   0.133450   5.362065   0.117179
     6  C   -0.021737   0.090933   0.043089  -0.226164   0.117179   9.423215
     7  C   -0.044683  -0.145094  -0.213585  -0.315518  -0.006408  -2.292399
     8  C   -0.069832  -0.260414  -0.045821  -0.015609  -0.010394   0.128329
     9  H    0.433342  -0.073876   0.010322   0.004220  -0.054854   0.011267
    10  H    0.421764  -0.144318   0.018874   0.024184  -0.022285   0.001319
    11  H    0.060901   0.153932   0.007834  -0.007956   0.011016   0.011075
    12  H    0.005920  -0.026535  -0.024893   0.385685  -0.044750   0.007671
    13  H    0.016041   0.030245  -0.064708   0.352727  -0.020830   0.044350
    14  H   -0.043773   0.030628   0.012738  -0.039082   0.372431  -0.001403
    15  H   -0.052862  -0.000511   0.011626  -0.063284   0.413668   0.018901
    16  H    0.010528   0.045021  -0.071543   0.070510  -0.024791   0.297106
    17  H    0.017018  -0.011063   0.041026   0.011772  -0.003283  -0.137066
    18  H    0.080141  -0.245702   0.050815   0.011006  -0.015825   0.014077
    19  O    0.010042  -0.171840   0.031131   0.008325  -0.003483   0.020527
    20  H   -0.009138   0.043404  -0.003269  -0.001604   0.002226   0.020065
    21  O    0.002425   0.039714   0.010476   0.013627  -0.004303   0.166408
    22  H    0.006992  -0.005984   0.006047   0.001341  -0.002421  -0.093856
    23  C    0.152392  -0.349000   0.169360   0.130144  -0.063104  -1.109192
    24  H    0.002079  -0.000623   0.016729   0.019821  -0.002864  -0.051435
    25  H    0.001803   0.000416  -0.007689  -0.001700  -0.000923  -0.071298
    26  O   -0.000522   0.007132  -0.003727   0.011883  -0.001225  -0.019076
    27  H   -0.000012   0.003045   0.000959  -0.001265   0.000125  -0.023800
              7          8          9         10         11         12
     1  C   -0.044683  -0.069832   0.433342   0.421764   0.060901   0.005920
     2  C   -0.145094  -0.260414  -0.073876  -0.144318   0.153932  -0.026535
     3  N   -0.213585  -0.045821   0.010322   0.018874   0.007834  -0.024893
     4  C   -0.315518  -0.015609   0.004220   0.024184  -0.007956   0.385685
     5  C   -0.006408  -0.010394  -0.054854  -0.022285   0.011016  -0.044750
     6  C   -2.292399   0.128329   0.011267   0.001319   0.011075   0.007671
     7  C    8.714740   0.042994  -0.007305  -0.003170  -0.017525   0.001707
     8  C    0.042994   5.794887   0.007309   0.031016   0.030686   0.005446
     9  H   -0.007305   0.007309   0.519029  -0.023514  -0.006482   0.001594
    10  H   -0.003170   0.031016  -0.023514   0.513176   0.003018  -0.000007
    11  H   -0.017525   0.030686  -0.006482   0.003018   0.551825   0.000879
    12  H    0.001707   0.005446   0.001594  -0.000007   0.000879   0.542749
    13  H    0.017983  -0.004929  -0.000110  -0.000141  -0.000164  -0.028221
    14  H    0.004499   0.005562  -0.004907   0.000619  -0.000052  -0.002532
    15  H   -0.005547   0.007932   0.004155  -0.005146  -0.000106   0.004042
    16  H   -0.070839  -0.053408  -0.000003  -0.000056  -0.000552  -0.000315
    17  H    0.450705  -0.102320   0.000006  -0.000005   0.000845   0.000011
    18  H   -0.074403   0.462385   0.000219   0.000811   0.004389   0.000016
    19  O   -0.133638   0.330375  -0.000351   0.003494   0.008185   0.000071
    20  H   -0.066228   0.019484   0.000006  -0.000083  -0.000006   0.000000
    21  O   -0.006498  -0.097578   0.000017  -0.000072  -0.000677   0.000001
    22  H    0.110312  -0.056587   0.000000   0.000000   0.000007   0.000000
    23  C    0.210656  -0.104954  -0.000124   0.000510   0.016216   0.003883
    24  H   -0.094704  -0.005602   0.000000   0.000000  -0.000024   0.000022
    25  H    0.012704   0.001524   0.000000   0.000000   0.000008  -0.000164
    26  O   -0.068405  -0.003044  -0.000001  -0.000003  -0.000051  -0.000020
    27  H    0.007102   0.009716   0.000000   0.000000   0.000002   0.000000
             13         14         15         16         17         18
     1  C    0.016041  -0.043773  -0.052862   0.010528   0.017018   0.080141
     2  C    0.030245   0.030628  -0.000511   0.045021  -0.011063  -0.245702
     3  N   -0.064708   0.012738   0.011626  -0.071543   0.041026   0.050815
     4  C    0.352727  -0.039082  -0.063284   0.070510   0.011772   0.011006
     5  C   -0.020830   0.372431   0.413668  -0.024791  -0.003283  -0.015825
     6  C    0.044350  -0.001403   0.018901   0.297106  -0.137066   0.014077
     7  C    0.017983   0.004499  -0.005547  -0.070839   0.450705  -0.074403
     8  C   -0.004929   0.005562   0.007932  -0.053408  -0.102320   0.462385
     9  H   -0.000110  -0.004907   0.004155  -0.000003   0.000006   0.000219
    10  H   -0.000141   0.000619  -0.005146  -0.000056  -0.000005   0.000811
    11  H   -0.000164  -0.000052  -0.000106  -0.000552   0.000845   0.004389
    12  H   -0.028221  -0.002532   0.004042  -0.000315   0.000011   0.000016
    13  H    0.527539   0.000939  -0.005551   0.000941  -0.000018  -0.000019
    14  H    0.000939   0.514071  -0.022725  -0.000159   0.000000  -0.000047
    15  H   -0.005551  -0.022725   0.521395  -0.000044   0.000002  -0.000043
    16  H    0.000941  -0.000159  -0.000044   0.566170   0.004100   0.000102
    17  H   -0.000018   0.000000   0.000002   0.004100   0.513723   0.004276
    18  H   -0.000019  -0.000047  -0.000043   0.000102   0.004276   0.562918
    19  O   -0.000015  -0.000009  -0.000023  -0.001126  -0.002629  -0.040634
    20  H    0.000000   0.000000  -0.000001   0.000012  -0.000086  -0.005418
    21  O   -0.000052  -0.000009   0.000007  -0.001716  -0.053217  -0.009918
    22  H   -0.000003   0.000000   0.000009   0.003399   0.006230   0.004777
    23  C   -0.034863  -0.001966  -0.001121   0.040673   0.060112   0.025286
    24  H   -0.000018   0.000000   0.000000   0.004564   0.003797  -0.000006
    25  H    0.001350   0.000001  -0.000007  -0.005608   0.000047   0.000007
    26  O   -0.000095  -0.000003  -0.000032   0.009527  -0.000057  -0.000195
    27  H   -0.000005   0.000000   0.000000  -0.002590  -0.000811   0.000017
             19         20         21         22         23         24
     1  C    0.010042  -0.009138   0.002425   0.006992   0.152392   0.002079
     2  C   -0.171840   0.043404   0.039714  -0.005984  -0.349000  -0.000623
     3  N    0.031131  -0.003269   0.010476   0.006047   0.169360   0.016729
     4  C    0.008325  -0.001604   0.013627   0.001341   0.130144   0.019821
     5  C   -0.003483   0.002226  -0.004303  -0.002421  -0.063104  -0.002864
     6  C    0.020527   0.020065   0.166408  -0.093856  -1.109192  -0.051435
     7  C   -0.133638  -0.066228  -0.006498   0.110312   0.210656  -0.094704
     8  C    0.330375   0.019484  -0.097578  -0.056587  -0.104954  -0.005602
     9  H   -0.000351   0.000006   0.000017   0.000000  -0.000124   0.000000
    10  H    0.003494  -0.000083  -0.000072   0.000000   0.000510   0.000000
    11  H    0.008185  -0.000006  -0.000677   0.000007   0.016216  -0.000024
    12  H    0.000071   0.000000   0.000001   0.000000   0.003883   0.000022
    13  H   -0.000015   0.000000  -0.000052  -0.000003  -0.034863  -0.000018
    14  H   -0.000009   0.000000  -0.000009   0.000000  -0.001966   0.000000
    15  H   -0.000023  -0.000001   0.000007   0.000009  -0.001121   0.000000
    16  H   -0.001126   0.000012  -0.001716   0.003399   0.040673   0.004564
    17  H   -0.002629  -0.000086  -0.053217   0.006230   0.060112   0.003797
    18  H   -0.040634  -0.005418  -0.009918   0.004777   0.025286  -0.000006
    19  O    8.249572   0.235241  -0.000979  -0.001960   0.002285  -0.000074
    20  H    0.235241   0.373706   0.007911   0.000069  -0.001895   0.000001
    21  O   -0.000979   0.007911   8.285260   0.254085  -0.045125   0.003892
    22  H   -0.001960   0.000069   0.254085   0.349358   0.023184  -0.000025
    23  C    0.002285  -0.001895  -0.045125   0.023184   5.933042   0.470321
    24  H   -0.000074   0.000001   0.003892  -0.000025   0.470321   0.569224
    25  H    0.000035   0.000000  -0.001056   0.000006   0.452493  -0.040248
    26  O   -0.000364   0.000002  -0.000596  -0.000961   0.211473  -0.050712
    27  H    0.000175  -0.000004   0.023135  -0.004118  -0.013510  -0.004042
             25         26         27
     1  C    0.001803  -0.000522  -0.000012
     2  C    0.000416   0.007132   0.003045
     3  N   -0.007689  -0.003727   0.000959
     4  C   -0.001700   0.011883  -0.001265
     5  C   -0.000923  -0.001225   0.000125
     6  C   -0.071298  -0.019076  -0.023800
     7  C    0.012704  -0.068405   0.007102
     8  C    0.001524  -0.003044   0.009716
     9  H    0.000000  -0.000001   0.000000
    10  H    0.000000  -0.000003   0.000000
    11  H    0.000008  -0.000051   0.000002
    12  H   -0.000164  -0.000020   0.000000
    13  H    0.001350  -0.000095  -0.000005
    14  H    0.000001  -0.000003   0.000000
    15  H   -0.000007  -0.000032   0.000000
    16  H   -0.005608   0.009527  -0.002590
    17  H    0.000047  -0.000057  -0.000811
    18  H    0.000007  -0.000195   0.000017
    19  O    0.000035  -0.000364   0.000175
    20  H    0.000000   0.000002  -0.000004
    21  O   -0.001056  -0.000596   0.023135
    22  H    0.000006  -0.000961  -0.004118
    23  C    0.452493   0.211473  -0.013510
    24  H   -0.040248  -0.050712  -0.004042
    25  H    0.548779  -0.058147   0.005927
    26  O   -0.058147   8.265436   0.248928
    27  H    0.005927   0.248928   0.356456
 Mulliken atomic charges:
              1
     1  C   -0.559746
     2  C    0.164050
     3  N   -0.136828
     4  C   -0.245468
     5  C   -0.216025
     6  C   -0.368085
     7  C   -0.007455
     8  C   -0.047154
     9  H    0.180041
    10  H    0.180012
    11  H    0.172774
    12  H    0.167739
    13  H    0.167626
    14  H    0.175178
    15  H    0.175266
    16  H    0.180097
    17  H    0.196883
    18  H    0.170968
    19  O   -0.542333
    20  H    0.385606
    21  O   -0.585162
    22  H    0.400097
    23  C   -0.177177
    24  H    0.159928
    25  H    0.161740
    26  O   -0.547145
    27  H    0.394572
 Sum of Mulliken atomic charges =   0.00000
 Mulliken charges with hydrogens summed into heavy atoms:
              1
     1  C   -0.199693
     2  C    0.336824
     3  N   -0.136828
     4  C    0.089897
     5  C    0.134419
     6  C   -0.187988
     7  C    0.189429
     8  C    0.123814
    19  O   -0.156727
    21  O   -0.185065
    23  C    0.144491
    26  O   -0.152573
 Sum of Mulliken charges with hydrogens summed into heavy atoms =   0.00000
 Electronic spatial extent (au):  <R**2>=           2113.1450
 Charge=              0.0000 electrons
 Dipole moment (field-independent basis, Debye):
    X=              2.9784    Y=              0.3439    Z=              3.1415  Tot=              4.3426
 Quadrupole moment (field-independent basis, Debye-Ang):
   XX=            -85.3343   YY=            -74.3526   ZZ=            -71.1653
   XY=             -9.0509   XZ=              1.8100   YZ=              4.6441
 Traceless Quadrupole moment (field-independent basis, Debye-Ang):
   XX=             -8.3836   YY=              2.5981   ZZ=              5.7855
   XY=             -9.0509   XZ=              1.8100   YZ=              4.6441
 Octapole moment (field-independent basis, Debye-Ang**2):
  XXX=             46.3366  YYY=              9.8966  ZZZ=             13.7642  XYY=             -1.0396
  XXY=             12.2182  XXZ=             -3.1061  XZZ=            -10.7469  YZZ=             10.6655
  YYZ=             13.7505  XYZ=             -1.7005
 Hexadecapole moment (field-independent basis, Debye-Ang**3):
 XXXX=          -1654.8752 YYYY=           -900.5208 ZZZZ=           -231.1876 XXXY=            -93.9980
 XXXZ=             -3.0366 YYYX=            -28.9060 YYYZ=             38.9595 ZZZX=            -18.8816
 ZZZY=             11.0803 XXYY=           -467.7853 XXZZ=           -275.0033 YYZZ=           -207.7460
 XXYZ=             16.1222 YYXZ=             14.1467 ZZXY=             -9.8140
 N-N= 8.012870250899D+02 E-N=-2.987805952359D+03  KE= 5.886705408010D+02
 1\1\GINC-COMPUTE-3-0\SP\RmPW1PW91\6-31+G(d,p)\C8H15N1O3\MAMICHETTI.IQU
 IR\17-May-2024\0\\# mpw1pw91/6-31+G** nmr scrf=(pcm,solvent=water)\\co
 mment\\0,1\C,0,2.646221,-0.030838,0.114858\C,0,1.342934,0.375909,-0.60
 42\N,0,0.488632,-0.868091,-0.687246\C,0,1.267652,-1.965549,-0.067957\C
 ,0,2.253988,-1.294209,0.895082\C,0,-0.781029,-0.583182,0.012405\C,0,-0
 .936092,0.933691,-0.142465\C,0,0.486935,1.428291,0.112346\H,0,3.421776
 ,-0.272364,-0.621218\H,0,3.02891,0.776249,0.748119\H,0,1.555912,0.7537
 38,-1.611361\H,0,1.816583,-2.509813,-0.847613\H,0,0.594769,-2.679513,0
 .415975\H,0,3.109142,-1.930336,1.145337\H,0,1.746418,-1.027629,1.83060
 6\H,0,-0.713388,-0.806117,1.092704\H,0,-1.223535,1.181357,-1.17063\H,0
 ,0.672164,1.40181,1.198062\O,0,0.773852,2.72754,-0.398739\H,0,0.207491
 ,3.352061,0.085513\O,0,-1.952457,1.515182,0.67942\H,0,-1.728868,1.3142
 73,1.606171\C,0,-1.971434,-1.36329,-0.541224\H,0,-2.117569,-1.112248,-
 1.603121\H,0,-1.793634,-2.442281,-0.474736\O,0,-3.157096,-1.092693,0.2
 16345\H,0,-3.16604,-0.127729,0.367628\\Version=AM64L-G09RevC.01\State=
 1-A\HF=-594.1996526\RMSD=6.681e-09\Dipole=1.171787,0.1352957,1.2359518
 \Quadrupole=-6.2329954,1.9316341,4.3013613,-6.7291585,1.3457046,3.4527
 869\PG=C01 [X(C8H15N1O3)]\\@


 ... A MOLECULAR SYSTEM ... (PASSES) ... FROM ONE STATE OF EQUILIBRIUM 
 TO ANOTHER ... BY MEANS OF ALL POSSIBLE INTERMEDIATE PATHS, 
 BUT THE PATH MOST ECONOMICAL OF ENERGY WILL BE THE MORE OFTEN TRAVELED.

                      -- HENRY EYRING, 1945
 Job cpu time:  0 days  0 hours  8 minutes 46.5 seconds.
 File lengths (MBytes):  RWF=    112 Int=      0 D2E=      0 Chk=      7 Scr=      1
 Normal termination of Gaussian 09 at Fri May 17 12:48:22 2024.
