 Entering Gaussian System, Link 0=g09
 Input=/home/mamichetti.iquir/Linux/02_Cardona_A1A3_R__R_R_R_047_OptB.gjc
 Output=/home/mamichetti.iquir/Linux/02_Cardona_A1A3_R__R_R_R_047_OptB.log
 Initial command:
 /opt/ohpc/pub/apps/software/Gaussian/09/AMD64.SSE4a-enabled/g09/l1.exe /local/mamichetti.iquir/Gau-710528.inp -scrdir=/local/mamichetti.iquir/
 Entering Link 1 = /opt/ohpc/pub/apps/software/Gaussian/09/AMD64.SSE4a-enabled/g09/l1.exe PID=    710529.
  
 Copyright (c) 1988,1990,1992,1993,1995,1998,2003,2009,2011,
            Gaussian, Inc.  All Rights Reserved.
  
 This is part of the Gaussian(R) 09 program.  It is based on
 the Gaussian(R) 03 system (copyright 2003, Gaussian, Inc.),
 the Gaussian(R) 98 system (copyright 1998, Gaussian, Inc.),
 the Gaussian(R) 94 system (copyright 1995, Gaussian, Inc.),
 the Gaussian 92(TM) system (copyright 1992, Gaussian, Inc.),
 the Gaussian 90(TM) system (copyright 1990, Gaussian, Inc.),
 the Gaussian 88(TM) system (copyright 1988, Gaussian, Inc.),
 the Gaussian 86(TM) system (copyright 1986, Carnegie Mellon
 University), and the Gaussian 82(TM) system (copyright 1983,
 Carnegie Mellon University). Gaussian is a federally registered
 trademark of Gaussian, Inc.
  
 This software contains proprietary and confidential information,
 including trade secrets, belonging to Gaussian, Inc.
  
 This software is provided under written license and may be
 used, copied, transmitted, or stored only in accord with that
 written license.
  
 The following legend is applicable only to US Government
 contracts under FAR:
  
                    RESTRICTED RIGHTS LEGEND
  
 Use, reproduction and disclosure by the US Government is
 subject to restrictions as set forth in subparagraphs (a)
 and (c) of the Commercial Computer Software - Restricted
 Rights clause in FAR 52.227-19.
  
 Gaussian, Inc.
 340 Quinnipiac St., Bldg. 40, Wallingford CT 06492
  
  
 ---------------------------------------------------------------
 Warning -- This program may not be used in any manner that
 competes with the business of Gaussian, Inc. or will provide
 assistance to any competitor of Gaussian, Inc.  The licensee
 of this program is prohibited from giving any competitor of
 Gaussian, Inc. access to this program.  By using this program,
 the user acknowledges that Gaussian, Inc. is engaged in the
 business of creating and licensing software in the field of
 computational chemistry and represents and warrants to the
 licensee that it is not a competitor of Gaussian, Inc. and that
 it will not use this program in any manner prohibited above.
 ---------------------------------------------------------------
  

 Cite this work as:
 Gaussian 09, Revision C.01,
 M. J. Frisch, G. W. Trucks, H. B. Schlegel, G. E. Scuseria, 
 M. A. Robb, J. R. Cheeseman, G. Scalmani, V. Barone, B. Mennucci, 
 G. A. Petersson, H. Nakatsuji, M. Caricato, X. Li, H. P. Hratchian, 
 A. F. Izmaylov, J. Bloino, G. Zheng, J. L. Sonnenberg, M. Hada, 
 M. Ehara, K. Toyota, R. Fukuda, J. Hasegawa, M. Ishida, T. Nakajima, 
 Y. Honda, O. Kitao, H. Nakai, T. Vreven, J. A. Montgomery, Jr., 
 J. E. Peralta, F. Ogliaro, M. Bearpark, J. J. Heyd, E. Brothers, 
 K. N. Kudin, V. N. Staroverov, T. Keith, R. Kobayashi, J. Normand, 
 K. Raghavachari, A. Rendell, J. C. Burant, S. S. Iyengar, J. Tomasi, 
 M. Cossi, N. Rega, J. M. Millam, M. Klene, J. E. Knox, J. B. Cross, 
 V. Bakken, C. Adamo, J. Jaramillo, R. Gomperts, R. E. Stratmann, 
 O. Yazyev, A. J. Austin, R. Cammi, C. Pomelli, J. W. Ochterski, 
 R. L. Martin, K. Morokuma, V. G. Zakrzewski, G. A. Voth, 
 P. Salvador, J. J. Dannenberg, S. Dapprich, A. D. Daniels, 
 O. Farkas, J. B. Foresman, J. V. Ortiz, J. Cioslowski, 
 and D. J. Fox, Gaussian, Inc., Wallingford CT, 2010.
 
 ******************************************
 Gaussian 09:  AM64L-G09RevC.01 23-Sep-2011
                17-May-2024 
 ******************************************
 %nprocshared=4
 Will use up to    4 processors via shared memory.
 ------------------------------------------------
 # mpw1pw91/6-31+G** nmr scrf=(pcm,solvent=water)
 ------------------------------------------------
 1/38=1/1;
 2/12=2,17=6,18=5,40=1/2;
 3/5=1,6=6,7=111,11=2,16=1,25=1,30=1,70=2201,72=1,74=-7/1,2,8,3;
 4//1;
 5/5=2,38=5,53=1/2;
 8/6=1,10=90,11=11/1;
 10/13=100,45=16/2;
 6/7=2,8=2,9=2,10=2,28=1/1;
 99/9=1/99;
 -------
 comment
 -------
 Charge =  0 Multiplicity = 1
 Symbolic Z-Matrix:
 6                    -2.46051   0.58955  -0.1454 
 6                    -1.0581    0.59199   0.48177 
 7                    -0.49227  -0.77708   0.22601 
 6                    -1.52897  -1.59362  -0.44432 
 6                    -2.84925  -0.89594  -0.09939 
 6                     0.77202  -0.62428  -0.51819 
 6                     1.27012   0.76461  -0.08953 
 6                    -0.01957   1.58572  -0.07172 
 1                    -3.1609    1.24017   0.38701 
 1                    -2.40772   0.92909  -1.18764 
 1                    -1.13934   0.75751   1.56594 
 1                    -1.50099  -2.63415  -0.10235 
 1                    -1.37667  -1.5993   -1.53604 
 1                    -3.1741   -1.17529   0.91042 
 1                    -3.65119  -1.15754  -0.79652 
 1                     0.60288  -0.59846  -1.60958 
 1                     1.67692   0.71345   0.93104 
 1                    -0.26543   1.86382  -1.10304 
 8                     0.05947   2.8171    0.64091 
 1                     0.277     2.60005   1.56456 
 8                     2.22616   1.3389   -0.97502 
 1                     3.06662   0.87125  -0.83688 
 6                     1.74006  -1.76963  -0.22748 
 1                     1.34418  -2.70324  -0.65561 
 1                     2.70639  -1.5699   -0.70463 
 8                     1.98338  -1.92315   1.17113 
 1                     1.10121  -1.85107   1.58061 
 
                          Input orientation:                          
 ---------------------------------------------------------------------
 Center     Atomic      Atomic             Coordinates (Angstroms)
 Number     Number       Type             X           Y           Z
 ---------------------------------------------------------------------
      1          6           0       -2.460512    0.589550   -0.145401
      2          6           0       -1.058095    0.591989    0.481771
      3          7           0       -0.492265   -0.777076    0.226010
      4          6           0       -1.528966   -1.593621   -0.444324
      5          6           0       -2.849246   -0.895938   -0.099389
      6          6           0        0.772023   -0.624282   -0.518187
      7          6           0        1.270122    0.764605   -0.089527
      8          6           0       -0.019571    1.585721   -0.071721
      9          1           0       -3.160904    1.240165    0.387013
     10          1           0       -2.407718    0.929093   -1.187636
     11          1           0       -1.139339    0.757507    1.565937
     12          1           0       -1.500994   -2.634153   -0.102347
     13          1           0       -1.376670   -1.599296   -1.536039
     14          1           0       -3.174105   -1.175285    0.910416
     15          1           0       -3.651192   -1.157537   -0.796516
     16          1           0        0.602875   -0.598455   -1.609584
     17          1           0        1.676918    0.713445    0.931038
     18          1           0       -0.265430    1.863816   -1.103042
     19          8           0        0.059472    2.817095    0.640914
     20          1           0        0.277000    2.600050    1.564559
     21          8           0        2.226158    1.338902   -0.975017
     22          1           0        3.066620    0.871245   -0.836883
     23          6           0        1.740064   -1.769631   -0.227484
     24          1           0        1.344183   -2.703235   -0.655613
     25          1           0        2.706394   -1.569904   -0.704632
     26          8           0        1.983382   -1.923148    1.171131
     27          1           0        1.101208   -1.851072    1.580612
 ---------------------------------------------------------------------
                    Distance matrix (angstroms):
                    1          2          3          4          5
     1  C    0.000000
     2  C    1.536270   0.000000
     3  N    2.424791   1.503302   0.000000
     4  C    2.392356   2.419972   1.480149   0.000000
     5  C    1.536198   2.399978   2.382304   1.532606   0.000000
     6  C    3.472987   2.414242   1.474991   2.497924   3.655513
     7  C    3.735157   2.403492   2.362700   3.677228   4.441474
     8  C    2.637419   1.540256   2.427940   3.539113   3.763835
     9  H    1.094218   2.202480   3.349152   3.374120   2.212838
    10  H    1.097420   2.173026   2.928885   2.772869   2.170246
    11  H    2.168498   1.099733   2.137535   3.117814   2.903614
    12  H    3.363746   3.308375   2.138712   1.095645   2.199814
    13  H    2.810629   2.995793   2.136126   1.102301   2.174202
    14  H    2.176834   2.790070   2.796292   2.171821   1.096939
    15  H    2.212235   3.379203   3.342025   2.195006   1.094321
    16  H    3.597155   2.923995   2.144911   2.625439   3.779725
    17  H    4.276961   2.774327   2.724715   4.182328   4.913049
    18  H    2.712787   2.181168   2.965155   3.739559   3.911479
    19  O    3.454065   2.495071   3.659867   4.811995   4.774443
    20  H    3.802637   2.643335   3.713282   4.988387   4.976351
    21  O    4.818160   3.669663   3.648240   4.793984   5.614353
    22  H    5.577337   4.339367   4.063541   5.229635   6.218063
    23  C    4.818435   3.729609   2.484777   3.280938   4.673491
    24  H    5.057515   4.233566   2.803549   3.087211   4.600060
    25  H    5.627868   4.500301   3.424338   4.243418   5.629004
    26  O    5.272106   4.006459   2.887137   3.880061   5.101340
    27  H    4.649904   3.440725   2.351079   3.329334   4.397814
                    6          7          8          9         10
     6  C    0.000000
     7  C    1.536509   0.000000
     8  C    2.389574   1.529005   0.000000
     9  H    4.445612   4.481879   3.193402   0.000000
    10  H    3.601651   3.841797   2.716555   1.773013   0.000000
    11  H    3.147415   2.923374   2.149824   2.389466   3.036510
    12  H    3.062533   4.385294   4.472459   4.243243   3.833630
    13  H    2.569739   3.832223   3.759026   3.865768   2.752671
    14  H    4.232781   4.951183   4.305674   2.471543   3.068807
    15  H    4.463929   5.330459   4.608629   2.718473   2.460331
    16  H    1.104729   2.147958   2.742825   4.640362   3.402222
    17  H    2.169931   1.099842   2.155102   4.896725   4.606467
    18  H    2.758441   2.143221   1.096087   3.315565   2.338859
    19  O    3.700584   2.492375   1.424913   3.594718   3.604882
    20  H    3.870297   2.662921   1.947878   3.880088   4.192181
    21  O    2.485416   1.424049   2.433138   5.557456   4.656818
    22  H    2.757416   1.948671   3.258915   6.357364   5.485868
    23  C    1.527559   2.581130   3.791961   5.784113   5.040744
    24  H    2.160625   3.514520   4.538270   6.077276   5.249154
    25  H    2.161193   2.809122   4.217752   6.596466   5.712479
    26  O    2.451171   3.053197   4.227134   6.089751   5.742893
    27  H    2.453229   3.108000   3.974657   5.398706   5.263561
                   11         12         13         14         15
    11  H    0.000000
    12  H    3.797015   0.000000
    13  H    3.902961   1.772529   0.000000
    14  H    2.881955   2.439935   3.065241   0.000000
    15  H    3.944361   2.699188   2.432179   1.772440   0.000000
    16  H    3.867541   3.292734   2.219390   4.576976   4.367006
    17  H    2.887272   4.730055   4.556275   5.205780   5.905402
    18  H    3.018457   4.770716   3.662716   4.663747   4.548177
    19  O    2.556309   5.718706   5.128951   5.144682   5.624316
    20  H    2.324001   5.773796   5.475659   5.156664   5.926620
    21  O    4.256881   5.517099   4.682747   6.248106   6.388060
    22  H    4.845263   5.804348   5.131785   6.796174   7.017591
    23  C    4.230100   3.356712   3.384577   5.079087   5.455648
    24  H    4.804155   2.899294   3.065432   5.020160   5.230947
    25  H    5.036069   4.381494   4.166955   6.111004   6.371608
    26  O    4.134389   3.777321   4.327077   5.217944   6.017160
    27  H    3.438743   3.196408   3.989584   4.379972   5.358828
                   16         17         18         19         20
    16  H    0.000000
    17  H    3.054408   0.000000
    18  H    2.659571   3.038676   0.000000
    19  O    4.126259   2.669391   2.013873   0.000000
    20  H    4.517943   2.433187   2.819994   0.973420   0.000000
    21  O    2.605969   2.079881   2.549497   3.080717   3.440808
    22  H    2.971048   2.254266   3.486918   3.874681   4.066653
    23  C    2.138937   2.740771   4.241526   4.961508   4.944298
    24  H    2.426870   3.781782   4.863024   5.814250   5.847467
    25  H    2.487457   2.991475   4.558607   5.297400   5.332888
    26  O    3.375350   2.665181   4.956825   5.143196   4.850345
    27  H    3.463342   2.707422   4.782268   4.874426   4.526816
                   21         22         23         24         25
    21  O    0.000000
    22  H    0.971679   0.000000
    23  C    3.233894   3.017506   0.000000
    24  H    4.149551   3.971971   1.100742   0.000000
    25  H    2.960555   2.471126   1.096063   1.772699   0.000000
    26  O    3.912271   3.607514   1.427899   2.086649   2.041082
    27  H    4.239421   4.137407   1.919370   2.405394   2.806781
                   26         27
    26  O    0.000000
    27  H    0.975244   0.000000
 Stoichiometry    C8H15NO3
 Framework group  C1[X(C8H15NO3)]
 Deg. of freedom    75
 Full point group                 C1      NOp   1
 Largest Abelian subgroup         C1      NOp   1
 Largest concise Abelian subgroup C1      NOp   1
                         Standard orientation:                         
 ---------------------------------------------------------------------
 Center     Atomic      Atomic             Coordinates (Angstroms)
 Number     Number       Type             X           Y           Z
 ---------------------------------------------------------------------
      1          6           0       -2.460512    0.589549   -0.145401
      2          6           0       -1.058095    0.591988    0.481771
      3          7           0       -0.492265   -0.777076    0.226010
      4          6           0       -1.528965   -1.593622   -0.444324
      5          6           0       -2.849246   -0.895940   -0.099389
      6          6           0        0.772023   -0.624282   -0.518187
      7          6           0        1.270122    0.764606   -0.089527
      8          6           0       -0.019572    1.585721   -0.071721
      9          1           0       -3.160905    1.240163    0.387013
     10          1           0       -2.407719    0.929092   -1.187636
     11          1           0       -1.139339    0.757506    1.565937
     12          1           0       -1.500993   -2.634154   -0.102347
     13          1           0       -1.376669   -1.599297   -1.536039
     14          1           0       -3.174104   -1.175287    0.910416
     15          1           0       -3.651191   -1.157539   -0.796516
     16          1           0        0.602875   -0.598455   -1.609584
     17          1           0        1.676918    0.713446    0.931038
     18          1           0       -0.265431    1.863816   -1.103042
     19          8           0        0.059470    2.817095    0.640914
     20          1           0        0.276999    2.600050    1.564559
     21          8           0        2.226157    1.338903   -0.975017
     22          1           0        3.066620    0.871247   -0.836883
     23          6           0        1.740065   -1.769630   -0.227484
     24          1           0        1.344184   -2.703234   -0.655613
     25          1           0        2.706395   -1.569903   -0.704632
     26          8           0        1.983383   -1.923147    1.171131
     27          1           0        1.101209   -1.851071    1.580612
 ---------------------------------------------------------------------
 Rotational constants (GHZ):      1.0873353      0.9005793      0.5744158
 Standard basis: 6-31+G(d,p) (6D, 7F)
 There are   303 symmetry adapted basis functions of A   symmetry.
 Integral buffers will be    131072 words long.
 Raffenetti 2 integral format.
 Two-electron integral symmetry is turned on.
   303 basis functions,   489 primitive gaussians,   303 cartesian basis functions
    47 alpha electrons       47 beta electrons
       nuclear repulsion energy       800.0663783350 Hartrees.
 NAtoms=   27 NActive=   27 NUniq=   27 SFac= 1.00D+00 NAtFMM=   60 NAOKFM=F Big=F
 ------------------------------------------------------------------------------
 Polarizable Continuum Model (PCM)
 =================================
 Model                : PCM.
 Atomic radii         : UFF (Universal Force Field).
 Polarization charges : Total charges.
 Charge compensation  : None.
 Solution method      : Matrix inversion.
 Cavity type          : Scaled VdW (van der Waals Surface) (Alpha=1.100).
 Cavity algorithm     : GePol (No added spheres)
                        Default sphere list used, NSphG=   27.
                        Lebedev-Laikov grids with approx.  5.0 points / Ang**2.
                        Smoothing algorithm: Karplus/York (Gamma=1.0000).
                        Polarization charges: spherical gaussians, with
                                              point-specific exponents (IZeta= 3).
                        Self-potential: point-specific (ISelfS= 7).
                        Self-field    : sphere-specific E.n sum rule (ISelfD= 2).
 Solvent              : Water, Eps=  78.355300 Eps(inf)=   1.777849
 ------------------------------------------------------------------------------
 One-electron integrals computed using PRISM.
 NBasis=   303 RedAO= T  NBF=   303
 NBsUse=   303 1.00D-06 NBFU=   303
 Harris functional with IExCor=  908 diagonalized for initial guess.
 ExpMin= 4.38D-02 ExpMax= 5.48D+03 ExpMxC= 8.25D+02 IAcc=2 IRadAn=         4 AccDes= 0.00D+00
 HarFok:  IExCor=  908 AccDes= 0.00D+00 IRadAn=         4 IDoV= 1
 ScaDFX=  1.000000  1.000000  1.000000  1.000000
 FoFCou: FMM=F IPFlag=           0 FMFlag=      100000 FMFlg1=           0
         NFxFlg=           0 DoJE=T BraDBF=F KetDBF=T FulRan=T
         Omega=  0.000000  0.000000  1.000000  0.000000  0.000000 ICntrl=     500 IOpCl=  0
         NMat0=    1 NMatS0=    1 NMatT0=    0 NMatD0=    1 NMtDS0=    0 NMtDT0=    0
         I1Cent=           4 NGrid=           0.
 Petite list used in FoFCou.
 Initial guess orbital symmetries:
       Occupied  (A) (A) (A) (A) (A) (A) (A) (A) (A) (A) (A) (A)
                 (A) (A) (A) (A) (A) (A) (A) (A) (A) (A) (A) (A)
                 (A) (A) (A) (A) (A) (A) (A) (A) (A) (A) (A) (A)
                 (A) (A) (A) (A) (A) (A) (A) (A) (A) (A) (A)
       Virtual   (A) (A) (A) (A) (A) (A) (A) (A) (A) (A) (A) (A)
                 (A) (A) (A) (A) (A) (A) (A) (A) (A) (A) (A) (A)
                 (A) (A) (A) (A) (A) (A) (A) (A) (A) (A) (A) (A)
                 (A) (A) (A) (A) (A) (A) (A) (A) (A) (A) (A) (A)
                 (A) (A) (A) (A) (A) (A) (A) (A) (A) (A) (A) (A)
                 (A) (A) (A) (A) (A) (A) (A) (A) (A) (A) (A) (A)
                 (A) (A) (A) (A) (A) (A) (A) (A) (A) (A) (A) (A)
                 (A) (A) (A) (A) (A) (A) (A) (A) (A) (A) (A) (A)
                 (A) (A) (A) (A) (A) (A) (A) (A) (A) (A) (A) (A)
                 (A) (A) (A) (A) (A) (A) (A) (A) (A) (A) (A) (A)
                 (A) (A) (A) (A) (A) (A) (A) (A) (A) (A) (A) (A)
                 (A) (A) (A) (A) (A) (A) (A) (A) (A) (A) (A) (A)
                 (A) (A) (A) (A) (A) (A) (A) (A) (A) (A) (A) (A)
                 (A) (A) (A) (A) (A) (A) (A) (A) (A) (A) (A) (A)
                 (A) (A) (A) (A) (A) (A) (A) (A) (A) (A) (A) (A)
                 (A) (A) (A) (A) (A) (A) (A) (A) (A) (A) (A) (A)
                 (A) (A) (A) (A) (A) (A) (A) (A) (A) (A) (A) (A)
                 (A) (A) (A) (A) (A) (A) (A) (A) (A) (A) (A) (A)
                 (A) (A) (A) (A) (A) (A) (A) (A) (A) (A) (A) (A)
                 (A) (A) (A) (A) (A) (A) (A) (A) (A) (A) (A) (A)
                 (A) (A) (A) (A) (A) (A) (A) (A) (A) (A) (A) (A)
                 (A) (A) (A) (A)
 The electronic state of the initial guess is 1-A.
 Requested convergence on RMS density matrix=1.00D-08 within 128 cycles.
 Requested convergence on MAX density matrix=1.00D-06.
 Requested convergence on             energy=1.00D-06.
 No special actions if energy rises.
 Error on total polarization charges =  0.01448
 SCF Done:  E(RmPW1PW91) =  -594.201277657     A.U. after   13 cycles
             Convg  =    0.2659D-08             -V/T =  2.0094
 Range of M.O.s used for correlation:     1   303
 NBasis=   303 NAE=    47 NBE=    47 NFC=     0 NFV=     0
 NROrb=    303 NOA=    47 NOB=    47 NVA=   256 NVB=   256

 **** Warning!!: The largest alpha MO coefficient is  0.69087710D+02

 NEqPCM:  Using equilibrium solvation (IEInf=0, Eps=  78.3553, EpsInf=   1.7778)
          Differentiating once with respect to magnetic field using GIAOs.
          Electric field/nuclear overlap derivatives assumed to be zero.
 FoFCou: FMM=F IPFlag=           0 FMFlag=    10101102 FMFlg1=           0
         NFxFlg=    40000000 DoJE=F BraDBF=F KetDBF=T FulRan=T
         Omega=  0.000000  0.000000  1.000000  0.000000  0.000000 ICntrl=    6100 IOpCl=  0
         NMat0=    1 NMatS0=    1 NMatT0=    0 NMatD0=    1 NMtDS0=    0 NMtDT0=    0
         I1Cent=           7 NGrid=        1872.
 Symmetry not used in FoFCou.
          There are     3 degrees of freedom in the 1st order CPHF.  IDoFFX=0.
      3 vectors produced by pass  0 Test12= 4.01D-13 3.33D-08 XBig12= 3.31D+01 1.06D+00.
 AX will form     3 AO Fock derivatives at one time.
      3 vectors produced by pass  1 Test12= 4.01D-13 3.33D-08 XBig12= 9.08D-02 4.78D-02.
      3 vectors produced by pass  2 Test12= 4.01D-13 3.33D-08 XBig12= 1.69D-04 2.11D-03.
      3 vectors produced by pass  3 Test12= 4.01D-13 3.33D-08 XBig12= 6.76D-07 1.71D-04.
      3 vectors produced by pass  4 Test12= 4.01D-13 3.33D-08 XBig12= 2.49D-09 8.69D-06.
      3 vectors produced by pass  5 Test12= 4.01D-13 3.33D-08 XBig12= 7.55D-12 4.36D-07.
 Inverted reduced A of dimension    18 with in-core refinement.
 Calculating GIAO nuclear magnetic shielding tensors.
 SCF GIAO Magnetic shielding tensor (ppm):
      1  C    Isotropic =   162.1172   Anisotropy =    24.9139
   XX=   171.9864   YX=    12.0587   ZX=     9.8982
   XY=     1.5934   YY=   165.3180   ZY=     0.0212
   XZ=    13.0686   YZ=    -7.0708   ZZ=   149.0471
   Eigenvalues:   142.7119   164.9132   178.7264
      2  C    Isotropic =   125.5320   Anisotropy =    52.1001
   XX=   119.7380   YX=     2.9513   ZX=     0.6833
   XY=    -5.0302   YY=   158.6016   ZY=     9.2276
   XZ=    -2.9760   YZ=    10.8597   ZZ=    98.2564
   Eigenvalues:    96.5884   119.7422   160.2654
      3  N    Isotropic =   205.8272   Anisotropy =    68.7205
   XX=   250.2510   YX=    -2.3385   ZX=    -9.2637
   XY=     2.9239   YY=   236.4425   ZY=    31.1380
   XZ=   -10.3226   YZ=    29.0164   ZZ=   130.7881
   Eigenvalues:   122.1151   243.7256   251.6408
      4  C    Isotropic =   139.8535   Anisotropy =    57.0845
   XX=   158.7381   YX=    15.1353   ZX=    15.5811
   XY=    24.2758   YY=   130.1927   ZY=    14.0672
   XZ=    12.6061   YZ=    20.6452   ZZ=   130.6297
   Eigenvalues:   112.4899   129.1607   177.9099
      5  C    Isotropic =   164.7975   Anisotropy =    22.1654
   XX=   179.1444   YX=    -0.8242   ZX=     5.1955
   XY=     1.8941   YY=   177.9879   ZY=     9.2639
   XZ=    -6.1569   YZ=     4.3384   ZZ=   137.2603
   Eigenvalues:   136.1473   178.6709   179.5745
      6  C    Isotropic =   121.6363   Anisotropy =    44.0709
   XX=   136.5282   YX=    18.3446   ZX=    -8.4927
   XY=    17.1861   YY=   108.7971   ZY=    -9.0826
   XZ=   -18.3778   YZ=     2.6454   ZZ=   119.5837
   Eigenvalues:    99.5654   114.3266   151.0169
      7  C    Isotropic =   116.5137   Anisotropy =    42.0529
   XX=   134.1208   YX=     6.0461   ZX=   -31.7007
   XY=     4.4358   YY=   118.8186   ZY=    -4.8591
   XZ=   -11.1379   YZ=     7.2797   ZZ=    96.6019
   Eigenvalues:    86.5544   118.4378   144.5490
      8  C    Isotropic =   112.7749   Anisotropy =    24.7961
   XX=   117.1991   YX=     0.0452   ZX=    -5.6122
   XY=     4.7089   YY=   122.3778   ZY=    18.2780
   XZ=    -4.5331   YZ=    10.8214   ZZ=    98.7478
   Eigenvalues:    90.6386   118.3805   129.3056
      9  H    Isotropic =    29.4211   Anisotropy =     9.6737
   XX=    31.8926   YX=    -3.4286   ZX=    -1.9025
   XY=    -3.9479   YY=    30.4996   ZY=     2.3416
   XZ=    -2.2003   YZ=     2.2065   ZZ=    25.8710
   Eigenvalues:    24.8824    27.5106    35.8702
     10  H    Isotropic =    29.9684   Anisotropy =     8.1406
   XX=    28.9538   YX=    -0.2388   ZX=     2.5428
   XY=     0.4708   YY=    29.0431   ZY=    -3.9736
   XZ=     2.3366   YZ=    -4.1832   ZZ=    31.9082
   Eigenvalues:    25.4291    29.0806    35.3955
     11  H    Isotropic =    28.4533   Anisotropy =     6.8483
   XX=    26.8499   YX=    -1.4126   ZX=    -1.0295
   XY=    -0.9070   YY=    27.9892   ZY=     3.3819
   XZ=    -0.2111   YZ=     3.2316   ZZ=    30.5209
   Eigenvalues:    25.4210    26.9201    33.0189
     12  H    Isotropic =    28.4015   Anisotropy =     9.4517
   XX=    27.5874   YX=     1.9480   ZX=     0.6166
   XY=     1.4083   YY=    34.2937   ZY=    -0.5946
   XZ=     1.0191   YZ=    -0.5633   ZZ=    23.3235
   Eigenvalues:    23.1004    27.4016    34.7027
     13  H    Isotropic =    29.1886   Anisotropy =     8.4803
   XX=    28.4673   YX=     0.5525   ZX=     2.0683
   XY=     0.9808   YY=    27.1038   ZY=     4.5769
   XZ=     0.5248   YZ=     4.0006   ZZ=    31.9948
   Eigenvalues:    24.6123    28.1114    34.8422
     14  H    Isotropic =    29.5872   Anisotropy =    10.6674
   XX=    30.1555   YX=     1.8691   ZX=    -4.8113
   XY=     2.1138   YY=    28.4012   ZY=    -2.8430
   XZ=    -5.2462   YZ=    -3.0897   ZZ=    30.2049
   Eigenvalues:    24.9461    27.1168    36.6988
     15  H    Isotropic =    29.4841   Anisotropy =    11.7235
   XX=    34.1341   YX=     2.6445   ZX=     4.4032
   XY=     3.2918   YY=    27.4907   ZY=     2.0452
   XZ=     4.1055   YZ=     1.5368   ZZ=    26.8275
   Eigenvalues:    24.7822    26.3704    37.2997
     16  H    Isotropic =    29.0716   Anisotropy =     3.5997
   XX=    28.9583   YX=    -0.8909   ZX=    -1.9163
   XY=    -0.7969   YY=    27.3382   ZY=     0.0902
   XZ=    -0.4291   YZ=    -0.5762   ZZ=    30.9183
   Eigenvalues:    26.8514    28.8920    31.4714
     17  H    Isotropic =    27.4092   Anisotropy =     2.4190
   XX=    27.1702   YX=     1.3475   ZX=    -0.5105
   XY=     0.8720   YY=    27.5728   ZY=    -1.6583
   XZ=     0.6927   YZ=    -0.6433   ZZ=    27.4847
   Eigenvalues:    25.7914    27.4144    29.0219
     18  H    Isotropic =    27.8275   Anisotropy =     2.0520
   XX=    26.7875   YX=     0.5715   ZX=     0.7191
   XY=     0.9241   YY=    28.9600   ZY=     0.4379
   XZ=     0.9996   YZ=    -0.8490   ZZ=    27.7350
   Eigenvalues:    26.0839    28.2032    29.1955
     19  O    Isotropic =   287.9261   Anisotropy =    89.4367
   XX=   249.7433   YX=     6.2453   ZX=    25.2054
   XY=    -0.1504   YY=   272.8529   ZY=   -11.4903
   XZ=    23.4891   YZ=    19.5573   ZZ=   341.1819
   Eigenvalues:   243.5299   272.6977   347.5506
     20  H    Isotropic =    30.7701   Anisotropy =    15.6259
   XX=    23.5416   YX=    -0.4883   ZX=     3.8250
   XY=     0.4071   YY=    28.5789   ZY=     2.0991
   XZ=     3.8308   YZ=     0.8217   ZZ=    40.1899
   Eigenvalues:    22.6822    28.4407    41.1874
     21  O    Isotropic =   300.4735   Anisotropy =    37.8700
   XX=   319.2045   YX=   -14.7992   ZX=    -0.1669
   XY=   -15.8243   YY=   274.4021   ZY=     1.3434
   XZ=   -17.3644   YZ=   -23.1750   ZZ=   307.8139
   Eigenvalues:   265.6102   310.0901   325.7202
     22  H    Isotropic =    29.6780   Anisotropy =    19.4826
   XX=    41.4019   YX=    -4.6700   ZX=    -1.3307
   XY=    -4.4508   YY=    26.0854   ZY=    -3.4200
   XZ=    -1.1987   YZ=    -2.4334   ZZ=    21.5468
   Eigenvalues:    19.6236    26.7440    42.6664
     23  C    Isotropic =   136.3534   Anisotropy =    58.9714
   XX=   115.5774   YX=    -4.4524   ZX=    10.3580
   XY=    -4.6506   YY=   120.9344   ZY=    -6.6638
   XZ=    12.8401   YZ=    -5.4176   ZZ=   172.5485
   Eigenvalues:   111.9769   121.4156   175.6677
     24  H    Isotropic =    27.8675   Anisotropy =     7.6472
   XX=    25.1088   YX=    -0.8859   ZX=     1.9783
   XY=    -1.3071   YY=    29.9397   ZY=     2.5501
   XZ=     2.1028   YZ=     4.6983   ZZ=    28.5539
   Eigenvalues:    23.0390    27.5978    32.9656
     25  H    Isotropic =    28.1042   Anisotropy =     6.4941
   XX=    29.4135   YX=    -2.1844   ZX=    -2.2090
   XY=    -1.1122   YY=    26.2800   ZY=    -0.7356
   XZ=    -4.3136   YZ=    -0.3439   ZZ=    28.6191
   Eigenvalues:    24.4428    27.4362    32.4336
     26  O    Isotropic =   330.8015   Anisotropy =    48.1261
   XX=   350.2821   YX=    -1.9454   ZX=   -22.6143
   XY=    -7.0947   YY=   315.8048   ZY=    24.8368
   XZ=   -14.0054   YZ=     4.6050   ZZ=   326.3177
   Eigenvalues:   304.1484   325.3705   362.8856
     27  H    Isotropic =    29.2120   Anisotropy =    16.1406
   XX=    37.0496   YX=    -2.8227   ZX=    -4.9023
   XY=    -4.3310   YY=    21.0393   ZY=    -4.6315
   XZ=    -5.8396   YZ=    -2.8265   ZZ=    29.5470
   Eigenvalues:    18.0983    29.5652    39.9724
 End of Minotr Frequency-dependent properties file   721 does not exist.
 End of Minotr Frequency-dependent properties file   722 does not exist.

 **********************************************************************

            Population analysis using the SCF density.

 **********************************************************************

 Orbital symmetries:
       Occupied  (A) (A) (A) (A) (A) (A) (A) (A) (A) (A) (A) (A)
                 (A) (A) (A) (A) (A) (A) (A) (A) (A) (A) (A) (A)
                 (A) (A) (A) (A) (A) (A) (A) (A) (A) (A) (A) (A)
                 (A) (A) (A) (A) (A) (A) (A) (A) (A) (A) (A)
       Virtual   (A) (A) (A) (A) (A) (A) (A) (A) (A) (A) (A) (A)
                 (A) (A) (A) (A) (A) (A) (A) (A) (A) (A) (A) (A)
                 (A) (A) (A) (A) (A) (A) (A) (A) (A) (A) (A) (A)
                 (A) (A) (A) (A) (A) (A) (A) (A) (A) (A) (A) (A)
                 (A) (A) (A) (A) (A) (A) (A) (A) (A) (A) (A) (A)
                 (A) (A) (A) (A) (A) (A) (A) (A) (A) (A) (A) (A)
                 (A) (A) (A) (A) (A) (A) (A) (A) (A) (A) (A) (A)
                 (A) (A) (A) (A) (A) (A) (A) (A) (A) (A) (A) (A)
                 (A) (A) (A) (A) (A) (A) (A) (A) (A) (A) (A) (A)
                 (A) (A) (A) (A) (A) (A) (A) (A) (A) (A) (A) (A)
                 (A) (A) (A) (A) (A) (A) (A) (A) (A) (A) (A) (A)
                 (A) (A) (A) (A) (A) (A) (A) (A) (A) (A) (A) (A)
                 (A) (A) (A) (A) (A) (A) (A) (A) (A) (A) (A) (A)
                 (A) (A) (A) (A) (A) (A) (A) (A) (A) (A) (A) (A)
                 (A) (A) (A) (A) (A) (A) (A) (A) (A) (A) (A) (A)
                 (A) (A) (A) (A) (A) (A) (A) (A) (A) (A) (A) (A)
                 (A) (A) (A) (A) (A) (A) (A) (A) (A) (A) (A) (A)
                 (A) (A) (A) (A) (A) (A) (A) (A) (A) (A) (A) (A)
                 (A) (A) (A) (A) (A) (A) (A) (A) (A) (A) (A) (A)
                 (A) (A) (A) (A) (A) (A) (A) (A) (A) (A) (A) (A)
                 (A) (A) (A) (A) (A) (A) (A) (A) (A) (A) (A) (A)
                 (A) (A) (A) (A)
 The electronic state is 1-A.
 Alpha  occ. eigenvalues --  -19.26289 -19.26109 -19.25160 -14.41951 -10.30618
 Alpha  occ. eigenvalues --  -10.30594 -10.29623 -10.28280 -10.28160 -10.27148
 Alpha  occ. eigenvalues --  -10.24833 -10.24801  -1.07472  -1.05847  -1.05469
 Alpha  occ. eigenvalues --   -0.96943  -0.83182  -0.79595  -0.75271  -0.72002
 Alpha  occ. eigenvalues --   -0.66824  -0.62328  -0.60679  -0.58616  -0.55013
 Alpha  occ. eigenvalues --   -0.54163  -0.52541  -0.50018  -0.48035  -0.47543
 Alpha  occ. eigenvalues --   -0.45333  -0.44929  -0.44757  -0.42548  -0.41134
 Alpha  occ. eigenvalues --   -0.40163  -0.38521  -0.37907  -0.36426  -0.35872
 Alpha  occ. eigenvalues --   -0.35246  -0.34509  -0.34288  -0.30801  -0.30005
 Alpha  occ. eigenvalues --   -0.28604  -0.23821
 Alpha virt. eigenvalues --    0.00646   0.01389   0.01775   0.02234   0.03649
 Alpha virt. eigenvalues --    0.04023   0.04680   0.05026   0.05130   0.06643
 Alpha virt. eigenvalues --    0.07794   0.08591   0.08772   0.09103   0.09406
 Alpha virt. eigenvalues --    0.09889   0.11078   0.11546   0.12189   0.12718
 Alpha virt. eigenvalues --    0.13137   0.13805   0.14144   0.14837   0.15301
 Alpha virt. eigenvalues --    0.15605   0.16485   0.17035   0.17694   0.17947
 Alpha virt. eigenvalues --    0.18889   0.19500   0.19619   0.20478   0.20689
 Alpha virt. eigenvalues --    0.21127   0.21636   0.22156   0.22725   0.23604
 Alpha virt. eigenvalues --    0.24300   0.24513   0.25236   0.25656   0.25928
 Alpha virt. eigenvalues --    0.26364   0.27088   0.27671   0.28352   0.28594
 Alpha virt. eigenvalues --    0.30108   0.30440   0.30688   0.30879   0.31604
 Alpha virt. eigenvalues --    0.32403   0.33060   0.33729   0.34388   0.34761
 Alpha virt. eigenvalues --    0.35599   0.35959   0.36172   0.36734   0.37571
 Alpha virt. eigenvalues --    0.38242   0.39485   0.39854   0.40147   0.40850
 Alpha virt. eigenvalues --    0.41435   0.42875   0.43350   0.45539   0.46014
 Alpha virt. eigenvalues --    0.46905   0.62480   0.65312   0.66200   0.67300
 Alpha virt. eigenvalues --    0.69422   0.70965   0.71373   0.72093   0.74391
 Alpha virt. eigenvalues --    0.75371   0.76603   0.79657   0.80045   0.81113
 Alpha virt. eigenvalues --    0.82603   0.83707   0.85676   0.86963   0.88384
 Alpha virt. eigenvalues --    0.90801   0.91041   0.93418   0.95513   0.96123
 Alpha virt. eigenvalues --    0.98027   0.99183   1.02123   1.03130   1.04456
 Alpha virt. eigenvalues --    1.06374   1.06916   1.07898   1.09224   1.11114
 Alpha virt. eigenvalues --    1.11206   1.12443   1.13437   1.14176   1.15115
 Alpha virt. eigenvalues --    1.17774   1.19115   1.21867   1.21936   1.23295
 Alpha virt. eigenvalues --    1.26586   1.28445   1.29462   1.31779   1.33072
 Alpha virt. eigenvalues --    1.33286   1.35311   1.36593   1.37621   1.39597
 Alpha virt. eigenvalues --    1.42291   1.44867   1.46021   1.49550   1.51268
 Alpha virt. eigenvalues --    1.53406   1.55412   1.57927   1.59255   1.60545
 Alpha virt. eigenvalues --    1.61149   1.63444   1.65507   1.66138   1.67379
 Alpha virt. eigenvalues --    1.72826   1.75019   1.76254   1.78339   1.81366
 Alpha virt. eigenvalues --    1.82240   1.83306   1.84059   1.85941   1.86407
 Alpha virt. eigenvalues --    1.88426   1.89192   1.91451   1.93624   1.95073
 Alpha virt. eigenvalues --    1.97687   1.99312   2.00403   2.02905   2.04321
 Alpha virt. eigenvalues --    2.05521   2.06010   2.08035   2.09962   2.11356
 Alpha virt. eigenvalues --    2.13069   2.13880   2.14777   2.17137   2.17843
 Alpha virt. eigenvalues --    2.20326   2.22037   2.23043   2.25462   2.27253
 Alpha virt. eigenvalues --    2.28880   2.31137   2.35818   2.37986   2.38964
 Alpha virt. eigenvalues --    2.41945   2.42485   2.43923   2.44098   2.46951
 Alpha virt. eigenvalues --    2.47682   2.49936   2.51841   2.52429   2.53912
 Alpha virt. eigenvalues --    2.55398   2.57279   2.59424   2.61700   2.63076
 Alpha virt. eigenvalues --    2.64578   2.65512   2.67836   2.68584   2.69753
 Alpha virt. eigenvalues --    2.71234   2.73494   2.75493   2.75991   2.77187
 Alpha virt. eigenvalues --    2.78232   2.81190   2.83338   2.84570   2.85382
 Alpha virt. eigenvalues --    2.86055   2.87278   2.89984   2.92816   2.94047
 Alpha virt. eigenvalues --    2.98126   2.99162   3.00570   3.02329   3.05040
 Alpha virt. eigenvalues --    3.06350   3.06613   3.13967   3.18670   3.31358
 Alpha virt. eigenvalues --    3.34467   3.35806   3.36248   3.38720   3.45108
 Alpha virt. eigenvalues --    3.48110   3.50092   3.52719   3.54303   3.55619
 Alpha virt. eigenvalues --    3.56163   3.57484   3.62089   3.62955   4.28957
 Alpha virt. eigenvalues --    4.36130   4.38315   4.42584   4.48209   4.49546
 Alpha virt. eigenvalues --    4.56371   4.71045   4.76329   4.79055   4.85833
 Alpha virt. eigenvalues --    4.94502
          Condensed to atoms (all electrons):
              1          2          3          4          5          6
     1  C    6.210292  -1.375790   0.233321  -0.265291   0.174269   0.191000
     2  C   -1.375790  10.347982  -0.652718  -0.198212   0.153665  -0.856695
     3  N    0.233321  -0.652718   7.621396   0.240447  -0.196603  -0.323460
     4  C   -0.265291  -0.198212   0.240447   5.590198   0.205460  -0.287300
     5  C    0.174269   0.153665  -0.196603   0.205460   5.515823   0.118447
     6  C    0.191000  -0.856695  -0.323460  -0.287300   0.118447   8.912980
     7  C   -0.217823   1.085460  -0.129838  -0.065216  -0.018522  -0.969642
     8  C    0.389284  -1.906587   0.089988   0.193515  -0.192226   0.518920
     9  H    0.394914  -0.079327   0.014969   0.027464  -0.022511   0.003676
    10  H    0.501987  -0.219950   0.032215   0.009876  -0.057462   0.022017
    11  H    0.102199   0.074615   0.011670   0.008257  -0.011921   0.068597
    12  H    0.045375  -0.017373  -0.047470   0.374909  -0.028297   0.013206
    13  H   -0.009052   0.021081  -0.083435   0.427349  -0.037960  -0.011602
    14  H   -0.021282  -0.042071   0.013768  -0.037792   0.395700   0.009003
    15  H   -0.063322   0.049092   0.003995  -0.023277   0.376539  -0.004505
    16  H   -0.021316   0.082194  -0.028213   0.020418   0.003523   0.093386
    17  H    0.009086  -0.034173   0.062522   0.011859  -0.001108  -0.225115
    18  H    0.057684  -0.277205   0.052829   0.009343  -0.000956   0.021979
    19  O    0.000830  -0.027076   0.018401  -0.005014   0.004097   0.005069
    20  H    0.020192  -0.134167   0.009686   0.000777   0.000354   0.007793
    21  O   -0.002882   0.078983   0.001518  -0.001019   0.003490  -0.152597
    22  H    0.001057  -0.012525  -0.001459   0.000838  -0.000788   0.011658
    23  C    0.047899  -0.095522   0.225136   0.006156  -0.018545  -0.923320
    24  H   -0.000810  -0.005670  -0.017933   0.014169   0.008401  -0.020848
    25  H    0.001221   0.008295   0.016067  -0.001339  -0.001930  -0.160353
    26  O    0.003426  -0.002256   0.030731  -0.005663  -0.001221  -0.175337
    27  H    0.000054   0.019227   0.048011   0.006289  -0.005194  -0.092791
              7          8          9         10         11         12
     1  C   -0.217823   0.389284   0.394914   0.501987   0.102199   0.045375
     2  C    1.085460  -1.906587  -0.079327  -0.219950   0.074615  -0.017373
     3  N   -0.129838   0.089988   0.014969   0.032215   0.011670  -0.047470
     4  C   -0.065216   0.193515   0.027464   0.009876   0.008257   0.374909
     5  C   -0.018522  -0.192226  -0.022511  -0.057462  -0.011921  -0.028297
     6  C   -0.969642   0.518920   0.003676   0.022017   0.068597   0.013206
     7  C    6.742564  -0.982054  -0.003363  -0.013233  -0.074746  -0.002058
     8  C   -0.982054   7.347114   0.005274   0.038752   0.064284  -0.001398
     9  H   -0.003363   0.005274   0.509450  -0.023804  -0.003494  -0.000097
    10  H   -0.013233   0.038752  -0.023804   0.527985   0.004280  -0.000043
    11  H   -0.074746   0.064284  -0.003494   0.004280   0.572857   0.000257
    12  H   -0.002058  -0.001398  -0.000097  -0.000043   0.000257   0.540000
    13  H    0.011536   0.001628  -0.000144   0.001076  -0.000491  -0.040836
    14  H   -0.003287   0.014075  -0.004780   0.004146   0.000963  -0.006096
    15  H    0.000586   0.002402   0.000239  -0.005107  -0.000107   0.000822
    16  H    0.087155  -0.057294  -0.000012  -0.000285  -0.000621  -0.000824
    17  H    0.490632  -0.070238   0.000003  -0.000006   0.000802   0.000013
    18  H   -0.117580   0.564664   0.000358   0.003766   0.004514   0.000012
    19  O   -0.082059   0.221718   0.000744   0.001605   0.004814   0.000046
    20  H   -0.072823   0.153551   0.000053   0.000029   0.004900   0.000000
    21  O    0.460357  -0.280714   0.000005  -0.000271  -0.000602   0.000024
    22  H   -0.016910   0.056585   0.000000   0.000001   0.000007   0.000000
    23  C    0.082575  -0.080768   0.000429   0.000624   0.007180  -0.001048
    24  H   -0.012696  -0.001859   0.000000   0.000002   0.000012  -0.000067
    25  H    0.021194  -0.008602   0.000000   0.000000  -0.000002  -0.000003
    26  O    0.032087  -0.038068   0.000003   0.000018   0.001307   0.001580
    27  H   -0.004594  -0.008974  -0.000001  -0.000001  -0.000434  -0.000389
             13         14         15         16         17         18
     1  C   -0.009052  -0.021282  -0.063322  -0.021316   0.009086   0.057684
     2  C    0.021081  -0.042071   0.049092   0.082194  -0.034173  -0.277205
     3  N   -0.083435   0.013768   0.003995  -0.028213   0.062522   0.052829
     4  C    0.427349  -0.037792  -0.023277   0.020418   0.011859   0.009343
     5  C   -0.037960   0.395700   0.376539   0.003523  -0.001108  -0.000956
     6  C   -0.011602   0.009003  -0.004505   0.093386  -0.225115   0.021979
     7  C    0.011536  -0.003287   0.000586   0.087155   0.490632  -0.117580
     8  C    0.001628   0.014075   0.002402  -0.057294  -0.070238   0.564664
     9  H   -0.000144  -0.004780   0.000239  -0.000012   0.000003   0.000358
    10  H    0.001076   0.004146  -0.005107  -0.000285  -0.000006   0.003766
    11  H   -0.000491   0.000963  -0.000107  -0.000621   0.000802   0.004514
    12  H   -0.040836  -0.006096   0.000822  -0.000824   0.000013   0.000012
    13  H    0.565555   0.003931  -0.004658   0.011274  -0.000025  -0.000183
    14  H    0.003931   0.518413  -0.023800  -0.000016  -0.000003  -0.000004
    15  H   -0.004658  -0.023800   0.511875  -0.000017   0.000000  -0.000019
    16  H    0.011274  -0.000016  -0.000017   0.584331   0.004095   0.000529
    17  H   -0.000025  -0.000003   0.000000   0.004095   0.549817   0.004519
    18  H   -0.000183  -0.000004  -0.000019   0.000529   0.004519   0.535240
    19  O   -0.000159   0.000031   0.000004  -0.001307  -0.010035  -0.055815
    20  H    0.000000   0.000000   0.000000   0.000002   0.004276   0.006832
    21  O   -0.000172  -0.000008  -0.000007   0.002566  -0.039951  -0.001493
    22  H    0.000000   0.000000   0.000000  -0.000499  -0.006695   0.000010
    23  C   -0.011047  -0.001351   0.000374   0.045206   0.060026   0.013550
    24  H    0.000142   0.000003   0.000000  -0.001434   0.000084   0.000006
    25  H    0.000003   0.000000   0.000000   0.000841   0.000456  -0.000004
    26  O   -0.000374   0.000021  -0.000001   0.008967   0.008753   0.000177
    27  H    0.000127   0.000002  -0.000001   0.000637   0.000036  -0.000006
             19         20         21         22         23         24
     1  C    0.000830   0.020192  -0.002882   0.001057   0.047899  -0.000810
     2  C   -0.027076  -0.134167   0.078983  -0.012525  -0.095522  -0.005670
     3  N    0.018401   0.009686   0.001518  -0.001459   0.225136  -0.017933
     4  C   -0.005014   0.000777  -0.001019   0.000838   0.006156   0.014169
     5  C    0.004097   0.000354   0.003490  -0.000788  -0.018545   0.008401
     6  C    0.005069   0.007793  -0.152597   0.011658  -0.923320  -0.020848
     7  C   -0.082059  -0.072823   0.460357  -0.016910   0.082575  -0.012696
     8  C    0.221718   0.153551  -0.280714   0.056585  -0.080768  -0.001859
     9  H    0.000744   0.000053   0.000005   0.000000   0.000429   0.000000
    10  H    0.001605   0.000029  -0.000271   0.000001   0.000624   0.000002
    11  H    0.004814   0.004900  -0.000602   0.000007   0.007180   0.000012
    12  H    0.000046   0.000000   0.000024   0.000000  -0.001048  -0.000067
    13  H   -0.000159   0.000000  -0.000172   0.000000  -0.011047   0.000142
    14  H    0.000031   0.000000  -0.000008   0.000000  -0.001351   0.000003
    15  H    0.000004   0.000000  -0.000007   0.000000   0.000374   0.000000
    16  H   -0.001307   0.000002   0.002566  -0.000499   0.045206  -0.001434
    17  H   -0.010035   0.004276  -0.039951  -0.006695   0.060026   0.000084
    18  H   -0.055815   0.006832  -0.001493   0.000010   0.013550   0.000006
    19  O    8.200439   0.251324   0.004973  -0.000907  -0.004500   0.000026
    20  H    0.251324   0.371244  -0.001471  -0.000008   0.004830   0.000000
    21  O    0.004973  -0.001471   8.206490   0.236415   0.003069  -0.000258
    22  H   -0.000907  -0.000008   0.236415   0.373554  -0.025122  -0.000086
    23  C   -0.004500   0.004830   0.003069  -0.025122   5.739008   0.393365
    24  H    0.000026   0.000000  -0.000258  -0.000086   0.393365   0.577509
    25  H   -0.000006   0.000000   0.003648   0.002123   0.500077  -0.038742
    26  O    0.000486   0.000076  -0.001612  -0.001446   0.262614  -0.046949
    27  H   -0.000038  -0.000003   0.000337   0.000031   0.042188  -0.003839
             25         26         27
     1  C    0.001221   0.003426   0.000054
     2  C    0.008295  -0.002256   0.019227
     3  N    0.016067   0.030731   0.048011
     4  C   -0.001339  -0.005663   0.006289
     5  C   -0.001930  -0.001221  -0.005194
     6  C   -0.160353  -0.175337  -0.092791
     7  C    0.021194   0.032087  -0.004594
     8  C   -0.008602  -0.038068  -0.008974
     9  H    0.000000   0.000003  -0.000001
    10  H    0.000000   0.000018  -0.000001
    11  H   -0.000002   0.001307  -0.000434
    12  H   -0.000003   0.001580  -0.000389
    13  H    0.000003  -0.000374   0.000127
    14  H    0.000000   0.000021   0.000002
    15  H    0.000000  -0.000001  -0.000001
    16  H    0.000841   0.008967   0.000637
    17  H    0.000456   0.008753   0.000036
    18  H   -0.000004   0.000177  -0.000006
    19  O   -0.000006   0.000486  -0.000038
    20  H    0.000000   0.000076  -0.000003
    21  O    0.003648  -0.001612   0.000337
    22  H    0.002123  -0.001446   0.000031
    23  C    0.500077   0.262614   0.042188
    24  H   -0.038742  -0.046949  -0.003839
    25  H    0.549970  -0.057620   0.006318
    26  O   -0.057620   8.282103   0.248506
    27  H    0.006318   0.248506   0.357772
 Mulliken atomic charges:
              1
     1  C   -0.406521
     2  C    0.016722
     3  N   -0.245540
     4  C   -0.257202
     5  C   -0.364524
     6  C    0.205836
     7  C   -0.227702
     8  C   -0.032972
     9  H    0.179950
    10  H    0.171781
    11  H    0.160904
    12  H    0.169755
    13  H    0.156436
    14  H    0.180435
    15  H    0.178893
    16  H    0.166714
    17  H    0.180368
    18  H    0.177253
    19  O   -0.527690
    20  H    0.372555
    21  O   -0.518818
    22  H    0.384169
    23  C   -0.273087
    24  H    0.157472
    25  H    0.158390
    26  O   -0.550306
    27  H    0.386730
 Sum of Mulliken atomic charges =   0.00000
 Mulliken charges with hydrogens summed into heavy atoms:
              1
     1  C   -0.054790
     2  C    0.177626
     3  N   -0.245540
     4  C    0.068988
     5  C   -0.005197
     6  C    0.372550
     7  C   -0.047333
     8  C    0.144281
    19  O   -0.155135
    21  O   -0.134649
    23  C    0.042775
    26  O   -0.163576
 Sum of Mulliken charges with hydrogens summed into heavy atoms =   0.00000
 Electronic spatial extent (au):  <R**2>=           2097.3124
 Charge=              0.0000 electrons
 Dipole moment (field-independent basis, Debye):
    X=             -2.4154    Y=             -2.5550    Z=             -0.1678  Tot=              3.5200
 Quadrupole moment (field-independent basis, Debye-Ang):
   XX=            -70.1017   YY=            -87.5276   ZZ=            -71.0663
   XY=              2.3820   XZ=             -2.0188   YZ=              8.3634
 Traceless Quadrupole moment (field-independent basis, Debye-Ang):
   XX=              6.1302   YY=            -11.2958   ZZ=              5.1655
   XY=              2.3820   XZ=             -2.0188   YZ=              8.3634
 Octapole moment (field-independent basis, Debye-Ang**2):
  XXX=             15.9069  YYY=            -34.9684  ZZZ=             14.0821  XYY=            -15.6246
  XXY=              7.4194  XXZ=            -13.1571  XZZ=             -4.3706  YZZ=             10.3427
  YYZ=              1.1373  XYZ=             16.8835
 Hexadecapole moment (field-independent basis, Debye-Ang**3):
 XXXX=          -1263.8154 YYYY=          -1204.3510 ZZZZ=           -260.1262 XXXY=             35.4953
 XXXZ=            -48.2423 YYYX=             15.8283 YYYZ=             24.3700 ZZZX=              4.7052
 ZZZY=             18.8703 XXYY=           -450.1754 XXZZ=           -287.8099 YYZZ=           -205.9865
 XXYZ=             38.0918 YYXZ=             -5.8029 ZZXY=              7.6814
 N-N= 8.000663783350D+02 E-N=-2.985543279015D+03  KE= 5.886542124890D+02
 1\1\GINC-COMPUTE-3-0\SP\RmPW1PW91\6-31+G(d,p)\C8H15N1O3\MAMICHETTI.IQU
 IR\17-May-2024\0\\# mpw1pw91/6-31+G** nmr scrf=(pcm,solvent=water)\\co
 mment\\0,1\C,0,-2.460512,0.58955,-0.145401\C,0,-1.058095,0.591989,0.48
 1771\N,0,-0.492265,-0.777076,0.22601\C,0,-1.528966,-1.593621,-0.444324
 \C,0,-2.849246,-0.895938,-0.099389\C,0,0.772023,-0.624282,-0.518187\C,
 0,1.270122,0.764605,-0.089527\C,0,-0.019571,1.585721,-0.071721\H,0,-3.
 160904,1.240165,0.387013\H,0,-2.407718,0.929093,-1.187636\H,0,-1.13933
 9,0.757507,1.565937\H,0,-1.500994,-2.634153,-0.102347\H,0,-1.37667,-1.
 599296,-1.536039\H,0,-3.174105,-1.175285,0.910416\H,0,-3.651192,-1.157
 537,-0.796516\H,0,0.602875,-0.598455,-1.609584\H,0,1.676918,0.713445,0
 .931038\H,0,-0.26543,1.863816,-1.103042\O,0,0.059472,2.817095,0.640914
 \H,0,0.277,2.60005,1.564559\O,0,2.226158,1.338902,-0.975017\H,0,3.0666
 2,0.871245,-0.836883\C,0,1.740064,-1.769631,-0.227484\H,0,1.344183,-2.
 703235,-0.655613\H,0,2.706394,-1.569904,-0.704632\O,0,1.983382,-1.9231
 48,1.171131\H,0,1.101208,-1.851072,1.580612\\Version=AM64L-G09RevC.01\
 State=1-A\HF=-594.2012777\RMSD=2.659e-09\Dipole=-0.9502739,-1.0052281,
 -0.0660046\Quadrupole=4.5576745,-8.3981257,3.8404512,1.7709495,-1.5009
 278,6.2179782\PG=C01 [X(C8H15N1O3)]\\@


 ... THIS SEEMS PLAINLY ABSURD; BUT WHOEVER WISHES TO BECOME A 
 PHILOSOPHER MUST LEARN NOT TO BE FRIGHTENED BY ABSURDITIES.

                          -- BERTRAND RUSSELL
 Job cpu time:  0 days  0 hours  8 minutes 45.3 seconds.
 File lengths (MBytes):  RWF=    116 Int=      0 D2E=      0 Chk=      7 Scr=      1
 Normal termination of Gaussian 09 at Fri May 17 12:13:08 2024.
