 Entering Gaussian System, Link 0=g09
 Input=/home/mamichetti.iquir/Linux/02_Cardona_A1A3_R__R_R_R_031_OptB.gjc
 Output=/home/mamichetti.iquir/Linux/02_Cardona_A1A3_R__R_R_R_031_OptB.log
 Initial command:
 /opt/ohpc/pub/apps/software/Gaussian/09/AMD64.SSE4a-enabled/g09/l1.exe /local/mamichetti.iquir/Gau-710444.inp -scrdir=/local/mamichetti.iquir/
 Entering Link 1 = /opt/ohpc/pub/apps/software/Gaussian/09/AMD64.SSE4a-enabled/g09/l1.exe PID=    710445.
  
 Copyright (c) 1988,1990,1992,1993,1995,1998,2003,2009,2011,
            Gaussian, Inc.  All Rights Reserved.
  
 This is part of the Gaussian(R) 09 program.  It is based on
 the Gaussian(R) 03 system (copyright 2003, Gaussian, Inc.),
 the Gaussian(R) 98 system (copyright 1998, Gaussian, Inc.),
 the Gaussian(R) 94 system (copyright 1995, Gaussian, Inc.),
 the Gaussian 92(TM) system (copyright 1992, Gaussian, Inc.),
 the Gaussian 90(TM) system (copyright 1990, Gaussian, Inc.),
 the Gaussian 88(TM) system (copyright 1988, Gaussian, Inc.),
 the Gaussian 86(TM) system (copyright 1986, Carnegie Mellon
 University), and the Gaussian 82(TM) system (copyright 1983,
 Carnegie Mellon University). Gaussian is a federally registered
 trademark of Gaussian, Inc.
  
 This software contains proprietary and confidential information,
 including trade secrets, belonging to Gaussian, Inc.
  
 This software is provided under written license and may be
 used, copied, transmitted, or stored only in accord with that
 written license.
  
 The following legend is applicable only to US Government
 contracts under FAR:
  
                    RESTRICTED RIGHTS LEGEND
  
 Use, reproduction and disclosure by the US Government is
 subject to restrictions as set forth in subparagraphs (a)
 and (c) of the Commercial Computer Software - Restricted
 Rights clause in FAR 52.227-19.
  
 Gaussian, Inc.
 340 Quinnipiac St., Bldg. 40, Wallingford CT 06492
  
  
 ---------------------------------------------------------------
 Warning -- This program may not be used in any manner that
 competes with the business of Gaussian, Inc. or will provide
 assistance to any competitor of Gaussian, Inc.  The licensee
 of this program is prohibited from giving any competitor of
 Gaussian, Inc. access to this program.  By using this program,
 the user acknowledges that Gaussian, Inc. is engaged in the
 business of creating and licensing software in the field of
 computational chemistry and represents and warrants to the
 licensee that it is not a competitor of Gaussian, Inc. and that
 it will not use this program in any manner prohibited above.
 ---------------------------------------------------------------
  

 Cite this work as:
 Gaussian 09, Revision C.01,
 M. J. Frisch, G. W. Trucks, H. B. Schlegel, G. E. Scuseria, 
 M. A. Robb, J. R. Cheeseman, G. Scalmani, V. Barone, B. Mennucci, 
 G. A. Petersson, H. Nakatsuji, M. Caricato, X. Li, H. P. Hratchian, 
 A. F. Izmaylov, J. Bloino, G. Zheng, J. L. Sonnenberg, M. Hada, 
 M. Ehara, K. Toyota, R. Fukuda, J. Hasegawa, M. Ishida, T. Nakajima, 
 Y. Honda, O. Kitao, H. Nakai, T. Vreven, J. A. Montgomery, Jr., 
 J. E. Peralta, F. Ogliaro, M. Bearpark, J. J. Heyd, E. Brothers, 
 K. N. Kudin, V. N. Staroverov, T. Keith, R. Kobayashi, J. Normand, 
 K. Raghavachari, A. Rendell, J. C. Burant, S. S. Iyengar, J. Tomasi, 
 M. Cossi, N. Rega, J. M. Millam, M. Klene, J. E. Knox, J. B. Cross, 
 V. Bakken, C. Adamo, J. Jaramillo, R. Gomperts, R. E. Stratmann, 
 O. Yazyev, A. J. Austin, R. Cammi, C. Pomelli, J. W. Ochterski, 
 R. L. Martin, K. Morokuma, V. G. Zakrzewski, G. A. Voth, 
 P. Salvador, J. J. Dannenberg, S. Dapprich, A. D. Daniels, 
 O. Farkas, J. B. Foresman, J. V. Ortiz, J. Cioslowski, 
 and D. J. Fox, Gaussian, Inc., Wallingford CT, 2010.
 
 ******************************************
 Gaussian 09:  AM64L-G09RevC.01 23-Sep-2011
                17-May-2024 
 ******************************************
 %nprocshared=4
 Will use up to    4 processors via shared memory.
 ------------------------------------------------
 # mpw1pw91/6-31+G** nmr scrf=(pcm,solvent=water)
 ------------------------------------------------
 1/38=1/1;
 2/12=2,17=6,18=5,40=1/2;
 3/5=1,6=6,7=111,11=2,16=1,25=1,30=1,70=2201,72=1,74=-7/1,2,8,3;
 4//1;
 5/5=2,38=5,53=1/2;
 8/6=1,10=90,11=11/1;
 10/13=100,45=16/2;
 6/7=2,8=2,9=2,10=2,28=1/1;
 99/9=1/99;
 -------
 comment
 -------
 Charge =  0 Multiplicity = 1
 Symbolic Z-Matrix:
 6                    -2.32872  -0.23861  -0.44527 
 6                    -0.85221  -0.34815  -0.8646 
 7                    -0.16267   0.84516  -0.25852 
 6                    -1.18808   1.65632   0.44732 
 6                    -2.51342   1.26638  -0.21126 
 6                     0.94651   0.35894   0.59588 
 6                     0.66265  -1.1296    0.87415 
 6                    -0.09912  -1.60333  -0.37043 
 1                    -3.00405  -0.65237  -1.2006 
 1                    -2.49582  -0.78369   0.4906 
 1                    -0.77632  -0.30613  -1.95905 
 1                    -0.96487   2.72556   0.35844 
 1                    -1.21885   1.41197   1.51924 
 1                    -2.6373    1.79024  -1.16689 
 1                    -3.37554   1.50526   0.41906 
 1                     0.95779   0.92625   1.53422 
 1                     1.58059  -1.7145    1.01937 
 1                    -0.79384  -2.41182  -0.11069 
 8                     0.86928  -2.07788  -1.31351 
 1                     0.40162  -2.23012  -2.15197 
 8                    -0.22088  -1.30354   1.98996 
 1                     0.1967   -0.87577   2.75608 
 6                     2.29145   0.59877  -0.09832 
 1                     3.11774   0.33804   0.57122 
 1                     2.37178  -0.02351  -0.99961 
 8                     2.43715   1.98195  -0.42681 
 1                     1.58035   2.21599  -0.83174 
 
                          Input orientation:                          
 ---------------------------------------------------------------------
 Center     Atomic      Atomic             Coordinates (Angstroms)
 Number     Number       Type             X           Y           Z
 ---------------------------------------------------------------------
      1          6           0       -2.328720   -0.238607   -0.445273
      2          6           0       -0.852212   -0.348150   -0.864595
      3          7           0       -0.162670    0.845159   -0.258524
      4          6           0       -1.188084    1.656322    0.447321
      5          6           0       -2.513424    1.266375   -0.211258
      6          6           0        0.946511    0.358936    0.595879
      7          6           0        0.662648   -1.129605    0.874153
      8          6           0       -0.099116   -1.603330   -0.370428
      9          1           0       -3.004051   -0.652366   -1.200595
     10          1           0       -2.495820   -0.783688    0.490601
     11          1           0       -0.776320   -0.306132   -1.959047
     12          1           0       -0.964867    2.725558    0.358438
     13          1           0       -1.218851    1.411971    1.519236
     14          1           0       -2.637301    1.790237   -1.166892
     15          1           0       -3.375542    1.505256    0.419058
     16          1           0        0.957787    0.926246    1.534221
     17          1           0        1.580586   -1.714499    1.019369
     18          1           0       -0.793838   -2.411820   -0.110689
     19          8           0        0.869282   -2.077880   -1.313509
     20          1           0        0.401618   -2.230115   -2.151969
     21          8           0       -0.220881   -1.303540    1.989958
     22          1           0        0.196703   -0.875772    2.756076
     23          6           0        2.291447    0.598771   -0.098315
     24          1           0        3.117735    0.338039    0.571220
     25          1           0        2.371782   -0.023510   -0.999611
     26          8           0        2.437151    1.981948   -0.426812
     27          1           0        1.580353    2.215988   -0.831744
 ---------------------------------------------------------------------
                    Distance matrix (angstroms):
                    1          2          3          4          5
     1  C    0.000000
     2  C    1.538800   0.000000
     3  N    2.429238   1.505582   0.000000
     4  C    2.385064   2.419058   1.485825   0.000000
     5  C    1.534226   2.406900   2.388661   1.530461   0.000000
     6  C    3.488294   2.422470   1.482127   2.502354   3.666888
     7  C    3.388664   2.434896   2.421528   3.371763   4.123866
     8  C    2.615187   1.544937   2.451869   3.532690   3.753588
     9  H    1.094431   2.199058   3.347167   3.367997   2.213836
    10  H    1.095854   2.174327   2.942434   2.768699   2.166950
    11  H    2.169336   1.097884   2.143319   3.132313   2.923196
    12  H    3.360405   3.310012   2.135430   1.095898   2.202680
    13  H    2.795624   2.985817   2.144114   1.099844   2.166039
    14  H    2.175354   2.801897   2.800376   2.173441   1.096820
    15  H    2.209969   3.383796   3.349238   2.192850   1.094354
    16  H    4.009540   3.264123   2.115640   2.513787   3.900217
    17  H    4.427878   3.366710   3.350194   4.399455   5.211619
    18  H    2.681541   2.197843   3.320864   4.125116   4.061552
    19  O    3.789984   2.481337   3.274458   4.612759   4.882796
    20  H    3.785982   2.602156   3.655252   4.938406   4.948664
    21  O    3.392258   3.075682   3.110622   3.475053   4.087245
    22  H    4.127030   3.806293   3.489780   3.695874   4.553971
    23  C    4.708240   3.371415   2.471652   3.677400   4.852343
    24  H    5.570426   4.277020   3.421506   4.504808   5.760558
    25  H    4.737961   3.243109   2.779792   4.193816   5.113760
    26  O    5.257826   4.054740   2.842478   3.743323   5.006666
    27  H    4.631981   3.534580   2.290389   3.100561   4.248032
                    6          7          8          9         10
     6  C    0.000000
     7  C    1.540704   0.000000
     8  C    2.424371   1.534171   0.000000
     9  H    4.456118   4.239931   3.167358   0.000000
    10  H    3.628542   3.200420   2.675327   1.770787   0.000000
    11  H    3.152477   3.282645   2.159870   2.378637   3.030762
    12  H    3.051335   4.216284   4.474376   4.242549   3.830939
    13  H    2.578810   3.227349   3.730506   3.853039   2.740376
    14  H    4.242604   4.856028   4.311964   2.470213   3.064701
    15  H    4.474981   4.843200   4.584928   2.723346   2.453221
    16  H    1.096564   2.179293   3.338186   5.066300   3.992545
    17  H    2.209192   1.098089   2.182955   5.203390   4.214628
    18  H    3.347408   2.176084   1.097160   3.027972   2.430865
    19  O    3.096740   2.393280   1.432618   4.128868   4.031582
    20  H    3.814546   3.230584   1.953838   3.872078   4.179770
    21  O    2.463755   1.433840   2.382462   4.283654   2.773746
    22  H    2.598686   1.955293   3.223643   5.094112   3.520019
    23  C    1.532410   2.566313   3.261608   5.551816   5.017563
    24  H    2.171465   2.876317   3.873467   6.449534   5.725100
    25  H    2.173304   2.766871   2.999507   5.416220   5.147053
    26  O    2.429418   3.810923   4.392044   6.094672   5.729275
    27  H    2.426624   3.865910   4.197692   5.420357   5.230854
                   11         12         13         14         15
    11  H    0.000000
    12  H    3.820658   0.000000
    13  H    3.904634   1.771291   0.000000
    14  H    2.912992   2.449182   3.061106   0.000000
    15  H    3.961372   2.702622   2.422893   1.772414   0.000000
    16  H    4.090086   2.883849   2.230226   4.578990   4.511827
    17  H    4.050860   5.160452   4.226290   5.903684   5.940572
    18  H    2.801902   5.161587   4.178357   4.708631   4.721156
    19  O    2.502762   5.406711   4.956188   5.223021   5.818864
    20  H    2.264170   5.720850   5.419267   5.135040   5.901704
    21  O    4.110715   4.410102   2.931130   5.037484   4.506545
    22  H    4.848056   4.479675   2.960968   5.525293   4.887932
    23  C    3.700320   3.916047   3.949678   5.182085   5.762305
    24  H    4.688376   4.734254   4.567061   6.184687   6.599106
    25  H    3.303171   4.531545   4.614958   5.329969   6.114040
    26  O    4.231956   3.569776   4.180709   5.131718   5.893228
    27  H    3.631227   2.855580   3.742872   4.252316   5.160479
                   16         17         18         19         20
    16  H    0.000000
    17  H    2.761609   0.000000
    18  H    4.112980   2.720510   0.000000
    19  O    4.140311   2.465830   2.079486   0.000000
    20  H    4.884663   3.422457   2.372542   0.972060   0.000000
    21  O    2.562987   2.087154   2.443211   3.563840   4.289709
    22  H    2.306393   2.373762   3.399847   4.296388   5.095600
    23  C    2.133322   2.665663   4.310777   3.265534   3.973858
    24  H    2.436952   2.603186   4.829817   3.800580   4.624766
    25  H    3.053150   2.749857   4.063909   2.564464   3.174678
    26  O    2.673701   4.060648   5.463005   4.441469   4.986084
    27  H    2.765649   4.344577   5.251029   4.378929   4.785420
                   21         22         23         24         25
    21  O    0.000000
    22  H    0.971750   0.000000
    23  C    3.780405   3.835333   0.000000
    24  H    3.981703   3.844393   1.094993   0.000000
    25  H    4.159075   4.422952   1.098190   1.776140   0.000000
    26  O    4.868300   4.828762   1.429097   2.040024   2.086680
    27  H    4.857316   4.934158   1.912842   2.803309   2.381153
                   26         27
    26  O    0.000000
    27  H    0.976139   0.000000
 Stoichiometry    C8H15NO3
 Framework group  C1[X(C8H15NO3)]
 Deg. of freedom    75
 Full point group                 C1      NOp   1
 Largest Abelian subgroup         C1      NOp   1
 Largest concise Abelian subgroup C1      NOp   1
                         Standard orientation:                         
 ---------------------------------------------------------------------
 Center     Atomic      Atomic             Coordinates (Angstroms)
 Number     Number       Type             X           Y           Z
 ---------------------------------------------------------------------
      1          6           0        2.328720    0.238607   -0.445273
      2          6           0        0.852212    0.348150   -0.864595
      3          7           0        0.162670   -0.845159   -0.258524
      4          6           0        1.188084   -1.656322    0.447321
      5          6           0        2.513424   -1.266375   -0.211258
      6          6           0       -0.946511   -0.358936    0.595879
      7          6           0       -0.662648    1.129605    0.874153
      8          6           0        0.099116    1.603330   -0.370428
      9          1           0        3.004051    0.652366   -1.200595
     10          1           0        2.495820    0.783688    0.490601
     11          1           0        0.776320    0.306132   -1.959047
     12          1           0        0.964867   -2.725558    0.358438
     13          1           0        1.218851   -1.411971    1.519236
     14          1           0        2.637301   -1.790237   -1.166892
     15          1           0        3.375542   -1.505256    0.419058
     16          1           0       -0.957787   -0.926246    1.534221
     17          1           0       -1.580586    1.714499    1.019369
     18          1           0        0.793838    2.411820   -0.110689
     19          8           0       -0.869282    2.077880   -1.313509
     20          1           0       -0.401618    2.230115   -2.151969
     21          8           0        0.220881    1.303540    1.989958
     22          1           0       -0.196703    0.875772    2.756076
     23          6           0       -2.291447   -0.598771   -0.098315
     24          1           0       -3.117735   -0.338039    0.571220
     25          1           0       -2.371782    0.023510   -0.999611
     26          8           0       -2.437151   -1.981948   -0.426812
     27          1           0       -1.580353   -2.215988   -0.831744
 ---------------------------------------------------------------------
 Rotational constants (GHZ):      1.0910982      0.8945953      0.6969412
 Standard basis: 6-31+G(d,p) (6D, 7F)
 There are   303 symmetry adapted basis functions of A   symmetry.
 Integral buffers will be    131072 words long.
 Raffenetti 2 integral format.
 Two-electron integral symmetry is turned on.
   303 basis functions,   489 primitive gaussians,   303 cartesian basis functions
    47 alpha electrons       47 beta electrons
       nuclear repulsion energy       812.2512962968 Hartrees.
 NAtoms=   27 NActive=   27 NUniq=   27 SFac= 1.00D+00 NAtFMM=   60 NAOKFM=F Big=F
 ------------------------------------------------------------------------------
 Polarizable Continuum Model (PCM)
 =================================
 Model                : PCM.
 Atomic radii         : UFF (Universal Force Field).
 Polarization charges : Total charges.
 Charge compensation  : None.
 Solution method      : Matrix inversion.
 Cavity type          : Scaled VdW (van der Waals Surface) (Alpha=1.100).
 Cavity algorithm     : GePol (No added spheres)
                        Default sphere list used, NSphG=   27.
                        Lebedev-Laikov grids with approx.  5.0 points / Ang**2.
                        Smoothing algorithm: Karplus/York (Gamma=1.0000).
                        Polarization charges: spherical gaussians, with
                                              point-specific exponents (IZeta= 3).
                        Self-potential: point-specific (ISelfS= 7).
                        Self-field    : sphere-specific E.n sum rule (ISelfD= 2).
 Solvent              : Water, Eps=  78.355300 Eps(inf)=   1.777849
 ------------------------------------------------------------------------------
 One-electron integrals computed using PRISM.
 NBasis=   303 RedAO= T  NBF=   303
 NBsUse=   303 1.00D-06 NBFU=   303
 Harris functional with IExCor=  908 diagonalized for initial guess.
 ExpMin= 4.38D-02 ExpMax= 5.48D+03 ExpMxC= 8.25D+02 IAcc=2 IRadAn=         4 AccDes= 0.00D+00
 HarFok:  IExCor=  908 AccDes= 0.00D+00 IRadAn=         4 IDoV= 1
 ScaDFX=  1.000000  1.000000  1.000000  1.000000
 FoFCou: FMM=F IPFlag=           0 FMFlag=      100000 FMFlg1=           0
         NFxFlg=           0 DoJE=T BraDBF=F KetDBF=T FulRan=T
         Omega=  0.000000  0.000000  1.000000  0.000000  0.000000 ICntrl=     500 IOpCl=  0
         NMat0=    1 NMatS0=    1 NMatT0=    0 NMatD0=    1 NMtDS0=    0 NMtDT0=    0
         I1Cent=           4 NGrid=           0.
 Petite list used in FoFCou.
 Initial guess orbital symmetries:
       Occupied  (A) (A) (A) (A) (A) (A) (A) (A) (A) (A) (A) (A)
                 (A) (A) (A) (A) (A) (A) (A) (A) (A) (A) (A) (A)
                 (A) (A) (A) (A) (A) (A) (A) (A) (A) (A) (A) (A)
                 (A) (A) (A) (A) (A) (A) (A) (A) (A) (A) (A)
       Virtual   (A) (A) (A) (A) (A) (A) (A) (A) (A) (A) (A) (A)
                 (A) (A) (A) (A) (A) (A) (A) (A) (A) (A) (A) (A)
                 (A) (A) (A) (A) (A) (A) (A) (A) (A) (A) (A) (A)
                 (A) (A) (A) (A) (A) (A) (A) (A) (A) (A) (A) (A)
                 (A) (A) (A) (A) (A) (A) (A) (A) (A) (A) (A) (A)
                 (A) (A) (A) (A) (A) (A) (A) (A) (A) (A) (A) (A)
                 (A) (A) (A) (A) (A) (A) (A) (A) (A) (A) (A) (A)
                 (A) (A) (A) (A) (A) (A) (A) (A) (A) (A) (A) (A)
                 (A) (A) (A) (A) (A) (A) (A) (A) (A) (A) (A) (A)
                 (A) (A) (A) (A) (A) (A) (A) (A) (A) (A) (A) (A)
                 (A) (A) (A) (A) (A) (A) (A) (A) (A) (A) (A) (A)
                 (A) (A) (A) (A) (A) (A) (A) (A) (A) (A) (A) (A)
                 (A) (A) (A) (A) (A) (A) (A) (A) (A) (A) (A) (A)
                 (A) (A) (A) (A) (A) (A) (A) (A) (A) (A) (A) (A)
                 (A) (A) (A) (A) (A) (A) (A) (A) (A) (A) (A) (A)
                 (A) (A) (A) (A) (A) (A) (A) (A) (A) (A) (A) (A)
                 (A) (A) (A) (A) (A) (A) (A) (A) (A) (A) (A) (A)
                 (A) (A) (A) (A) (A) (A) (A) (A) (A) (A) (A) (A)
                 (A) (A) (A) (A) (A) (A) (A) (A) (A) (A) (A) (A)
                 (A) (A) (A) (A) (A) (A) (A) (A) (A) (A) (A) (A)
                 (A) (A) (A) (A) (A) (A) (A) (A) (A) (A) (A) (A)
                 (A) (A) (A) (A)
 The electronic state of the initial guess is 1-A.
 Requested convergence on RMS density matrix=1.00D-08 within 128 cycles.
 Requested convergence on MAX density matrix=1.00D-06.
 Requested convergence on             energy=1.00D-06.
 No special actions if energy rises.
 Error on total polarization charges =  0.01421
 SCF Done:  E(RmPW1PW91) =  -594.198084731     A.U. after   13 cycles
             Convg  =    0.3545D-08             -V/T =  2.0094
 Range of M.O.s used for correlation:     1   303
 NBasis=   303 NAE=    47 NBE=    47 NFC=     0 NFV=     0
 NROrb=    303 NOA=    47 NOB=    47 NVA=   256 NVB=   256

 **** Warning!!: The largest alpha MO coefficient is  0.74402301D+02

 NEqPCM:  Using equilibrium solvation (IEInf=0, Eps=  78.3553, EpsInf=   1.7778)
          Differentiating once with respect to magnetic field using GIAOs.
          Electric field/nuclear overlap derivatives assumed to be zero.
 FoFCou: FMM=F IPFlag=           0 FMFlag=    10101102 FMFlg1=           0
         NFxFlg=    40000000 DoJE=F BraDBF=F KetDBF=T FulRan=T
         Omega=  0.000000  0.000000  1.000000  0.000000  0.000000 ICntrl=    6100 IOpCl=  0
         NMat0=    1 NMatS0=    1 NMatT0=    0 NMatD0=    1 NMtDS0=    0 NMtDT0=    0
         I1Cent=           7 NGrid=        1832.
 Symmetry not used in FoFCou.
          There are     3 degrees of freedom in the 1st order CPHF.  IDoFFX=0.
      3 vectors produced by pass  0 Test12= 4.01D-13 3.33D-08 XBig12= 3.38D+01 9.42D-01.
 AX will form     3 AO Fock derivatives at one time.
      3 vectors produced by pass  1 Test12= 4.01D-13 3.33D-08 XBig12= 7.49D-02 5.44D-02.
      3 vectors produced by pass  2 Test12= 4.01D-13 3.33D-08 XBig12= 1.72D-04 2.99D-03.
      3 vectors produced by pass  3 Test12= 4.01D-13 3.33D-08 XBig12= 8.71D-07 2.47D-04.
      3 vectors produced by pass  4 Test12= 4.01D-13 3.33D-08 XBig12= 2.29D-09 9.40D-06.
      3 vectors produced by pass  5 Test12= 4.01D-13 3.33D-08 XBig12= 6.79D-12 4.44D-07.
 Inverted reduced A of dimension    18 with in-core refinement.
 Calculating GIAO nuclear magnetic shielding tensors.
 SCF GIAO Magnetic shielding tensor (ppm):
      1  C    Isotropic =   163.7185   Anisotropy =    24.2309
   XX=   175.2659   YX=    -8.8152   ZX=     3.5128
   XY=     1.3569   YY=   173.1240   ZY=    -9.7171
   XZ=     7.4846   YZ=    -2.7259   ZZ=   142.7655
   Eigenvalues:   140.8918   170.3912   179.8724
      2  C    Isotropic =   117.8165   Anisotropy =    45.3258
   XX=   113.0527   YX=     1.3672   ZX=   -17.4933
   XY=    -1.5713   YY=   145.4915   ZY=   -10.1419
   XZ=    -7.0496   YZ=   -12.2102   ZZ=    94.9054
   Eigenvalues:    86.9773   118.4386   148.0337
      3  N    Isotropic =   194.1429   Anisotropy =    86.0631
   XX=   214.7371   YX=   -11.9575   ZX=   -43.6947
   XY=    -7.6138   YY=   200.9115   ZY=   -36.5813
   XZ=   -56.1887   YZ=   -47.0033   ZZ=   166.7799
   Eigenvalues:   115.6865   215.2238   251.5182
      4  C    Isotropic =   135.8237   Anisotropy =    62.5651
   XX=   157.9597   YX=   -19.6456   ZX=    10.0513
   XY=   -29.0032   YY=   126.0211   ZY=   -14.0982
   XZ=     8.1026   YZ=   -28.4802   ZZ=   123.4904
   Eigenvalues:   101.1267   128.8106   177.5338
      5  C    Isotropic =   166.9479   Anisotropy =    19.8840
   XX=   178.7356   YX=    -0.9590   ZX=    -2.6901
   XY=    -4.4265   YY=   174.9395   ZY=   -14.3727
   XZ=    -9.3244   YZ=   -10.9824   ZZ=   147.1686
   Eigenvalues:   141.1031   179.5367   180.2039
      6  C    Isotropic =   115.5201   Anisotropy =    25.6207
   XX=   113.9194   YX=     5.0363   ZX=   -17.8302
   XY=   -13.5046   YY=   118.0387   ZY=     7.1162
   XZ=    -5.7479   YZ=    11.5082   ZZ=   114.6022
   Eigenvalues:   101.5307   112.4290   132.6006
      7  C    Isotropic =   112.6175   Anisotropy =    25.6276
   XX=   104.6422   YX=     5.9630   ZX=    15.8180
   XY=    -4.6703   YY=   107.0806   ZY=    -3.1523
   XZ=     1.8693   YZ=     9.0889   ZZ=   126.1298
   Eigenvalues:   101.4414   106.7086   129.7026
      8  C    Isotropic =   112.5942   Anisotropy =    24.7940
   XX=   110.5354   YX=   -15.9233   ZX=    11.0459
   XY=    -2.7455   YY=   109.3186   ZY=     2.1170
   XZ=     8.4750   YZ=   -11.4724   ZZ=   117.9286
   Eigenvalues:    99.7386   108.9205   129.1235
      9  H    Isotropic =    29.6155   Anisotropy =    10.4088
   XX=    32.1358   YX=     2.2983   ZX=    -4.4347
   XY=     2.7524   YY=    28.5647   ZY=    -3.1966
   XZ=    -3.9570   YZ=    -2.7718   ZZ=    28.1461
   Eigenvalues:    24.8884    27.4035    36.5547
     10  H    Isotropic =    29.7316   Anisotropy =     7.2509
   XX=    30.7495   YX=     0.9181   ZX=     1.6243
   XY=     0.7286   YY=    29.5792   ZY=     4.2573
   XZ=     2.5045   YZ=     4.2404   ZZ=    28.8660
   Eigenvalues:    24.7904    29.8389    34.5655
     11  H    Isotropic =    28.1524   Anisotropy =     7.4934
   XX=    26.4170   YX=    -0.0781   ZX=    -1.0383
   XY=     0.5303   YY=    25.8998   ZY=    -2.3936
   XZ=    -0.3512   YZ=    -2.7659   ZZ=    32.1404
   Eigenvalues:    24.9711    26.3381    33.1480
     12  H    Isotropic =    28.2687   Anisotropy =     9.3733
   XX=    27.2880   YX=    -1.5276   ZX=     0.4361
   XY=    -0.1690   YY=    34.0201   ZY=    -1.5305
   XZ=     0.6551   YZ=    -2.5221   ZZ=    23.4980
   Eigenvalues:    23.0860    27.2024    34.5176
     13  H    Isotropic =    28.6112   Anisotropy =     7.9408
   XX=    27.3975   YX=    -2.7256   ZX=     2.1818
   XY=    -2.8012   YY=    26.3605   ZY=    -2.5090
   XZ=     0.8408   YZ=    -2.3459   ZZ=    32.0754
   Eigenvalues:    23.9483    27.9802    33.9050
     14  H    Isotropic =    29.7084   Anisotropy =    10.8992
   XX=    28.1448   YX=    -2.3198   ZX=    -3.7285
   XY=    -2.4771   YY=    30.7613   ZY=     4.2725
   XZ=    -3.9118   YZ=     4.3067   ZZ=    30.2191
   Eigenvalues:    25.0477    27.1030    36.9746
     15  H    Isotropic =    29.6472   Anisotropy =    11.7166
   XX=    34.4252   YX=    -3.2309   ZX=     3.4917
   XY=    -3.8721   YY=    27.7206   ZY=    -2.0016
   XZ=     3.6065   YZ=    -1.7395   ZZ=    26.7958
   Eigenvalues:    25.2081    26.2753    37.4583
     16  H    Isotropic =    28.6344   Anisotropy =     6.2902
   XX=    29.0090   YX=     1.1954   ZX=    -3.1250
   XY=     1.0720   YY=    26.3894   ZY=    -0.7713
   XZ=    -2.0703   YZ=    -1.3705   ZZ=    30.5048
   Eigenvalues:    25.9628    27.1125    32.8279
     17  H    Isotropic =    27.5086   Anisotropy =     5.1206
   XX=    28.4068   YX=    -3.1093   ZX=     0.1253
   XY=    -2.2538   YY=    27.2019   ZY=     2.9254
   XZ=     0.7203   YZ=     1.6591   ZZ=    26.9172
   Eigenvalues:    23.6784    27.9252    30.9223
     18  H    Isotropic =    27.4508   Anisotropy =     4.5973
   XX=    27.1067   YX=     1.2175   ZX=     2.2994
   XY=     0.6579   YY=    30.2508   ZY=    -0.9028
   XZ=     2.4325   YZ=    -0.0704   ZZ=    24.9949
   Eigenvalues:    23.3370    28.4998    30.5157
     19  O    Isotropic =   274.6828   Anisotropy =    66.9977
   XX=   262.2038   YX=   -31.5213   ZX=   -24.9362
   XY=   -30.2511   YY=   248.1050   ZY=     3.8086
   XZ=    -9.8742   YZ=   -14.4383   ZZ=   313.7395
   Eigenvalues:   221.0025   283.6979   319.3479
     20  H    Isotropic =    30.3497   Anisotropy =    17.9327
   XX=    27.2279   YX=    -0.5493   ZX=    -2.8667
   XY=    -1.3657   YY=    24.6331   ZY=    -5.8667
   XZ=    -5.0676   YZ=    -6.7212   ZZ=    39.1881
   Eigenvalues:    21.3151    27.4292    42.3048
     21  O    Isotropic =   278.5594   Anisotropy =    86.6401
   XX=   238.0428   YX=    36.7803   ZX=   -11.7482
   XY=    29.7651   YY=   282.4995   ZY=   -39.6186
   XZ=     3.6032   YZ=   -17.4330   ZZ=   315.1359
   Eigenvalues:   219.1394   280.2195   336.3195
     22  H    Isotropic =    30.4957   Anisotropy =    17.9588
   XX=    25.9858   YX=     2.9216   ZX=    -2.2832
   XY=     4.3677   YY=    25.1594   ZY=    -4.0623
   XZ=    -4.4330   YZ=    -4.2095   ZZ=    40.3420
   Eigenvalues:    21.8558    27.1631    42.4682
     23  C    Isotropic =   132.6060   Anisotropy =    51.1652
   XX=   120.9988   YX=     1.1165   ZX=     4.9582
   XY=     8.7911   YY=   162.1486   ZY=     9.6012
   XZ=     6.4419   YZ=    17.9326   ZZ=   114.6706
   Eigenvalues:   109.3444   121.7575   166.7161
     24  H    Isotropic =    28.2689   Anisotropy =     6.5505
   XX=    31.4256   YX=     0.2749   ZX=    -2.0832
   XY=    -1.3657   YY=    28.0565   ZY=     2.3490
   XZ=    -2.7462   YZ=     2.0493   ZZ=    25.3246
   Eigenvalues:    23.6357    28.5351    32.6359
     25  H    Isotropic =    27.9574   Anisotropy =     6.9944
   XX=    27.1829   YX=     2.2093   ZX=     3.2125
   XY=     1.3295   YY=    31.4690   ZY=    -4.0473
   XZ=     3.4073   YZ=    -1.6280   ZZ=    25.2204
   Eigenvalues:    21.6207    29.6312    32.6204
     26  O    Isotropic =   313.6209   Anisotropy =    36.5786
   XX=   336.3332   YX=    -7.8184   ZX=    -6.2888
   XY=    -2.7007   YY=   317.8845   ZY=     5.5298
   XZ=    -2.9605   YZ=   -11.0569   ZZ=   286.6451
   Eigenvalues:   285.8862   316.9700   338.0067
     27  H    Isotropic =    29.0606   Anisotropy =    15.6067
   XX=    37.0551   YX=     0.1305   ZX=    -5.8608
   XY=    -1.7367   YY=    26.9487   ZY=     5.0557
   XZ=    -4.7578   YZ=     6.4021   ZZ=    23.1780
   Eigenvalues:    18.2056    29.5111    39.4650
 End of Minotr Frequency-dependent properties file   721 does not exist.
 End of Minotr Frequency-dependent properties file   722 does not exist.

 **********************************************************************

            Population analysis using the SCF density.

 **********************************************************************

 Orbital symmetries:
       Occupied  (A) (A) (A) (A) (A) (A) (A) (A) (A) (A) (A) (A)
                 (A) (A) (A) (A) (A) (A) (A) (A) (A) (A) (A) (A)
                 (A) (A) (A) (A) (A) (A) (A) (A) (A) (A) (A) (A)
                 (A) (A) (A) (A) (A) (A) (A) (A) (A) (A) (A)
       Virtual   (A) (A) (A) (A) (A) (A) (A) (A) (A) (A) (A) (A)
                 (A) (A) (A) (A) (A) (A) (A) (A) (A) (A) (A) (A)
                 (A) (A) (A) (A) (A) (A) (A) (A) (A) (A) (A) (A)
                 (A) (A) (A) (A) (A) (A) (A) (A) (A) (A) (A) (A)
                 (A) (A) (A) (A) (A) (A) (A) (A) (A) (A) (A) (A)
                 (A) (A) (A) (A) (A) (A) (A) (A) (A) (A) (A) (A)
                 (A) (A) (A) (A) (A) (A) (A) (A) (A) (A) (A) (A)
                 (A) (A) (A) (A) (A) (A) (A) (A) (A) (A) (A) (A)
                 (A) (A) (A) (A) (A) (A) (A) (A) (A) (A) (A) (A)
                 (A) (A) (A) (A) (A) (A) (A) (A) (A) (A) (A) (A)
                 (A) (A) (A) (A) (A) (A) (A) (A) (A) (A) (A) (A)
                 (A) (A) (A) (A) (A) (A) (A) (A) (A) (A) (A) (A)
                 (A) (A) (A) (A) (A) (A) (A) (A) (A) (A) (A) (A)
                 (A) (A) (A) (A) (A) (A) (A) (A) (A) (A) (A) (A)
                 (A) (A) (A) (A) (A) (A) (A) (A) (A) (A) (A) (A)
                 (A) (A) (A) (A) (A) (A) (A) (A) (A) (A) (A) (A)
                 (A) (A) (A) (A) (A) (A) (A) (A) (A) (A) (A) (A)
                 (A) (A) (A) (A) (A) (A) (A) (A) (A) (A) (A) (A)
                 (A) (A) (A) (A) (A) (A) (A) (A) (A) (A) (A) (A)
                 (A) (A) (A) (A) (A) (A) (A) (A) (A) (A) (A) (A)
                 (A) (A) (A) (A) (A) (A) (A) (A) (A) (A) (A) (A)
                 (A) (A) (A) (A)
 The electronic state is 1-A.
 Alpha  occ. eigenvalues --  -19.25994 -19.25908 -19.24808 -14.41634 -10.30763
 Alpha  occ. eigenvalues --  -10.30602 -10.28922 -10.28086 -10.27947 -10.26882
 Alpha  occ. eigenvalues --  -10.24603 -10.24556  -1.07157  -1.05733  -1.05148
 Alpha  occ. eigenvalues --   -0.96098  -0.82729  -0.79259  -0.75146  -0.71919
 Alpha  occ. eigenvalues --   -0.66003  -0.60942  -0.60719  -0.58783  -0.56098
 Alpha  occ. eigenvalues --   -0.52886  -0.52449  -0.49900  -0.48703  -0.46818
 Alpha  occ. eigenvalues --   -0.45553  -0.44583  -0.43045  -0.41731  -0.41512
 Alpha  occ. eigenvalues --   -0.39604  -0.39274  -0.37169  -0.36748  -0.35848
 Alpha  occ. eigenvalues --   -0.34775  -0.34423  -0.32794  -0.30779  -0.29650
 Alpha  occ. eigenvalues --   -0.29189  -0.23469
 Alpha virt. eigenvalues --    0.00801   0.01333   0.02050   0.02477   0.03506
 Alpha virt. eigenvalues --    0.04052   0.04279   0.04762   0.05573   0.07311
 Alpha virt. eigenvalues --    0.07763   0.08546   0.08672   0.08965   0.09128
 Alpha virt. eigenvalues --    0.10659   0.10953   0.11902   0.12033   0.12806
 Alpha virt. eigenvalues --    0.13404   0.13654   0.13907   0.14417   0.15043
 Alpha virt. eigenvalues --    0.16149   0.16597   0.16863   0.17538   0.18032
 Alpha virt. eigenvalues --    0.18222   0.19815   0.19938   0.20605   0.20976
 Alpha virt. eigenvalues --    0.21280   0.21467   0.22173   0.22823   0.22970
 Alpha virt. eigenvalues --    0.24339   0.24694   0.25196   0.25569   0.26202
 Alpha virt. eigenvalues --    0.26530   0.27360   0.28159   0.28587   0.29022
 Alpha virt. eigenvalues --    0.29743   0.30209   0.30630   0.30813   0.31401
 Alpha virt. eigenvalues --    0.32397   0.32980   0.33539   0.34247   0.34764
 Alpha virt. eigenvalues --    0.35691   0.36240   0.36935   0.37980   0.38662
 Alpha virt. eigenvalues --    0.38794   0.39675   0.40737   0.41683   0.42251
 Alpha virt. eigenvalues --    0.43308   0.43658   0.44857   0.46452   0.47976
 Alpha virt. eigenvalues --    0.49571   0.64573   0.65508   0.68762   0.68973
 Alpha virt. eigenvalues --    0.70154   0.71102   0.71537   0.73554   0.74963
 Alpha virt. eigenvalues --    0.75280   0.76681   0.77103   0.79339   0.81114
 Alpha virt. eigenvalues --    0.83134   0.83803   0.84657   0.85692   0.88127
 Alpha virt. eigenvalues --    0.90458   0.91814   0.94428   0.95637   0.97056
 Alpha virt. eigenvalues --    0.98649   0.99540   1.00874   1.03288   1.03841
 Alpha virt. eigenvalues --    1.04516   1.05692   1.08381   1.09352   1.10179
 Alpha virt. eigenvalues --    1.11209   1.12226   1.12423   1.14244   1.15979
 Alpha virt. eigenvalues --    1.17047   1.17925   1.19571   1.21747   1.24341
 Alpha virt. eigenvalues --    1.27176   1.30529   1.31508   1.33134   1.33842
 Alpha virt. eigenvalues --    1.35161   1.36078   1.37359   1.39789   1.41343
 Alpha virt. eigenvalues --    1.43655   1.46134   1.47826   1.50348   1.51383
 Alpha virt. eigenvalues --    1.53711   1.56244   1.58664   1.61251   1.62310
 Alpha virt. eigenvalues --    1.64116   1.64631   1.65461   1.68858   1.71942
 Alpha virt. eigenvalues --    1.72908   1.73515   1.76478   1.78043   1.79811
 Alpha virt. eigenvalues --    1.82189   1.83281   1.85414   1.86180   1.86987
 Alpha virt. eigenvalues --    1.88115   1.88510   1.91331   1.92704   1.94856
 Alpha virt. eigenvalues --    1.96804   1.99238   2.01421   2.01675   2.05216
 Alpha virt. eigenvalues --    2.05387   2.06749   2.08817   2.09439   2.10501
 Alpha virt. eigenvalues --    2.12940   2.15066   2.17099   2.17355   2.21779
 Alpha virt. eigenvalues --    2.22323   2.23365   2.24640   2.25962   2.28126
 Alpha virt. eigenvalues --    2.31271   2.31578   2.34308   2.38258   2.39766
 Alpha virt. eigenvalues --    2.41393   2.43040   2.45611   2.46383   2.47185
 Alpha virt. eigenvalues --    2.48728   2.49907   2.51703   2.54190   2.56147
 Alpha virt. eigenvalues --    2.57618   2.57704   2.59154   2.61412   2.63744
 Alpha virt. eigenvalues --    2.64305   2.65418   2.68244   2.69199   2.70947
 Alpha virt. eigenvalues --    2.72336   2.73903   2.74537   2.75930   2.77518
 Alpha virt. eigenvalues --    2.79116   2.80967   2.81700   2.82667   2.84699
 Alpha virt. eigenvalues --    2.86974   2.87970   2.90719   2.93740   2.93997
 Alpha virt. eigenvalues --    2.97436   2.99029   3.00055   3.02083   3.05148
 Alpha virt. eigenvalues --    3.07682   3.10618   3.12679   3.18054   3.32305
 Alpha virt. eigenvalues --    3.35107   3.36237   3.37084   3.42155   3.43895
 Alpha virt. eigenvalues --    3.48012   3.50027   3.52495   3.53275   3.56398
 Alpha virt. eigenvalues --    3.57702   3.58105   3.59476   3.63707   4.32312
 Alpha virt. eigenvalues --    4.35685   4.39198   4.42737   4.53575   4.58793
 Alpha virt. eigenvalues --    4.64012   4.72656   4.77884   4.85435   4.90736
 Alpha virt. eigenvalues --    4.97442
          Condensed to atoms (all electrons):
              1          2          3          4          5          6
     1  C    5.897618  -0.568833   0.091748  -0.197322   0.233663   0.177546
     2  C   -0.568833   8.387647  -0.089416  -0.325807   0.239790  -1.386934
     3  N    0.091748  -0.089416   7.513636   0.165037  -0.212721  -0.089710
     4  C   -0.197322  -0.325807   0.165037   5.599574   0.082992   0.064181
     5  C    0.233663   0.239790  -0.212721   0.082992   5.619023  -0.071597
     6  C    0.177546  -1.386934  -0.089710   0.064181  -0.071597   8.770539
     7  C   -0.235922   1.335430   0.010644  -0.176269   0.090504  -2.058983
     8  C    0.099644  -1.290917  -0.201183   0.226381  -0.142763   1.209817
     9  H    0.364072  -0.050918   0.013771   0.028107  -0.018759   0.001232
    10  H    0.498614  -0.186338   0.030119   0.021064  -0.078082   0.005000
    11  H    0.047364   0.215762  -0.002237   0.010771  -0.015287   0.025942
    12  H    0.038955  -0.005452  -0.052520   0.399104  -0.035082  -0.009438
    13  H   -0.006506   0.011303  -0.083928   0.411174  -0.019543   0.000196
    14  H   -0.023821  -0.032540   0.014540  -0.024732   0.377886   0.001208
    15  H   -0.056314   0.044015   0.006029  -0.029182   0.381947  -0.008719
    16  H   -0.006412   0.037638  -0.061179   0.006414   0.017419   0.337965
    17  H    0.001872  -0.000875   0.016016  -0.005737   0.000154  -0.055748
    18  H    0.046677  -0.080886   0.018111  -0.005777   0.010301   0.019994
    19  O    0.003230  -0.037368   0.022481  -0.006944   0.007068   0.014704
    20  H    0.006202  -0.060788  -0.002030  -0.002035  -0.000259  -0.003596
    21  O   -0.017881   0.019989   0.014766  -0.028568   0.007276   0.014729
    22  H   -0.001468  -0.002250  -0.008698  -0.010179   0.005007  -0.037753
    23  C    0.046246  -0.164881   0.077416  -0.076721  -0.027802  -0.523858
    24  H    0.000355   0.009233   0.003469  -0.004219   0.000157  -0.111276
    25  H   -0.001620   0.027673   0.017683   0.001217   0.003081  -0.175330
    26  O    0.005482  -0.009991   0.008083  -0.016136   0.000964  -0.096168
    27  H   -0.003508   0.029020   0.045202  -0.007695   0.002895  -0.075432
              7          8          9         10         11         12
     1  C   -0.235922   0.099644   0.364072   0.498614   0.047364   0.038955
     2  C    1.335430  -1.290917  -0.050918  -0.186338   0.215762  -0.005452
     3  N    0.010644  -0.201183   0.013771   0.030119  -0.002237  -0.052520
     4  C   -0.176269   0.226381   0.028107   0.021064   0.010771   0.399104
     5  C    0.090504  -0.142763  -0.018759  -0.078082  -0.015287  -0.035082
     6  C   -2.058983   1.209817   0.001232   0.005000   0.025942  -0.009438
     7  C    7.904742  -1.308232  -0.002891   0.001089  -0.022003  -0.006690
     8  C   -1.308232   7.058313   0.005029   0.031621  -0.014243  -0.006839
     9  H   -0.002891   0.005029   0.517170  -0.024684  -0.004242  -0.000097
    10  H    0.001089   0.031621  -0.024684   0.514157   0.004129  -0.000052
    11  H   -0.022003  -0.014243  -0.004242   0.004129   0.565862   0.000189
    12  H   -0.006690  -0.006839  -0.000097  -0.000052   0.000189   0.550607
    13  H    0.002735   0.013765  -0.000144   0.001093  -0.000436  -0.042212
    14  H    0.001728   0.011223  -0.005073   0.004085   0.000773  -0.006385
    15  H    0.002752   0.000501   0.000283  -0.005118  -0.000092   0.000911
    16  H    0.021845  -0.007449   0.000004  -0.000031  -0.000239  -0.000267
    17  H    0.303643  -0.008155   0.000005  -0.000068  -0.000062   0.000009
    18  H   -0.034546   0.335719   0.000448   0.000330   0.002734   0.000008
    19  O   -0.142314   0.256175  -0.000052   0.000802  -0.003115   0.000070
    20  H    0.013316   0.056347   0.000003   0.000040   0.005139   0.000000
    21  O    0.281998  -0.157793   0.000496  -0.001691   0.000262   0.000477
    22  H    0.035886   0.018824  -0.000002   0.000104   0.000011   0.000001
    23  C   -0.068022  -0.152780   0.000641   0.000584   0.023346   0.008217
    24  H    0.012432  -0.003606   0.000000   0.000000  -0.000003  -0.000012
    25  H    0.089345  -0.035705   0.000001  -0.000001  -0.000289   0.000008
    26  O    0.020296  -0.006991   0.000005   0.000033   0.001266   0.003301
    27  H    0.021230  -0.017180  -0.000001  -0.000001  -0.000242  -0.001156
             13         14         15         16         17         18
     1  C   -0.006506  -0.023821  -0.056314  -0.006412   0.001872   0.046677
     2  C    0.011303  -0.032540   0.044015   0.037638  -0.000875  -0.080886
     3  N   -0.083928   0.014540   0.006029  -0.061179   0.016016   0.018111
     4  C    0.411174  -0.024732  -0.029182   0.006414  -0.005737  -0.005777
     5  C   -0.019543   0.377886   0.381947   0.017419   0.000154   0.010301
     6  C    0.000196   0.001208  -0.008719   0.337965  -0.055748   0.019994
     7  C    0.002735   0.001728   0.002752   0.021845   0.303643  -0.034546
     8  C    0.013765   0.011223   0.000501  -0.007449  -0.008155   0.335719
     9  H   -0.000144  -0.005073   0.000283   0.000004   0.000005   0.000448
    10  H    0.001093   0.004085  -0.005118  -0.000031  -0.000068   0.000330
    11  H   -0.000436   0.000773  -0.000092  -0.000239  -0.000062   0.002734
    12  H   -0.042212  -0.006385   0.000911  -0.000267   0.000009   0.000008
    13  H    0.562005   0.004000  -0.004871   0.005032  -0.000151  -0.000057
    14  H    0.004000   0.523310  -0.024269  -0.000011   0.000000  -0.000011
    15  H   -0.004871  -0.024269   0.514677  -0.000012   0.000000  -0.000005
    16  H    0.005032  -0.000011  -0.000012   0.549656  -0.000659  -0.000176
    17  H   -0.000151   0.000000   0.000000  -0.000659   0.561601  -0.001286
    18  H   -0.000057  -0.000011  -0.000005  -0.000176  -0.001286   0.558312
    19  O   -0.000089   0.000015   0.000018  -0.000501  -0.002160  -0.039332
    20  H   -0.000001   0.000000   0.000000   0.000008   0.000210  -0.004079
    21  O   -0.003898  -0.000131   0.000013  -0.011449  -0.042599  -0.001822
    22  H    0.000357   0.000000  -0.000001   0.004498  -0.004120   0.000216
    23  C   -0.010951   0.000743   0.000013  -0.062752   0.068895   0.001519
    24  H    0.000013   0.000000   0.000000  -0.004846   0.001247   0.000002
    25  H   -0.000004   0.000000   0.000000   0.004836  -0.000552  -0.000045
    26  O   -0.000855   0.000006  -0.000001   0.005301   0.000154   0.000071
    27  H    0.000276   0.000008  -0.000002  -0.000348  -0.000014  -0.000001
             19         20         21         22         23         24
     1  C    0.003230   0.006202  -0.017881  -0.001468   0.046246   0.000355
     2  C   -0.037368  -0.060788   0.019989  -0.002250  -0.164881   0.009233
     3  N    0.022481  -0.002030   0.014766  -0.008698   0.077416   0.003469
     4  C   -0.006944  -0.002035  -0.028568  -0.010179  -0.076721  -0.004219
     5  C    0.007068  -0.000259   0.007276   0.005007  -0.027802   0.000157
     6  C    0.014704  -0.003596   0.014729  -0.037753  -0.523858  -0.111276
     7  C   -0.142314   0.013316   0.281998   0.035886  -0.068022   0.012432
     8  C    0.256175   0.056347  -0.157793   0.018824  -0.152780  -0.003606
     9  H   -0.000052   0.000003   0.000496  -0.000002   0.000641   0.000000
    10  H    0.000802   0.000040  -0.001691   0.000104   0.000584   0.000000
    11  H   -0.003115   0.005139   0.000262   0.000011   0.023346  -0.000003
    12  H    0.000070   0.000000   0.000477   0.000001   0.008217  -0.000012
    13  H   -0.000089  -0.000001  -0.003898   0.000357  -0.010951   0.000013
    14  H    0.000015   0.000000  -0.000131   0.000000   0.000743   0.000000
    15  H    0.000018   0.000000   0.000013  -0.000001   0.000013   0.000000
    16  H   -0.000501   0.000008  -0.011449   0.004498  -0.062752  -0.004846
    17  H   -0.002160   0.000210  -0.042599  -0.004120   0.068895   0.001247
    18  H   -0.039332  -0.004079  -0.001822   0.000216   0.001519   0.000002
    19  O    8.244202   0.235870   0.008313  -0.000399  -0.017861   0.000290
    20  H    0.235870   0.377464  -0.000259   0.000009   0.001106   0.000004
    21  O    0.008313  -0.000259   8.203458   0.240937   0.015861  -0.000285
    22  H   -0.000399   0.000009   0.240937   0.372549   0.005815   0.000032
    23  C   -0.017861   0.001106   0.015861   0.005815   5.942470   0.478660
    24  H    0.000290   0.000004  -0.000285   0.000032   0.478660   0.546878
    25  H    0.000424  -0.000012  -0.000078   0.000008   0.424672  -0.038459
    26  O    0.002415   0.000057   0.000150   0.000032   0.206838  -0.059752
    27  H   -0.000122  -0.000003  -0.000090  -0.000001   0.021893   0.006826
             25         26         27
     1  C   -0.001620   0.005482  -0.003508
     2  C    0.027673  -0.009991   0.029020
     3  N    0.017683   0.008083   0.045202
     4  C    0.001217  -0.016136  -0.007695
     5  C    0.003081   0.000964   0.002895
     6  C   -0.175330  -0.096168  -0.075432
     7  C    0.089345   0.020296   0.021230
     8  C   -0.035705  -0.006991  -0.017180
     9  H    0.000001   0.000005  -0.000001
    10  H   -0.000001   0.000033  -0.000001
    11  H   -0.000289   0.001266  -0.000242
    12  H    0.000008   0.003301  -0.001156
    13  H   -0.000004  -0.000855   0.000276
    14  H    0.000000   0.000006   0.000008
    15  H    0.000000  -0.000001  -0.000002
    16  H    0.004836   0.005301  -0.000348
    17  H   -0.000552   0.000154  -0.000014
    18  H   -0.000045   0.000071  -0.000001
    19  O    0.000424   0.002415  -0.000122
    20  H   -0.000012   0.000057  -0.000003
    21  O   -0.000078   0.000150  -0.000090
    22  H    0.000008   0.000032  -0.000001
    23  C    0.424672   0.206838   0.021893
    24  H   -0.038459  -0.059752   0.006826
    25  H    0.566930  -0.044247  -0.004366
    26  O   -0.044247   8.286327   0.232515
    27  H   -0.004366   0.232515   0.368915
 Mulliken atomic charges:
              1
     1  C   -0.439681
     2  C   -0.063306
     3  N   -0.265128
     4  C   -0.098696
     5  C   -0.458231
     6  C    0.061490
     7  C   -0.093743
     8  C    0.030478
     9  H    0.175596
    10  H    0.183200
    11  H    0.158941
    12  H    0.164347
    13  H    0.161698
    14  H    0.177448
    15  H    0.177428
    16  H    0.165717
    17  H    0.168382
    18  H    0.173581
    19  O   -0.545819
    20  H    0.377286
    21  O   -0.542183
    22  H    0.380585
    23  C   -0.219308
    24  H    0.162861
    25  H    0.164830
    26  O   -0.539155
    27  H    0.381381
 Sum of Mulliken atomic charges =   0.00000
 Mulliken charges with hydrogens summed into heavy atoms:
              1
     1  C   -0.080885
     2  C    0.095636
     3  N   -0.265128
     4  C    0.227349
     5  C   -0.103355
     6  C    0.227206
     7  C    0.074639
     8  C    0.204059
    19  O   -0.168533
    21  O   -0.161598
    23  C    0.108383
    26  O   -0.157774
 Sum of Mulliken charges with hydrogens summed into heavy atoms =   0.00000
 Electronic spatial extent (au):  <R**2>=           1949.2138
 Charge=              0.0000 electrons
 Dipole moment (field-independent basis, Debye):
    X=              3.5189    Y=              0.9580    Z=              0.4694  Tot=              3.6770
 Quadrupole moment (field-independent basis, Debye-Ang):
   XX=            -79.6415   YY=            -80.3646   ZZ=            -64.4597
   XY=             -6.6526   XZ=             -7.7822   YZ=             -5.0799
 Traceless Quadrupole moment (field-independent basis, Debye-Ang):
   XX=             -4.8196   YY=             -5.5426   ZZ=             10.3622
   XY=             -6.6526   XZ=             -7.7822   YZ=             -5.0799
 Octapole moment (field-independent basis, Debye-Ang**2):
  XXX=             21.6119  YYY=              3.4132  ZZZ=              4.5157  XYY=             24.6965
  XXY=             21.2087  XXZ=              9.8698  XZZ=             -6.8932  YZZ=              7.6619
  YYZ=            -10.3451  XYZ=             -6.9448
 Hexadecapole moment (field-independent basis, Debye-Ang**3):
 XXXX=          -1243.2657 YYYY=           -891.4808 ZZZZ=           -348.5607 XXXY=            -67.5115
 XXXZ=            -22.9496 YYYX=            -14.8152 YYYZ=            -14.5039 ZZZX=            -13.9913
 ZZZY=            -31.4363 XXYY=           -409.3804 XXZZ=           -274.1006 YYZZ=           -208.6903
 XXYZ=             -5.5462 YYXZ=            -15.5748 ZZXY=             -4.2681
 N-N= 8.122512962968D+02 E-N=-3.010355838466D+03  KE= 5.886603859558D+02
 1\1\GINC-COMPUTE-3-0\SP\RmPW1PW91\6-31+G(d,p)\C8H15N1O3\MAMICHETTI.IQU
 IR\17-May-2024\0\\# mpw1pw91/6-31+G** nmr scrf=(pcm,solvent=water)\\co
 mment\\0,1\C,0,-2.32872,-0.238607,-0.445273\C,0,-0.852212,-0.34815,-0.
 864595\N,0,-0.16267,0.845159,-0.258524\C,0,-1.188084,1.656322,0.447321
 \C,0,-2.513424,1.266375,-0.211258\C,0,0.946511,0.358936,0.595879\C,0,0
 .662648,-1.129605,0.874153\C,0,-0.099116,-1.60333,-0.370428\H,0,-3.004
 051,-0.652366,-1.200595\H,0,-2.49582,-0.783688,0.490601\H,0,-0.77632,-
 0.306132,-1.959047\H,0,-0.964867,2.725558,0.358438\H,0,-1.218851,1.411
 971,1.519236\H,0,-2.637301,1.790237,-1.166892\H,0,-3.375542,1.505256,0
 .419058\H,0,0.957787,0.926246,1.534221\H,0,1.580586,-1.714499,1.019369
 \H,0,-0.793838,-2.41182,-0.110689\O,0,0.869282,-2.07788,-1.313509\H,0,
 0.401618,-2.230115,-2.151969\O,0,-0.220881,-1.30354,1.989958\H,0,0.196
 703,-0.875772,2.756076\C,0,2.291447,0.598771,-0.098315\H,0,3.117735,0.
 338039,0.57122\H,0,2.371782,-0.02351,-0.999611\O,0,2.437151,1.981948,-
 0.426812\H,0,1.580353,2.215988,-0.831744\\Version=AM64L-G09RevC.01\Sta
 te=1-A\HF=-594.1980847\RMSD=3.545e-09\Dipole=-1.3844249,-0.3768943,0.1
 846938\Quadrupole=-3.5832361,-4.1208249,7.704061,-4.9460087,5.7858465,
 3.7767469\PG=C01 [X(C8H15N1O3)]\\@


 GETTING A SIMPLE ANSWER FROM A PROFESSOR IS LIKE
 GETTING A THIMBLE OF WATER FROM A FIRE HYDRANT.
     -- PROF. LEN SHAPIRO, NDSU
 Job cpu time:  0 days  0 hours  9 minutes  4.1 seconds.
 File lengths (MBytes):  RWF=    113 Int=      0 D2E=      0 Chk=      7 Scr=      1
 Normal termination of Gaussian 09 at Fri May 17 12:12:43 2024.
