 Entering Gaussian System, Link 0=g09
 Input=/home/mamichetti.iquir/Linux/02_Cardona_A1A3_R__R_R_R_011_OptB.gjc
 Output=/home/mamichetti.iquir/Linux/02_Cardona_A1A3_R__R_R_R_011_OptB.log
 Initial command:
 /opt/ohpc/pub/apps/software/Gaussian/09/AMD64.SSE4a-enabled/g09/l1.exe /local/mamichetti.iquir/Gau-713518.inp -scrdir=/local/mamichetti.iquir/
 Entering Link 1 = /opt/ohpc/pub/apps/software/Gaussian/09/AMD64.SSE4a-enabled/g09/l1.exe PID=    713519.
  
 Copyright (c) 1988,1990,1992,1993,1995,1998,2003,2009,2011,
            Gaussian, Inc.  All Rights Reserved.
  
 This is part of the Gaussian(R) 09 program.  It is based on
 the Gaussian(R) 03 system (copyright 2003, Gaussian, Inc.),
 the Gaussian(R) 98 system (copyright 1998, Gaussian, Inc.),
 the Gaussian(R) 94 system (copyright 1995, Gaussian, Inc.),
 the Gaussian 92(TM) system (copyright 1992, Gaussian, Inc.),
 the Gaussian 90(TM) system (copyright 1990, Gaussian, Inc.),
 the Gaussian 88(TM) system (copyright 1988, Gaussian, Inc.),
 the Gaussian 86(TM) system (copyright 1986, Carnegie Mellon
 University), and the Gaussian 82(TM) system (copyright 1983,
 Carnegie Mellon University). Gaussian is a federally registered
 trademark of Gaussian, Inc.
  
 This software contains proprietary and confidential information,
 including trade secrets, belonging to Gaussian, Inc.
  
 This software is provided under written license and may be
 used, copied, transmitted, or stored only in accord with that
 written license.
  
 The following legend is applicable only to US Government
 contracts under FAR:
  
                    RESTRICTED RIGHTS LEGEND
  
 Use, reproduction and disclosure by the US Government is
 subject to restrictions as set forth in subparagraphs (a)
 and (c) of the Commercial Computer Software - Restricted
 Rights clause in FAR 52.227-19.
  
 Gaussian, Inc.
 340 Quinnipiac St., Bldg. 40, Wallingford CT 06492
  
  
 ---------------------------------------------------------------
 Warning -- This program may not be used in any manner that
 competes with the business of Gaussian, Inc. or will provide
 assistance to any competitor of Gaussian, Inc.  The licensee
 of this program is prohibited from giving any competitor of
 Gaussian, Inc. access to this program.  By using this program,
 the user acknowledges that Gaussian, Inc. is engaged in the
 business of creating and licensing software in the field of
 computational chemistry and represents and warrants to the
 licensee that it is not a competitor of Gaussian, Inc. and that
 it will not use this program in any manner prohibited above.
 ---------------------------------------------------------------
  

 Cite this work as:
 Gaussian 09, Revision C.01,
 M. J. Frisch, G. W. Trucks, H. B. Schlegel, G. E. Scuseria, 
 M. A. Robb, J. R. Cheeseman, G. Scalmani, V. Barone, B. Mennucci, 
 G. A. Petersson, H. Nakatsuji, M. Caricato, X. Li, H. P. Hratchian, 
 A. F. Izmaylov, J. Bloino, G. Zheng, J. L. Sonnenberg, M. Hada, 
 M. Ehara, K. Toyota, R. Fukuda, J. Hasegawa, M. Ishida, T. Nakajima, 
 Y. Honda, O. Kitao, H. Nakai, T. Vreven, J. A. Montgomery, Jr., 
 J. E. Peralta, F. Ogliaro, M. Bearpark, J. J. Heyd, E. Brothers, 
 K. N. Kudin, V. N. Staroverov, T. Keith, R. Kobayashi, J. Normand, 
 K. Raghavachari, A. Rendell, J. C. Burant, S. S. Iyengar, J. Tomasi, 
 M. Cossi, N. Rega, J. M. Millam, M. Klene, J. E. Knox, J. B. Cross, 
 V. Bakken, C. Adamo, J. Jaramillo, R. Gomperts, R. E. Stratmann, 
 O. Yazyev, A. J. Austin, R. Cammi, C. Pomelli, J. W. Ochterski, 
 R. L. Martin, K. Morokuma, V. G. Zakrzewski, G. A. Voth, 
 P. Salvador, J. J. Dannenberg, S. Dapprich, A. D. Daniels, 
 O. Farkas, J. B. Foresman, J. V. Ortiz, J. Cioslowski, 
 and D. J. Fox, Gaussian, Inc., Wallingford CT, 2010.
 
 ******************************************
 Gaussian 09:  AM64L-G09RevC.01 23-Sep-2011
                17-May-2024 
 ******************************************
 %nprocshared=4
 Will use up to    4 processors via shared memory.
 ------------------------------------------------
 # mpw1pw91/6-31+G** nmr scrf=(pcm,solvent=water)
 ------------------------------------------------
 1/38=1/1;
 2/12=2,17=6,18=5,40=1/2;
 3/5=1,6=6,7=111,11=2,16=1,25=1,30=1,70=2201,72=1,74=-7/1,2,8,3;
 4//1;
 5/5=2,38=5,53=1/2;
 8/6=1,10=90,11=11/1;
 10/13=100,45=16/2;
 6/7=2,8=2,9=2,10=2,28=1/1;
 99/9=1/99;
 -------
 comment
 -------
 Charge =  0 Multiplicity = 1
 Symbolic Z-Matrix:
 6                    -2.4557    0.63182  -0.11509 
 6                    -1.04507   0.60374   0.49368 
 7                    -0.50726  -0.77285   0.21643 
 6                    -1.55884  -1.55901  -0.46479 
 6                    -2.86594  -0.84872  -0.09691 
 6                     0.76497  -0.64554  -0.52116 
 6                     1.28325   0.72994  -0.09665 
 6                     0.00564   1.57546  -0.0726 
 1                    -3.14054   1.28015   0.43984 
 1                    -2.41105   0.99336  -1.15021 
 1                    -1.1059    0.76054   1.58044 
 1                    -1.54413  -2.60676  -0.1446 
 1                    -1.41278  -1.5443   -1.55744 
 1                    -3.18919  -1.14412   0.90874 
 1                    -3.67597  -1.08308  -0.79442 
 1                     0.60096  -0.62381  -1.61358 
 1                     1.69098   0.67568   0.92434 
 1                    -0.24333   1.85241  -1.10323 
 8                     0.12651   2.8102    0.63065 
 1                     0.34556   2.59351   1.55425 
 8                     2.28203   1.18508  -1.00364 
 1                     2.58047   2.05121  -0.67887 
 6                     1.71051  -1.80794  -0.22111 
 1                     1.2873   -2.73695  -0.63269 
 1                     2.6764   -1.63663  -0.70738 
 8                     1.96307  -1.94956   1.17708 
 1                     1.08618  -1.86546   1.59486 
 
                          Input orientation:                          
 ---------------------------------------------------------------------
 Center     Atomic      Atomic             Coordinates (Angstroms)
 Number     Number       Type             X           Y           Z
 ---------------------------------------------------------------------
      1          6           0       -2.455696    0.631815   -0.115089
      2          6           0       -1.045071    0.603735    0.493677
      3          7           0       -0.507259   -0.772854    0.216431
      4          6           0       -1.558835   -1.559010   -0.464793
      5          6           0       -2.865942   -0.848718   -0.096911
      6          6           0        0.764971   -0.645539   -0.521158
      7          6           0        1.283250    0.729942   -0.096651
      8          6           0        0.005642    1.575459   -0.072599
      9          1           0       -3.140542    1.280150    0.439836
     10          1           0       -2.411054    0.993357   -1.150211
     11          1           0       -1.105897    0.760537    1.580441
     12          1           0       -1.544134   -2.606757   -0.144597
     13          1           0       -1.412776   -1.544303   -1.557444
     14          1           0       -3.189185   -1.144122    0.908741
     15          1           0       -3.675971   -1.083079   -0.794415
     16          1           0        0.600956   -0.623814   -1.613581
     17          1           0        1.690981    0.675683    0.924341
     18          1           0       -0.243330    1.852407   -1.103229
     19          8           0        0.126511    2.810203    0.630652
     20          1           0        0.345560    2.593510    1.554252
     21          8           0        2.282031    1.185075   -1.003641
     22          1           0        2.580470    2.051209   -0.678871
     23          6           0        1.710507   -1.807941   -0.221113
     24          1           0        1.287298   -2.736948   -0.632692
     25          1           0        2.676397   -1.636632   -0.707383
     26          8           0        1.963071   -1.949556    1.177084
     27          1           0        1.086175   -1.865460    1.594861
 ---------------------------------------------------------------------
                    Distance matrix (angstroms):
                    1          2          3          4          5
     1  C    0.000000
     2  C    1.536635   0.000000
     3  N    2.424749   1.503697   0.000000
     4  C    2.392983   2.420761   1.479162   0.000000
     5  C    1.536428   2.402912   2.380614   1.532443   0.000000
     6  C    3.488441   2.422154   1.476081   2.497535   3.661256
     7  C    3.740279   2.405305   2.358461   3.667735   4.439365
     8  C    2.636371   1.539128   2.420987   3.525096   3.758087
     9  H    1.094209   2.202597   3.346478   3.373571   2.212596
    10  H    1.097353   2.172575   2.934561   2.776806   2.170162
    11  H    2.171025   1.099701   2.137798   3.125449   2.915642
    12  H    3.364545   3.311150   2.137440   1.095680   2.200034
    13  H    2.811327   2.992720   2.135820   1.102468   2.174554
    14  H    2.177197   2.797232   2.794613   2.171812   1.096853
    15  H    2.211655   3.380260   3.340477   2.194864   1.094342
    16  H    3.628389   2.942247   2.144597   2.618970   3.790811
    17  H    4.275192   2.770673   2.726106   4.181489   4.912464
    18  H    2.713085   2.179926   2.950111   3.711593   3.897030
    19  O    3.459667   2.501973   3.662177   4.809409   4.782450
    20  H    3.805520   2.649128   3.721488   4.994666   4.988889
    21  O    4.851977   3.694526   3.619696   4.751064   5.608930
    22  H    5.262651   4.076101   4.279132   5.496668   6.197714
    23  C    4.829172   3.730994   2.486229   3.287848   4.677544
    24  H    5.062260   4.227152   2.792689   3.084834   4.593678
    25  H    5.642255   4.506785   3.425669   4.242884   5.631253
    26  O    5.278133   4.004405   2.900002   3.905395   5.114125
    27  H    4.658880   3.442636   2.373371   3.366328   4.417588
                    6          7          8          9         10
     6  C    0.000000
     7  C    1.529957   0.000000
     8  C    2.389690   1.532240   0.000000
     9  H    4.459240   4.490043   3.201292   0.000000
    10  H    3.628887   3.850618   2.709338   1.772753   0.000000
    11  H    3.145459   2.919177   2.152245   2.389719   3.035474
    12  H    3.052890   4.373781   4.460708   4.242420   3.837138
    13  H    2.573761   3.817678   3.734915   3.866761   2.757193
    14  H    4.234211   4.952333   4.308836   2.469683   3.068157
    15  H    4.470803   5.326142   4.598165   2.719359   2.457273
    16  H    1.104880   2.144588   2.750605   4.673372   3.449950
    17  H    2.166239   1.100733   2.154960   4.893234   4.607752
    18  H    2.755941   2.145594   1.095849   3.332021   2.332210
    19  O    3.698168   2.488875   1.426101   3.612632   3.593277
    20  H    3.869712   2.660381   1.949004   3.888412   4.180135
    21  O    2.425986   1.423847   2.490218   5.612216   4.699286
    22  H    3.254744   1.941007   2.687684   5.880137   5.124112
    23  C    1.528150   2.576604   3.791572   5.788423   5.069296
    24  H    2.158531   3.508088   4.533564   6.073974   5.278334
    25  H    2.161133   2.813276   4.225330   6.607610   5.744136
    26  O    2.453555   3.043726   4.221252   6.084521   5.762813
    27  H    2.463517   3.104217   3.973399   5.393893   5.285723
                   11         12         13         14         15
    11  H    0.000000
    12  H    3.808737   0.000000
    13  H    3.905481   1.772625   0.000000
    14  H    2.901551   2.440290   3.065590   0.000000
    15  H    3.955268   2.699738   2.432487   1.772407   0.000000
    16  H    3.877054   3.269769   2.214852   4.582357   4.378820
    17  H    2.874055   4.731069   4.552022   5.208450   5.903519
    18  H    3.022960   4.742912   3.620988   4.658892   4.527192
    19  O    2.573336   5.721496   5.110664   5.167965   5.625596
    20  H    2.338205   5.787902   5.467714   5.184689   5.933486
    21  O    4.282029   5.454859   4.626856   6.246324   6.378565
    22  H    4.512164   6.244554   5.444778   6.783773   6.998583
    23  C    4.216018   3.352111   3.407372   5.071904   5.465185
    24  H    4.780977   2.876142   3.093213   4.995199   5.234069
    25  H    5.028549   4.367007   4.177615   6.104054   6.377035
    26  O    4.114106   3.805160   4.363280   5.221731   6.036256
    27  H    3.420709   3.239407   4.035458   4.389737   5.385053
                   16         17         18         19         20
    16  H    0.000000
    17  H    3.052523   0.000000
    18  H    2.665511   3.039289   0.000000
    19  O    4.129667   2.662704   2.015068   0.000000
    20  H    4.522341   2.425903   2.821034   0.973640   0.000000
    21  O    2.543643   2.079888   2.613943   3.155665   3.503773
    22  H    3.456574   2.292063   2.862420   2.883199   3.205581
    23  C    2.138277   2.735111   4.241905   4.955986   4.938398
    24  H    2.428692   3.772713   4.860700   5.806406   5.838097
    25  H    2.480816   2.996726   4.566716   5.297792   5.333094
    26  O    3.376501   2.651375   4.952066   5.130969   4.837153
    27  H    3.474366   2.696812   4.782239   4.869546   4.520240
                   21         22         23         24         25
    21  O    0.000000
    22  H    0.971972   0.000000
    23  C    3.145971   3.982388   0.000000
    24  H    4.063171   4.959927   1.100708   0.000000
    25  H    2.864494   3.689199   1.094874   1.773660   0.000000
    26  O    3.831867   4.453299   1.427865   2.086131   2.039110
    27  H    4.181871   4.768970   1.921161   2.400403   2.807400
                   26         27
    26  O    0.000000
    27  H    0.974965   0.000000
 Stoichiometry    C8H15NO3
 Framework group  C1[X(C8H15NO3)]
 Deg. of freedom    75
 Full point group                 C1      NOp   1
 Largest Abelian subgroup         C1      NOp   1
 Largest concise Abelian subgroup C1      NOp   1
                         Standard orientation:                         
 ---------------------------------------------------------------------
 Center     Atomic      Atomic             Coordinates (Angstroms)
 Number     Number       Type             X           Y           Z
 ---------------------------------------------------------------------
      1          6           0       -2.455696    0.631816   -0.115089
      2          6           0       -1.045071    0.603735    0.493677
      3          7           0       -0.507259   -0.772854    0.216431
      4          6           0       -1.558835   -1.559010   -0.464793
      5          6           0       -2.865942   -0.848717   -0.096911
      6          6           0        0.764971   -0.645539   -0.521158
      7          6           0        1.283250    0.729942   -0.096651
      8          6           0        0.005642    1.575459   -0.072599
      9          1           0       -3.140542    1.280151    0.439836
     10          1           0       -2.411054    0.993358   -1.150211
     11          1           0       -1.105897    0.760537    1.580441
     12          1           0       -1.544135   -2.606757   -0.144597
     13          1           0       -1.412776   -1.544303   -1.557444
     14          1           0       -3.189185   -1.144121    0.908741
     15          1           0       -3.675971   -1.083078   -0.794415
     16          1           0        0.600956   -0.623814   -1.613581
     17          1           0        1.690981    0.675683    0.924341
     18          1           0       -0.243329    1.852407   -1.103229
     19          8           0        0.126512    2.810203    0.630652
     20          1           0        0.345561    2.593510    1.554252
     21          8           0        2.282031    1.185074   -1.003641
     22          1           0        2.580471    2.051208   -0.678871
     23          6           0        1.710507   -1.807941   -0.221113
     24          1           0        1.287297   -2.736948   -0.632692
     25          1           0        2.676397   -1.636633   -0.707383
     26          8           0        1.963071   -1.949556    1.177084
     27          1           0        1.086175   -1.865460    1.594861
 ---------------------------------------------------------------------
 Rotational constants (GHZ):      1.0906470      0.8971093      0.5752102
 Standard basis: 6-31+G(d,p) (6D, 7F)
 There are   303 symmetry adapted basis functions of A   symmetry.
 Integral buffers will be    131072 words long.
 Raffenetti 2 integral format.
 Two-electron integral symmetry is turned on.
   303 basis functions,   489 primitive gaussians,   303 cartesian basis functions
    47 alpha electrons       47 beta electrons
       nuclear repulsion energy       800.0393525766 Hartrees.
 NAtoms=   27 NActive=   27 NUniq=   27 SFac= 1.00D+00 NAtFMM=   60 NAOKFM=F Big=F
 ------------------------------------------------------------------------------
 Polarizable Continuum Model (PCM)
 =================================
 Model                : PCM.
 Atomic radii         : UFF (Universal Force Field).
 Polarization charges : Total charges.
 Charge compensation  : None.
 Solution method      : Matrix inversion.
 Cavity type          : Scaled VdW (van der Waals Surface) (Alpha=1.100).
 Cavity algorithm     : GePol (No added spheres)
                        Default sphere list used, NSphG=   27.
                        Lebedev-Laikov grids with approx.  5.0 points / Ang**2.
                        Smoothing algorithm: Karplus/York (Gamma=1.0000).
                        Polarization charges: spherical gaussians, with
                                              point-specific exponents (IZeta= 3).
                        Self-potential: point-specific (ISelfS= 7).
                        Self-field    : sphere-specific E.n sum rule (ISelfD= 2).
 Solvent              : Water, Eps=  78.355300 Eps(inf)=   1.777849
 ------------------------------------------------------------------------------
 One-electron integrals computed using PRISM.
 NBasis=   303 RedAO= T  NBF=   303
 NBsUse=   303 1.00D-06 NBFU=   303
 Harris functional with IExCor=  908 diagonalized for initial guess.
 ExpMin= 4.38D-02 ExpMax= 5.48D+03 ExpMxC= 8.25D+02 IAcc=2 IRadAn=         4 AccDes= 0.00D+00
 HarFok:  IExCor=  908 AccDes= 0.00D+00 IRadAn=         4 IDoV= 1
 ScaDFX=  1.000000  1.000000  1.000000  1.000000
 FoFCou: FMM=F IPFlag=           0 FMFlag=      100000 FMFlg1=           0
         NFxFlg=           0 DoJE=T BraDBF=F KetDBF=T FulRan=T
         Omega=  0.000000  0.000000  1.000000  0.000000  0.000000 ICntrl=     500 IOpCl=  0
         NMat0=    1 NMatS0=    1 NMatT0=    0 NMatD0=    1 NMtDS0=    0 NMtDT0=    0
         I1Cent=           4 NGrid=           0.
 Petite list used in FoFCou.
 Initial guess orbital symmetries:
       Occupied  (A) (A) (A) (A) (A) (A) (A) (A) (A) (A) (A) (A)
                 (A) (A) (A) (A) (A) (A) (A) (A) (A) (A) (A) (A)
                 (A) (A) (A) (A) (A) (A) (A) (A) (A) (A) (A) (A)
                 (A) (A) (A) (A) (A) (A) (A) (A) (A) (A) (A)
       Virtual   (A) (A) (A) (A) (A) (A) (A) (A) (A) (A) (A) (A)
                 (A) (A) (A) (A) (A) (A) (A) (A) (A) (A) (A) (A)
                 (A) (A) (A) (A) (A) (A) (A) (A) (A) (A) (A) (A)
                 (A) (A) (A) (A) (A) (A) (A) (A) (A) (A) (A) (A)
                 (A) (A) (A) (A) (A) (A) (A) (A) (A) (A) (A) (A)
                 (A) (A) (A) (A) (A) (A) (A) (A) (A) (A) (A) (A)
                 (A) (A) (A) (A) (A) (A) (A) (A) (A) (A) (A) (A)
                 (A) (A) (A) (A) (A) (A) (A) (A) (A) (A) (A) (A)
                 (A) (A) (A) (A) (A) (A) (A) (A) (A) (A) (A) (A)
                 (A) (A) (A) (A) (A) (A) (A) (A) (A) (A) (A) (A)
                 (A) (A) (A) (A) (A) (A) (A) (A) (A) (A) (A) (A)
                 (A) (A) (A) (A) (A) (A) (A) (A) (A) (A) (A) (A)
                 (A) (A) (A) (A) (A) (A) (A) (A) (A) (A) (A) (A)
                 (A) (A) (A) (A) (A) (A) (A) (A) (A) (A) (A) (A)
                 (A) (A) (A) (A) (A) (A) (A) (A) (A) (A) (A) (A)
                 (A) (A) (A) (A) (A) (A) (A) (A) (A) (A) (A) (A)
                 (A) (A) (A) (A) (A) (A) (A) (A) (A) (A) (A) (A)
                 (A) (A) (A) (A) (A) (A) (A) (A) (A) (A) (A) (A)
                 (A) (A) (A) (A) (A) (A) (A) (A) (A) (A) (A) (A)
                 (A) (A) (A) (A) (A) (A) (A) (A) (A) (A) (A) (A)
                 (A) (A) (A) (A) (A) (A) (A) (A) (A) (A) (A) (A)
                 (A) (A) (A) (A)
 The electronic state of the initial guess is 1-A.
 Requested convergence on RMS density matrix=1.00D-08 within 128 cycles.
 Requested convergence on MAX density matrix=1.00D-06.
 Requested convergence on             energy=1.00D-06.
 No special actions if energy rises.
 Error on total polarization charges =  0.01436
 SCF Done:  E(RmPW1PW91) =  -594.202280411     A.U. after   13 cycles
             Convg  =    0.3268D-08             -V/T =  2.0094
 Range of M.O.s used for correlation:     1   303
 NBasis=   303 NAE=    47 NBE=    47 NFC=     0 NFV=     0
 NROrb=    303 NOA=    47 NOB=    47 NVA=   256 NVB=   256

 **** Warning!!: The largest alpha MO coefficient is  0.72742326D+02

 NEqPCM:  Using equilibrium solvation (IEInf=0, Eps=  78.3553, EpsInf=   1.7778)
          Differentiating once with respect to magnetic field using GIAOs.
          Electric field/nuclear overlap derivatives assumed to be zero.
 FoFCou: FMM=F IPFlag=           0 FMFlag=    10101102 FMFlg1=           0
         NFxFlg=    40000000 DoJE=F BraDBF=F KetDBF=T FulRan=T
         Omega=  0.000000  0.000000  1.000000  0.000000  0.000000 ICntrl=    6100 IOpCl=  0
         NMat0=    1 NMatS0=    1 NMatT0=    0 NMatD0=    1 NMtDS0=    0 NMtDT0=    0
         I1Cent=           7 NGrid=        1866.
 Symmetry not used in FoFCou.
          There are     3 degrees of freedom in the 1st order CPHF.  IDoFFX=0.
      3 vectors produced by pass  0 Test12= 4.01D-13 3.33D-08 XBig12= 3.19D+01 1.14D+00.
 AX will form     3 AO Fock derivatives at one time.
      3 vectors produced by pass  1 Test12= 4.01D-13 3.33D-08 XBig12= 8.69D-02 4.34D-02.
      3 vectors produced by pass  2 Test12= 4.01D-13 3.33D-08 XBig12= 1.62D-04 2.38D-03.
      3 vectors produced by pass  3 Test12= 4.01D-13 3.33D-08 XBig12= 7.75D-07 1.62D-04.
      3 vectors produced by pass  4 Test12= 4.01D-13 3.33D-08 XBig12= 2.76D-09 9.33D-06.
      3 vectors produced by pass  5 Test12= 4.01D-13 3.33D-08 XBig12= 7.25D-12 5.08D-07.
 Inverted reduced A of dimension    18 with in-core refinement.
 Calculating GIAO nuclear magnetic shielding tensors.
 SCF GIAO Magnetic shielding tensor (ppm):
      1  C    Isotropic =   162.0523   Anisotropy =    25.2871
   XX=   172.7162   YX=    11.6217   ZX=    10.0558
   XY=     1.2622   YY=   164.8686   ZY=     0.0416
   XZ=    12.6224   YZ=    -6.8530   ZZ=   148.5721
   Eigenvalues:   142.6592   164.5874   178.9104
      2  C    Isotropic =   125.7920   Anisotropy =    53.2229
   XX=   120.3459   YX=     2.8660   ZX=     0.6311
   XY=    -5.3577   YY=   159.4055   ZY=    10.3689
   XZ=    -3.3568   YZ=    11.1284   ZZ=    97.6246
   Eigenvalues:    95.7554   120.3467   161.2739
      3  N    Isotropic =   205.6070   Anisotropy =    70.4764
   XX=   250.7879   YX=    -3.0065   ZX=    -9.5443
   XY=     2.6431   YY=   234.9798   ZY=    32.4383
   XZ=   -11.7523   YZ=    29.6687   ZZ=   131.0534
   Eigenvalues:   121.6727   242.5571   252.5913
      4  C    Isotropic =   139.7873   Anisotropy =    56.9991
   XX=   159.5085   YX=    14.5681   ZX=    15.7044
   XY=    23.6787   YY=   128.4843   ZY=    13.7107
   XZ=    12.8328   YZ=    20.7286   ZZ=   131.3691
   Eigenvalues:   112.0343   129.5409   177.7867
      5  C    Isotropic =   164.7112   Anisotropy =    22.2227
   XX=   179.2398   YX=    -0.8722   ZX=     4.9444
   XY=     1.8864   YY=   177.6085   ZY=    10.0840
   XZ=    -6.3891   YZ=     5.3156   ZZ=   137.2852
   Eigenvalues:   135.8501   178.7572   179.5263
      6  C    Isotropic =   123.4402   Anisotropy =    43.2344
   XX=   141.5541   YX=    15.1936   ZX=    -9.3607
   XY=    11.6083   YY=   109.8135   ZY=    -8.5300
   XZ=   -18.0147   YZ=     2.4811   ZZ=   118.9529
   Eigenvalues:   104.5585   113.4989   152.2631
      7  C    Isotropic =   116.3241   Anisotropy =    43.3239
   XX=   137.3279   YX=     0.9039   ZX=   -30.5669
   XY=     1.5368   YY=   116.6418   ZY=    -9.1725
   XZ=    -8.6474   YZ=     2.5955   ZZ=    95.0026
   Eigenvalues:    87.0834   116.6822   145.2067
      8  C    Isotropic =   110.2168   Anisotropy =    18.9439
   XX=   116.4667   YX=    -1.4907   ZX=    -5.2990
   XY=     1.7085   YY=   116.2652   ZY=    15.7021
   XZ=    -5.9146   YZ=     7.4310   ZZ=    97.9184
   Eigenvalues:    91.2904   116.5138   122.8460
      9  H    Isotropic =    29.4459   Anisotropy =     9.6735
   XX=    31.7651   YX=    -3.3611   ZX=    -2.0109
   XY=    -3.9259   YY=    30.5028   ZY=     2.5083
   XZ=    -2.3229   YZ=     2.3674   ZZ=    26.0698
   Eigenvalues:    24.9296    27.5132    35.8949
     10  H    Isotropic =    29.9817   Anisotropy =     8.1331
   XX=    29.0378   YX=    -0.2596   ZX=     2.5533
   XY=     0.3525   YY=    29.2436   ZY=    -4.1194
   XZ=     2.2779   YZ=    -4.2566   ZZ=    31.6636
   Eigenvalues:    25.4106    29.1307    35.4038
     11  H    Isotropic =    28.4764   Anisotropy =     6.8254
   XX=    26.8508   YX=    -1.3137   ZX=    -0.9878
   XY=    -0.9087   YY=    27.9640   ZY=     3.4534
   XZ=    -0.1210   YZ=     3.1261   ZZ=    30.6142
   Eigenvalues:    25.4439    26.9585    33.0266
     12  H    Isotropic =    28.3707   Anisotropy =     9.4454
   XX=    27.6114   YX=     2.0967   ZX=     0.6254
   XY=     1.4708   YY=    34.2142   ZY=    -0.3672
   XZ=     1.0158   YZ=    -0.3823   ZZ=    23.2865
   Eigenvalues:    23.0907    27.3538    34.6676
     13  H    Isotropic =    29.1643   Anisotropy =     8.4787
   XX=    28.4316   YX=     0.6033   ZX=     2.1970
   XY=     0.9359   YY=    26.8943   ZY=     4.3800
   XZ=     0.6104   YZ=     3.8445   ZZ=    32.1669
   Eigenvalues:    24.6459    28.0302    34.8167
     14  H    Isotropic =    29.5765   Anisotropy =    10.6607
   XX=    30.1366   YX=     1.9444   ZX=    -4.8226
   XY=     2.1572   YY=    28.4511   ZY=    -2.7969
   XZ=    -5.2419   YZ=    -3.0603   ZZ=    30.1420
   Eigenvalues:    24.9400    27.1060    36.6836
     15  H    Isotropic =    29.4806   Anisotropy =    11.7127
   XX=    34.2650   YX=     2.4900   ZX=     4.4427
   XY=     3.1035   YY=    27.3345   ZY=     1.9601
   XZ=     4.1315   YZ=     1.4579   ZZ=    26.8424
   Eigenvalues:    24.7885    26.3643    37.2891
     16  H    Isotropic =    28.9543   Anisotropy =     3.6912
   XX=    28.6460   YX=    -0.7941   ZX=    -2.0247
   XY=    -0.5976   YY=    27.3380   ZY=     0.0780
   XZ=    -0.3989   YZ=    -0.3870   ZZ=    30.8791
   Eigenvalues:    26.9233    28.5246    31.4151
     17  H    Isotropic =    27.4049   Anisotropy =     2.4723
   XX=    27.3706   YX=     1.4735   ZX=    -0.4209
   XY=     0.2619   YY=    27.4142   ZY=    -1.8814
   XZ=     0.7036   YZ=    -1.0355   ZZ=    27.4300
   Eigenvalues:    25.6516    27.5100    29.0531
     18  H    Isotropic =    27.9420   Anisotropy =     2.4079
   XX=    26.8823   YX=     0.7617   ZX=     0.8713
   XY=     1.2635   YY=    29.1435   ZY=     0.3961
   XZ=     0.9275   YZ=    -0.7474   ZZ=    27.8003
   Eigenvalues:    26.0323    28.2465    29.5473
     19  O    Isotropic =   290.9942   Anisotropy =    92.7563
   XX=   253.4791   YX=     7.1981   ZX=    29.5093
   XY=    -0.8704   YY=   274.7314   ZY=   -12.4604
   XZ=    26.6992   YZ=    16.5182   ZZ=   344.7722
   Eigenvalues:   245.3095   274.8414   352.8318
     20  H    Isotropic =    30.8523   Anisotropy =    15.8656
   XX=    23.6689   YX=    -0.3924   ZX=     4.0138
   XY=     0.6309   YY=    28.4901   ZY=     1.8655
   XZ=     3.9265   YZ=     0.8117   ZZ=    40.3978
   Eigenvalues:    22.7689    28.3586    41.4293
     21  O    Isotropic =   299.9538   Anisotropy =    43.9979
   XX=   283.6924   YX=    12.7774   ZX=    10.9098
   XY=    28.9429   YY=   310.4574   ZY=   -16.0207
   XZ=   -18.9760   YZ=    -9.6525   ZZ=   305.7116
   Eigenvalues:   272.0639   298.5118   329.2857
     22  H    Isotropic =    29.3341   Anisotropy =    18.8892
   XX=    28.5875   YX=     8.8613   ZX=    -1.9739
   XY=     7.6757   YY=    36.3635   ZY=     4.5490
   XZ=    -0.9805   YZ=     3.0092   ZZ=    23.0513
   Eigenvalues:    19.7791    26.2963    41.9269
     23  C    Isotropic =   135.6664   Anisotropy =    56.6110
   XX=   115.5282   YX=    -4.7247   ZX=     9.7306
   XY=    -4.9101   YY=   121.2188   ZY=    -6.7641
   XZ=    12.8715   YZ=    -5.3700   ZZ=   170.2523
   Eigenvalues:   111.8269   121.7653   173.4071
     24  H    Isotropic =    27.8915   Anisotropy =     7.4995
   XX=    25.1178   YX=    -0.8406   ZX=     2.1038
   XY=    -1.1711   YY=    30.1363   ZY=     2.4467
   XZ=     2.2528   YZ=     4.4833   ZZ=    28.4204
   Eigenvalues:    23.0419    27.7415    32.8911
     25  H    Isotropic =    27.9488   Anisotropy =     6.5978
   XX=    29.2398   YX=    -2.4296   ZX=    -2.2671
   XY=    -1.3228   YY=    26.1932   ZY=    -0.6910
   XZ=    -4.3015   YZ=    -0.2260   ZZ=    28.4133
   Eigenvalues:    24.1719    27.3272    32.3473
     26  O    Isotropic =   329.8490   Anisotropy =    47.5127
   XX=   347.3377   YX=    -3.2708   ZX=   -22.3019
   XY=    -7.8735   YY=   316.0899   ZY=    25.8474
   XZ=   -14.2686   YZ=     5.0378   ZZ=   326.1195
   Eigenvalues:   303.7194   324.3035   361.5242
     27  H    Isotropic =    29.2421   Anisotropy =    15.8852
   XX=    36.6821   YX=    -2.8926   ZX=    -5.0433
   XY=    -4.4755   YY=    21.2105   ZY=    -4.4515
   XZ=    -5.8689   YZ=    -2.7078   ZZ=    29.8336
   Eigenvalues:    18.2772    29.6169    39.8322
 End of Minotr Frequency-dependent properties file   721 does not exist.
 End of Minotr Frequency-dependent properties file   722 does not exist.

 **********************************************************************

            Population analysis using the SCF density.

 **********************************************************************

 Orbital symmetries:
       Occupied  (A) (A) (A) (A) (A) (A) (A) (A) (A) (A) (A) (A)
                 (A) (A) (A) (A) (A) (A) (A) (A) (A) (A) (A) (A)
                 (A) (A) (A) (A) (A) (A) (A) (A) (A) (A) (A) (A)
                 (A) (A) (A) (A) (A) (A) (A) (A) (A) (A) (A)
       Virtual   (A) (A) (A) (A) (A) (A) (A) (A) (A) (A) (A) (A)
                 (A) (A) (A) (A) (A) (A) (A) (A) (A) (A) (A) (A)
                 (A) (A) (A) (A) (A) (A) (A) (A) (A) (A) (A) (A)
                 (A) (A) (A) (A) (A) (A) (A) (A) (A) (A) (A) (A)
                 (A) (A) (A) (A) (A) (A) (A) (A) (A) (A) (A) (A)
                 (A) (A) (A) (A) (A) (A) (A) (A) (A) (A) (A) (A)
                 (A) (A) (A) (A) (A) (A) (A) (A) (A) (A) (A) (A)
                 (A) (A) (A) (A) (A) (A) (A) (A) (A) (A) (A) (A)
                 (A) (A) (A) (A) (A) (A) (A) (A) (A) (A) (A) (A)
                 (A) (A) (A) (A) (A) (A) (A) (A) (A) (A) (A) (A)
                 (A) (A) (A) (A) (A) (A) (A) (A) (A) (A) (A) (A)
                 (A) (A) (A) (A) (A) (A) (A) (A) (A) (A) (A) (A)
                 (A) (A) (A) (A) (A) (A) (A) (A) (A) (A) (A) (A)
                 (A) (A) (A) (A) (A) (A) (A) (A) (A) (A) (A) (A)
                 (A) (A) (A) (A) (A) (A) (A) (A) (A) (A) (A) (A)
                 (A) (A) (A) (A) (A) (A) (A) (A) (A) (A) (A) (A)
                 (A) (A) (A) (A) (A) (A) (A) (A) (A) (A) (A) (A)
                 (A) (A) (A) (A) (A) (A) (A) (A) (A) (A) (A) (A)
                 (A) (A) (A) (A) (A) (A) (A) (A) (A) (A) (A) (A)
                 (A) (A) (A) (A) (A) (A) (A) (A) (A) (A) (A) (A)
                 (A) (A) (A) (A) (A) (A) (A) (A) (A) (A) (A) (A)
                 (A) (A) (A) (A)
 The electronic state is 1-A.
 Alpha  occ. eigenvalues --  -19.26311 -19.26163 -19.25053 -14.41906 -10.30498
 Alpha  occ. eigenvalues --  -10.30417 -10.29347 -10.28394 -10.28156 -10.27129
 Alpha  occ. eigenvalues --  -10.24825 -10.24799  -1.07525  -1.05818  -1.05347
 Alpha  occ. eigenvalues --   -0.96922  -0.83213  -0.79469  -0.75322  -0.71644
 Alpha  occ. eigenvalues --   -0.66953  -0.62377  -0.60683  -0.58085  -0.55814
 Alpha  occ. eigenvalues --   -0.54235  -0.51073  -0.50084  -0.48667  -0.47487
 Alpha  occ. eigenvalues --   -0.45472  -0.45063  -0.44161  -0.43136  -0.41035
 Alpha  occ. eigenvalues --   -0.39401  -0.38192  -0.37678  -0.36606  -0.35969
 Alpha  occ. eigenvalues --   -0.35419  -0.34614  -0.33739  -0.32361  -0.29457
 Alpha  occ. eigenvalues --   -0.28085  -0.23764
 Alpha virt. eigenvalues --    0.00644   0.01520   0.01753   0.02268   0.03853
 Alpha virt. eigenvalues --    0.04000   0.04603   0.04980   0.05085   0.06667
 Alpha virt. eigenvalues --    0.07855   0.08461   0.08760   0.09184   0.09334
 Alpha virt. eigenvalues --    0.09953   0.11181   0.11808   0.12136   0.12779
 Alpha virt. eigenvalues --    0.13223   0.13938   0.14151   0.14871   0.15121
 Alpha virt. eigenvalues --    0.15690   0.16523   0.17014   0.17605   0.18266
 Alpha virt. eigenvalues --    0.18880   0.19496   0.19719   0.20137   0.20831
 Alpha virt. eigenvalues --    0.21304   0.21721   0.22317   0.22749   0.23232
 Alpha virt. eigenvalues --    0.23837   0.24599   0.25486   0.25635   0.26229
 Alpha virt. eigenvalues --    0.26373   0.27057   0.27819   0.28315   0.28713
 Alpha virt. eigenvalues --    0.30020   0.30446   0.30711   0.30938   0.32218
 Alpha virt. eigenvalues --    0.32374   0.32646   0.33597   0.34224   0.34543
 Alpha virt. eigenvalues --    0.35462   0.35746   0.36452   0.37220   0.37776
 Alpha virt. eigenvalues --    0.38762   0.39274   0.39645   0.40422   0.40658
 Alpha virt. eigenvalues --    0.41726   0.42324   0.43290   0.45541   0.46490
 Alpha virt. eigenvalues --    0.46983   0.62885   0.65405   0.66782   0.67439
 Alpha virt. eigenvalues --    0.69281   0.71064   0.71593   0.72233   0.74442
 Alpha virt. eigenvalues --    0.75262   0.76306   0.79694   0.80170   0.80768
 Alpha virt. eigenvalues --    0.82716   0.83647   0.85357   0.87133   0.88134
 Alpha virt. eigenvalues --    0.90758   0.91399   0.93832   0.95478   0.95806
 Alpha virt. eigenvalues --    0.98546   0.99324   1.02255   1.03371   1.05273
 Alpha virt. eigenvalues --    1.06197   1.06388   1.08358   1.09247   1.09936
 Alpha virt. eigenvalues --    1.11071   1.12237   1.12864   1.14182   1.15082
 Alpha virt. eigenvalues --    1.18078   1.19384   1.21927   1.23178   1.24967
 Alpha virt. eigenvalues --    1.26154   1.27640   1.28383   1.30998   1.32290
 Alpha virt. eigenvalues --    1.33468   1.36232   1.37353   1.37787   1.39072
 Alpha virt. eigenvalues --    1.43168   1.45630   1.46544   1.49946   1.51224
 Alpha virt. eigenvalues --    1.53652   1.54714   1.57699   1.58299   1.59744
 Alpha virt. eigenvalues --    1.61987   1.63491   1.65569   1.66277   1.69440
 Alpha virt. eigenvalues --    1.71535   1.75415   1.76448   1.78025   1.81382
 Alpha virt. eigenvalues --    1.81655   1.83342   1.84093   1.85886   1.86733
 Alpha virt. eigenvalues --    1.88299   1.88857   1.91594   1.93904   1.95559
 Alpha virt. eigenvalues --    1.97275   1.99308   2.00958   2.03287   2.03639
 Alpha virt. eigenvalues --    2.05226   2.06142   2.08357   2.10338   2.11078
 Alpha virt. eigenvalues --    2.13051   2.14745   2.14995   2.16785   2.17889
 Alpha virt. eigenvalues --    2.20097   2.22521   2.23795   2.25708   2.28494
 Alpha virt. eigenvalues --    2.29334   2.31211   2.34547   2.37234   2.39391
 Alpha virt. eigenvalues --    2.41141   2.42609   2.43617   2.46015   2.46335
 Alpha virt. eigenvalues --    2.48227   2.50709   2.52050   2.52523   2.53574
 Alpha virt. eigenvalues --    2.55801   2.55935   2.59467   2.61361   2.63675
 Alpha virt. eigenvalues --    2.64254   2.65664   2.66808   2.68509   2.70249
 Alpha virt. eigenvalues --    2.70371   2.72437   2.74535   2.76499   2.77158
 Alpha virt. eigenvalues --    2.79271   2.80541   2.83365   2.85122   2.85635
 Alpha virt. eigenvalues --    2.86278   2.89903   2.91345   2.92153   2.95132
 Alpha virt. eigenvalues --    2.96315   2.98979   3.00779   3.01178   3.05408
 Alpha virt. eigenvalues --    3.06311   3.09296   3.11813   3.18695   3.31340
 Alpha virt. eigenvalues --    3.34759   3.35851   3.36222   3.38692   3.45051
 Alpha virt. eigenvalues --    3.48289   3.49509   3.52607   3.53998   3.55836
 Alpha virt. eigenvalues --    3.56961   3.57638   3.61456   3.62736   4.29507
 Alpha virt. eigenvalues --    4.36171   4.38310   4.42193   4.48000   4.49850
 Alpha virt. eigenvalues --    4.56115   4.71886   4.76313   4.79335   4.85731
 Alpha virt. eigenvalues --    4.94237
          Condensed to atoms (all electrons):
              1          2          3          4          5          6
     1  C    6.179385  -1.331716   0.223843  -0.292761   0.207330   0.187256
     2  C   -1.331716  10.195995  -0.621627  -0.177823   0.139474  -0.744985
     3  N    0.223843  -0.621627   7.644697   0.223961  -0.198776  -0.543368
     4  C   -0.292761  -0.177823   0.223961   5.586600   0.203899  -0.325973
     5  C    0.207330   0.139474  -0.198776   0.203899   5.493276   0.148877
     6  C    0.187256  -0.744985  -0.543368  -0.325973   0.148877  10.012610
     7  C   -0.202876   0.985655  -0.063106   0.017251  -0.072382  -1.236596
     8  C    0.358322  -1.811258   0.124900   0.147135  -0.141791   0.199552
     9  H    0.399242  -0.081487   0.014891   0.027326  -0.025794   0.003390
    10  H    0.500377  -0.218747   0.031800   0.012198  -0.059218   0.020550
    11  H    0.103073   0.070673   0.011682   0.009617  -0.012752   0.067109
    12  H    0.043991  -0.017288  -0.046225   0.375620  -0.026475   0.009827
    13  H   -0.009796   0.022525  -0.085149   0.429311  -0.039228  -0.014890
    14  H   -0.023975  -0.041902   0.013964  -0.034367   0.394559   0.008824
    15  H   -0.065765   0.050448   0.003630  -0.024858   0.379594  -0.003818
    16  H   -0.019253   0.075565  -0.023547   0.023196   0.000890   0.062773
    17  H    0.009251  -0.039057   0.061176   0.011189  -0.000918  -0.240193
    18  H    0.058860  -0.281512   0.052859   0.008892  -0.000347   0.013352
    19  O   -0.003999  -0.012253   0.016539  -0.006655   0.005157  -0.004551
    20  H    0.021394  -0.137031   0.009793   0.000956  -0.000039   0.007349
    21  O   -0.002718   0.055089   0.009907  -0.000399   0.002926  -0.101436
    22  H    0.000030   0.005921  -0.002610  -0.000279  -0.000100   0.048376
    23  C    0.057128  -0.132222   0.294613   0.030724  -0.034430  -1.277167
    24  H    0.000188  -0.006018  -0.021872   0.015755   0.008316   0.013533
    25  H    0.000751   0.009567   0.019289  -0.003377  -0.001621  -0.226752
    26  O    0.005276  -0.003494   0.036598  -0.002144  -0.003325  -0.160320
    27  H   -0.000524   0.018894   0.048601   0.005015  -0.004474  -0.111114
              7          8          9         10         11         12
     1  C   -0.202876   0.358322   0.399242   0.500377   0.103073   0.043991
     2  C    0.985655  -1.811258  -0.081487  -0.218747   0.070673  -0.017288
     3  N   -0.063106   0.124900   0.014891   0.031800   0.011682  -0.046225
     4  C    0.017251   0.147135   0.027326   0.012198   0.009617   0.375620
     5  C   -0.072382  -0.141791  -0.025794  -0.059218  -0.012752  -0.026475
     6  C   -1.236596   0.199552   0.003390   0.020550   0.067109   0.009827
     7  C    6.535226  -0.539683  -0.003938  -0.012334  -0.077494  -0.002903
     8  C   -0.539683   6.974359   0.007721   0.039484   0.070481  -0.000465
     9  H   -0.003938   0.007721   0.509764  -0.023891  -0.003529  -0.000097
    10  H   -0.012334   0.039484  -0.023891   0.528474   0.004280  -0.000042
    11  H   -0.077494   0.070481  -0.003529   0.004280   0.573249   0.000251
    12  H   -0.002903  -0.000465  -0.000097  -0.000042   0.000251   0.540251
    13  H    0.014491   0.000786  -0.000145   0.001070  -0.000495  -0.041043
    14  H   -0.002761   0.013741  -0.004815   0.004152   0.000928  -0.006073
    15  H    0.000359   0.002003   0.000265  -0.005178  -0.000109   0.000797
    16  H    0.116882  -0.057689  -0.000010  -0.000261  -0.000617  -0.000863
    17  H    0.473673  -0.031252   0.000004  -0.000009   0.000766   0.000013
    18  H   -0.129635   0.588713   0.000343   0.003803   0.004480   0.000012
    19  O   -0.060358   0.201988   0.000631   0.001599   0.005134   0.000046
    20  H   -0.074945   0.158264   0.000053   0.000031   0.004811   0.000000
    21  O    0.290343  -0.162892   0.000013  -0.000303  -0.000557   0.000030
    22  H   -0.009780  -0.031746   0.000000   0.000001   0.000000   0.000000
    23  C    0.125840   0.034803   0.000336   0.000600   0.007275  -0.000136
    24  H   -0.021005  -0.003662   0.000000   0.000002   0.000012  -0.000054
    25  H    0.040918  -0.007659   0.000000   0.000000  -0.000003  -0.000006
    26  O    0.021236  -0.034055   0.000003   0.000014   0.001248   0.001549
    27  H    0.002939  -0.008732  -0.000001  -0.000001  -0.000439  -0.000365
             13         14         15         16         17         18
     1  C   -0.009796  -0.023975  -0.065765  -0.019253   0.009251   0.058860
     2  C    0.022525  -0.041902   0.050448   0.075565  -0.039057  -0.281512
     3  N   -0.085149   0.013964   0.003630  -0.023547   0.061176   0.052859
     4  C    0.429311  -0.034367  -0.024858   0.023196   0.011189   0.008892
     5  C   -0.039228   0.394559   0.379594   0.000890  -0.000918  -0.000347
     6  C   -0.014890   0.008824  -0.003818   0.062773  -0.240193   0.013352
     7  C    0.014491  -0.002761   0.000359   0.116882   0.473673  -0.129635
     8  C    0.000786   0.013741   0.002003  -0.057689  -0.031252   0.588713
     9  H   -0.000145  -0.004815   0.000265  -0.000010   0.000004   0.000343
    10  H    0.001070   0.004152  -0.005178  -0.000261  -0.000009   0.003803
    11  H   -0.000495   0.000928  -0.000109  -0.000617   0.000766   0.004480
    12  H   -0.041043  -0.006073   0.000797  -0.000863   0.000013   0.000012
    13  H    0.567080   0.003934  -0.004595   0.011473  -0.000025  -0.000194
    14  H    0.003934   0.518458  -0.023850  -0.000014  -0.000003  -0.000005
    15  H   -0.004595  -0.023850   0.512060  -0.000018   0.000000  -0.000020
    16  H    0.011473  -0.000014  -0.000018   0.583137   0.004177   0.000642
    17  H   -0.000025  -0.000003   0.000000   0.004177   0.552784   0.004448
    18  H   -0.000194  -0.000005  -0.000020   0.000642   0.004448   0.535213
    19  O   -0.000175   0.000028   0.000002  -0.001167  -0.010032  -0.057765
    20  H    0.000000   0.000000   0.000000  -0.000002   0.004538   0.006899
    21  O   -0.000171  -0.000009  -0.000008   0.005552  -0.040011  -0.003204
    22  H    0.000001   0.000000   0.000000   0.000080  -0.005554  -0.000260
    23  C   -0.010100  -0.001173   0.000297   0.046855   0.059215   0.014155
    24  H    0.000106   0.000003   0.000000  -0.001759   0.000109   0.000007
    25  H    0.000010   0.000000   0.000000   0.001632   0.000489  -0.000004
    26  O   -0.000374   0.000023  -0.000004   0.008692   0.007573   0.000165
    27  H    0.000114   0.000001  -0.000001   0.000627   0.000095  -0.000006
             19         20         21         22         23         24
     1  C   -0.003999   0.021394  -0.002718   0.000030   0.057128   0.000188
     2  C   -0.012253  -0.137031   0.055089   0.005921  -0.132222  -0.006018
     3  N    0.016539   0.009793   0.009907  -0.002610   0.294613  -0.021872
     4  C   -0.006655   0.000956  -0.000399  -0.000279   0.030724   0.015755
     5  C    0.005157  -0.000039   0.002926  -0.000100  -0.034430   0.008316
     6  C   -0.004551   0.007349  -0.101436   0.048376  -1.277167   0.013533
     7  C   -0.060358  -0.074945   0.290343  -0.009780   0.125840  -0.021005
     8  C    0.201988   0.158264  -0.162892  -0.031746   0.034803  -0.003662
     9  H    0.000631   0.000053   0.000013   0.000000   0.000336   0.000000
    10  H    0.001599   0.000031  -0.000303   0.000001   0.000600   0.000002
    11  H    0.005134   0.004811  -0.000557   0.000000   0.007275   0.000012
    12  H    0.000046   0.000000   0.000030   0.000000  -0.000136  -0.000054
    13  H   -0.000175   0.000000  -0.000171   0.000001  -0.010100   0.000106
    14  H    0.000028   0.000000  -0.000009   0.000000  -0.001173   0.000003
    15  H    0.000002   0.000000  -0.000008   0.000000   0.000297   0.000000
    16  H   -0.001167  -0.000002   0.005552   0.000080   0.046855  -0.001759
    17  H   -0.010032   0.004538  -0.040011  -0.005554   0.059215   0.000109
    18  H   -0.057765   0.006899  -0.003204  -0.000260   0.014155   0.000007
    19  O    8.208361   0.250276  -0.004086   0.007007  -0.004853   0.000032
    20  H    0.250276   0.370643  -0.002055   0.000091   0.004641   0.000000
    21  O   -0.004086  -0.002055   8.241604   0.238390   0.011587  -0.000890
    22  H    0.007007   0.000091   0.238390   0.370627  -0.010042   0.000005
    23  C   -0.004853   0.004641   0.011587  -0.010042   5.873942   0.370910
    24  H    0.000032   0.000000  -0.000890   0.000005   0.370910   0.584888
    25  H   -0.000043   0.000000   0.007903  -0.000136   0.540248  -0.038728
    26  O    0.000922   0.000034  -0.000117   0.000426   0.247551  -0.049263
    27  H   -0.000081  -0.000001   0.000479  -0.000005   0.051757  -0.003989
             25         26         27
     1  C    0.000751   0.005276  -0.000524
     2  C    0.009567  -0.003494   0.018894
     3  N    0.019289   0.036598   0.048601
     4  C   -0.003377  -0.002144   0.005015
     5  C   -0.001621  -0.003325  -0.004474
     6  C   -0.226752  -0.160320  -0.111114
     7  C    0.040918   0.021236   0.002939
     8  C   -0.007659  -0.034055  -0.008732
     9  H    0.000000   0.000003  -0.000001
    10  H    0.000000   0.000014  -0.000001
    11  H   -0.000003   0.001248  -0.000439
    12  H   -0.000006   0.001549  -0.000365
    13  H    0.000010  -0.000374   0.000114
    14  H    0.000000   0.000023   0.000001
    15  H    0.000000  -0.000004  -0.000001
    16  H    0.001632   0.008692   0.000627
    17  H    0.000489   0.007573   0.000095
    18  H   -0.000004   0.000165  -0.000006
    19  O   -0.000043   0.000922  -0.000081
    20  H    0.000000   0.000034  -0.000001
    21  O    0.007903  -0.000117   0.000479
    22  H   -0.000136   0.000426  -0.000005
    23  C    0.540248   0.247551   0.051757
    24  H   -0.038728  -0.049263  -0.003989
    25  H    0.537071  -0.053037   0.006196
    26  O   -0.053037   8.280589   0.250693
    27  H    0.006196   0.250693   0.359081
 Mulliken atomic charges:
              1
     1  C   -0.402314
     2  C    0.028612
     3  N   -0.236463
     4  C   -0.260008
     5  C   -0.362628
     6  C    0.187784
     7  C   -0.115016
     8  C   -0.091365
     9  H    0.179728
    10  H    0.171547
    11  H    0.160926
    12  H    0.169648
    13  H    0.155479
    14  H    0.180332
    15  H    0.178770
    16  H    0.163027
    17  H    0.177554
    18  H    0.180109
    19  O   -0.531703
    20  H    0.374300
    21  O   -0.544969
    22  H    0.389557
    23  C   -0.302353
    24  H    0.153374
    25  H    0.167291
    26  O   -0.556458
    27  H    0.385239
 Sum of Mulliken atomic charges =   0.00000
 Mulliken charges with hydrogens summed into heavy atoms:
              1
     1  C   -0.051039
     2  C    0.189538
     3  N   -0.236463
     4  C    0.065119
     5  C   -0.003526
     6  C    0.350811
     7  C    0.062538
     8  C    0.088744
    19  O   -0.157403
    21  O   -0.155412
    23  C    0.018312
    26  O   -0.171218
 Sum of Mulliken charges with hydrogens summed into heavy atoms =   0.00000
 Electronic spatial extent (au):  <R**2>=           2097.1102
 Charge=              0.0000 electrons
 Dipole moment (field-independent basis, Debye):
    X=             -3.4862    Y=              0.1697    Z=              0.2317  Tot=              3.4980
 Quadrupole moment (field-independent basis, Debye-Ang):
   XX=            -76.5038   YY=            -79.4368   ZZ=            -71.6330
   XY=              8.5845   XZ=              0.0011   YZ=              6.9907
 Traceless Quadrupole moment (field-independent basis, Debye-Ang):
   XX=             -0.6460   YY=             -3.5789   ZZ=              4.2249
   XY=              8.5845   XZ=              0.0011   YZ=              6.9907
 Octapole moment (field-independent basis, Debye-Ang**2):
  XXX=            -13.1588  YYY=            -13.0505  ZZZ=             14.9070  XYY=              5.0875
  XXY=             21.9607  XXZ=             -4.5210  XZZ=             -6.6181  YZZ=             11.2880
  YYZ=             -4.3427  XYZ=             13.7629
 Hexadecapole moment (field-independent basis, Debye-Ang**3):
 XXXX=          -1378.5792 YYYY=          -1157.1994 ZZZZ=           -263.0172 XXXY=             64.7306
 XXXZ=            -14.3793 YYYX=             70.6104 YYYZ=             11.6510 ZZZX=              8.2868
 ZZZY=             17.6975 XXYY=           -395.0214 XXZZ=           -297.2843 YYZZ=           -202.9487
 XXYZ=             32.0420 YYXZ=            -20.1220 ZZXY=             10.6111
 N-N= 8.000393525766D+02 E-N=-2.985555482951D+03  KE= 5.886568441107D+02
 1\1\GINC-COMPUTE-3-0\SP\RmPW1PW91\6-31+G(d,p)\C8H15N1O3\MAMICHETTI.IQU
 IR\17-May-2024\0\\# mpw1pw91/6-31+G** nmr scrf=(pcm,solvent=water)\\co
 mment\\0,1\C,0,-2.455696,0.631815,-0.115089\C,0,-1.045071,0.603735,0.4
 93677\N,0,-0.507259,-0.772854,0.216431\C,0,-1.558835,-1.55901,-0.46479
 3\C,0,-2.865942,-0.848718,-0.096911\C,0,0.764971,-0.645539,-0.521158\C
 ,0,1.28325,0.729942,-0.096651\C,0,0.005642,1.575459,-0.072599\H,0,-3.1
 40542,1.28015,0.439836\H,0,-2.411054,0.993357,-1.150211\H,0,-1.105897,
 0.760537,1.580441\H,0,-1.544134,-2.606757,-0.144597\H,0,-1.412776,-1.5
 44303,-1.557444\H,0,-3.189185,-1.144122,0.908741\H,0,-3.675971,-1.0830
 79,-0.794415\H,0,0.600956,-0.623814,-1.613581\H,0,1.690981,0.675683,0.
 924341\H,0,-0.24333,1.852407,-1.103229\O,0,0.126511,2.810203,0.630652\
 H,0,0.34556,2.59351,1.554252\O,0,2.282031,1.185075,-1.003641\H,0,2.580
 47,2.051209,-0.678871\C,0,1.710507,-1.807941,-0.221113\H,0,1.287298,-2
 .736948,-0.632692\H,0,2.676397,-1.636632,-0.707383\O,0,1.963071,-1.949
 556,1.177084\H,0,1.086175,-1.86546,1.594861\\Version=AM64L-G09RevC.01\
 State=1-A\HF=-594.2022804\RMSD=3.268e-09\Dipole=-1.3715779,0.0667581,0
 .0911644\Quadrupole=-0.4802667,-2.6608434,3.1411101,6.3823461,0.000794
 3,5.1974343\PG=C01 [X(C8H15N1O3)]\\@


 THE MORE PROGRESS PHYSICAL SCIENCES MAKE, THE MORE THEY TEND TO ENTER
 THE DOMAIN OF MATHEMATICS, WHICH IS A KIND OF CENTRE TO WHICH THEY ALL
 CONVERGE.  WE MAY EVEN JUDGE THE DEGREE OF PERFECTION TO WHICH A 
 SCIENCE HAS ARRIVED BY THE FACILITY WITH WHICH IT MAY BE SUBMITTED
 TO CALCULATION.

                               -- ADOLPHE QUETELET, 1796-1874
 Job cpu time:  0 days  0 hours  8 minutes 44.8 seconds.
 File lengths (MBytes):  RWF=    115 Int=      0 D2E=      0 Chk=      7 Scr=      1
 Normal termination of Gaussian 09 at Fri May 17 12:40:29 2024.
