 Entering Gaussian System, Link 0=g09
 Input=/home/mamichetti.iquir/Linux/03_Cardona_A1A3_R__S_S_R_023_OptB.gjc
 Output=/home/mamichetti.iquir/Linux/03_Cardona_A1A3_R__S_S_R_023_OptB.log
 Initial command:
 /opt/ohpc/pub/apps/software/Gaussian/09/AMD64.SSE4a-enabled/g09/l1.exe /local/mamichetti.iquir/Gau-132563.inp -scrdir=/local/mamichetti.iquir/
 Entering Link 1 = /opt/ohpc/pub/apps/software/Gaussian/09/AMD64.SSE4a-enabled/g09/l1.exe PID=    132564.
  
 Copyright (c) 1988,1990,1992,1993,1995,1998,2003,2009,2011,
            Gaussian, Inc.  All Rights Reserved.
  
 This is part of the Gaussian(R) 09 program.  It is based on
 the Gaussian(R) 03 system (copyright 2003, Gaussian, Inc.),
 the Gaussian(R) 98 system (copyright 1998, Gaussian, Inc.),
 the Gaussian(R) 94 system (copyright 1995, Gaussian, Inc.),
 the Gaussian 92(TM) system (copyright 1992, Gaussian, Inc.),
 the Gaussian 90(TM) system (copyright 1990, Gaussian, Inc.),
 the Gaussian 88(TM) system (copyright 1988, Gaussian, Inc.),
 the Gaussian 86(TM) system (copyright 1986, Carnegie Mellon
 University), and the Gaussian 82(TM) system (copyright 1983,
 Carnegie Mellon University). Gaussian is a federally registered
 trademark of Gaussian, Inc.
  
 This software contains proprietary and confidential information,
 including trade secrets, belonging to Gaussian, Inc.
  
 This software is provided under written license and may be
 used, copied, transmitted, or stored only in accord with that
 written license.
  
 The following legend is applicable only to US Government
 contracts under FAR:
  
                    RESTRICTED RIGHTS LEGEND
  
 Use, reproduction and disclosure by the US Government is
 subject to restrictions as set forth in subparagraphs (a)
 and (c) of the Commercial Computer Software - Restricted
 Rights clause in FAR 52.227-19.
  
 Gaussian, Inc.
 340 Quinnipiac St., Bldg. 40, Wallingford CT 06492
  
  
 ---------------------------------------------------------------
 Warning -- This program may not be used in any manner that
 competes with the business of Gaussian, Inc. or will provide
 assistance to any competitor of Gaussian, Inc.  The licensee
 of this program is prohibited from giving any competitor of
 Gaussian, Inc. access to this program.  By using this program,
 the user acknowledges that Gaussian, Inc. is engaged in the
 business of creating and licensing software in the field of
 computational chemistry and represents and warrants to the
 licensee that it is not a competitor of Gaussian, Inc. and that
 it will not use this program in any manner prohibited above.
 ---------------------------------------------------------------
  

 Cite this work as:
 Gaussian 09, Revision C.01,
 M. J. Frisch, G. W. Trucks, H. B. Schlegel, G. E. Scuseria, 
 M. A. Robb, J. R. Cheeseman, G. Scalmani, V. Barone, B. Mennucci, 
 G. A. Petersson, H. Nakatsuji, M. Caricato, X. Li, H. P. Hratchian, 
 A. F. Izmaylov, J. Bloino, G. Zheng, J. L. Sonnenberg, M. Hada, 
 M. Ehara, K. Toyota, R. Fukuda, J. Hasegawa, M. Ishida, T. Nakajima, 
 Y. Honda, O. Kitao, H. Nakai, T. Vreven, J. A. Montgomery, Jr., 
 J. E. Peralta, F. Ogliaro, M. Bearpark, J. J. Heyd, E. Brothers, 
 K. N. Kudin, V. N. Staroverov, T. Keith, R. Kobayashi, J. Normand, 
 K. Raghavachari, A. Rendell, J. C. Burant, S. S. Iyengar, J. Tomasi, 
 M. Cossi, N. Rega, J. M. Millam, M. Klene, J. E. Knox, J. B. Cross, 
 V. Bakken, C. Adamo, J. Jaramillo, R. Gomperts, R. E. Stratmann, 
 O. Yazyev, A. J. Austin, R. Cammi, C. Pomelli, J. W. Ochterski, 
 R. L. Martin, K. Morokuma, V. G. Zakrzewski, G. A. Voth, 
 P. Salvador, J. J. Dannenberg, S. Dapprich, A. D. Daniels, 
 O. Farkas, J. B. Foresman, J. V. Ortiz, J. Cioslowski, 
 and D. J. Fox, Gaussian, Inc., Wallingford CT, 2010.
 
 ******************************************
 Gaussian 09:  AM64L-G09RevC.01 23-Sep-2011
                17-May-2024 
 ******************************************
 %nprocshared=4
 Will use up to    4 processors via shared memory.
 ------------------------------------------------
 # mpw1pw91/6-31+G** nmr scrf=(pcm,solvent=water)
 ------------------------------------------------
 1/38=1/1;
 2/12=2,17=6,18=5,40=1/2;
 3/5=1,6=6,7=111,11=2,16=1,25=1,30=1,70=2201,72=1,74=-7/1,2,8,3;
 4//1;
 5/5=2,38=5,53=1/2;
 8/6=1,10=90,11=11/1;
 10/13=100,45=16/2;
 6/7=2,8=2,9=2,10=2,28=1/1;
 99/9=1/99;
 -------
 comment
 -------
 Charge =  0 Multiplicity = 1
 Symbolic Z-Matrix:
 6                     2.44699   0.00113  -0.5483 
 6                     0.96364   0.34039  -0.76814 
 7                     0.1832   -0.77931  -0.12905 
 6                     1.14077  -1.68043   0.54174 
 6                     2.43021  -1.51143  -0.26432 
 6                    -0.85162  -0.18758   0.74188 
 6                    -1.0354    1.24322   0.20155 
 6                     0.40445   1.6436   -0.15185 
 1                     3.06763   0.27317  -1.40707 
 1                     2.83486   0.52922   0.32968 
 1                     0.73685   0.36157  -1.84081 
 1                     0.77669  -2.714     0.55079 
 1                     1.30502  -1.37888   1.59066 
 1                     2.3673   -2.07781  -1.20131 
 1                     3.31322  -1.85726   0.28207 
 1                    -0.49358  -0.09938   1.78112 
 1                    -1.45657   1.90596   0.96862 
 1                     0.42313   2.47501  -0.86663 
 8                     1.03601   2.02585   1.07374 
 1                     1.92587   2.34737   0.85587 
 8                    -1.82861   1.31351  -0.98804 
 1                    -2.33671   0.47634  -1.04312 
 6                    -2.11825  -1.04305   0.77014 
 1                    -1.91292  -2.00204   1.26407 
 1                    -2.91334  -0.53768   1.32627 
 8                    -2.62636  -1.27567  -0.55584 
 1                    -1.85286  -1.59099  -1.06181 
 
                          Input orientation:                          
 ---------------------------------------------------------------------
 Center     Atomic      Atomic             Coordinates (Angstroms)
 Number     Number       Type             X           Y           Z
 ---------------------------------------------------------------------
      1          6           0        2.446985    0.001125   -0.548300
      2          6           0        0.963643    0.340389   -0.768140
      3          7           0        0.183204   -0.779308   -0.129046
      4          6           0        1.140765   -1.680434    0.541738
      5          6           0        2.430208   -1.511433   -0.264324
      6          6           0       -0.851617   -0.187581    0.741876
      7          6           0       -1.035400    1.243224    0.201545
      8          6           0        0.404452    1.643598   -0.151847
      9          1           0        3.067630    0.273174   -1.407066
     10          1           0        2.834863    0.529215    0.329676
     11          1           0        0.736847    0.361568   -1.840813
     12          1           0        0.776693   -2.713999    0.550794
     13          1           0        1.305019   -1.378883    1.590660
     14          1           0        2.367298   -2.077808   -1.201314
     15          1           0        3.313221   -1.857262    0.282068
     16          1           0       -0.493579   -0.099375    1.781115
     17          1           0       -1.456569    1.905957    0.968624
     18          1           0        0.423133    2.475005   -0.866634
     19          8           0        1.036009    2.025851    1.073735
     20          1           0        1.925866    2.347374    0.855865
     21          8           0       -1.828609    1.313505   -0.988042
     22          1           0       -2.336711    0.476344   -1.043117
     23          6           0       -2.118255   -1.043049    0.770136
     24          1           0       -1.912921   -2.002038    1.264073
     25          1           0       -2.913341   -0.537676    1.326273
     26          8           0       -2.626363   -1.275667   -0.555840
     27          1           0       -1.852859   -1.590989   -1.061805
 ---------------------------------------------------------------------
                    Distance matrix (angstroms):
                    1          2          3          4          5
     1  C    0.000000
     2  C    1.537444   0.000000
     3  N    2.430957   1.507066   0.000000
     4  C    2.392077   2.414721   1.476111   0.000000
     5  C    1.539076   2.415344   2.367136   1.530020   0.000000
     6  C    3.546962   2.419518   1.476313   2.497649   3.679049
     7  C    3.772543   2.398244   2.384307   3.660492   4.451473
     8  C    2.650818   1.546242   2.433094   3.474537   3.751074
     9  H    1.093933   2.199888   3.325803   3.365595   2.212914
    10  H    1.095523   2.177687   2.992316   2.792398   2.163522
    11  H    2.173725   1.096591   2.130320   3.163775   2.976730
    12  H    3.371911   3.332240   2.134816   1.095850   2.201067
    13  H    2.789921   2.938770   2.139006   1.103698   2.173611
    14  H    2.180537   2.829411   2.757921   2.168068   1.096672
    15  H    2.212121   3.384246   3.335867   2.195054   1.094465
    16  H    3.752758   2.969106   2.137536   2.589765   3.837481
    17  H    4.600780   3.365231   3.332324   4.448660   5.320315
    18  H    3.212070   2.204186   3.345468   4.445917   4.503645
    19  O    2.953196   2.497703   3.169050   3.745737   4.030704
    20  H    2.783546   2.755223   3.712554   4.115616   4.049639
    21  O    4.494043   2.965128   3.027397   4.485653   5.161547
    22  H    4.832642   3.314579   2.960094   4.388200   5.223150
    23  C    4.865181   3.711912   2.484915   3.328609   4.688071
    24  H    5.128951   4.229831   2.798140   3.154393   4.630276
    25  H    5.704159   4.493169   3.430004   4.284526   5.659657
    26  O    5.231550   3.942696   2.884821   3.944587   5.070451
    27  H    4.613802   3.427702   2.382104   3.397225   4.357404
                    6          7          8          9         10
     6  C    0.000000
     7  C    1.540434   0.000000
     8  C    2.393672   1.535695   0.000000
     9  H    4.493411   4.512591   3.247484   0.000000
    10  H    3.778074   3.937659   2.716728   1.770878   0.000000
    11  H    3.081406   2.844188   2.146321   2.372446   3.023375
    12  H    3.011759   4.366379   4.429551   4.243208   3.847518
    13  H    2.605900   3.779239   3.603157   3.849994   2.751607
    14  H    4.208368   4.957380   4.336244   2.461689   3.059267
    15  H    4.510558   5.341348   4.572225   2.729880   2.434413
    16  H    1.102719   2.142705   2.753317   4.794320   3.685149
    17  H    2.190955   1.097729   2.188078   5.364537   4.551929
    18  H    3.361794   2.187604   1.096589   3.483316   3.321701
    19  O    2.927891   2.379907   1.430746   3.654276   2.455487
    20  H    3.762101   3.227441   1.955885   3.275177   2.099727
    21  O    2.490058   1.431516   2.407228   5.023049   4.909120
    22  H    2.415057   1.957217   3.109794   5.420391   5.350938
    23  C    1.528724   2.592858   3.798970   5.776336   5.215304
    24  H    2.165943   3.525725   4.545955   6.092410   5.460933
    25  H    2.171357   2.821928   4.236808   6.625755   5.930709
    26  O    2.453104   3.074021   4.227429   5.961967   5.819513
    27  H    2.495056   3.208903   4.047966   5.273094   5.329749
                   11         12         13         14         15
    11  H    0.000000
    12  H    3.896214   0.000000
    13  H    3.889344   1.772846   0.000000
    14  H    3.002979   2.450438   3.067907   0.000000
    15  H    4.008433   2.690759   2.444204   1.773086   0.000000
    16  H    3.852892   3.156507   2.215484   4.581888   4.452980
    17  H    3.884475   5.148401   4.336297   5.933041   6.114252
    18  H    2.348203   5.390721   4.654940   4.961844   5.332979
    19  O    3.369559   4.775656   3.454243   4.877314   4.570667
    20  H    3.553768   5.199150   3.848424   4.899906   4.464634
    21  O    2.866176   5.037500   4.870142   5.399271   6.172954
    22  H    3.177460   4.734145   4.862185   5.355037   6.254883
    23  C    4.116019   3.349762   3.536220   5.007747   5.513809
    24  H    4.716802   2.872225   3.293952   4.940056   5.319573
    25  H    4.915582   4.353631   4.309535   6.053582   6.449942
    26  O    3.955108   3.856712   4.480388   5.098698   6.026525
    27  H    3.335552   3.282708   4.129498   4.250433   5.344650
                   16         17         18         19         20
    16  H    0.000000
    17  H    2.368301   0.000000
    18  H    3.805045   2.687986   0.000000
    19  O    2.712307   2.497673   2.083840   0.000000
    20  H    3.563198   3.412980   2.289432   0.970922   0.000000
    21  O    3.383307   2.077969   2.536565   3.600611   4.308708
    22  H    3.421239   2.620219   3.412115   4.272853   5.027569
    23  C    2.133582   3.028838   4.638359   4.411315   5.277995
    24  H    2.429401   3.945627   5.480965   4.995629   5.815523
    25  H    2.500847   2.867305   5.001714   4.715168   5.653558
    26  O    3.375469   3.716872   4.843920   5.193121   5.986829
    27  H    3.486366   4.063043   4.663747   5.097806   5.785060
                   21         22         23         24         25
    21  O    0.000000
    22  H    0.980836   0.000000
    23  C    2.954392   2.375745   0.000000
    24  H    4.008984   3.412492   1.098087   0.000000
    25  H    3.155878   2.640975   1.094007   1.774561   0.000000
    26  O    2.743542   1.841434   1.438922   2.085353   2.041895
    27  H    2.905532   2.123282   1.930461   2.362684   2.817269
                   26         27
    26  O    0.000000
    27  H    0.976595   0.000000
 Stoichiometry    C8H15NO3
 Framework group  C1[X(C8H15NO3)]
 Deg. of freedom    75
 Full point group                 C1      NOp   1
 Largest Abelian subgroup         C1      NOp   1
 Largest concise Abelian subgroup C1      NOp   1
                         Standard orientation:                         
 ---------------------------------------------------------------------
 Center     Atomic      Atomic             Coordinates (Angstroms)
 Number     Number       Type             X           Y           Z
 ---------------------------------------------------------------------
      1          6           0        2.446985    0.001124   -0.548300
      2          6           0        0.963643    0.340389   -0.768140
      3          7           0        0.183204   -0.779308   -0.129046
      4          6           0        1.140765   -1.680434    0.541738
      5          6           0        2.430208   -1.511434   -0.264324
      6          6           0       -0.851617   -0.187581    0.741876
      7          6           0       -1.035400    1.243224    0.201545
      8          6           0        0.404452    1.643598   -0.151847
      9          1           0        3.067630    0.273173   -1.407066
     10          1           0        2.834863    0.529214    0.329676
     11          1           0        0.736847    0.361568   -1.840813
     12          1           0        0.776692   -2.713999    0.550794
     13          1           0        1.305019   -1.378883    1.590660
     14          1           0        2.367298   -2.077809   -1.201314
     15          1           0        3.313221   -1.857263    0.282068
     16          1           0       -0.493579   -0.099375    1.781115
     17          1           0       -1.456569    1.905957    0.968624
     18          1           0        0.423134    2.475005   -0.866634
     19          8           0        1.036009    2.025851    1.073735
     20          1           0        1.925867    2.347374    0.855865
     21          8           0       -1.828609    1.313505   -0.988042
     22          1           0       -2.336711    0.476345   -1.043117
     23          6           0       -2.118255   -1.043048    0.770136
     24          1           0       -1.912921   -2.002038    1.264073
     25          1           0       -2.913341   -0.537675    1.326273
     26          8           0       -2.626363   -1.275666   -0.555840
     27          1           0       -1.852859   -1.590989   -1.061805
 ---------------------------------------------------------------------
 Rotational constants (GHZ):      1.3135198      0.8673164      0.6413914
 Standard basis: 6-31+G(d,p) (6D, 7F)
 There are   303 symmetry adapted basis functions of A   symmetry.
 Integral buffers will be    131072 words long.
 Raffenetti 2 integral format.
 Two-electron integral symmetry is turned on.
   303 basis functions,   489 primitive gaussians,   303 cartesian basis functions
    47 alpha electrons       47 beta electrons
       nuclear repulsion energy       816.8537885854 Hartrees.
 NAtoms=   27 NActive=   27 NUniq=   27 SFac= 1.00D+00 NAtFMM=   60 NAOKFM=F Big=F
 ------------------------------------------------------------------------------
 Polarizable Continuum Model (PCM)
 =================================
 Model                : PCM.
 Atomic radii         : UFF (Universal Force Field).
 Polarization charges : Total charges.
 Charge compensation  : None.
 Solution method      : Matrix inversion.
 Cavity type          : Scaled VdW (van der Waals Surface) (Alpha=1.100).
 Cavity algorithm     : GePol (No added spheres)
                        Default sphere list used, NSphG=   27.
                        Lebedev-Laikov grids with approx.  5.0 points / Ang**2.
                        Smoothing algorithm: Karplus/York (Gamma=1.0000).
                        Polarization charges: spherical gaussians, with
                                              point-specific exponents (IZeta= 3).
                        Self-potential: point-specific (ISelfS= 7).
                        Self-field    : sphere-specific E.n sum rule (ISelfD= 2).
 Solvent              : Water, Eps=  78.355300 Eps(inf)=   1.777849
 ------------------------------------------------------------------------------
 One-electron integrals computed using PRISM.
 NBasis=   303 RedAO= T  NBF=   303
 NBsUse=   303 1.00D-06 NBFU=   303
 Harris functional with IExCor=  908 diagonalized for initial guess.
 ExpMin= 4.38D-02 ExpMax= 5.48D+03 ExpMxC= 8.25D+02 IAcc=2 IRadAn=         4 AccDes= 0.00D+00
 HarFok:  IExCor=  908 AccDes= 0.00D+00 IRadAn=         4 IDoV= 1
 ScaDFX=  1.000000  1.000000  1.000000  1.000000
 FoFCou: FMM=F IPFlag=           0 FMFlag=      100000 FMFlg1=           0
         NFxFlg=           0 DoJE=T BraDBF=F KetDBF=T FulRan=T
         Omega=  0.000000  0.000000  1.000000  0.000000  0.000000 ICntrl=     500 IOpCl=  0
         NMat0=    1 NMatS0=    1 NMatT0=    0 NMatD0=    1 NMtDS0=    0 NMtDT0=    0
         I1Cent=           4 NGrid=           0.
 Petite list used in FoFCou.
 Initial guess orbital symmetries:
       Occupied  (A) (A) (A) (A) (A) (A) (A) (A) (A) (A) (A) (A)
                 (A) (A) (A) (A) (A) (A) (A) (A) (A) (A) (A) (A)
                 (A) (A) (A) (A) (A) (A) (A) (A) (A) (A) (A) (A)
                 (A) (A) (A) (A) (A) (A) (A) (A) (A) (A) (A)
       Virtual   (A) (A) (A) (A) (A) (A) (A) (A) (A) (A) (A) (A)
                 (A) (A) (A) (A) (A) (A) (A) (A) (A) (A) (A) (A)
                 (A) (A) (A) (A) (A) (A) (A) (A) (A) (A) (A) (A)
                 (A) (A) (A) (A) (A) (A) (A) (A) (A) (A) (A) (A)
                 (A) (A) (A) (A) (A) (A) (A) (A) (A) (A) (A) (A)
                 (A) (A) (A) (A) (A) (A) (A) (A) (A) (A) (A) (A)
                 (A) (A) (A) (A) (A) (A) (A) (A) (A) (A) (A) (A)
                 (A) (A) (A) (A) (A) (A) (A) (A) (A) (A) (A) (A)
                 (A) (A) (A) (A) (A) (A) (A) (A) (A) (A) (A) (A)
                 (A) (A) (A) (A) (A) (A) (A) (A) (A) (A) (A) (A)
                 (A) (A) (A) (A) (A) (A) (A) (A) (A) (A) (A) (A)
                 (A) (A) (A) (A) (A) (A) (A) (A) (A) (A) (A) (A)
                 (A) (A) (A) (A) (A) (A) (A) (A) (A) (A) (A) (A)
                 (A) (A) (A) (A) (A) (A) (A) (A) (A) (A) (A) (A)
                 (A) (A) (A) (A) (A) (A) (A) (A) (A) (A) (A) (A)
                 (A) (A) (A) (A) (A) (A) (A) (A) (A) (A) (A) (A)
                 (A) (A) (A) (A) (A) (A) (A) (A) (A) (A) (A) (A)
                 (A) (A) (A) (A) (A) (A) (A) (A) (A) (A) (A) (A)
                 (A) (A) (A) (A) (A) (A) (A) (A) (A) (A) (A) (A)
                 (A) (A) (A) (A) (A) (A) (A) (A) (A) (A) (A) (A)
                 (A) (A) (A) (A) (A) (A) (A) (A) (A) (A) (A) (A)
                 (A) (A) (A) (A)
 The electronic state of the initial guess is 1-A.
 Requested convergence on RMS density matrix=1.00D-08 within 128 cycles.
 Requested convergence on MAX density matrix=1.00D-06.
 Requested convergence on             energy=1.00D-06.
 No special actions if energy rises.
 Error on total polarization charges =  0.01417
 SCF Done:  E(RmPW1PW91) =  -594.201957936     A.U. after   13 cycles
             Convg  =    0.3499D-08             -V/T =  2.0094
 Range of M.O.s used for correlation:     1   303
 NBasis=   303 NAE=    47 NBE=    47 NFC=     0 NFV=     0
 NROrb=    303 NOA=    47 NOB=    47 NVA=   256 NVB=   256

 **** Warning!!: The largest alpha MO coefficient is  0.76727443D+02

 NEqPCM:  Using equilibrium solvation (IEInf=0, Eps=  78.3553, EpsInf=   1.7778)
          Differentiating once with respect to magnetic field using GIAOs.
          Electric field/nuclear overlap derivatives assumed to be zero.
 FoFCou: FMM=F IPFlag=           0 FMFlag=    10101102 FMFlg1=           0
         NFxFlg=    40000000 DoJE=F BraDBF=F KetDBF=T FulRan=T
         Omega=  0.000000  0.000000  1.000000  0.000000  0.000000 ICntrl=    6100 IOpCl=  0
         NMat0=    1 NMatS0=    1 NMatT0=    0 NMatD0=    1 NMtDS0=    0 NMtDT0=    0
         I1Cent=           7 NGrid=        1825.
 Symmetry not used in FoFCou.
          There are     3 degrees of freedom in the 1st order CPHF.  IDoFFX=0.
      3 vectors produced by pass  0 Test12= 4.01D-13 3.33D-08 XBig12= 3.30D+01 1.60D+00.
 AX will form     3 AO Fock derivatives at one time.
      3 vectors produced by pass  1 Test12= 4.01D-13 3.33D-08 XBig12= 7.67D-02 5.79D-02.
      3 vectors produced by pass  2 Test12= 4.01D-13 3.33D-08 XBig12= 1.30D-04 2.50D-03.
      3 vectors produced by pass  3 Test12= 4.01D-13 3.33D-08 XBig12= 4.20D-07 1.45D-04.
      3 vectors produced by pass  4 Test12= 4.01D-13 3.33D-08 XBig12= 1.59D-09 9.54D-06.
      3 vectors produced by pass  5 Test12= 4.01D-13 3.33D-08 XBig12= 5.43D-12 4.52D-07.
 Inverted reduced A of dimension    18 with in-core refinement.
 Calculating GIAO nuclear magnetic shielding tensors.
 SCF GIAO Magnetic shielding tensor (ppm):
      1  C    Isotropic =   171.0128   Anisotropy =    19.1177
   XX=   178.5740   YX=    -4.8368   ZX=    -2.6539
   XY=     3.1460   YY=   179.8833   ZY=   -14.5012
   XZ=    -2.8033   YZ=    -6.7516   ZZ=   154.5812
   Eigenvalues:   150.4213   178.8592   183.7580
      2  C    Isotropic =   125.0560   Anisotropy =    58.2504
   XX=   133.9888   YX=    10.9487   ZX=   -16.9272
   XY=    14.6276   YY=   150.3596   ZY=   -17.5726
   XZ=   -17.4889   YZ=   -12.8375   ZZ=    90.8196
   Eigenvalues:    83.1468   128.1317   163.8896
      3  N    Isotropic =   195.9242   Anisotropy =    75.8899
   XX=   222.5816   YX=   -12.0742   ZX=   -46.7142
   XY=   -22.1154   YY=   221.1235   ZY=   -39.2764
   XZ=   -51.2180   YZ=   -41.6292   ZZ=   144.0675
   Eigenvalues:   104.1147   237.1404   246.5174
      4  C    Isotropic =   139.8622   Anisotropy =    54.6028
   XX=   149.1878   YX=   -22.8756   ZX=    11.3629
   XY=   -31.4975   YY=   134.5774   ZY=    -8.9648
   XZ=     8.0056   YZ=   -17.7224   ZZ=   135.8212
   Eigenvalues:   112.5653   130.7572   176.2640
      5  C    Isotropic =   162.9873   Anisotropy =    25.6048
   XX=   174.2306   YX=    -3.3973   ZX=   -10.2932
   XY=    -6.6860   YY=   172.3558   ZY=   -17.5103
   XZ=   -19.0351   YZ=   -11.0847   ZZ=   142.3754
   Eigenvalues:   131.0889   177.8159   180.0571
      6  C    Isotropic =   126.9443   Anisotropy =    47.4897
   XX=   136.4830   YX=   -18.9368   ZX=   -16.3041
   XY=   -14.0523   YY=   121.4743   ZY=    14.7829
   XZ=   -16.1553   YZ=     9.6552   ZZ=   122.8756
   Eigenvalues:   109.7907   112.4381   158.6041
      7  C    Isotropic =   108.5997   Anisotropy =    26.9070
   XX=   123.0901   YX=    -4.5355   ZX=     8.1231
   XY=     8.0324   YY=   101.7416   ZY=     2.3633
   XZ=    10.6540   YZ=   -11.3335   ZZ=   100.9674
   Eigenvalues:    94.3754   104.8861   126.5377
      8  C    Isotropic =   117.4130   Anisotropy =    34.8493
   XX=   122.7171   YX=     6.9715   ZX=    18.8574
   XY=    -1.0139   YY=   109.8363   ZY=     3.4560
   XZ=    15.5609   YZ=    14.0333   ZZ=   119.6856
   Eigenvalues:   101.1033   110.4898   140.6458
      9  H    Isotropic =    29.9001   Anisotropy =    11.6563
   XX=    31.6710   YX=     1.2526   ZX=    -5.5670
   XY=     2.4267   YY=    27.5664   ZY=    -3.2333
   XZ=    -5.6050   YZ=    -2.0940   ZZ=    30.4629
   Eigenvalues:    25.0969    26.9324    37.6709
     10  H    Isotropic =    29.9190   Anisotropy =     7.3013
   XX=    31.4611   YX=     0.9070   ZX=     2.2900
   XY=     0.8598   YY=    30.7994   ZY=     3.9304
   XZ=     2.7742   YZ=     3.6955   ZZ=    27.4966
   Eigenvalues:    24.5747    30.3958    34.7865
     11  H    Isotropic =    27.5515   Anisotropy =     7.3168
   XX=    26.3100   YX=     0.3250   ZX=    -0.3912
   XY=    -0.4148   YY=    24.5792   ZY=    -2.7820
   XZ=    -0.4977   YZ=    -1.6781   ZZ=    31.7654
   Eigenvalues:    23.9319    26.2934    32.4294
     12  H    Isotropic =    28.3714   Anisotropy =     9.6733
   XX=    27.0999   YX=    -0.2569   ZX=    -0.2577
   XY=     0.6197   YY=    34.2438   ZY=    -2.3926
   XZ=    -0.0154   YZ=    -2.6294   ZZ=    23.7704
   Eigenvalues:    23.1973    27.0966    34.8203
     13  H    Isotropic =    29.2848   Anisotropy =     8.5115
   XX=    28.0360   YX=    -1.3953   ZX=     2.4334
   XY=    -1.7301   YY=    26.6579   ZY=    -2.9134
   XZ=     1.5247   YZ=    -2.4543   ZZ=    33.1604
   Eigenvalues:    25.3737    27.5214    34.9591
     14  H    Isotropic =    29.3114   Anisotropy =    10.5369
   XX=    26.6717   YX=    -1.4031   ZX=    -2.7055
   XY=    -1.7480   YY=    31.4403   ZY=     4.7383
   XZ=    -2.7729   YZ=     4.6865   ZZ=    29.8220
   Eigenvalues:    24.7675    26.8306    36.3359
     15  H    Isotropic =    29.4034   Anisotropy =    11.7554
   XX=    33.6733   YX=    -4.0708   ZX=     2.4568
   XY=    -4.8665   YY=    28.8761   ZY=    -2.2002
   XZ=     2.5244   YZ=    -1.9940   ZZ=    25.6607
   Eigenvalues:    24.6101    26.3597    37.2403
     16  H    Isotropic =    28.7854   Anisotropy =     4.8682
   XX=    27.8060   YX=     0.5501   ZX=    -1.2797
   XY=     1.3559   YY=    26.7113   ZY=     1.0554
   XZ=    -0.4476   YZ=    -0.1036   ZZ=    31.8388
   Eigenvalues:    26.0344    28.2909    32.0308
     17  H    Isotropic =    26.9767   Anisotropy =     5.3606
   XX=    27.2314   YX=    -1.7792   ZX=     0.6627
   XY=    -2.7092   YY=    26.9839   ZY=     2.4316
   XZ=     0.2059   YZ=     3.7211   ZZ=    26.7148
   Eigenvalues:    22.9145    27.4652    30.5505
     18  H    Isotropic =    27.7277   Anisotropy =     6.6619
   XX=    24.7691   YX=    -0.2420   ZX=     1.8378
   XY=     0.8085   YY=    30.5002   ZY=    -2.0017
   XZ=     2.5142   YZ=    -3.0614   ZZ=    27.9139
   Eigenvalues:    23.3467    27.6675    32.1690
     19  O    Isotropic =   292.1293   Anisotropy =    48.1575
   XX=   312.0083   YX=    13.7368   ZX=   -18.5012
   XY=     9.2926   YY=   278.5016   ZY=    -5.9930
   XZ=   -18.7088   YZ=     3.5996   ZZ=   285.8781
   Eigenvalues:   271.9413   280.2124   324.2343
     20  H    Isotropic =    30.1303   Anisotropy =    19.0179
   XX=    38.8934   YX=     7.9021   ZX=    -0.5284
   XY=     7.6811   YY=    27.0751   ZY=     3.8152
   XZ=    -0.3074   YZ=     1.9469   ZZ=    24.4223
   Eigenvalues:    20.9666    26.6153    42.8089
     21  O    Isotropic =   300.4215   Anisotropy =    51.3816
   XX=   305.7023   YX=    21.4484   ZX=    13.9593
   XY=    28.7340   YY=   312.5410   ZY=    -3.7615
   XZ=     5.9693   YZ=   -22.3450   ZZ=   283.0212
   Eigenvalues:   267.2322   299.3563   334.6759
     22  H    Isotropic =    26.3732   Anisotropy =    24.8061
   XX=    23.8074   YX=    10.5475   ZX=     5.1565
   XY=    10.2175   YY=    37.2674   ZY=    -2.7006
   XZ=     5.3663   YZ=    -2.8491   ZZ=    18.0448
   Eigenvalues:    12.1564    24.0527    42.9106
     23  C    Isotropic =   132.3844   Anisotropy =    57.6789
   XX=   121.2876   YX=    12.5005   ZX=    16.6556
   XY=    12.0740   YY=   114.4163   ZY=     9.0649
   XZ=    20.7618   YZ=     3.9295   ZZ=   161.4494
   Eigenvalues:   104.2342   122.0820   170.8370
     24  H    Isotropic =    27.5506   Anisotropy =     7.9629
   XX=    26.1096   YX=     2.1553   ZX=     0.9096
   XY=     2.2305   YY=    27.6465   ZY=    -3.4072
   XZ=     0.9388   YZ=    -5.5042   ZZ=    28.8957
   Eigenvalues:    22.3809    27.4118    32.8592
     25  H    Isotropic =    27.5738   Anisotropy =     6.8879
   XX=    28.9136   YX=     1.1057   ZX=    -2.1692
   XY=    -0.1579   YY=    24.6880   ZY=     0.8888
   XZ=    -4.0702   YZ=     1.2766   ZZ=    29.1197
   Eigenvalues:    24.0242    26.5315    32.1657
     26  O    Isotropic =   314.2004   Anisotropy =    31.9805
   XX=   325.2372   YX=    -8.3296   ZX=   -18.1905
   XY=    -7.2382   YY=   311.4572   ZY=   -17.7859
   XZ=   -16.4312   YZ=    -2.5529   ZZ=   305.9068
   Eigenvalues:   288.6468   318.4337   335.5207
     27  H    Isotropic =    28.4967   Anisotropy =    14.9307
   XX=    34.8088   YX=    -2.2250   ZX=    -3.3237
   XY=    -1.6415   YY=    22.9887   ZY=     7.0688
   XZ=    -5.3351   YZ=     6.3341   ZZ=    27.6927
   Eigenvalues:    18.1817    28.8580    38.4506
 End of Minotr Frequency-dependent properties file   721 does not exist.
 End of Minotr Frequency-dependent properties file   722 does not exist.

 **********************************************************************

            Population analysis using the SCF density.

 **********************************************************************

 Orbital symmetries:
       Occupied  (A) (A) (A) (A) (A) (A) (A) (A) (A) (A) (A) (A)
                 (A) (A) (A) (A) (A) (A) (A) (A) (A) (A) (A) (A)
                 (A) (A) (A) (A) (A) (A) (A) (A) (A) (A) (A) (A)
                 (A) (A) (A) (A) (A) (A) (A) (A) (A) (A) (A)
       Virtual   (A) (A) (A) (A) (A) (A) (A) (A) (A) (A) (A) (A)
                 (A) (A) (A) (A) (A) (A) (A) (A) (A) (A) (A) (A)
                 (A) (A) (A) (A) (A) (A) (A) (A) (A) (A) (A) (A)
                 (A) (A) (A) (A) (A) (A) (A) (A) (A) (A) (A) (A)
                 (A) (A) (A) (A) (A) (A) (A) (A) (A) (A) (A) (A)
                 (A) (A) (A) (A) (A) (A) (A) (A) (A) (A) (A) (A)
                 (A) (A) (A) (A) (A) (A) (A) (A) (A) (A) (A) (A)
                 (A) (A) (A) (A) (A) (A) (A) (A) (A) (A) (A) (A)
                 (A) (A) (A) (A) (A) (A) (A) (A) (A) (A) (A) (A)
                 (A) (A) (A) (A) (A) (A) (A) (A) (A) (A) (A) (A)
                 (A) (A) (A) (A) (A) (A) (A) (A) (A) (A) (A) (A)
                 (A) (A) (A) (A) (A) (A) (A) (A) (A) (A) (A) (A)
                 (A) (A) (A) (A) (A) (A) (A) (A) (A) (A) (A) (A)
                 (A) (A) (A) (A) (A) (A) (A) (A) (A) (A) (A) (A)
                 (A) (A) (A) (A) (A) (A) (A) (A) (A) (A) (A) (A)
                 (A) (A) (A) (A) (A) (A) (A) (A) (A) (A) (A) (A)
                 (A) (A) (A) (A) (A) (A) (A) (A) (A) (A) (A) (A)
                 (A) (A) (A) (A) (A) (A) (A) (A) (A) (A) (A) (A)
                 (A) (A) (A) (A) (A) (A) (A) (A) (A) (A) (A) (A)
                 (A) (A) (A) (A) (A) (A) (A) (A) (A) (A) (A) (A)
                 (A) (A) (A) (A) (A) (A) (A) (A) (A) (A) (A) (A)
                 (A) (A) (A) (A)
 The electronic state is 1-A.
 Alpha  occ. eigenvalues --  -19.26710 -19.25929 -19.24488 -14.41580 -10.30393
 Alpha  occ. eigenvalues --  -10.30279 -10.30169 -10.28396 -10.27709 -10.27000
 Alpha  occ. eigenvalues --  -10.24790 -10.24761  -1.07552  -1.06468  -1.04482
 Alpha  occ. eigenvalues --   -0.96285  -0.82950  -0.79071  -0.75543  -0.72188
 Alpha  occ. eigenvalues --   -0.66921  -0.60862  -0.60489  -0.58037  -0.56361
 Alpha  occ. eigenvalues --   -0.53783  -0.51389  -0.50119  -0.48884  -0.46817
 Alpha  occ. eigenvalues --   -0.45754  -0.45518  -0.44912  -0.42126  -0.40699
 Alpha  occ. eigenvalues --   -0.39891  -0.38995  -0.36887  -0.36613  -0.35785
 Alpha  occ. eigenvalues --   -0.35624  -0.34414  -0.33447  -0.30949  -0.29829
 Alpha  occ. eigenvalues --   -0.28901  -0.23564
 Alpha virt. eigenvalues --    0.00636   0.01398   0.01812   0.02516   0.03953
 Alpha virt. eigenvalues --    0.04391   0.04729   0.05252   0.05555   0.07028
 Alpha virt. eigenvalues --    0.07549   0.07971   0.08619   0.09124   0.09664
 Alpha virt. eigenvalues --    0.10201   0.11363   0.11807   0.12191   0.12320
 Alpha virt. eigenvalues --    0.13613   0.14015   0.14501   0.15184   0.15563
 Alpha virt. eigenvalues --    0.16036   0.16590   0.17396   0.17802   0.18857
 Alpha virt. eigenvalues --    0.18924   0.20094   0.20245   0.20632   0.21049
 Alpha virt. eigenvalues --    0.21224   0.21596   0.22024   0.22282   0.23307
 Alpha virt. eigenvalues --    0.23617   0.24143   0.24341   0.25162   0.26179
 Alpha virt. eigenvalues --    0.26458   0.27159   0.27772   0.28731   0.29215
 Alpha virt. eigenvalues --    0.29902   0.30444   0.30746   0.31346   0.31687
 Alpha virt. eigenvalues --    0.32317   0.32827   0.33219   0.34132   0.34338
 Alpha virt. eigenvalues --    0.35047   0.35173   0.36389   0.36876   0.37667
 Alpha virt. eigenvalues --    0.38894   0.40313   0.40502   0.40623   0.42015
 Alpha virt. eigenvalues --    0.42615   0.43744   0.45177   0.47130   0.50021
 Alpha virt. eigenvalues --    0.51561   0.64217   0.65577   0.67066   0.67933
 Alpha virt. eigenvalues --    0.69123   0.70053   0.71791   0.73150   0.74019
 Alpha virt. eigenvalues --    0.74455   0.75638   0.78824   0.80492   0.81254
 Alpha virt. eigenvalues --    0.82566   0.83862   0.84027   0.87617   0.88978
 Alpha virt. eigenvalues --    0.90200   0.93373   0.94395   0.95021   0.96070
 Alpha virt. eigenvalues --    0.97993   0.99309   1.01970   1.03146   1.05154
 Alpha virt. eigenvalues --    1.05793   1.07304   1.08656   1.09490   1.11497
 Alpha virt. eigenvalues --    1.12112   1.12886   1.13650   1.15724   1.17068
 Alpha virt. eigenvalues --    1.17604   1.18650   1.20792   1.22427   1.23806
 Alpha virt. eigenvalues --    1.27141   1.28853   1.29749   1.30983   1.33184
 Alpha virt. eigenvalues --    1.35489   1.36939   1.38715   1.39808   1.42417
 Alpha virt. eigenvalues --    1.43504   1.44488   1.47344   1.48364   1.51188
 Alpha virt. eigenvalues --    1.52048   1.52995   1.57731   1.61048   1.61387
 Alpha virt. eigenvalues --    1.62390   1.64699   1.66465   1.68383   1.70553
 Alpha virt. eigenvalues --    1.72304   1.74797   1.77313   1.77670   1.79695
 Alpha virt. eigenvalues --    1.80906   1.83180   1.83789   1.86371   1.86800
 Alpha virt. eigenvalues --    1.88524   1.89829   1.92456   1.94824   1.97414
 Alpha virt. eigenvalues --    1.99056   2.00112   2.01712   2.02875   2.04741
 Alpha virt. eigenvalues --    2.07130   2.07395   2.09289   2.10112   2.10362
 Alpha virt. eigenvalues --    2.12012   2.14266   2.15484   2.16814   2.18328
 Alpha virt. eigenvalues --    2.19857   2.24000   2.24478   2.25723   2.29318
 Alpha virt. eigenvalues --    2.29709   2.31123   2.32347   2.38338   2.40534
 Alpha virt. eigenvalues --    2.40887   2.42273   2.44135   2.46989   2.48592
 Alpha virt. eigenvalues --    2.48920   2.50466   2.52464   2.53210   2.55636
 Alpha virt. eigenvalues --    2.57209   2.59816   2.60039   2.60827   2.63181
 Alpha virt. eigenvalues --    2.64316   2.66752   2.67653   2.68898   2.70418
 Alpha virt. eigenvalues --    2.73133   2.73505   2.76284   2.77365   2.78369
 Alpha virt. eigenvalues --    2.80594   2.80895   2.83085   2.83704   2.85320
 Alpha virt. eigenvalues --    2.86006   2.88116   2.90226   2.93067   2.94251
 Alpha virt. eigenvalues --    2.97323   3.00182   3.00711   3.01492   3.03979
 Alpha virt. eigenvalues --    3.05416   3.08555   3.14452   3.18047   3.32139
 Alpha virt. eigenvalues --    3.34846   3.36064   3.37068   3.45142   3.47666
 Alpha virt. eigenvalues --    3.48202   3.48858   3.51726   3.52783   3.56062
 Alpha virt. eigenvalues --    3.57700   3.58411   3.62202   3.65662   4.32883
 Alpha virt. eigenvalues --    4.35528   4.40361   4.41686   4.50729   4.57400
 Alpha virt. eigenvalues --    4.61165   4.71734   4.78143   4.80341   4.91373
 Alpha virt. eigenvalues --    5.00293
          Condensed to atoms (all electrons):
              1          2          3          4          5          6
     1  C    6.045931  -0.850672   0.114062  -0.247134   0.270129   0.252780
     2  C   -0.850672   8.634455  -0.304511  -0.302721   0.201907  -0.518861
     3  N    0.114062  -0.304511   7.645206   0.260205  -0.194798  -0.104059
     4  C   -0.247134  -0.302721   0.260205   5.736770   0.059030  -0.340601
     5  C    0.270129   0.201907  -0.194798   0.059030   5.581363   0.119823
     6  C    0.252780  -0.518861  -0.104059  -0.340601   0.119823   8.593150
     7  C   -0.265277   0.654604  -0.173230   0.137900  -0.099511  -1.735048
     8  C    0.262717  -1.308542  -0.024535   0.141720  -0.140433   0.424136
     9  H    0.396332  -0.084136   0.013132   0.024132  -0.029398   0.008052
    10  H    0.483687  -0.204858   0.031548   0.025711  -0.070820  -0.002981
    11  H    0.059294   0.140539  -0.012358   0.020597  -0.034994   0.038807
    12  H    0.033793  -0.000609  -0.061841   0.379107  -0.027966   0.017348
    13  H   -0.000464   0.004441  -0.076771   0.439245  -0.036490  -0.028694
    14  H   -0.021908  -0.051321   0.017780  -0.030535   0.401531   0.003333
    15  H   -0.071850   0.056151   0.003637  -0.017205   0.373828  -0.004815
    16  H   -0.011131   0.033866  -0.040819   0.029957   0.003090   0.227429
    17  H    0.009907  -0.006936   0.033136   0.003766   0.002320   0.036273
    18  H   -0.006083  -0.031660   0.017420   0.003805  -0.003247  -0.013146
    19  O    0.015876  -0.137429   0.039260   0.045509  -0.040270  -0.017239
    20  H    0.019281  -0.079674  -0.001825  -0.000257  -0.005228  -0.004564
    21  O    0.031270  -0.019776   0.073477   0.017646   0.002675  -0.086635
    22  H   -0.000357  -0.009353  -0.000743   0.000836  -0.001308  -0.046053
    23  C   -0.068701   0.194816  -0.065294  -0.130136   0.000258  -0.674983
    24  H   -0.000590   0.003019  -0.008672   0.009094   0.005362  -0.103265
    25  H    0.000462   0.007361   0.014708  -0.001350  -0.000856  -0.140669
    26  O    0.007991  -0.032673   0.043510   0.023570  -0.004889  -0.287805
    27  H   -0.001875   0.013861   0.035855   0.000438  -0.003157  -0.033009
              7          8          9         10         11         12
     1  C   -0.265277   0.262717   0.396332   0.483687   0.059294   0.033793
     2  C    0.654604  -1.308542  -0.084136  -0.204858   0.140539  -0.000609
     3  N   -0.173230  -0.024535   0.013132   0.031548  -0.012358  -0.061841
     4  C    0.137900   0.141720   0.024132   0.025711   0.020597   0.379107
     5  C   -0.099511  -0.140433  -0.029398  -0.070820  -0.034994  -0.027966
     6  C   -1.735048   0.424136   0.008052  -0.002981   0.038807   0.017348
     7  C    8.166749  -1.218055  -0.013700  -0.012759  -0.041728  -0.002470
     8  C   -1.218055   7.305883   0.029972   0.058351   0.094957  -0.005858
     9  H   -0.013700   0.029972   0.512639  -0.025568  -0.004820  -0.000105
    10  H   -0.012759   0.058351  -0.025568   0.544947   0.004339  -0.000039
    11  H   -0.041728   0.094957  -0.004820   0.004339   0.557437   0.000123
    12  H   -0.002470  -0.005858  -0.000105  -0.000039   0.000123   0.542201
    13  H    0.013019  -0.001062  -0.000141   0.001383  -0.000470  -0.041813
    14  H   -0.003056   0.013748  -0.005093   0.004211   0.000731  -0.005773
    15  H    0.004253  -0.005347   0.000511  -0.005671  -0.000111   0.000549
    16  H    0.059861  -0.022821  -0.000008  -0.000075  -0.000560  -0.001209
    17  H    0.262657   0.020074   0.000003  -0.000021  -0.000111   0.000004
    18  H    0.042193   0.312766   0.000226   0.000314  -0.001515   0.000005
    19  O    0.025865   0.097706  -0.001082   0.008016   0.006122   0.000089
    20  H   -0.006700   0.091051   0.000009   0.004398   0.000259  -0.000001
    21  O    0.203307  -0.111671   0.000054   0.000026  -0.000151  -0.000085
    22  H    0.059094   0.009549   0.000000   0.000001  -0.000032   0.000008
    23  C    0.161605  -0.151916   0.000113  -0.002116   0.001026   0.006196
    24  H    0.034905  -0.021869   0.000000   0.000001   0.000008   0.000063
    25  H    0.014858  -0.004991   0.000000   0.000000  -0.000005  -0.000014
    26  O    0.145531  -0.038548   0.000006   0.000022   0.001350   0.001220
    27  H   -0.014592  -0.000816  -0.000001  -0.000001  -0.000443  -0.000413
             13         14         15         16         17         18
     1  C   -0.000464  -0.021908  -0.071850  -0.011131   0.009907  -0.006083
     2  C    0.004441  -0.051321   0.056151   0.033866  -0.006936  -0.031660
     3  N   -0.076771   0.017780   0.003637  -0.040819   0.033136   0.017420
     4  C    0.439245  -0.030535  -0.017205   0.029957   0.003766   0.003805
     5  C   -0.036490   0.401531   0.373828   0.003090   0.002320  -0.003247
     6  C   -0.028694   0.003333  -0.004815   0.227429   0.036273  -0.013146
     7  C    0.013019  -0.003056   0.004253   0.059861   0.262657   0.042193
     8  C   -0.001062   0.013748  -0.005347  -0.022821   0.020074   0.312766
     9  H   -0.000141  -0.005093   0.000511  -0.000008   0.000003   0.000226
    10  H    0.001383   0.004211  -0.005671  -0.000075  -0.000021   0.000314
    11  H   -0.000470   0.000731  -0.000111  -0.000560  -0.000111  -0.001515
    12  H   -0.041813  -0.005773   0.000549  -0.001209   0.000004   0.000005
    13  H    0.576698   0.004050  -0.004114   0.012933  -0.000036  -0.000020
    14  H    0.004050   0.518669  -0.024357  -0.000008   0.000000  -0.000001
    15  H   -0.004114  -0.024357   0.516174  -0.000009   0.000000   0.000002
    16  H    0.012933  -0.000008  -0.000009   0.571698  -0.003334  -0.000179
    17  H   -0.000036   0.000000   0.000000  -0.003334   0.562619  -0.002789
    18  H   -0.000020  -0.000001   0.000002  -0.000179  -0.002789   0.553235
    19  O    0.001004   0.000070   0.000251   0.004541   0.002085  -0.037714
    20  H    0.000037   0.000002   0.000004  -0.000092   0.000008  -0.006428
    21  O    0.000062  -0.000005  -0.000007   0.009453  -0.043423  -0.007292
    22  H   -0.000002   0.000000   0.000000  -0.000081   0.000625   0.000306
    23  C   -0.013538  -0.001332   0.001564  -0.052608  -0.046246   0.010603
    24  H    0.000075   0.000004   0.000000  -0.002668  -0.000119   0.000003
    25  H    0.000010   0.000000   0.000000   0.001178   0.001478  -0.000003
    26  O   -0.000429   0.000034  -0.000007   0.011335   0.000883   0.000068
    27  H    0.000105   0.000003   0.000000   0.000342  -0.000070  -0.000007
             19         20         21         22         23         24
     1  C    0.015876   0.019281   0.031270  -0.000357  -0.068701  -0.000590
     2  C   -0.137429  -0.079674  -0.019776  -0.009353   0.194816   0.003019
     3  N    0.039260  -0.001825   0.073477  -0.000743  -0.065294  -0.008672
     4  C    0.045509  -0.000257   0.017646   0.000836  -0.130136   0.009094
     5  C   -0.040270  -0.005228   0.002675  -0.001308   0.000258   0.005362
     6  C   -0.017239  -0.004564  -0.086635  -0.046053  -0.674983  -0.103265
     7  C    0.025865  -0.006700   0.203307   0.059094   0.161605   0.034905
     8  C    0.097706   0.091051  -0.111671   0.009549  -0.151916  -0.021869
     9  H   -0.001082   0.000009   0.000054   0.000000   0.000113   0.000000
    10  H    0.008016   0.004398   0.000026   0.000001  -0.002116   0.000001
    11  H    0.006122   0.000259  -0.000151  -0.000032   0.001026   0.000008
    12  H    0.000089  -0.000001  -0.000085   0.000008   0.006196   0.000063
    13  H    0.001004   0.000037   0.000062  -0.000002  -0.013538   0.000075
    14  H    0.000070   0.000002  -0.000005   0.000000  -0.001332   0.000004
    15  H    0.000251   0.000004  -0.000007   0.000000   0.001564   0.000000
    16  H    0.004541  -0.000092   0.009453  -0.000081  -0.052608  -0.002668
    17  H    0.002085   0.000008  -0.043423   0.000625  -0.046246  -0.000119
    18  H   -0.037714  -0.006428  -0.007292   0.000306   0.010603   0.000003
    19  O    8.297818   0.238303   0.009894  -0.000363   0.020750   0.000095
    20  H    0.238303   0.373172  -0.000328   0.000009  -0.004766   0.000000
    21  O    0.009894  -0.000328   8.308334   0.224209  -0.026738  -0.002280
    22  H   -0.000363   0.000009   0.224209   0.329938  -0.026037   0.000754
    23  C    0.020750  -0.004766  -0.026738  -0.026037   6.091283   0.445225
    24  H    0.000095   0.000000  -0.002280   0.000754   0.445225   0.556151
    25  H   -0.000038   0.000000   0.003378  -0.002025   0.482691  -0.032988
    26  O    0.000503  -0.000009  -0.026064   0.059873   0.211045  -0.045826
    27  H   -0.000012   0.000000  -0.000830  -0.007016   0.008195  -0.004788
             25         26         27
     1  C    0.000462   0.007991  -0.001875
     2  C    0.007361  -0.032673   0.013861
     3  N    0.014708   0.043510   0.035855
     4  C   -0.001350   0.023570   0.000438
     5  C   -0.000856  -0.004889  -0.003157
     6  C   -0.140669  -0.287805  -0.033009
     7  C    0.014858   0.145531  -0.014592
     8  C   -0.004991  -0.038548  -0.000816
     9  H    0.000000   0.000006  -0.000001
    10  H    0.000000   0.000022  -0.000001
    11  H   -0.000005   0.001350  -0.000443
    12  H   -0.000014   0.001220  -0.000413
    13  H    0.000010  -0.000429   0.000105
    14  H    0.000000   0.000034   0.000003
    15  H    0.000000  -0.000007   0.000000
    16  H    0.001178   0.011335   0.000342
    17  H    0.001478   0.000883  -0.000070
    18  H   -0.000003   0.000068  -0.000007
    19  O   -0.000038   0.000503  -0.000012
    20  H    0.000000  -0.000009   0.000000
    21  O    0.003378  -0.026064  -0.000830
    22  H   -0.002025   0.059873  -0.007016
    23  C    0.482691   0.211045   0.008195
    24  H   -0.032988  -0.045826  -0.004788
    25  H    0.524691  -0.051132   0.005887
    26  O   -0.051132   8.315232   0.257352
    27  H    0.005887   0.257352   0.335644
 Mulliken atomic charges:
              1
     1  C   -0.457468
     2  C   -0.001288
     3  N   -0.273480
     4  C   -0.289099
     5  C   -0.327952
     6  C    0.421296
     7  C   -0.400275
     8  C    0.193836
     9  H    0.178870
    10  H    0.157953
    11  H    0.171707
    12  H    0.167490
    13  H    0.150982
    14  H    0.179221
    15  H    0.176572
    16  H    0.169918
    17  H    0.167249
    18  H    0.169138
    19  O   -0.579607
    20  H    0.383341
    21  O   -0.558500
    22  H    0.408169
    23  C   -0.370958
    24  H    0.168308
    25  H    0.177371
    26  O   -0.592141
    27  H    0.409347
 Sum of Mulliken atomic charges =   0.00000
 Mulliken charges with hydrogens summed into heavy atoms:
              1
     1  C   -0.120646
     2  C    0.170419
     3  N   -0.273480
     4  C    0.029373
     5  C    0.027841
     6  C    0.591214
     7  C   -0.233026
     8  C    0.362974
    19  O   -0.196266
    21  O   -0.150330
    23  C   -0.025279
    26  O   -0.182794
 Sum of Mulliken charges with hydrogens summed into heavy atoms =   0.00000
 Electronic spatial extent (au):  <R**2>=           1954.3249
 Charge=              0.0000 electrons
 Dipole moment (field-independent basis, Debye):
    X=              4.3495    Y=             -1.6511    Z=              1.2520  Tot=              4.8179
 Quadrupole moment (field-independent basis, Debye-Ang):
   XX=            -73.8770   YY=            -73.5437   ZZ=            -74.4899
   XY=              3.9172   XZ=             -6.8710   YZ=             -1.2539
 Traceless Quadrupole moment (field-independent basis, Debye-Ang):
   XX=              0.0932   YY=              0.4265   ZZ=             -0.5197
   XY=              3.9172   XZ=             -6.8710   YZ=             -1.2539
 Octapole moment (field-independent basis, Debye-Ang**2):
  XXX=             33.5270  YYY=             -0.8149  ZZZ=             -5.0788  XYY=             18.4549
  XXY=             14.1004  XXZ=             15.9339  XZZ=             -4.2882  YZZ=             -9.4751
  YYZ=             -0.0352  XYZ=             -4.3446
 Hexadecapole moment (field-independent basis, Debye-Ang**3):
 XXXX=          -1400.7031 YYYY=           -820.5935 ZZZZ=           -329.0146 XXXY=              6.1285
 XXXZ=            -17.9433 YYYX=             46.2486 YYYZ=             -0.1592 ZZZX=              4.2727
 ZZZY=              6.5523 XXYY=           -368.5834 XXZZ=           -269.6842 YYZZ=           -205.1595
 XXYZ=              9.0751 YYXZ=             -8.1823 ZZXY=             13.4620
 N-N= 8.168537885854D+02 E-N=-3.019519774532D+03  KE= 5.886619941441D+02
 1\1\GINC-COMPUTE-3-2\SP\RmPW1PW91\6-31+G(d,p)\C8H15N1O3\MAMICHETTI.IQU
 IR\17-May-2024\0\\# mpw1pw91/6-31+G** nmr scrf=(pcm,solvent=water)\\co
 mment\\0,1\C,0,2.446985,0.001125,-0.5483\C,0,0.963643,0.340389,-0.7681
 4\N,0,0.183204,-0.779308,-0.129046\C,0,1.140765,-1.680434,0.541738\C,0
 ,2.430208,-1.511433,-0.264324\C,0,-0.851617,-0.187581,0.741876\C,0,-1.
 0354,1.243224,0.201545\C,0,0.404452,1.643598,-0.151847\H,0,3.06763,0.2
 73174,-1.407066\H,0,2.834863,0.529215,0.329676\H,0,0.736847,0.361568,-
 1.840813\H,0,0.776693,-2.713999,0.550794\H,0,1.305019,-1.378883,1.5906
 6\H,0,2.367298,-2.077808,-1.201314\H,0,3.313221,-1.857262,0.282068\H,0
 ,-0.493579,-0.099375,1.781115\H,0,-1.456569,1.905957,0.968624\H,0,0.42
 3133,2.475005,-0.866634\O,0,1.036009,2.025851,1.073735\H,0,1.925866,2.
 347374,0.855865\O,0,-1.828609,1.313505,-0.988042\H,0,-2.336711,0.47634
 4,-1.043117\C,0,-2.118255,-1.043049,0.770136\H,0,-1.912921,-2.002038,1
 .264073\H,0,-2.913341,-0.537676,1.326273\O,0,-2.626363,-1.275667,-0.55
 584\H,0,-1.852859,-1.590989,-1.061805\\Version=AM64L-G09RevC.01\State=
 1-A\HF=-594.2019579\RMSD=3.499e-09\Dipole=1.7112372,-0.6496107,0.49256
 4\Quadrupole=0.0693166,0.3170634,-0.38638,2.9123089,-5.1084215,-0.9322
 38\PG=C01 [X(C8H15N1O3)]\\@


 KNOWLEDGE IS OF TWO KINDS:  WE KNOW A SUBJECT OURSELVES OR WE KNOW 
 WHERE WE CAN FIND INFORMATION UPON IT.

                                    -- SAMUEL JOHNSON
 Job cpu time:  0 days  0 hours  8 minutes 56.8 seconds.
 File lengths (MBytes):  RWF=    113 Int=      0 D2E=      0 Chk=      7 Scr=      1
 Normal termination of Gaussian 09 at Fri May 17 12:58:48 2024.
