 Entering Gaussian System, Link 0=g09
 Input=/home/mamichetti.iquir/Linux/03_Cardona_A1A3_R__S_S_R_024_OptB.gjc
 Output=/home/mamichetti.iquir/Linux/03_Cardona_A1A3_R__S_S_R_024_OptB.log
 Initial command:
 /opt/ohpc/pub/apps/software/Gaussian/09/AMD64.SSE4a-enabled/g09/l1.exe /local/mamichetti.iquir/Gau-121866.inp -scrdir=/local/mamichetti.iquir/
 Entering Link 1 = /opt/ohpc/pub/apps/software/Gaussian/09/AMD64.SSE4a-enabled/g09/l1.exe PID=    121871.
  
 Copyright (c) 1988,1990,1992,1993,1995,1998,2003,2009,2011,
            Gaussian, Inc.  All Rights Reserved.
  
 This is part of the Gaussian(R) 09 program.  It is based on
 the Gaussian(R) 03 system (copyright 2003, Gaussian, Inc.),
 the Gaussian(R) 98 system (copyright 1998, Gaussian, Inc.),
 the Gaussian(R) 94 system (copyright 1995, Gaussian, Inc.),
 the Gaussian 92(TM) system (copyright 1992, Gaussian, Inc.),
 the Gaussian 90(TM) system (copyright 1990, Gaussian, Inc.),
 the Gaussian 88(TM) system (copyright 1988, Gaussian, Inc.),
 the Gaussian 86(TM) system (copyright 1986, Carnegie Mellon
 University), and the Gaussian 82(TM) system (copyright 1983,
 Carnegie Mellon University). Gaussian is a federally registered
 trademark of Gaussian, Inc.
  
 This software contains proprietary and confidential information,
 including trade secrets, belonging to Gaussian, Inc.
  
 This software is provided under written license and may be
 used, copied, transmitted, or stored only in accord with that
 written license.
  
 The following legend is applicable only to US Government
 contracts under FAR:
  
                    RESTRICTED RIGHTS LEGEND
  
 Use, reproduction and disclosure by the US Government is
 subject to restrictions as set forth in subparagraphs (a)
 and (c) of the Commercial Computer Software - Restricted
 Rights clause in FAR 52.227-19.
  
 Gaussian, Inc.
 340 Quinnipiac St., Bldg. 40, Wallingford CT 06492
  
  
 ---------------------------------------------------------------
 Warning -- This program may not be used in any manner that
 competes with the business of Gaussian, Inc. or will provide
 assistance to any competitor of Gaussian, Inc.  The licensee
 of this program is prohibited from giving any competitor of
 Gaussian, Inc. access to this program.  By using this program,
 the user acknowledges that Gaussian, Inc. is engaged in the
 business of creating and licensing software in the field of
 computational chemistry and represents and warrants to the
 licensee that it is not a competitor of Gaussian, Inc. and that
 it will not use this program in any manner prohibited above.
 ---------------------------------------------------------------
  

 Cite this work as:
 Gaussian 09, Revision C.01,
 M. J. Frisch, G. W. Trucks, H. B. Schlegel, G. E. Scuseria, 
 M. A. Robb, J. R. Cheeseman, G. Scalmani, V. Barone, B. Mennucci, 
 G. A. Petersson, H. Nakatsuji, M. Caricato, X. Li, H. P. Hratchian, 
 A. F. Izmaylov, J. Bloino, G. Zheng, J. L. Sonnenberg, M. Hada, 
 M. Ehara, K. Toyota, R. Fukuda, J. Hasegawa, M. Ishida, T. Nakajima, 
 Y. Honda, O. Kitao, H. Nakai, T. Vreven, J. A. Montgomery, Jr., 
 J. E. Peralta, F. Ogliaro, M. Bearpark, J. J. Heyd, E. Brothers, 
 K. N. Kudin, V. N. Staroverov, T. Keith, R. Kobayashi, J. Normand, 
 K. Raghavachari, A. Rendell, J. C. Burant, S. S. Iyengar, J. Tomasi, 
 M. Cossi, N. Rega, J. M. Millam, M. Klene, J. E. Knox, J. B. Cross, 
 V. Bakken, C. Adamo, J. Jaramillo, R. Gomperts, R. E. Stratmann, 
 O. Yazyev, A. J. Austin, R. Cammi, C. Pomelli, J. W. Ochterski, 
 R. L. Martin, K. Morokuma, V. G. Zakrzewski, G. A. Voth, 
 P. Salvador, J. J. Dannenberg, S. Dapprich, A. D. Daniels, 
 O. Farkas, J. B. Foresman, J. V. Ortiz, J. Cioslowski, 
 and D. J. Fox, Gaussian, Inc., Wallingford CT, 2010.
 
 ******************************************
 Gaussian 09:  AM64L-G09RevC.01 23-Sep-2011
                17-May-2024 
 ******************************************
 %nprocshared=4
 Will use up to    4 processors via shared memory.
 ------------------------------------------------
 # mpw1pw91/6-31+G** nmr scrf=(pcm,solvent=water)
 ------------------------------------------------
 1/38=1/1;
 2/12=2,17=6,18=5,40=1/2;
 3/5=1,6=6,7=111,11=2,16=1,25=1,30=1,70=2201,72=1,74=-7/1,2,8,3;
 4//1;
 5/5=2,38=5,53=1/2;
 8/6=1,10=90,11=11/1;
 10/13=100,45=16/2;
 6/7=2,8=2,9=2,10=2,28=1/1;
 99/9=1/99;
 -------
 comment
 -------
 Charge =  0 Multiplicity = 1
 Symbolic Z-Matrix:
 6                     2.59694  -0.02561  -0.35123 
 6                     1.19445   0.45835  -0.78012 
 7                     0.28213  -0.73557  -0.68239 
 6                     1.09252  -1.8782   -0.20499 
 6                     2.31601  -1.27512   0.49843 
 6                    -0.84763  -0.37634   0.20445 
 6                    -0.94544   1.1539    0.0803 
 6                     0.54112   1.56344   0.07293 
 1                     3.17608  -0.29939  -1.24043 
 1                     3.15497   0.74659   0.18455 
 1                     1.21973   0.81508  -1.81644 
 1                     1.41412  -2.48485  -1.06228 
 1                     0.49093  -2.52479   0.44125 
 1                     3.16431  -1.96644   0.53942 
 1                     2.06168  -0.98891   1.52491 
 1                    -0.61791  -0.60095   1.25898 
 1                    -1.48165   1.60208   0.92047 
 1                     0.67802   2.55788  -0.36971 
 8                     1.07337   1.53638   1.40223 
 1                     0.60554   2.22148   1.90926 
 8                    -1.62943   1.60401  -1.09299 
 1                    -1.22999   1.16813  -1.86455 
 6                    -2.11299  -1.13727  -0.16471 
 1                    -2.45098  -0.84353  -1.16704 
 1                    -1.89775  -2.21534  -0.18542 
 8                    -3.11334  -0.84228   0.8177 
 1                    -3.91667  -1.32177   0.55781 
 
                          Input orientation:                          
 ---------------------------------------------------------------------
 Center     Atomic      Atomic             Coordinates (Angstroms)
 Number     Number       Type             X           Y           Z
 ---------------------------------------------------------------------
      1          6           0        2.596936   -0.025611   -0.351225
      2          6           0        1.194446    0.458347   -0.780123
      3          7           0        0.282132   -0.735567   -0.682385
      4          6           0        1.092520   -1.878197   -0.204992
      5          6           0        2.316011   -1.275122    0.498433
      6          6           0       -0.847633   -0.376339    0.204450
      7          6           0       -0.945436    1.153898    0.080302
      8          6           0        0.541116    1.563441    0.072929
      9          1           0        3.176083   -0.299389   -1.240426
     10          1           0        3.154974    0.746590    0.184550
     11          1           0        1.219733    0.815084   -1.816436
     12          1           0        1.414119   -2.484852   -1.062278
     13          1           0        0.490931   -2.524789    0.441252
     14          1           0        3.164305   -1.966438    0.539415
     15          1           0        2.061681   -0.988905    1.524908
     16          1           0       -0.617907   -0.600951    1.258981
     17          1           0       -1.481646    1.602077    0.920470
     18          1           0        0.678023    2.557883   -0.369707
     19          8           0        1.073368    1.536375    1.402228
     20          1           0        0.605535    2.221483    1.909264
     21          8           0       -1.629432    1.604007   -1.092986
     22          1           0       -1.229989    1.168125   -1.864551
     23          6           0       -2.112987   -1.137272   -0.164709
     24          1           0       -2.450979   -0.843529   -1.167037
     25          1           0       -1.897753   -2.215336   -0.185421
     26          8           0       -3.113335   -0.842280    0.817698
     27          1           0       -3.916669   -1.321773    0.557806
 ---------------------------------------------------------------------
                    Distance matrix (angstroms):
                    1          2          3          4          5
     1  C    0.000000
     2  C    1.544392   0.000000
     3  N    2.443772   1.505756   0.000000
     4  C    2.390968   2.408444   1.479945   0.000000
     5  C    1.536917   2.428483   2.412906   1.534743   0.000000
     6  C    3.506685   2.415817   1.480503   2.487451   3.301951
     7  C    3.758438   2.408987   2.378801   3.664459   4.088032
     8  C    2.632753   1.541353   2.433723   3.496592   3.374722
     9  H    1.095922   2.170928   2.979365   2.811760   2.171499
    10  H    1.093049   2.203939   3.346877   3.360798   2.211267
    11  H    2.179518   1.096287   2.137682   3.141130   3.305965
    12  H    2.820021   2.964842   2.117950   1.098360   2.170870
    13  H    3.362911   3.299362   2.123081   1.094359   2.212658
    14  H    2.209515   3.391328   3.363742   2.203230   1.095080
    15  H    2.175847   2.856537   2.846597   2.173170   1.095561
    16  H    3.641290   2.926548   2.144083   2.588462   3.104966
    17  H    4.571806   3.370698   3.338358   4.472729   4.783157
    18  H    3.218231   2.200724   3.331863   4.458446   4.257769
    19  O    2.799224   2.437101   3.183298   3.773967   3.203985
    20  H    3.758313   3.269292   3.945298   4.638384   4.140340
    21  O    4.589995   3.063447   3.048980   4.508137   5.136976
    22  H    4.284917   2.749119   2.703344   4.174717   4.911951
    23  C    4.842928   3.723419   2.483133   3.290269   4.480489
    24  H    5.178415   3.890207   2.777848   3.814768   5.067964
    25  H    5.002461   4.130853   2.681154   3.009282   4.371209
    26  O    5.885620   4.775106   3.713601   4.450644   5.455922
    27  H    6.703240   5.575157   4.417198   5.097396   6.233137
                    6          7          8          9         10
     6  C    0.000000
     7  C    1.538377   0.000000
     8  C    2.389282   1.541952   0.000000
     9  H    4.275965   4.565445   3.483976   0.000000
    10  H    4.157190   4.121908   2.740795   1.767788   0.000000
    11  H    3.126895   2.898339   2.142489   2.324036   2.784564
    12  H    3.341549   4.484807   4.294125   2.812917   3.876516
    13  H    2.542374   3.965624   4.105095   3.871755   4.226694
    14  H    4.328541   5.180468   4.422530   2.438652   2.736154
    15  H    3.253145   3.965002   3.306786   3.060130   2.450264
    16  H    1.102388   2.139171   2.726655   4.553277   4.147879
    17  H    2.197450   1.092826   2.193487   5.475352   4.771968
    18  H    3.356626   2.193012   1.097080   3.893900   3.118216
    19  O    2.963679   2.443225   1.432152   3.843834   2.537633
    20  H    3.430272   2.624948   1.951742   4.783624   3.413149
    21  O    2.493255   1.430753   2.464200   5.170844   5.025714
    22  H    2.610044   1.965611   2.654603   4.685787   4.858437
    23  C    1.521978   2.583150   3.794020   5.462003   5.605563
    24  H    2.161009   2.795036   4.035301   5.653786   5.981804
    25  H    2.153291   3.511304   4.504884   5.525188   5.868555
    26  O    2.393027   3.037806   4.438151   6.639833   6.497467
    27  H    3.230741   3.896817   5.332111   7.388236   7.377369
                   11         12         13         14         15
    11  H    0.000000
    12  H    3.390593   0.000000
    13  H    4.096713   1.764787   0.000000
    14  H    4.131375   2.428441   2.732823   0.000000
    15  H    3.889451   3.057896   2.449593   1.772723   0.000000
    16  H    3.852307   3.614755   2.366296   4.085028   2.720555
    17  H    3.925234   5.386997   4.599101   5.870636   4.430993
    18  H    2.328910   5.143021   5.150360   5.241906   4.252503
    19  O    3.301739   4.728654   4.213759   4.169672   2.714563
    20  H    4.029397   5.624363   4.969436   5.095338   3.546080
    21  O    3.043603   5.097344   4.888433   6.196186   5.215446
    22  H    2.475498   4.580305   4.681443   5.908837   5.193872
    23  C    4.200824   3.880989   3.012106   5.388239   4.506070
    24  H    4.080054   4.200464   3.750742   5.975309   5.256596
    25  H    4.643530   3.436570   2.488833   5.119743   4.484025
    26  O    5.334885   5.170125   3.995408   6.383568   5.225173
    27  H    6.048620   5.691636   4.570314   7.110283   6.065209
                   16         17         18         19         20
    16  H    0.000000
    17  H    2.390391   0.000000
    18  H    3.782895   2.691151   0.000000
    19  O    2.729303   2.600866   2.083154   0.000000
    20  H    3.144171   2.391172   2.304805   0.972279   0.000000
    21  O    3.378871   2.018873   2.599492   3.679102   3.793397
    22  H    3.641528   2.829839   2.794011   4.014089   4.326707
    23  C    2.133025   3.013343   4.635292   4.444833   4.793012
    24  H    3.050338   3.358315   4.689989   4.968510   5.310386
    25  H    2.516057   3.996096   5.426988   5.042175   5.508132
    26  O    2.545610   2.940723   5.229286   4.850583   4.940461
    27  H    3.448632   3.822272   6.084670   5.812274   5.901816
                   21         22         23         24         25
    21  O    0.000000
    22  H    0.972039   0.000000
    23  C    2.934303   2.997333   0.000000
    24  H    2.582800   2.454403   1.097809   0.000000
    25  H    3.934851   3.835778   1.099535   1.775242   0.000000
    26  O    3.440494   3.844890   1.432774   2.092341   2.090256
    27  H    4.064081   4.391544   1.951752   2.313449   2.329563
                   26         27
    26  O    0.000000
    27  H    0.970980   0.000000
 Stoichiometry    C8H15NO3
 Framework group  C1[X(C8H15NO3)]
 Deg. of freedom    75
 Full point group                 C1      NOp   1
 Largest Abelian subgroup         C1      NOp   1
 Largest concise Abelian subgroup C1      NOp   1
                         Standard orientation:                         
 ---------------------------------------------------------------------
 Center     Atomic      Atomic             Coordinates (Angstroms)
 Number     Number       Type             X           Y           Z
 ---------------------------------------------------------------------
      1          6           0        2.596936   -0.025611   -0.351225
      2          6           0        1.194446    0.458347   -0.780123
      3          7           0        0.282132   -0.735567   -0.682385
      4          6           0        1.092520   -1.878197   -0.204992
      5          6           0        2.316011   -1.275122    0.498433
      6          6           0       -0.847633   -0.376339    0.204450
      7          6           0       -0.945436    1.153898    0.080302
      8          6           0        0.541116    1.563441    0.072929
      9          1           0        3.176083   -0.299389   -1.240426
     10          1           0        3.154974    0.746590    0.184550
     11          1           0        1.219733    0.815084   -1.816436
     12          1           0        1.414119   -2.484852   -1.062278
     13          1           0        0.490931   -2.524789    0.441252
     14          1           0        3.164305   -1.966438    0.539415
     15          1           0        2.061681   -0.988905    1.524908
     16          1           0       -0.617907   -0.600951    1.258981
     17          1           0       -1.481646    1.602077    0.920470
     18          1           0        0.678023    2.557883   -0.369707
     19          8           0        1.073368    1.536375    1.402228
     20          1           0        0.605535    2.221483    1.909264
     21          8           0       -1.629432    1.604007   -1.092986
     22          1           0       -1.229989    1.168125   -1.864551
     23          6           0       -2.112987   -1.137272   -0.164709
     24          1           0       -2.450979   -0.843529   -1.167037
     25          1           0       -1.897753   -2.215336   -0.185421
     26          8           0       -3.113335   -0.842280    0.817698
     27          1           0       -3.916669   -1.321773    0.557806
 ---------------------------------------------------------------------
 Rotational constants (GHZ):      1.3726316      0.7897499      0.6275246
 Standard basis: 6-31+G(d,p) (6D, 7F)
 There are   303 symmetry adapted basis functions of A   symmetry.
 Integral buffers will be    131072 words long.
 Raffenetti 2 integral format.
 Two-electron integral symmetry is turned on.
   303 basis functions,   489 primitive gaussians,   303 cartesian basis functions
    47 alpha electrons       47 beta electrons
       nuclear repulsion energy       810.3705117960 Hartrees.
 NAtoms=   27 NActive=   27 NUniq=   27 SFac= 1.00D+00 NAtFMM=   60 NAOKFM=F Big=F
 ------------------------------------------------------------------------------
 Polarizable Continuum Model (PCM)
 =================================
 Model                : PCM.
 Atomic radii         : UFF (Universal Force Field).
 Polarization charges : Total charges.
 Charge compensation  : None.
 Solution method      : Matrix inversion.
 Cavity type          : Scaled VdW (van der Waals Surface) (Alpha=1.100).
 Cavity algorithm     : GePol (No added spheres)
                        Default sphere list used, NSphG=   27.
                        Lebedev-Laikov grids with approx.  5.0 points / Ang**2.
                        Smoothing algorithm: Karplus/York (Gamma=1.0000).
                        Polarization charges: spherical gaussians, with
                                              point-specific exponents (IZeta= 3).
                        Self-potential: point-specific (ISelfS= 7).
                        Self-field    : sphere-specific E.n sum rule (ISelfD= 2).
 Solvent              : Water, Eps=  78.355300 Eps(inf)=   1.777849
 ------------------------------------------------------------------------------
 One-electron integrals computed using PRISM.
 NBasis=   303 RedAO= T  NBF=   303
 NBsUse=   303 1.00D-06 NBFU=   303
 Harris functional with IExCor=  908 diagonalized for initial guess.
 ExpMin= 4.38D-02 ExpMax= 5.48D+03 ExpMxC= 8.25D+02 IAcc=2 IRadAn=         4 AccDes= 0.00D+00
 HarFok:  IExCor=  908 AccDes= 0.00D+00 IRadAn=         4 IDoV= 1
 ScaDFX=  1.000000  1.000000  1.000000  1.000000
 FoFCou: FMM=F IPFlag=           0 FMFlag=      100000 FMFlg1=           0
         NFxFlg=           0 DoJE=T BraDBF=F KetDBF=T FulRan=T
         Omega=  0.000000  0.000000  1.000000  0.000000  0.000000 ICntrl=     500 IOpCl=  0
         NMat0=    1 NMatS0=    1 NMatT0=    0 NMatD0=    1 NMtDS0=    0 NMtDT0=    0
         I1Cent=           4 NGrid=           0.
 Petite list used in FoFCou.
 Initial guess orbital symmetries:
       Occupied  (A) (A) (A) (A) (A) (A) (A) (A) (A) (A) (A) (A)
                 (A) (A) (A) (A) (A) (A) (A) (A) (A) (A) (A) (A)
                 (A) (A) (A) (A) (A) (A) (A) (A) (A) (A) (A) (A)
                 (A) (A) (A) (A) (A) (A) (A) (A) (A) (A) (A)
       Virtual   (A) (A) (A) (A) (A) (A) (A) (A) (A) (A) (A) (A)
                 (A) (A) (A) (A) (A) (A) (A) (A) (A) (A) (A) (A)
                 (A) (A) (A) (A) (A) (A) (A) (A) (A) (A) (A) (A)
                 (A) (A) (A) (A) (A) (A) (A) (A) (A) (A) (A) (A)
                 (A) (A) (A) (A) (A) (A) (A) (A) (A) (A) (A) (A)
                 (A) (A) (A) (A) (A) (A) (A) (A) (A) (A) (A) (A)
                 (A) (A) (A) (A) (A) (A) (A) (A) (A) (A) (A) (A)
                 (A) (A) (A) (A) (A) (A) (A) (A) (A) (A) (A) (A)
                 (A) (A) (A) (A) (A) (A) (A) (A) (A) (A) (A) (A)
                 (A) (A) (A) (A) (A) (A) (A) (A) (A) (A) (A) (A)
                 (A) (A) (A) (A) (A) (A) (A) (A) (A) (A) (A) (A)
                 (A) (A) (A) (A) (A) (A) (A) (A) (A) (A) (A) (A)
                 (A) (A) (A) (A) (A) (A) (A) (A) (A) (A) (A) (A)
                 (A) (A) (A) (A) (A) (A) (A) (A) (A) (A) (A) (A)
                 (A) (A) (A) (A) (A) (A) (A) (A) (A) (A) (A) (A)
                 (A) (A) (A) (A) (A) (A) (A) (A) (A) (A) (A) (A)
                 (A) (A) (A) (A) (A) (A) (A) (A) (A) (A) (A) (A)
                 (A) (A) (A) (A) (A) (A) (A) (A) (A) (A) (A) (A)
                 (A) (A) (A) (A) (A) (A) (A) (A) (A) (A) (A) (A)
                 (A) (A) (A) (A) (A) (A) (A) (A) (A) (A) (A) (A)
                 (A) (A) (A) (A) (A) (A) (A) (A) (A) (A) (A) (A)
                 (A) (A) (A) (A)
 The electronic state of the initial guess is 1-A.
 Requested convergence on RMS density matrix=1.00D-08 within 128 cycles.
 Requested convergence on MAX density matrix=1.00D-06.
 Requested convergence on             energy=1.00D-06.
 No special actions if energy rises.
 Error on total polarization charges =  0.01412
 SCF Done:  E(RmPW1PW91) =  -594.194990048     A.U. after   13 cycles
             Convg  =    0.4407D-08             -V/T =  2.0094
 Range of M.O.s used for correlation:     1   303
 NBasis=   303 NAE=    47 NBE=    47 NFC=     0 NFV=     0
 NROrb=    303 NOA=    47 NOB=    47 NVA=   256 NVB=   256

 **** Warning!!: The largest alpha MO coefficient is  0.73285641D+02

 NEqPCM:  Using equilibrium solvation (IEInf=0, Eps=  78.3553, EpsInf=   1.7778)
          Differentiating once with respect to magnetic field using GIAOs.
          Electric field/nuclear overlap derivatives assumed to be zero.
 FoFCou: FMM=F IPFlag=           0 FMFlag=    10101102 FMFlg1=           0
         NFxFlg=    40000000 DoJE=F BraDBF=F KetDBF=T FulRan=T
         Omega=  0.000000  0.000000  1.000000  0.000000  0.000000 ICntrl=    6100 IOpCl=  0
         NMat0=    1 NMatS0=    1 NMatT0=    0 NMatD0=    1 NMtDS0=    0 NMtDT0=    0
         I1Cent=           7 NGrid=        1791.
 Symmetry not used in FoFCou.
          There are     3 degrees of freedom in the 1st order CPHF.  IDoFFX=0.
      3 vectors produced by pass  0 Test12= 4.01D-13 3.33D-08 XBig12= 3.67D+01 1.45D+00.
 AX will form     3 AO Fock derivatives at one time.
      3 vectors produced by pass  1 Test12= 4.01D-13 3.33D-08 XBig12= 9.13D-02 5.52D-02.
      3 vectors produced by pass  2 Test12= 4.01D-13 3.33D-08 XBig12= 1.96D-04 2.50D-03.
      3 vectors produced by pass  3 Test12= 4.01D-13 3.33D-08 XBig12= 8.58D-07 2.13D-04.
      3 vectors produced by pass  4 Test12= 4.01D-13 3.33D-08 XBig12= 2.99D-09 1.25D-05.
      3 vectors produced by pass  5 Test12= 4.01D-13 3.33D-08 XBig12= 1.13D-11 6.54D-07.
      1 vectors produced by pass  6 Test12= 4.01D-13 3.33D-08 XBig12= 4.03D-14 3.85D-08.
 Inverted reduced A of dimension    19 with in-core refinement.
 Calculating GIAO nuclear magnetic shielding tensors.
 SCF GIAO Magnetic shielding tensor (ppm):
      1  C    Isotropic =   167.9665   Anisotropy =    24.7266
   XX=   177.0261   YX=     2.0288   ZX=     7.9175
   XY=     1.5808   YY=   173.3650   ZY=   -16.5285
   XZ=     1.7285   YZ=   -20.2310   ZZ=   153.5086
   Eigenvalues:   141.8174   177.6313   184.4509
      2  C    Isotropic =   129.3187   Anisotropy =    60.3744
   XX=   140.9179   YX=    18.5177   ZX=     6.5387
   XY=    21.4344   YY=   155.2573   ZY=    -1.1863
   XZ=     0.1989   YZ=     7.3780   ZZ=    91.7809
   Eigenvalues:    91.4972   126.8905   169.5683
      3  N    Isotropic =   196.9462   Anisotropy =    80.2549
   XX=   233.7469   YX=    19.8438   ZX=   -21.3448
   XY=     3.8125   YY=   231.3961   ZY=   -14.9358
   XZ=   -30.9181   YZ=    -7.9027   ZZ=   125.6954
   Eigenvalues:   119.0566   221.3325   250.4494
      4  C    Isotropic =   141.6835   Anisotropy =    54.6160
   XX=   145.1714   YX=   -22.5298   ZX=     9.9476
   XY=   -14.1564   YY=   157.5275   ZY=   -16.8505
   XZ=    23.3933   YZ=    -8.8190   ZZ=   122.3517
   Eigenvalues:   113.3166   133.6398   178.0942
      5  C    Isotropic =   168.6731   Anisotropy =    24.0132
   XX=   171.8522   YX=     0.8356   ZX=     9.8573
   XY=     1.9115   YY=   180.6282   ZY=    -6.8099
   XZ=    15.8635   YZ=   -12.8321   ZZ=   153.5388
   Eigenvalues:   144.4651   176.8722   184.6819
      6  C    Isotropic =   126.8820   Anisotropy =    52.5621
   XX=   146.9148   YX=   -17.8747   ZX=   -20.2839
   XY=    -0.7424   YY=   123.2211   ZY=     7.6729
   XZ=   -27.7954   YZ=     3.7412   ZZ=   110.5099
   Eigenvalues:    98.5178   120.2048   161.9233
      7  C    Isotropic =   114.1587   Anisotropy =    37.3268
   XX=   122.4529   YX=    -2.0173   ZX=    15.8937
   XY=     4.7809   YY=   105.2116   ZY=     2.7206
   XZ=    23.8182   YZ=   -13.9662   ZZ=   114.8117
   Eigenvalues:    95.5528   107.8801   139.0433
      8  C    Isotropic =   116.1737   Anisotropy =    29.2980
   XX=   122.4131   YX=     7.1685   ZX=    16.9213
   XY=    -1.9531   YY=   102.8970   ZY=    -6.3539
   XZ=     8.6031   YZ=     6.9354   ZZ=   123.2111
   Eigenvalues:   102.4083   110.4072   135.7057
      9  H    Isotropic =    29.8749   Anisotropy =    12.4495
   XX=    32.9483   YX=    -1.2718   ZX=    -5.7524
   XY=    -1.6742   YY=    25.4412   ZY=    -0.6952
   XZ=    -6.2284   YZ=    -0.7830   ZZ=    31.2353
   Eigenvalues:    24.1713    27.2789    38.1746
     10  H    Isotropic =    29.4418   Anisotropy =     9.4559
   XX=    32.5188   YX=     3.3166   ZX=     1.4499
   XY=     3.7772   YY=    30.3954   ZY=     2.6180
   XZ=     1.1940   YZ=     2.0169   ZZ=    25.4111
   Eigenvalues:    24.4994    28.0803    35.7457
     11  H    Isotropic =    27.8496   Anisotropy =     8.5127
   XX=    26.4999   YX=     0.8369   ZX=    -1.1269
   XY=     0.2285   YY=    25.7165   ZY=    -4.1324
   XZ=    -1.8611   YZ=    -3.2727   ZZ=    31.3325
   Eigenvalues:    23.8627    26.1614    33.5247
     12  H    Isotropic =    28.7973   Anisotropy =    12.0003
   XX=    26.8007   YX=    -3.9598   ZX=    -0.5470
   XY=    -3.2954   YY=    32.3094   ZY=     5.5753
   XZ=     0.4960   YZ=     5.3937   ZZ=    27.2818
   Eigenvalues:    22.6650    26.9294    36.7975
     13  H    Isotropic =    28.7493   Anisotropy =     8.6147
   XX=    29.0517   YX=     1.1337   ZX=     0.6166
   XY=     1.5578   YY=    33.0856   ZY=    -3.5856
   XZ=    -0.9437   YZ=    -3.0099   ZZ=    24.1105
   Eigenvalues:    23.0172    28.7382    34.4924
     14  H    Isotropic =    30.1292   Anisotropy =    12.8286
   XX=    33.2635   YX=    -5.2519   ZX=     1.9419
   XY=    -5.9450   YY=    31.4573   ZY=    -2.0451
   XZ=     2.2148   YZ=    -2.0472   ZZ=    25.6667
   Eigenvalues:    24.9917    26.7142    38.6816
     15  H    Isotropic =    29.7915   Anisotropy =     7.9324
   XX=    27.0246   YX=    -0.3550   ZX=     0.4770
   XY=    -0.3884   YY=    27.3758   ZY=     0.0971
   XZ=     1.2029   YZ=    -0.7620   ZZ=    34.9742
   Eigenvalues:    26.7519    27.5429    35.0797
     16  H    Isotropic =    28.5147   Anisotropy =     4.6526
   XX=    29.4464   YX=     0.4769   ZX=    -1.2452
   XY=     0.7229   YY=    26.3230   ZY=    -0.3825
   XZ=    -1.9812   YZ=    -2.3559   ZZ=    29.7747
   Eigenvalues:    25.8454    28.0823    31.6164
     17  H    Isotropic =    27.6114   Anisotropy =     4.8461
   XX=    27.4612   YX=    -1.9881   ZX=    -0.4525
   XY=    -2.1641   YY=    27.0855   ZY=     1.4591
   XZ=    -0.7382   YZ=     2.7411   ZZ=    28.2874
   Eigenvalues:    24.7212    27.2709    30.8421
     18  H    Isotropic =    27.5359   Anisotropy =     6.6317
   XX=    24.2165   YX=     0.5116   ZX=     1.8363
   XY=     0.5492   YY=    31.2339   ZY=    -1.3501
   XZ=     1.4700   YZ=    -2.3715   ZZ=    27.1573
   Eigenvalues:    23.2673    27.3834    31.9571
     19  O    Isotropic =   291.7852   Anisotropy =    81.7899
   XX=   286.7713   YX=   -19.4815   ZX=   -36.9844
   XY=   -18.8859   YY=   280.5568   ZY=    30.0027
   XZ=   -11.3357   YZ=    36.8111   ZZ=   308.0275
   Eigenvalues:   257.7841   271.2596   346.3117
     20  H    Isotropic =    30.3577   Anisotropy =    20.2187
   XX=    26.1000   YX=    -5.6696   ZX=    -1.1723
   XY=    -5.3489   YY=    31.5824   ZY=     8.9683
   XZ=    -2.3749   YZ=    10.7401   ZZ=    33.3906
   Eigenvalues:    20.6599    26.5763    43.8368
     21  O    Isotropic =   302.4052   Anisotropy =    31.5677
   XX=   299.0809   YX=    -7.6096   ZX=   -21.5289
   XY=    -1.1438   YY=   290.7435   ZY=    13.2416
   XZ=     3.1538   YZ=     1.6626   ZZ=   317.3910
   Eigenvalues:   288.3138   295.4514   323.4503
     22  H    Isotropic =    30.3156   Anisotropy =    14.1058
   XX=    26.4273   YX=    -4.4304   ZX=    -1.7325
   XY=    -4.4200   YY=    25.7031   ZY=     2.6596
   XZ=    -0.9331   YZ=     2.6657   ZZ=    38.8165
   Eigenvalues:    21.5574    29.6701    39.7195
     23  C    Isotropic =   132.6880   Anisotropy =    72.1736
   XX=   154.8647   YX=    -8.0660   ZX=   -36.6475
   XY=    -1.7546   YY=   110.0301   ZY=     6.6189
   XZ=   -31.5693   YZ=     8.3559   ZZ=   133.1693
   Eigenvalues:   105.4805   111.7797   180.8037
     24  H    Isotropic =    27.6993   Anisotropy =     2.4937
   XX=    28.2588   YX=     1.9915   ZX=    -0.9316
   XY=     0.6813   YY=    25.5242   ZY=     0.3592
   XZ=     1.2007   YZ=    -0.1648   ZZ=    29.3148
   Eigenvalues:    24.9792    28.7568    29.3617
     25  H    Isotropic =    27.8557   Anisotropy =     4.9768
   XX=    29.6576   YX=    -1.0008   ZX=    -1.8895
   XY=     0.8936   YY=    30.1808   ZY=     0.9937
   XZ=    -3.0750   YZ=     2.4912   ZZ=    23.7286
   Eigenvalues:    22.4836    29.9099    31.1735
     26  O    Isotropic =   316.2191   Anisotropy =    94.6463
   XX=   362.3349   YX=    29.1805   ZX=    -3.6198
   XY=    43.9461   YY=   295.8794   ZY=     3.6822
   XZ=    16.8256   YZ=     8.2186   ZZ=   290.4428
   Eigenvalues:   278.9868   290.3538   379.3166
     27  H    Isotropic =    30.3836   Anisotropy =    21.6852
   XX=    40.9899   YX=     9.2071   ZX=     1.1523
   XY=     7.6712   YY=    25.7308   ZY=     3.3034
   XZ=    -0.6896   YZ=     2.7573   ZZ=    24.4300
   Eigenvalues:    20.2397    26.0705    44.8404
 End of Minotr Frequency-dependent properties file   721 does not exist.
 End of Minotr Frequency-dependent properties file   722 does not exist.

 **********************************************************************

            Population analysis using the SCF density.

 **********************************************************************

 Orbital symmetries:
       Occupied  (A) (A) (A) (A) (A) (A) (A) (A) (A) (A) (A) (A)
                 (A) (A) (A) (A) (A) (A) (A) (A) (A) (A) (A) (A)
                 (A) (A) (A) (A) (A) (A) (A) (A) (A) (A) (A) (A)
                 (A) (A) (A) (A) (A) (A) (A) (A) (A) (A) (A)
       Virtual   (A) (A) (A) (A) (A) (A) (A) (A) (A) (A) (A) (A)
                 (A) (A) (A) (A) (A) (A) (A) (A) (A) (A) (A) (A)
                 (A) (A) (A) (A) (A) (A) (A) (A) (A) (A) (A) (A)
                 (A) (A) (A) (A) (A) (A) (A) (A) (A) (A) (A) (A)
                 (A) (A) (A) (A) (A) (A) (A) (A) (A) (A) (A) (A)
                 (A) (A) (A) (A) (A) (A) (A) (A) (A) (A) (A) (A)
                 (A) (A) (A) (A) (A) (A) (A) (A) (A) (A) (A) (A)
                 (A) (A) (A) (A) (A) (A) (A) (A) (A) (A) (A) (A)
                 (A) (A) (A) (A) (A) (A) (A) (A) (A) (A) (A) (A)
                 (A) (A) (A) (A) (A) (A) (A) (A) (A) (A) (A) (A)
                 (A) (A) (A) (A) (A) (A) (A) (A) (A) (A) (A) (A)
                 (A) (A) (A) (A) (A) (A) (A) (A) (A) (A) (A) (A)
                 (A) (A) (A) (A) (A) (A) (A) (A) (A) (A) (A) (A)
                 (A) (A) (A) (A) (A) (A) (A) (A) (A) (A) (A) (A)
                 (A) (A) (A) (A) (A) (A) (A) (A) (A) (A) (A) (A)
                 (A) (A) (A) (A) (A) (A) (A) (A) (A) (A) (A) (A)
                 (A) (A) (A) (A) (A) (A) (A) (A) (A) (A) (A) (A)
                 (A) (A) (A) (A) (A) (A) (A) (A) (A) (A) (A) (A)
                 (A) (A) (A) (A) (A) (A) (A) (A) (A) (A) (A) (A)
                 (A) (A) (A) (A) (A) (A) (A) (A) (A) (A) (A) (A)
                 (A) (A) (A) (A) (A) (A) (A) (A) (A) (A) (A) (A)
                 (A) (A) (A) (A)
 The electronic state is 1-A.
 Alpha  occ. eigenvalues --  -19.26027 -19.25828 -19.25521 -14.41303 -10.30470
 Alpha  occ. eigenvalues --  -10.30347 -10.29377 -10.27924 -10.27895 -10.26782
 Alpha  occ. eigenvalues --  -10.24484 -10.24109  -1.07182  -1.05787  -1.05415
 Alpha  occ. eigenvalues --   -0.96170  -0.82342  -0.79149  -0.75194  -0.71797
 Alpha  occ. eigenvalues --   -0.66616  -0.62427  -0.59537  -0.57462  -0.54910
 Alpha  occ. eigenvalues --   -0.53282  -0.52837  -0.50552  -0.49071  -0.47361
 Alpha  occ. eigenvalues --   -0.46146  -0.43691  -0.42707  -0.41800  -0.41223
 Alpha  occ. eigenvalues --   -0.39184  -0.38051  -0.37591  -0.36721  -0.35458
 Alpha  occ. eigenvalues --   -0.34943  -0.34597  -0.32658  -0.31817  -0.29675
 Alpha  occ. eigenvalues --   -0.28178  -0.23408
 Alpha virt. eigenvalues --    0.00577   0.01086   0.01707   0.02284   0.03439
 Alpha virt. eigenvalues --    0.04125   0.04695   0.04858   0.05519   0.06412
 Alpha virt. eigenvalues --    0.07771   0.08173   0.08616   0.08998   0.09467
 Alpha virt. eigenvalues --    0.10435   0.11570   0.11704   0.12438   0.12837
 Alpha virt. eigenvalues --    0.13036   0.13688   0.14439   0.15451   0.15704
 Alpha virt. eigenvalues --    0.15827   0.16942   0.17421   0.17903   0.18843
 Alpha virt. eigenvalues --    0.19185   0.19393   0.19711   0.20456   0.21004
 Alpha virt. eigenvalues --    0.21245   0.21535   0.22612   0.23018   0.23516
 Alpha virt. eigenvalues --    0.24044   0.24301   0.24902   0.25298   0.25419
 Alpha virt. eigenvalues --    0.26168   0.26709   0.27079   0.27501   0.28940
 Alpha virt. eigenvalues --    0.29395   0.30095   0.30227   0.31454   0.32412
 Alpha virt. eigenvalues --    0.32823   0.33133   0.33813   0.34254   0.34880
 Alpha virt. eigenvalues --    0.36064   0.36399   0.37804   0.38140   0.38436
 Alpha virt. eigenvalues --    0.39365   0.39935   0.40954   0.41536   0.41755
 Alpha virt. eigenvalues --    0.42992   0.43130   0.44686   0.44975   0.46010
 Alpha virt. eigenvalues --    0.48309   0.64823   0.67497   0.68451   0.69405
 Alpha virt. eigenvalues --    0.69840   0.70937   0.72259   0.73274   0.75297
 Alpha virt. eigenvalues --    0.76078   0.78228   0.78949   0.79971   0.81899
 Alpha virt. eigenvalues --    0.83938   0.84270   0.85617   0.86786   0.89149
 Alpha virt. eigenvalues --    0.90092   0.91552   0.93255   0.94354   0.97946
 Alpha virt. eigenvalues --    0.98786   1.00772   1.02778   1.03391   1.04131
 Alpha virt. eigenvalues --    1.04334   1.06094   1.06677   1.09774   1.10678
 Alpha virt. eigenvalues --    1.12071   1.12660   1.13608   1.14186   1.15912
 Alpha virt. eigenvalues --    1.16098   1.18086   1.20434   1.23824   1.25301
 Alpha virt. eigenvalues --    1.27145   1.28027   1.29369   1.30516   1.31474
 Alpha virt. eigenvalues --    1.33939   1.36103   1.37590   1.40120   1.41837
 Alpha virt. eigenvalues --    1.44042   1.45756   1.48402   1.49262   1.51598
 Alpha virt. eigenvalues --    1.53581   1.57404   1.57711   1.58649   1.61486
 Alpha virt. eigenvalues --    1.63866   1.64591   1.65224   1.69360   1.71500
 Alpha virt. eigenvalues --    1.74223   1.76661   1.77934   1.78145   1.81234
 Alpha virt. eigenvalues --    1.81879   1.83355   1.83471   1.85102   1.88737
 Alpha virt. eigenvalues --    1.89192   1.90453   1.92554   1.93806   1.95663
 Alpha virt. eigenvalues --    1.97767   2.00950   2.01546   2.02713   2.04385
 Alpha virt. eigenvalues --    2.05075   2.06323   2.07214   2.09433   2.11728
 Alpha virt. eigenvalues --    2.13780   2.15570   2.16150   2.16725   2.19266
 Alpha virt. eigenvalues --    2.20584   2.21079   2.22374   2.26919   2.27957
 Alpha virt. eigenvalues --    2.31140   2.33558   2.35791   2.38603   2.40726
 Alpha virt. eigenvalues --    2.43067   2.44554   2.44794   2.45665   2.48249
 Alpha virt. eigenvalues --    2.49722   2.52262   2.53009   2.53428   2.54872
 Alpha virt. eigenvalues --    2.56266   2.59615   2.60925   2.62080   2.63089
 Alpha virt. eigenvalues --    2.65070   2.67094   2.67618   2.68158   2.68493
 Alpha virt. eigenvalues --    2.69994   2.72015   2.73989   2.75911   2.76910
 Alpha virt. eigenvalues --    2.78902   2.80271   2.82881   2.84194   2.85125
 Alpha virt. eigenvalues --    2.87202   2.89859   2.90146   2.93959   2.94933
 Alpha virt. eigenvalues --    2.97773   2.99019   3.00768   3.01234   3.03736
 Alpha virt. eigenvalues --    3.05908   3.08324   3.12410   3.15187   3.33248
 Alpha virt. eigenvalues --    3.36045   3.37056   3.39281   3.43485   3.45171
 Alpha virt. eigenvalues --    3.46206   3.50141   3.54046   3.55043   3.55519
 Alpha virt. eigenvalues --    3.56486   3.58057   3.60073   3.60407   4.31328
 Alpha virt. eigenvalues --    4.34172   4.38955   4.46376   4.51983   4.57630
 Alpha virt. eigenvalues --    4.61830   4.72657   4.78246   4.83040   4.86995
 Alpha virt. eigenvalues --    4.99620
          Condensed to atoms (all electrons):
              1          2          3          4          5          6
     1  C    6.392021  -0.772023   0.087687   0.103386   0.028528  -0.118533
     2  C   -0.772023   7.872476  -0.133078  -0.129501  -0.058247  -0.657773
     3  N    0.087687  -0.133078   7.477151   0.165580  -0.145796  -0.318544
     4  C    0.103386  -0.129501   0.165580   5.935402  -0.001158  -0.482757
     5  C    0.028528  -0.058247  -0.145796  -0.001158   5.600631   0.285943
     6  C   -0.118533  -0.657773  -0.318544  -0.482757   0.285943  11.029275
     7  C   -0.209199   0.622614  -0.033630  -0.068933  -0.152789  -2.451379
     8  C   -0.008887  -0.669517  -0.148493  -0.111170   0.228813   1.143522
     9  H    0.437280  -0.101128   0.009612   0.004360  -0.050170   0.019296
    10  H    0.415584  -0.120026   0.015545   0.023143  -0.028923  -0.000015
    11  H   -0.001936   0.258243  -0.024356  -0.023398   0.023965  -0.012825
    12  H    0.009556  -0.030311  -0.028972   0.377965  -0.041831   0.014392
    13  H    0.022594   0.024442  -0.065699   0.370281  -0.022719   0.034119
    14  H   -0.041089   0.034213   0.014498  -0.046239   0.366464   0.003101
    15  H   -0.052337  -0.015725   0.009449  -0.069167   0.436208   0.026404
    16  H    0.003232   0.033790  -0.049577   0.075978  -0.016672   0.264469
    17  H    0.014038  -0.006727   0.023414   0.003644  -0.000873  -0.013082
    18  H    0.002924  -0.027509   0.014549   0.002065  -0.009783   0.000048
    19  O    0.014348  -0.241851   0.050291  -0.009369  -0.007131  -0.108747
    20  H    0.003454   0.036481  -0.002441   0.002839  -0.002287  -0.005385
    21  O    0.027402   0.018125   0.047609   0.012934  -0.006767  -0.204619
    22  H    0.016692   0.018720   0.026909   0.008867  -0.002961  -0.057849
    23  C    0.148661  -0.030876   0.159495   0.079206  -0.163095  -2.066358
    24  H    0.000252  -0.008258   0.021478   0.015348  -0.002696  -0.115262
    25  H    0.000523   0.004396  -0.013089  -0.009720   0.002074  -0.045806
    26  O    0.002682   0.012425   0.004819   0.017738  -0.003773   0.158359
    27  H    0.000050  -0.000743  -0.000712  -0.001266   0.000171   0.027404
              7          8          9         10         11         12
     1  C   -0.209199  -0.008887   0.437280   0.415584  -0.001936   0.009556
     2  C    0.622614  -0.669517  -0.101128  -0.120026   0.258243  -0.030311
     3  N   -0.033630  -0.148493   0.009612   0.015545  -0.024356  -0.028972
     4  C   -0.068933  -0.111170   0.004360   0.023143  -0.023398   0.377965
     5  C   -0.152789   0.228813  -0.050170  -0.028923   0.023965  -0.041831
     6  C   -2.451379   1.143522   0.019296  -0.000015  -0.012825   0.014392
     7  C    8.590890  -1.457055  -0.018022  -0.002576   0.017996  -0.001752
     8  C   -1.457055   6.937233   0.028103   0.034807   0.024223   0.005976
     9  H   -0.018022   0.028103   0.528428  -0.025362  -0.007623   0.001438
    10  H   -0.002576   0.034807  -0.025362   0.507390   0.002701  -0.000025
    11  H    0.017996   0.024223  -0.007623   0.002701   0.560919   0.000899
    12  H   -0.001752   0.005976   0.001438  -0.000025   0.000899   0.553565
    13  H    0.014134  -0.016017  -0.000114  -0.000138  -0.000177  -0.030738
    14  H    0.006354  -0.001249  -0.005159   0.000850  -0.000047  -0.003312
    15  H   -0.012415   0.011624   0.004126  -0.005276  -0.000103   0.003995
    16  H   -0.029485  -0.021139  -0.000011  -0.000029  -0.000553  -0.000323
    17  H    0.290558   0.039048   0.000003  -0.000008  -0.000139   0.000003
    18  H    0.070438   0.252615  -0.000016   0.000250  -0.003251   0.000005
    19  O    0.120097   0.155826  -0.000395   0.000366   0.009388   0.000194
    20  H   -0.072874   0.061037  -0.000001  -0.000202  -0.000260   0.000000
    21  O    0.385570  -0.134485  -0.000010   0.000003  -0.000388   0.000092
    22  H    0.014137  -0.034414   0.000007  -0.000002  -0.001125   0.000005
    23  C    0.702737  -0.434087   0.000267   0.000442   0.007214   0.006135
    24  H   -0.011793   0.000640   0.000000   0.000000  -0.000014   0.000038
    25  H    0.004396  -0.003214  -0.000001   0.000000   0.000009  -0.000274
    26  O   -0.096475   0.023187  -0.000001  -0.000002  -0.000001  -0.000010
    27  H   -0.001969  -0.002140   0.000000   0.000000   0.000000   0.000000
             13         14         15         16         17         18
     1  C    0.022594  -0.041089  -0.052337   0.003232   0.014038   0.002924
     2  C    0.024442   0.034213  -0.015725   0.033790  -0.006727  -0.027509
     3  N   -0.065699   0.014498   0.009449  -0.049577   0.023414   0.014549
     4  C    0.370281  -0.046239  -0.069167   0.075978   0.003644   0.002065
     5  C   -0.022719   0.366464   0.436208  -0.016672  -0.000873  -0.009783
     6  C    0.034119   0.003101   0.026404   0.264469  -0.013082   0.000048
     7  C    0.014134   0.006354  -0.012415  -0.029485   0.290558   0.070438
     8  C   -0.016017  -0.001249   0.011624  -0.021139   0.039048   0.252615
     9  H   -0.000114  -0.005159   0.004126  -0.000011   0.000003  -0.000016
    10  H   -0.000138   0.000850  -0.005276  -0.000029  -0.000008   0.000250
    11  H   -0.000177  -0.000047  -0.000103  -0.000553  -0.000139  -0.003251
    12  H   -0.030738  -0.003312   0.003995  -0.000323   0.000003   0.000005
    13  H    0.534131   0.001074  -0.005740   0.001224  -0.000014   0.000005
    14  H    0.001074   0.526587  -0.024498  -0.000150  -0.000001   0.000004
    15  H   -0.005740  -0.024498   0.511684  -0.000038   0.000019   0.000021
    16  H    0.001224  -0.000150  -0.000038   0.559061  -0.002684  -0.000110
    17  H   -0.000014  -0.000001   0.000019  -0.002684   0.532560  -0.002791
    18  H    0.000005   0.000004   0.000021  -0.000110  -0.002791   0.560427
    19  O    0.000529   0.000492  -0.001546   0.001800  -0.013705  -0.035463
    20  H   -0.000002  -0.000002   0.000070   0.000479   0.004494  -0.006477
    21  O   -0.000071   0.000003  -0.000006   0.007823  -0.048000  -0.002213
    22  H   -0.000001   0.000000   0.000000   0.000026   0.006019  -0.001041
    23  C   -0.025391  -0.000558   0.001977  -0.011024  -0.004737   0.012963
    24  H   -0.000016   0.000000   0.000000   0.004632   0.000222  -0.000008
    25  H    0.001874   0.000001  -0.000009  -0.006534  -0.000082   0.000003
    26  O   -0.000149  -0.000004  -0.000017   0.007829   0.001841  -0.000005
    27  H    0.000008   0.000000   0.000000  -0.000176  -0.000054   0.000000
             19         20         21         22         23         24
     1  C    0.014348   0.003454   0.027402   0.016692   0.148661   0.000252
     2  C   -0.241851   0.036481   0.018125   0.018720  -0.030876  -0.008258
     3  N    0.050291  -0.002441   0.047609   0.026909   0.159495   0.021478
     4  C   -0.009369   0.002839   0.012934   0.008867   0.079206   0.015348
     5  C   -0.007131  -0.002287  -0.006767  -0.002961  -0.163095  -0.002696
     6  C   -0.108747  -0.005385  -0.204619  -0.057849  -2.066358  -0.115262
     7  C    0.120097  -0.072874   0.385570   0.014137   0.702737  -0.011793
     8  C    0.155826   0.061037  -0.134485  -0.034414  -0.434087   0.000640
     9  H   -0.000395  -0.000001  -0.000010   0.000007   0.000267   0.000000
    10  H    0.000366  -0.000202   0.000003  -0.000002   0.000442   0.000000
    11  H    0.009388  -0.000260  -0.000388  -0.001125   0.007214  -0.000014
    12  H    0.000194   0.000000   0.000092   0.000005   0.006135   0.000038
    13  H    0.000529  -0.000002  -0.000071  -0.000001  -0.025391  -0.000016
    14  H    0.000492  -0.000002   0.000003   0.000000  -0.000558   0.000000
    15  H   -0.001546   0.000070  -0.000006   0.000000   0.001977   0.000000
    16  H    0.001800   0.000479   0.007823   0.000026  -0.011024   0.004632
    17  H   -0.013705   0.004494  -0.048000   0.006019  -0.004737   0.000222
    18  H   -0.035463  -0.006477  -0.002213  -0.001041   0.012963  -0.000008
    19  O    8.332412   0.227777   0.006637  -0.000370   0.060734   0.000055
    20  H    0.227777   0.372234   0.000227   0.000019  -0.006651   0.000001
    21  O    0.006637   0.000227   8.167214   0.266022  -0.030953   0.008505
    22  H   -0.000370   0.000019   0.266022   0.352930   0.004726  -0.000321
    23  C    0.060734  -0.006651  -0.030953   0.004726   6.688734   0.462708
    24  H    0.000055   0.000001   0.008505  -0.000321   0.462708   0.565918
    25  H    0.000044   0.000000  -0.001254   0.000051   0.438544  -0.047333
    26  O    0.000844  -0.000039   0.000503   0.000408  -0.038781  -0.047811
    27  H   -0.000012   0.000000  -0.000150  -0.000005  -0.009018  -0.004831
             25         26         27
     1  C    0.000523   0.002682   0.000050
     2  C    0.004396   0.012425  -0.000743
     3  N   -0.013089   0.004819  -0.000712
     4  C   -0.009720   0.017738  -0.001266
     5  C    0.002074  -0.003773   0.000171
     6  C   -0.045806   0.158359   0.027404
     7  C    0.004396  -0.096475  -0.001969
     8  C   -0.003214   0.023187  -0.002140
     9  H   -0.000001  -0.000001   0.000000
    10  H    0.000000  -0.000002   0.000000
    11  H    0.000009  -0.000001   0.000000
    12  H   -0.000274  -0.000010   0.000000
    13  H    0.001874  -0.000149   0.000008
    14  H    0.000001  -0.000004   0.000000
    15  H   -0.000009  -0.000017   0.000000
    16  H   -0.006534   0.007829  -0.000176
    17  H   -0.000082   0.001841  -0.000054
    18  H    0.000003  -0.000005   0.000000
    19  O    0.000044   0.000844  -0.000012
    20  H    0.000000  -0.000039   0.000000
    21  O   -0.001254   0.000503  -0.000150
    22  H    0.000051   0.000408  -0.000005
    23  C    0.438544  -0.038781  -0.009018
    24  H   -0.047333  -0.047811  -0.004831
    25  H    0.578700  -0.052902  -0.004338
    26  O   -0.052902   8.356801   0.226699
    27  H   -0.004338   0.226699   0.377864
 Mulliken atomic charges:
              1
     1  C   -0.526892
     2  C    0.067367
     3  N   -0.163698
     4  C   -0.246061
     5  C   -0.255126
     6  C   -0.347397
     7  C   -0.219575
     8  C    0.095210
     9  H    0.175090
    10  H    0.181503
    11  H    0.170638
    12  H    0.163290
    13  H    0.162572
    14  H    0.168665
    15  H    0.181297
    16  H    0.178160
    17  H    0.177033
    18  H    0.172351
    19  O   -0.563246
    20  H    0.387508
    21  O   -0.519754
    22  H    0.382550
    23  C    0.046982
    24  H    0.158543
    25  H    0.153939
    26  O   -0.574164
    27  H    0.393217
 Sum of Mulliken atomic charges =   0.00000
 Mulliken charges with hydrogens summed into heavy atoms:
              1
     1  C   -0.170299
     2  C    0.238005
     3  N   -0.163698
     4  C    0.079801
     5  C    0.094836
     6  C   -0.169237
     7  C   -0.042542
     8  C    0.267561
    19  O   -0.175739
    21  O   -0.137204
    23  C    0.359464
    26  O   -0.180948
 Sum of Mulliken charges with hydrogens summed into heavy atoms =   0.00000
 Electronic spatial extent (au):  <R**2>=           2008.3925
 Charge=              0.0000 electrons
 Dipole moment (field-independent basis, Debye):
    X=              0.9591    Y=             -1.0921    Z=             -0.7790  Tot=              1.6490
 Quadrupole moment (field-independent basis, Debye-Ang):
   XX=            -72.6849   YY=            -67.6534   ZZ=            -73.0038
   XY=              6.5074   XZ=             -0.6388   YZ=              3.1814
 Traceless Quadrupole moment (field-independent basis, Debye-Ang):
   XX=             -1.5708   YY=              3.4606   ZZ=             -1.8898
   XY=              6.5074   XZ=             -0.6388   YZ=              3.1814
 Octapole moment (field-independent basis, Debye-Ang**2):
  XXX=            -34.3547  YYY=              5.7477  ZZZ=             -1.9340  XYY=             -3.5702
  XXY=            -34.3603  XXZ=            -11.4035  XZZ=             -1.7828  YZZ=             14.9118
  YYZ=             16.5008  XYZ=             -8.6571
 Hexadecapole moment (field-independent basis, Debye-Ang**3):
 XXXX=          -1293.0831 YYYY=           -743.2307 ZZZZ=           -310.6851 XXXY=            113.3169
 XXXZ=              1.7138 YYYX=             43.0414 YYYZ=             40.8386 ZZZX=             14.3024
 ZZZY=             10.9129 XXYY=           -351.6429 XXZZ=           -321.2119 YYZZ=           -170.6316
 XXYZ=              9.8479 YYXZ=            -15.0998 ZZXY=             -3.3408
 N-N= 8.103705117960D+02 E-N=-3.007074550943D+03  KE= 5.886488761309D+02
 1\1\GINC-COMPUTE-3-2\SP\RmPW1PW91\6-31+G(d,p)\C8H15N1O3\MAMICHETTI.IQU
 IR\17-May-2024\0\\# mpw1pw91/6-31+G** nmr scrf=(pcm,solvent=water)\\co
 mment\\0,1\C,0,2.596936,-0.025611,-0.351225\C,0,1.194446,0.458347,-0.7
 80123\N,0,0.282132,-0.735567,-0.682385\C,0,1.09252,-1.878197,-0.204992
 \C,0,2.316011,-1.275122,0.498433\C,0,-0.847633,-0.376339,0.20445\C,0,-
 0.945436,1.153898,0.080302\C,0,0.541116,1.563441,0.072929\H,0,3.176083
 ,-0.299389,-1.240426\H,0,3.154974,0.74659,0.18455\H,0,1.219733,0.81508
 4,-1.816436\H,0,1.414119,-2.484852,-1.062278\H,0,0.490931,-2.524789,0.
 441252\H,0,3.164305,-1.966438,0.539415\H,0,2.061681,-0.988905,1.524908
 \H,0,-0.617907,-0.600951,1.258981\H,0,-1.481646,1.602077,0.92047\H,0,0
 .678023,2.557883,-0.369707\O,0,1.073368,1.536375,1.402228\H,0,0.605535
 ,2.221483,1.909264\O,0,-1.629432,1.604007,-1.092986\H,0,-1.229989,1.16
 8125,-1.864551\C,0,-2.112987,-1.137272,-0.164709\H,0,-2.450979,-0.8435
 29,-1.167037\H,0,-1.897753,-2.215336,-0.185421\O,0,-3.113335,-0.84228,
 0.817698\H,0,-3.916669,-1.321773,0.557806\\Version=AM64L-G09RevC.01\St
 ate=1-A\HF=-594.19499\RMSD=4.407e-09\Dipole=0.377354,-0.4296549,-0.306
 4694\Quadrupole=-1.1678735,2.5728922,-1.4050188,4.8380864,-0.4749595,2
 .3652804\PG=C01 [X(C8H15N1O3)]\\@


 HE THAT IS UNAWARE OF HIS IGNORANCE WILL BE MISLED BY HIS KNOWLEDGE.

                                        -- WHATLEY
 Job cpu time:  0 days  0 hours  9 minutes 14.7 seconds.
 File lengths (MBytes):  RWF=    111 Int=      0 D2E=      0 Chk=      7 Scr=      1
 Normal termination of Gaussian 09 at Fri May 17 12:11:27 2024.
