 Entering Gaussian System, Link 0=g09
 Input=/home/mamichetti.iquir/Linux/03_Cardona_A1A3_R__S_S_R_014_OptB.gjc
 Output=/home/mamichetti.iquir/Linux/03_Cardona_A1A3_R__S_S_R_014_OptB.log
 Initial command:
 /opt/ohpc/pub/apps/software/Gaussian/09/AMD64.SSE4a-enabled/g09/l1.exe /local/mamichetti.iquir/Gau-126619.inp -scrdir=/local/mamichetti.iquir/
 Entering Link 1 = /opt/ohpc/pub/apps/software/Gaussian/09/AMD64.SSE4a-enabled/g09/l1.exe PID=    126620.
  
 Copyright (c) 1988,1990,1992,1993,1995,1998,2003,2009,2011,
            Gaussian, Inc.  All Rights Reserved.
  
 This is part of the Gaussian(R) 09 program.  It is based on
 the Gaussian(R) 03 system (copyright 2003, Gaussian, Inc.),
 the Gaussian(R) 98 system (copyright 1998, Gaussian, Inc.),
 the Gaussian(R) 94 system (copyright 1995, Gaussian, Inc.),
 the Gaussian 92(TM) system (copyright 1992, Gaussian, Inc.),
 the Gaussian 90(TM) system (copyright 1990, Gaussian, Inc.),
 the Gaussian 88(TM) system (copyright 1988, Gaussian, Inc.),
 the Gaussian 86(TM) system (copyright 1986, Carnegie Mellon
 University), and the Gaussian 82(TM) system (copyright 1983,
 Carnegie Mellon University). Gaussian is a federally registered
 trademark of Gaussian, Inc.
  
 This software contains proprietary and confidential information,
 including trade secrets, belonging to Gaussian, Inc.
  
 This software is provided under written license and may be
 used, copied, transmitted, or stored only in accord with that
 written license.
  
 The following legend is applicable only to US Government
 contracts under FAR:
  
                    RESTRICTED RIGHTS LEGEND
  
 Use, reproduction and disclosure by the US Government is
 subject to restrictions as set forth in subparagraphs (a)
 and (c) of the Commercial Computer Software - Restricted
 Rights clause in FAR 52.227-19.
  
 Gaussian, Inc.
 340 Quinnipiac St., Bldg. 40, Wallingford CT 06492
  
  
 ---------------------------------------------------------------
 Warning -- This program may not be used in any manner that
 competes with the business of Gaussian, Inc. or will provide
 assistance to any competitor of Gaussian, Inc.  The licensee
 of this program is prohibited from giving any competitor of
 Gaussian, Inc. access to this program.  By using this program,
 the user acknowledges that Gaussian, Inc. is engaged in the
 business of creating and licensing software in the field of
 computational chemistry and represents and warrants to the
 licensee that it is not a competitor of Gaussian, Inc. and that
 it will not use this program in any manner prohibited above.
 ---------------------------------------------------------------
  

 Cite this work as:
 Gaussian 09, Revision C.01,
 M. J. Frisch, G. W. Trucks, H. B. Schlegel, G. E. Scuseria, 
 M. A. Robb, J. R. Cheeseman, G. Scalmani, V. Barone, B. Mennucci, 
 G. A. Petersson, H. Nakatsuji, M. Caricato, X. Li, H. P. Hratchian, 
 A. F. Izmaylov, J. Bloino, G. Zheng, J. L. Sonnenberg, M. Hada, 
 M. Ehara, K. Toyota, R. Fukuda, J. Hasegawa, M. Ishida, T. Nakajima, 
 Y. Honda, O. Kitao, H. Nakai, T. Vreven, J. A. Montgomery, Jr., 
 J. E. Peralta, F. Ogliaro, M. Bearpark, J. J. Heyd, E. Brothers, 
 K. N. Kudin, V. N. Staroverov, T. Keith, R. Kobayashi, J. Normand, 
 K. Raghavachari, A. Rendell, J. C. Burant, S. S. Iyengar, J. Tomasi, 
 M. Cossi, N. Rega, J. M. Millam, M. Klene, J. E. Knox, J. B. Cross, 
 V. Bakken, C. Adamo, J. Jaramillo, R. Gomperts, R. E. Stratmann, 
 O. Yazyev, A. J. Austin, R. Cammi, C. Pomelli, J. W. Ochterski, 
 R. L. Martin, K. Morokuma, V. G. Zakrzewski, G. A. Voth, 
 P. Salvador, J. J. Dannenberg, S. Dapprich, A. D. Daniels, 
 O. Farkas, J. B. Foresman, J. V. Ortiz, J. Cioslowski, 
 and D. J. Fox, Gaussian, Inc., Wallingford CT, 2010.
 
 ******************************************
 Gaussian 09:  AM64L-G09RevC.01 23-Sep-2011
                17-May-2024 
 ******************************************
 %nprocshared=4
 Will use up to    4 processors via shared memory.
 ------------------------------------------------
 # mpw1pw91/6-31+G** nmr scrf=(pcm,solvent=water)
 ------------------------------------------------
 1/38=1/1;
 2/12=2,17=6,18=5,40=1/2;
 3/5=1,6=6,7=111,11=2,16=1,25=1,30=1,70=2201,72=1,74=-7/1,2,8,3;
 4//1;
 5/5=2,38=5,53=1/2;
 8/6=1,10=90,11=11/1;
 10/13=100,45=16/2;
 6/7=2,8=2,9=2,10=2,28=1/1;
 99/9=1/99;
 -------
 comment
 -------
 Charge =  0 Multiplicity = 1
 Symbolic Z-Matrix:
 6                     2.38752  -0.16858  -0.79722 
 6                     0.91952   0.29104  -0.91409 
 7                     0.08226  -0.82166  -0.33815 
 6                     1.0036   -1.87446   0.15315 
 6                     2.36799  -1.1987    0.3435 
 6                    -0.79526  -0.23568   0.70481 
 6                    -0.90739   1.24861   0.3199 
 6                     0.52236   1.56628  -0.1449 
 1                     2.6944   -0.65082  -1.73244 
 1                     3.0684    0.66672  -0.61373 
 1                     0.64724   0.44539  -1.96331 
 1                     1.08139  -2.67293  -0.59651 
 1                     0.60766  -2.32688   1.06803 
 1                     3.19863  -1.91053   0.29449 
 1                     2.41099  -0.69262   1.31374 
 1                    -0.32736  -0.27847   1.70065 
 1                    -1.19443   1.86019   1.1867 
 1                     0.54321   2.45238  -0.79189 
 8                     1.38846   1.7544    0.97918 
 1                     1.06059   2.5306    1.46414 
 8                    -1.80672   1.50146  -0.76589 
 1                    -2.39048   0.71719  -0.84467 
 6                    -2.12388  -0.98716   0.78451 
 1                    -1.96021  -2.00029   1.17566 
 1                    -2.82135  -0.47319   1.45248 
 8                    -2.75679  -1.05748  -0.50577 
 1                    -2.04085  -1.35031  -1.10442 
 
                          Input orientation:                          
 ---------------------------------------------------------------------
 Center     Atomic      Atomic             Coordinates (Angstroms)
 Number     Number       Type             X           Y           Z
 ---------------------------------------------------------------------
      1          6           0        2.387519   -0.168579   -0.797222
      2          6           0        0.919517    0.291036   -0.914090
      3          7           0        0.082262   -0.821656   -0.338147
      4          6           0        1.003598   -1.874460    0.153149
      5          6           0        2.367986   -1.198701    0.343498
      6          6           0       -0.795256   -0.235681    0.704809
      7          6           0       -0.907390    1.248609    0.319901
      8          6           0        0.522355    1.566284   -0.144899
      9          1           0        2.694399   -0.650822   -1.732438
     10          1           0        3.068400    0.666723   -0.613727
     11          1           0        0.647242    0.445387   -1.963310
     12          1           0        1.081391   -2.672934   -0.596507
     13          1           0        0.607664   -2.326875    1.068026
     14          1           0        3.198627   -1.910533    0.294492
     15          1           0        2.410988   -0.692621    1.313737
     16          1           0       -0.327364   -0.278474    1.700650
     17          1           0       -1.194429    1.860189    1.186695
     18          1           0        0.543212    2.452384   -0.791892
     19          8           0        1.388462    1.754401    0.979184
     20          1           0        1.060587    2.530604    1.464141
     21          8           0       -1.806721    1.501461   -0.765892
     22          1           0       -2.390482    0.717188   -0.844669
     23          6           0       -2.123881   -0.987161    0.784506
     24          1           0       -1.960210   -2.000286    1.175662
     25          1           0       -2.821348   -0.473190    1.452476
     26          8           0       -2.756786   -1.057478   -0.505767
     27          1           0       -2.040846   -1.350313   -1.104422
 ---------------------------------------------------------------------
                    Distance matrix (angstroms):
                    1          2          3          4          5
     1  C    0.000000
     2  C    1.542703   0.000000
     3  N    2.439563   1.506914   0.000000
     4  C    2.393423   2.415666   1.482777   0.000000
     5  C    1.537132   2.428766   2.414816   1.534418   0.000000
     6  C    3.520036   2.416343   1.483631   2.495156   3.326267
     7  C    3.756702   2.403595   2.387140   3.665139   4.088762
     8  C    2.629470   1.541314   2.435833   3.486997   3.360064
     9  H    1.096067   2.169561   2.965888   2.812745   2.171688
    10  H    1.093160   2.202057   3.347870   3.362903   2.210581
    11  H    2.182952   1.094907   2.136763   3.160392   3.314415
    12  H    2.831616   2.985328   2.119490   1.097997   2.170783
    13  H    3.362332   3.298408   2.125807   1.094734   2.212793
    14  H    2.210009   3.391448   3.361193   2.199871   1.095021
    15  H    2.175159   2.855745   2.858030   2.173581   1.095139
    16  H    3.690804   2.952274   2.149310   2.591021   3.154931
    17  H    4.569702   3.368131   3.338769   4.455013   4.770596
    18  H    3.204831   2.197263   3.337319   4.452711   4.236665
    19  O    2.802068   2.438408   3.174522   3.741535   3.175591
    20  H    3.762991   3.269793   3.929759   4.596361   4.107657
    21  O    4.514606   2.986547   3.024582   4.487691   5.094095
    22  H    4.859643   3.338041   2.956192   4.385437   5.265490
    23  C    4.850224   3.712316   2.480889   3.311652   4.518419
    24  H    5.113724   4.232026   2.802227   3.137758   4.479767
    25  H    5.682097   4.492076   3.429098   4.275748   5.355874
    26  O    5.228667   3.937057   2.853752   3.904115   5.196584
    27  H    4.593613   3.390281   2.318241   3.335394   4.642979
                    6          7          8          9         10
     6  C    0.000000
     7  C    1.537480   0.000000
     8  C    2.388552   1.536596   0.000000
     9  H    4.276705   4.559914   3.486203   0.000000
    10  H    4.180994   4.125186   2.740685   1.768422   0.000000
    11  H    3.108619   2.876647   2.139772   2.333630   2.780714
    12  H    3.339974   4.491498   4.299702   2.825079   3.886105
    13  H    2.544249   3.954638   4.078621   3.873786   4.224351
    14  H    4.350240   5.180753   4.409507   2.439173   2.735703
    15  H    3.295389   3.970858   3.285910   3.059616   2.448494
    16  H    1.101115   2.138897   2.744304   4.588659   4.216747
    17  H    2.187287   1.098978   2.192458   5.472613   4.778869
    18  H    3.355191   2.188471   1.097364   3.891288   3.097887
    19  O    2.967210   2.441601   1.431465   3.852722   2.557851
    20  H    3.416588   2.612610   1.951568   4.796762   3.438445
    21  O    2.490720   1.432368   2.411313   5.081989   4.948408
    22  H    2.419419   1.959131   3.113721   5.340000   5.463998
    23  C    1.528502   2.587349   3.792946   5.446462   5.625848
    24  H    2.166253   3.520806   4.541743   5.651857   5.966722
    25  H    2.172663   2.812571   4.229824   6.371711   6.344898
    26  O    2.447130   3.069207   4.215106   5.602277   6.075962
    27  H    2.463172   3.172982   3.999653   4.827653   5.514854
                   11         12         13         14         15
    11  H    0.000000
    12  H    3.432282   0.000000
    13  H    4.108041   1.764892   0.000000
    14  H    4.142173   2.420294   2.735833   0.000000
    15  H    3.891645   3.055896   2.446045   1.772723   0.000000
    16  H    3.859849   3.604852   2.338897   4.132010   2.796389
    17  H    3.913560   5.376650   4.559948   5.857757   4.419503
    18  H    2.326173   5.157199   5.128817   5.221734   4.220583
    19  O    3.304723   4.709394   4.156243   4.144544   2.673088
    20  H    4.033163   5.596741   4.894604   5.065865   3.497911
    21  O    2.927633   5.078923   4.883510   6.149766   5.189212
    22  H    3.248538   4.858849   4.681197   6.280187   5.449807
    23  C    4.157140   3.875925   3.055578   5.424189   4.575137
    24  H    4.757443   3.583905   2.590796   5.234321   4.564693
    25  H    4.954038   4.926315   3.916896   6.296585   5.238773
    26  O    3.996303   4.165277   3.925266   6.069190   5.490865
    27  H    3.344853   3.428654   3.561995   5.451870   5.108706
                   16         17         18         19         20
    16  H    0.000000
    17  H    2.364282   0.000000
    18  H    3.798454   2.699055   0.000000
    19  O    2.756293   2.593372   2.082868   0.000000
    20  H    3.142175   2.368867   2.315919   0.972202   0.000000
    21  O    3.382380   2.077543   2.535176   3.649447   3.775399
    22  H    3.424390   2.619816   3.408849   4.322345   4.530889
    23  C    2.137529   3.022092   4.629134   4.459890   4.793476
    24  H    2.430316   3.935710   5.473999   5.034867   5.453201
    25  H    2.513854   2.856950   4.991636   4.786300   4.908394
    26  O    3.373013   3.717280   4.826074   5.224445   5.597071
    27  H    3.457353   4.033976   4.608203   5.073541   5.592667
                   21         22         23         24         25
    21  O    0.000000
    22  H    0.980850   0.000000
    23  C    2.949163   2.372782   0.000000
    24  H    4.006922   3.413435   1.098278   0.000000
    25  H    3.138450   2.622884   1.093988   1.774882   0.000000
    26  O    2.741981   1.843495   1.438860   2.085815   2.044572
    27  H    2.881325   2.112884   1.925311   2.372288   2.813584
                   26         27
    26  O    0.000000
    27  H    0.978116   0.000000
 Stoichiometry    C8H15NO3
 Framework group  C1[X(C8H15NO3)]
 Deg. of freedom    75
 Full point group                 C1      NOp   1
 Largest Abelian subgroup         C1      NOp   1
 Largest concise Abelian subgroup C1      NOp   1
                         Standard orientation:                         
 ---------------------------------------------------------------------
 Center     Atomic      Atomic             Coordinates (Angstroms)
 Number     Number       Type             X           Y           Z
 ---------------------------------------------------------------------
      1          6           0        2.387519   -0.168579   -0.797222
      2          6           0        0.919517    0.291036   -0.914090
      3          7           0        0.082262   -0.821656   -0.338147
      4          6           0        1.003598   -1.874460    0.153149
      5          6           0        2.367986   -1.198701    0.343498
      6          6           0       -0.795256   -0.235681    0.704809
      7          6           0       -0.907390    1.248609    0.319901
      8          6           0        0.522355    1.566284   -0.144899
      9          1           0        2.694399   -0.650822   -1.732438
     10          1           0        3.068400    0.666723   -0.613727
     11          1           0        0.647242    0.445387   -1.963310
     12          1           0        1.081391   -2.672934   -0.596507
     13          1           0        0.607664   -2.326875    1.068026
     14          1           0        3.198627   -1.910533    0.294492
     15          1           0        2.410988   -0.692621    1.313737
     16          1           0       -0.327364   -0.278474    1.700650
     17          1           0       -1.194429    1.860189    1.186695
     18          1           0        0.543212    2.452384   -0.791892
     19          8           0        1.388462    1.754401    0.979184
     20          1           0        1.060587    2.530604    1.464141
     21          8           0       -1.806721    1.501461   -0.765892
     22          1           0       -2.390482    0.717188   -0.844669
     23          6           0       -2.123881   -0.987161    0.784506
     24          1           0       -1.960210   -2.000286    1.175662
     25          1           0       -2.821348   -0.473190    1.452476
     26          8           0       -2.756786   -1.057478   -0.505767
     27          1           0       -2.040846   -1.350313   -1.104422
 ---------------------------------------------------------------------
 Rotational constants (GHZ):      1.3959195      0.8639177      0.6549054
 Standard basis: 6-31+G(d,p) (6D, 7F)
 There are   303 symmetry adapted basis functions of A   symmetry.
 Integral buffers will be    131072 words long.
 Raffenetti 2 integral format.
 Two-electron integral symmetry is turned on.
   303 basis functions,   489 primitive gaussians,   303 cartesian basis functions
    47 alpha electrons       47 beta electrons
       nuclear repulsion energy       821.1043933300 Hartrees.
 NAtoms=   27 NActive=   27 NUniq=   27 SFac= 1.00D+00 NAtFMM=   60 NAOKFM=F Big=F
 ------------------------------------------------------------------------------
 Polarizable Continuum Model (PCM)
 =================================
 Model                : PCM.
 Atomic radii         : UFF (Universal Force Field).
 Polarization charges : Total charges.
 Charge compensation  : None.
 Solution method      : Matrix inversion.
 Cavity type          : Scaled VdW (van der Waals Surface) (Alpha=1.100).
 Cavity algorithm     : GePol (No added spheres)
                        Default sphere list used, NSphG=   27.
                        Lebedev-Laikov grids with approx.  5.0 points / Ang**2.
                        Smoothing algorithm: Karplus/York (Gamma=1.0000).
                        Polarization charges: spherical gaussians, with
                                              point-specific exponents (IZeta= 3).
                        Self-potential: point-specific (ISelfS= 7).
                        Self-field    : sphere-specific E.n sum rule (ISelfD= 2).
 Solvent              : Water, Eps=  78.355300 Eps(inf)=   1.777849
 ------------------------------------------------------------------------------
 One-electron integrals computed using PRISM.
 NBasis=   303 RedAO= T  NBF=   303
 NBsUse=   303 1.00D-06 NBFU=   303
 Harris functional with IExCor=  908 diagonalized for initial guess.
 ExpMin= 4.38D-02 ExpMax= 5.48D+03 ExpMxC= 8.25D+02 IAcc=2 IRadAn=         4 AccDes= 0.00D+00
 HarFok:  IExCor=  908 AccDes= 0.00D+00 IRadAn=         4 IDoV= 1
 ScaDFX=  1.000000  1.000000  1.000000  1.000000
 FoFCou: FMM=F IPFlag=           0 FMFlag=      100000 FMFlg1=           0
         NFxFlg=           0 DoJE=T BraDBF=F KetDBF=T FulRan=T
         Omega=  0.000000  0.000000  1.000000  0.000000  0.000000 ICntrl=     500 IOpCl=  0
         NMat0=    1 NMatS0=    1 NMatT0=    0 NMatD0=    1 NMtDS0=    0 NMtDT0=    0
         I1Cent=           4 NGrid=           0.
 Petite list used in FoFCou.
 Initial guess orbital symmetries:
       Occupied  (A) (A) (A) (A) (A) (A) (A) (A) (A) (A) (A) (A)
                 (A) (A) (A) (A) (A) (A) (A) (A) (A) (A) (A) (A)
                 (A) (A) (A) (A) (A) (A) (A) (A) (A) (A) (A) (A)
                 (A) (A) (A) (A) (A) (A) (A) (A) (A) (A) (A)
       Virtual   (A) (A) (A) (A) (A) (A) (A) (A) (A) (A) (A) (A)
                 (A) (A) (A) (A) (A) (A) (A) (A) (A) (A) (A) (A)
                 (A) (A) (A) (A) (A) (A) (A) (A) (A) (A) (A) (A)
                 (A) (A) (A) (A) (A) (A) (A) (A) (A) (A) (A) (A)
                 (A) (A) (A) (A) (A) (A) (A) (A) (A) (A) (A) (A)
                 (A) (A) (A) (A) (A) (A) (A) (A) (A) (A) (A) (A)
                 (A) (A) (A) (A) (A) (A) (A) (A) (A) (A) (A) (A)
                 (A) (A) (A) (A) (A) (A) (A) (A) (A) (A) (A) (A)
                 (A) (A) (A) (A) (A) (A) (A) (A) (A) (A) (A) (A)
                 (A) (A) (A) (A) (A) (A) (A) (A) (A) (A) (A) (A)
                 (A) (A) (A) (A) (A) (A) (A) (A) (A) (A) (A) (A)
                 (A) (A) (A) (A) (A) (A) (A) (A) (A) (A) (A) (A)
                 (A) (A) (A) (A) (A) (A) (A) (A) (A) (A) (A) (A)
                 (A) (A) (A) (A) (A) (A) (A) (A) (A) (A) (A) (A)
                 (A) (A) (A) (A) (A) (A) (A) (A) (A) (A) (A) (A)
                 (A) (A) (A) (A) (A) (A) (A) (A) (A) (A) (A) (A)
                 (A) (A) (A) (A) (A) (A) (A) (A) (A) (A) (A) (A)
                 (A) (A) (A) (A) (A) (A) (A) (A) (A) (A) (A) (A)
                 (A) (A) (A) (A) (A) (A) (A) (A) (A) (A) (A) (A)
                 (A) (A) (A) (A) (A) (A) (A) (A) (A) (A) (A) (A)
                 (A) (A) (A) (A) (A) (A) (A) (A) (A) (A) (A) (A)
                 (A) (A) (A) (A)
 The electronic state of the initial guess is 1-A.
 Requested convergence on RMS density matrix=1.00D-08 within 128 cycles.
 Requested convergence on MAX density matrix=1.00D-06.
 Requested convergence on             energy=1.00D-06.
 No special actions if energy rises.
 Error on total polarization charges =  0.01411
 SCF Done:  E(RmPW1PW91) =  -594.201656991     A.U. after   12 cycles
             Convg  =    0.8715D-08             -V/T =  2.0094
 Range of M.O.s used for correlation:     1   303
 NBasis=   303 NAE=    47 NBE=    47 NFC=     0 NFV=     0
 NROrb=    303 NOA=    47 NOB=    47 NVA=   256 NVB=   256

 **** Warning!!: The largest alpha MO coefficient is  0.84142850D+02

 NEqPCM:  Using equilibrium solvation (IEInf=0, Eps=  78.3553, EpsInf=   1.7778)
          Differentiating once with respect to magnetic field using GIAOs.
          Electric field/nuclear overlap derivatives assumed to be zero.
 FoFCou: FMM=F IPFlag=           0 FMFlag=    10101102 FMFlg1=           0
         NFxFlg=    40000000 DoJE=F BraDBF=F KetDBF=T FulRan=T
         Omega=  0.000000  0.000000  1.000000  0.000000  0.000000 ICntrl=    6100 IOpCl=  0
         NMat0=    1 NMatS0=    1 NMatT0=    0 NMatD0=    1 NMtDS0=    0 NMtDT0=    0
         I1Cent=           7 NGrid=        1807.
 Symmetry not used in FoFCou.
          There are     3 degrees of freedom in the 1st order CPHF.  IDoFFX=0.
      3 vectors produced by pass  0 Test12= 4.01D-13 3.33D-08 XBig12= 3.06D+01 1.16D+00.
 AX will form     3 AO Fock derivatives at one time.
      3 vectors produced by pass  1 Test12= 4.01D-13 3.33D-08 XBig12= 7.75D-02 4.73D-02.
      3 vectors produced by pass  2 Test12= 4.01D-13 3.33D-08 XBig12= 1.68D-04 2.76D-03.
      3 vectors produced by pass  3 Test12= 4.01D-13 3.33D-08 XBig12= 6.34D-07 1.23D-04.
      3 vectors produced by pass  4 Test12= 4.01D-13 3.33D-08 XBig12= 2.16D-09 6.23D-06.
      3 vectors produced by pass  5 Test12= 4.01D-13 3.33D-08 XBig12= 7.61D-12 3.81D-07.
 Inverted reduced A of dimension    18 with in-core refinement.
 Calculating GIAO nuclear magnetic shielding tensors.
 SCF GIAO Magnetic shielding tensor (ppm):
      1  C    Isotropic =   167.8453   Anisotropy =    23.7432
   XX=   177.6322   YX=    -3.4417   ZX=     1.3577
   XY=    -3.9156   YY=   165.1172   ZY=   -18.0010
   XZ=    -4.3632   YZ=   -22.1621   ZZ=   160.7864
   Eigenvalues:   142.3902   177.4716   183.6741
      2  C    Isotropic =   126.7902   Anisotropy =    60.6234
   XX=   136.9989   YX=    18.2527   ZX=   -11.8083
   XY=    16.8204   YY=   149.4288   ZY=   -19.1519
   XZ=   -17.1070   YZ=    -8.9592   ZZ=    93.9430
   Eigenvalues:    88.2281   124.9367   167.2058
      3  N    Isotropic =   197.9298   Anisotropy =    80.4550
   XX=   210.9010   YX=     3.1918   ZX=   -44.2502
   XY=   -11.1170   YY=   229.9862   ZY=   -37.8792
   XZ=   -50.3670   YZ=   -32.1565   ZZ=   152.9021
   Eigenvalues:   116.9444   225.2785   251.5664
      4  C    Isotropic =   142.4242   Anisotropy =    55.3545
   XX=   152.5698   YX=   -24.3229   ZX=     6.8239
   XY=   -15.0513   YY=   152.2705   ZY=   -20.1181
   XZ=    20.1407   YZ=   -10.2364   ZZ=   122.4323
   Eigenvalues:   115.1348   132.8106   179.3272
      5  C    Isotropic =   168.2065   Anisotropy =    23.5900
   XX=   177.3707   YX=    -2.0093   ZX=     3.7418
   XY=     2.1040   YY=   173.7859   ZY=   -13.2618
   XZ=     9.1608   YZ=   -18.1252   ZZ=   153.4629
   Eigenvalues:   143.9524   176.7339   183.9331
      6  C    Isotropic =   127.5287   Anisotropy =    47.5736
   XX=   127.1630   YX=   -18.6981   ZX=   -19.9946
   XY=    -8.7379   YY=   129.7695   ZY=    14.1964
   XZ=   -26.3865   YZ=     5.8345   ZZ=   125.6536
   Eigenvalues:   102.9407   120.4010   159.2445
      7  C    Isotropic =   110.1725   Anisotropy =    31.0725
   XX=   127.1785   YX=    -7.5965   ZX=    11.1083
   XY=     7.1142   YY=   100.7109   ZY=     5.9132
   XZ=     9.3095   YZ=    -8.9742   ZZ=   102.6280
   Eigenvalues:    98.1990   101.4309   130.8875
      8  C    Isotropic =   115.7017   Anisotropy =    30.3830
   XX=   128.0928   YX=    10.1247   ZX=    13.5151
   XY=    -0.4660   YY=   103.8796   ZY=    -0.1783
   XZ=     9.0511   YZ=     9.5548   ZZ=   115.1327
   Eigenvalues:   102.1512   108.9970   135.9570
      9  H    Isotropic =    29.7833   Anisotropy =    12.2510
   XX=    29.5948   YX=    -2.4685   ZX=    -4.8724
   XY=    -2.8635   YY=    25.6549   ZY=     1.6892
   XZ=    -5.0784   YZ=     1.5112   ZZ=    34.1003
   Eigenvalues:    24.1991    27.2003    37.9507
     10  H    Isotropic =    29.4190   Anisotropy =     9.5532
   XX=    32.5796   YX=     3.5811   ZX=    -1.4860
   XY=     4.2165   YY=    30.6671   ZY=     0.2083
   XZ=    -1.7383   YZ=    -0.1958   ZZ=    25.0102
   Eigenvalues:    24.5403    27.9288    35.7878
     11  H    Isotropic =    27.6134   Anisotropy =     7.9194
   XX=    25.9241   YX=    -0.0116   ZX=     0.4242
   XY=    -0.6421   YY=    24.6584   ZY=    -2.7857
   XZ=    -0.2596   YZ=    -1.7734   ZZ=    32.2577
   Eigenvalues:    23.9828    25.9644    32.8930
     12  H    Isotropic =    28.7074   Anisotropy =    11.8830
   XX=    26.8685   YX=    -2.5287   ZX=     0.1073
   XY=    -1.6503   YY=    34.6411   ZY=     4.5368
   XZ=     1.3267   YZ=     4.3577   ZZ=    24.6126
   Eigenvalues:    22.4510    27.0417    36.6294
     13  H    Isotropic =    28.8042   Anisotropy =     8.7108
   XX=    28.4684   YX=     0.1522   ZX=    -0.5814
   XY=     0.1186   YY=    30.9454   ZY=    -5.4496
   XZ=    -1.3070   YZ=    -4.9689   ZZ=    26.9989
   Eigenvalues:    23.3061    28.4952    34.6114
     14  H    Isotropic =    30.0721   Anisotropy =    12.7834
   XX=    33.8956   YX=    -5.5359   ZX=     0.7707
   XY=    -6.0133   YY=    30.7864   ZY=    -1.5426
   XZ=     1.4333   YZ=    -1.7833   ZZ=    25.5343
   Eigenvalues:    24.9655    26.6564    38.5944
     15  H    Isotropic =    29.7458   Anisotropy =     8.0822
   XX=    27.9310   YX=     0.0230   ZX=     2.4751
   XY=     0.3515   YY=    27.6737   ZY=     1.5760
   XZ=     3.5586   YZ=     0.9294   ZZ=    33.6327
   Eigenvalues:    26.5233    27.5801    35.1339
     16  H    Isotropic =    28.7108   Anisotropy =     5.1651
   XX=    28.2096   YX=    -0.1478   ZX=    -0.7212
   XY=     0.5345   YY=    25.8835   ZY=     0.8608
   XZ=    -0.5024   YZ=    -0.0930   ZZ=    32.0393
   Eigenvalues:    25.8366    28.1416    32.1542
     17  H    Isotropic =    27.4169   Anisotropy =     5.5633
   XX=    27.2805   YX=    -1.3880   ZX=     0.9594
   XY=    -2.8445   YY=    27.1707   ZY=     2.7120
   XZ=     0.5055   YZ=     4.0582   ZZ=    27.7995
   Eigenvalues:    23.0585    28.0664    31.1258
     18  H    Isotropic =    27.6166   Anisotropy =     6.4227
   XX=    25.3833   YX=     0.0338   ZX=     2.1970
   XY=     0.7748   YY=    30.5361   ZY=    -2.0593
   XZ=     1.8988   YZ=    -3.0042   ZZ=    26.9303
   Eigenvalues:    23.4737    27.4776    31.8984
     19  O    Isotropic =   293.6396   Anisotropy =    82.8063
   XX=   276.6312   YX=   -14.0733   ZX=   -24.3116
   XY=   -11.0323   YY=   300.5226   ZY=    38.5650
   XZ=    -2.6352   YZ=    45.3828   ZZ=   303.7649
   Eigenvalues:   260.1315   271.9434   348.8437
     20  H    Isotropic =    30.4721   Anisotropy =    20.5281
   XX=    25.8796   YX=    -2.5582   ZX=     1.0671
   XY=    -3.0816   YY=    35.4681   ZY=    10.0198
   XZ=     0.2193   YZ=    11.7292   ZZ=    30.0686
   Eigenvalues:    20.5863    26.6726    44.1575
     21  O    Isotropic =   299.8870   Anisotropy =    50.6445
   XX=   313.2532   YX=    18.1934   ZX=    13.6309
   XY=    27.0965   YY=   308.5029   ZY=    -3.8755
   XZ=     4.5019   YZ=   -17.3875   ZZ=   277.9048
   Eigenvalues:   268.1354   297.8755   333.6500
     22  H    Isotropic =    26.4554   Anisotropy =    24.5030
   XX=    26.6988   YX=    10.6385   ZX=     5.3107
   XY=    10.0366   YY=    36.0976   ZY=    -2.4073
   XZ=     5.5766   YZ=    -2.3303   ZZ=    16.5698
   Eigenvalues:    12.1758    24.3996    42.7907
     23  C    Isotropic =   131.9965   Anisotropy =    54.6481
   XX=   126.6658   YX=     9.2280   ZX=    19.4814
   XY=     9.1444   YY=   113.3873   ZY=     3.0929
   XZ=    25.4695   YZ=    -3.8099   ZZ=   155.9363
   Eigenvalues:   105.5276   122.0333   168.4285
     24  H    Isotropic =    27.5998   Anisotropy =     8.0422
   XX=    26.6900   YX=     1.7152   ZX=     1.0808
   XY=     1.7174   YY=    28.0293   ZY=    -3.7889
   XZ=     0.9530   YZ=    -5.9428   ZZ=    28.0801
   Eigenvalues:    22.3271    27.5111    32.9613
     25  H    Isotropic =    27.5775   Anisotropy =     6.9816
   XX=    28.4697   YX=     1.0426   ZX=    -2.0614
   XY=    -0.2927   YY=    24.5416   ZY=     0.7552
   XZ=    -4.0383   YZ=     0.9363   ZZ=    29.7213
   Eigenvalues:    24.1485    26.3521    32.2320
     26  O    Isotropic =   316.3584   Anisotropy =    31.8406
   XX=   324.2701   YX=    -5.5067   ZX=   -20.6064
   XY=    -8.5230   YY=   318.4632   ZY=   -17.1888
   XZ=   -20.1529   YZ=    -2.4942   ZZ=   306.3419
   Eigenvalues:   288.2197   323.2699   337.5855
     27  H    Isotropic =    28.2344   Anisotropy =    15.0677
   XX=    34.1841   YX=    -1.8789   ZX=    -3.6186
   XY=    -1.2248   YY=    21.2135   ZY=     6.4501
   XZ=    -5.5378   YZ=     6.0225   ZZ=    29.3055
   Eigenvalues:    17.7803    28.6433    38.2795
 End of Minotr Frequency-dependent properties file   721 does not exist.
 End of Minotr Frequency-dependent properties file   722 does not exist.

 **********************************************************************

            Population analysis using the SCF density.

 **********************************************************************

 Orbital symmetries:
       Occupied  (A) (A) (A) (A) (A) (A) (A) (A) (A) (A) (A) (A)
                 (A) (A) (A) (A) (A) (A) (A) (A) (A) (A) (A) (A)
                 (A) (A) (A) (A) (A) (A) (A) (A) (A) (A) (A) (A)
                 (A) (A) (A) (A) (A) (A) (A) (A) (A) (A) (A)
       Virtual   (A) (A) (A) (A) (A) (A) (A) (A) (A) (A) (A) (A)
                 (A) (A) (A) (A) (A) (A) (A) (A) (A) (A) (A) (A)
                 (A) (A) (A) (A) (A) (A) (A) (A) (A) (A) (A) (A)
                 (A) (A) (A) (A) (A) (A) (A) (A) (A) (A) (A) (A)
                 (A) (A) (A) (A) (A) (A) (A) (A) (A) (A) (A) (A)
                 (A) (A) (A) (A) (A) (A) (A) (A) (A) (A) (A) (A)
                 (A) (A) (A) (A) (A) (A) (A) (A) (A) (A) (A) (A)
                 (A) (A) (A) (A) (A) (A) (A) (A) (A) (A) (A) (A)
                 (A) (A) (A) (A) (A) (A) (A) (A) (A) (A) (A) (A)
                 (A) (A) (A) (A) (A) (A) (A) (A) (A) (A) (A) (A)
                 (A) (A) (A) (A) (A) (A) (A) (A) (A) (A) (A) (A)
                 (A) (A) (A) (A) (A) (A) (A) (A) (A) (A) (A) (A)
                 (A) (A) (A) (A) (A) (A) (A) (A) (A) (A) (A) (A)
                 (A) (A) (A) (A) (A) (A) (A) (A) (A) (A) (A) (A)
                 (A) (A) (A) (A) (A) (A) (A) (A) (A) (A) (A) (A)
                 (A) (A) (A) (A) (A) (A) (A) (A) (A) (A) (A) (A)
                 (A) (A) (A) (A) (A) (A) (A) (A) (A) (A) (A) (A)
                 (A) (A) (A) (A) (A) (A) (A) (A) (A) (A) (A) (A)
                 (A) (A) (A) (A) (A) (A) (A) (A) (A) (A) (A) (A)
                 (A) (A) (A) (A) (A) (A) (A) (A) (A) (A) (A) (A)
                 (A) (A) (A) (A) (A) (A) (A) (A) (A) (A) (A) (A)
                 (A) (A) (A) (A)
 The electronic state is 1-A.
 Alpha  occ. eigenvalues --  -19.26584 -19.25722 -19.24513 -14.41634 -10.30365
 Alpha  occ. eigenvalues --  -10.30181 -10.30135 -10.28454 -10.27746 -10.26887
 Alpha  occ. eigenvalues --  -10.24431 -10.24116  -1.07489  -1.06316  -1.04407
 Alpha  occ. eigenvalues --   -0.96100  -0.82394  -0.79067  -0.75535  -0.71713
 Alpha  occ. eigenvalues --   -0.67027  -0.61980  -0.59962  -0.57610  -0.55653
 Alpha  occ. eigenvalues --   -0.52774  -0.51328  -0.50707  -0.49212  -0.46955
 Alpha  occ. eigenvalues --   -0.46469  -0.45624  -0.42622  -0.42174  -0.40820
 Alpha  occ. eigenvalues --   -0.39508  -0.38737  -0.37703  -0.36730  -0.35344
 Alpha  occ. eigenvalues --   -0.34699  -0.34155  -0.33772  -0.31252  -0.29330
 Alpha  occ. eigenvalues --   -0.28523  -0.23846
 Alpha virt. eigenvalues --    0.00488   0.01637   0.01797   0.02461   0.04044
 Alpha virt. eigenvalues --    0.04305   0.04439   0.04923   0.05568   0.07054
 Alpha virt. eigenvalues --    0.07436   0.08243   0.08372   0.08785   0.09783
 Alpha virt. eigenvalues --    0.10427   0.11249   0.11780   0.12340   0.13038
 Alpha virt. eigenvalues --    0.13249   0.13544   0.14762   0.15301   0.15562
 Alpha virt. eigenvalues --    0.16063   0.16448   0.17297   0.17879   0.18668
 Alpha virt. eigenvalues --    0.19113   0.19830   0.20036   0.20310   0.20944
 Alpha virt. eigenvalues --    0.20983   0.21441   0.21968   0.22554   0.23137
 Alpha virt. eigenvalues --    0.23694   0.24116   0.24492   0.24710   0.26151
 Alpha virt. eigenvalues --    0.26592   0.27187   0.27826   0.28528   0.29045
 Alpha virt. eigenvalues --    0.29408   0.29848   0.30575   0.31482   0.31856
 Alpha virt. eigenvalues --    0.32235   0.32954   0.33631   0.34377   0.34718
 Alpha virt. eigenvalues --    0.35054   0.35964   0.36933   0.37246   0.38849
 Alpha virt. eigenvalues --    0.39302   0.40848   0.41439   0.42108   0.42870
 Alpha virt. eigenvalues --    0.43250   0.44252   0.44949   0.46207   0.47757
 Alpha virt. eigenvalues --    0.51374   0.65219   0.65430   0.67907   0.68875
 Alpha virt. eigenvalues --    0.70210   0.70449   0.72862   0.74426   0.74930
 Alpha virt. eigenvalues --    0.75510   0.79070   0.79649   0.80535   0.81984
 Alpha virt. eigenvalues --    0.82711   0.83936   0.84846   0.86229   0.87460
 Alpha virt. eigenvalues --    0.88886   0.91001   0.92589   0.94383   0.96694
 Alpha virt. eigenvalues --    0.98722   1.00880   1.03133   1.03612   1.04408
 Alpha virt. eigenvalues --    1.05815   1.07702   1.09471   1.10170   1.10804
 Alpha virt. eigenvalues --    1.12381   1.14151   1.14782   1.15858   1.16459
 Alpha virt. eigenvalues --    1.17546   1.18539   1.18988   1.22775   1.25790
 Alpha virt. eigenvalues --    1.26087   1.28220   1.31124   1.31535   1.33344
 Alpha virt. eigenvalues --    1.34333   1.36282   1.37139   1.39642   1.42561
 Alpha virt. eigenvalues --    1.43861   1.45552   1.47497   1.49007   1.50865
 Alpha virt. eigenvalues --    1.54768   1.55595   1.59115   1.60755   1.62094
 Alpha virt. eigenvalues --    1.62701   1.65028   1.65836   1.69573   1.72158
 Alpha virt. eigenvalues --    1.73130   1.75163   1.77199   1.78758   1.80537
 Alpha virt. eigenvalues --    1.81974   1.83266   1.83986   1.84747   1.86700
 Alpha virt. eigenvalues --    1.87893   1.89120   1.91198   1.94065   1.97090
 Alpha virt. eigenvalues --    1.98010   2.01910   2.02133   2.03929   2.05466
 Alpha virt. eigenvalues --    2.06007   2.07624   2.08467   2.09230   2.11547
 Alpha virt. eigenvalues --    2.14115   2.16430   2.16870   2.17001   2.18245
 Alpha virt. eigenvalues --    2.21610   2.22654   2.23269   2.25819   2.30486
 Alpha virt. eigenvalues --    2.31044   2.34597   2.36060   2.36700   2.39657
 Alpha virt. eigenvalues --    2.42744   2.44334   2.45119   2.47440   2.48422
 Alpha virt. eigenvalues --    2.49218   2.51272   2.52955   2.54623   2.56038
 Alpha virt. eigenvalues --    2.57177   2.58938   2.59960   2.61006   2.62300
 Alpha virt. eigenvalues --    2.63671   2.66577   2.67806   2.68540   2.69695
 Alpha virt. eigenvalues --    2.70261   2.73682   2.75001   2.77831   2.77978
 Alpha virt. eigenvalues --    2.80017   2.80377   2.82733   2.84142   2.85748
 Alpha virt. eigenvalues --    2.86266   2.89725   2.91374   2.93427   2.96500
 Alpha virt. eigenvalues --    2.97850   2.99114   3.00842   3.01464   3.04146
 Alpha virt. eigenvalues --    3.05940   3.09023   3.12001   3.13912   3.33314
 Alpha virt. eigenvalues --    3.34367   3.37109   3.39221   3.45224   3.45919
 Alpha virt. eigenvalues --    3.48217   3.48972   3.51444   3.54643   3.55595
 Alpha virt. eigenvalues --    3.56744   3.60228   3.62759   3.65333   4.33669
 Alpha virt. eigenvalues --    4.34711   4.39842   4.44162   4.52489   4.61340
 Alpha virt. eigenvalues --    4.63389   4.71176   4.78896   4.82417   4.89587
 Alpha virt. eigenvalues --    4.99365
          Condensed to atoms (all electrons):
              1          2          3          4          5          6
     1  C    6.054783  -0.585662   0.094245   0.040680   0.092377   0.094740
     2  C   -0.585662   7.856143  -0.259079  -0.199409  -0.047027  -0.546863
     3  N    0.094245  -0.259079   7.643734   0.176537  -0.116669  -0.151872
     4  C    0.040680  -0.199409   0.176537   5.805469   0.066212  -0.334179
     5  C    0.092377  -0.047027  -0.116669   0.066212   5.532501   0.160386
     6  C    0.094740  -0.546863  -0.151872  -0.334179   0.160386   8.855522
     7  C   -0.103040   0.447529  -0.132448   0.043070  -0.160891  -1.646865
     8  C   -0.047847  -0.539250  -0.129753  -0.097346   0.184912   0.689329
     9  H    0.438343  -0.102936   0.012150   0.003352  -0.045372   0.015720
    10  H    0.415753  -0.128386   0.015352   0.025231  -0.027827   0.003412
    11  H   -0.015742   0.260434  -0.024996  -0.020587   0.029944   0.019006
    12  H    0.013724  -0.040760  -0.033535   0.380630  -0.032178   0.021489
    13  H    0.020592   0.030805  -0.064314   0.367559  -0.021190   0.027647
    14  H   -0.031122   0.028896   0.010818  -0.036798   0.356011   0.003284
    15  H   -0.055718  -0.012591   0.012718  -0.074264   0.447358   0.018639
    16  H   -0.000666   0.035110  -0.040899   0.059613  -0.008528   0.258063
    17  H    0.013779  -0.032135   0.037987   0.005305  -0.000140   0.032285
    18  H    0.013402  -0.033579   0.017691   0.004415  -0.012425  -0.011934
    19  O    0.018239  -0.287076   0.053996   0.002551  -0.009700  -0.042019
    20  H    0.005202   0.036799  -0.001334   0.001948  -0.002144  -0.013622
    21  O    0.032628  -0.009996   0.083142   0.020531  -0.000669  -0.101530
    22  H   -0.002335  -0.009543  -0.001395  -0.003378   0.000650  -0.054327
    23  C   -0.051406   0.101100  -0.019462  -0.032456  -0.078163  -1.035426
    24  H    0.003592  -0.005249  -0.007946   0.014798  -0.004635  -0.104574
    25  H    0.000159   0.008415   0.013255   0.001989   0.000170  -0.115917
    26  O    0.010682  -0.037143   0.053418   0.019569  -0.003634  -0.283504
    27  H   -0.002455   0.018683   0.038858   0.004828  -0.000599  -0.026663
              7          8          9         10         11         12
     1  C   -0.103040  -0.047847   0.438343   0.415753  -0.015742   0.013724
     2  C    0.447529  -0.539250  -0.102936  -0.128386   0.260434  -0.040760
     3  N   -0.132448  -0.129753   0.012150   0.015352  -0.024996  -0.033535
     4  C    0.043070  -0.097346   0.003352   0.025231  -0.020587   0.380630
     5  C   -0.160891   0.184912  -0.045372  -0.027827   0.029944  -0.032178
     6  C   -1.646865   0.689329   0.015720   0.003412   0.019006   0.021489
     7  C    8.052279  -1.337461  -0.017280  -0.005247  -0.002929  -0.001833
     8  C   -1.337461   6.961828   0.025875   0.039446   0.031531   0.005350
     9  H   -0.017280   0.025875   0.528582  -0.025283  -0.007503   0.001349
    10  H   -0.005247   0.039446  -0.025283   0.508288   0.002563  -0.000044
    11  H   -0.002929   0.031531  -0.007503   0.002563   0.553013   0.000706
    12  H   -0.001833   0.005350   0.001349  -0.000044   0.000706   0.550063
    13  H    0.016915  -0.018613  -0.000115  -0.000137  -0.000182  -0.031181
    14  H    0.006173  -0.001625  -0.005303   0.000758  -0.000064  -0.003636
    15  H   -0.007902   0.007763   0.004123  -0.005285  -0.000104   0.003952
    16  H   -0.026661  -0.012697  -0.000008  -0.000019  -0.000491  -0.000318
    17  H    0.249856   0.061263   0.000004  -0.000009  -0.000127   0.000004
    18  H    0.088243   0.245229  -0.000019   0.000290  -0.003081   0.000005
    19  O    0.074811   0.174795  -0.000413   0.000470   0.009580   0.000227
    20  H   -0.059205   0.051667   0.000000  -0.000204  -0.000256   0.000000
    21  O    0.171848  -0.079886   0.000095  -0.000016  -0.001667   0.000054
    22  H    0.077575  -0.000811   0.000000   0.000000  -0.000016   0.000005
    23  C    0.438478  -0.243636  -0.000170   0.000365  -0.000610  -0.000160
    24  H    0.048023  -0.020645   0.000000   0.000000   0.000006  -0.000111
    25  H   -0.025245   0.000553   0.000000   0.000000  -0.000004   0.000002
    26  O    0.146053  -0.039213   0.000019   0.000005   0.001093   0.001349
    27  H   -0.043444   0.001916   0.000000  -0.000001  -0.000548  -0.000295
             13         14         15         16         17         18
     1  C    0.020592  -0.031122  -0.055718  -0.000666   0.013779   0.013402
     2  C    0.030805   0.028896  -0.012591   0.035110  -0.032135  -0.033579
     3  N   -0.064314   0.010818   0.012718  -0.040899   0.037987   0.017691
     4  C    0.367559  -0.036798  -0.074264   0.059613   0.005305   0.004415
     5  C   -0.021190   0.356011   0.447358  -0.008528  -0.000140  -0.012425
     6  C    0.027647   0.003284   0.018639   0.258063   0.032285  -0.011934
     7  C    0.016915   0.006173  -0.007902  -0.026661   0.249856   0.088243
     8  C   -0.018613  -0.001625   0.007763  -0.012697   0.061263   0.245229
     9  H   -0.000115  -0.005303   0.004123  -0.000008   0.000004  -0.000019
    10  H   -0.000137   0.000758  -0.005285  -0.000019  -0.000009   0.000290
    11  H   -0.000182  -0.000064  -0.000104  -0.000491  -0.000127  -0.003081
    12  H   -0.031181  -0.003636   0.003952  -0.000318   0.000004   0.000005
    13  H    0.534504   0.001119  -0.005843   0.001849  -0.000019   0.000005
    14  H    0.001119   0.526406  -0.024795  -0.000136  -0.000001   0.000004
    15  H   -0.005843  -0.024795   0.510180   0.000124   0.000022   0.000025
    16  H    0.001849  -0.000136   0.000124   0.560561  -0.003213  -0.000118
    17  H   -0.000019  -0.000001   0.000022  -0.003213   0.573375  -0.003010
    18  H    0.000005   0.000004   0.000025  -0.000118  -0.003010   0.560097
    19  O    0.000549   0.000385  -0.001647   0.003838  -0.012726  -0.035866
    20  H   -0.000002  -0.000002   0.000088   0.000511   0.005349  -0.006269
    21  O   -0.000100  -0.000012   0.000018   0.010094  -0.044935  -0.004997
    22  H    0.000003   0.000000   0.000000  -0.000081   0.000667   0.000202
    23  C   -0.023915   0.000758   0.000444  -0.027141  -0.047356   0.014436
    24  H    0.001494   0.000001  -0.000001  -0.002904  -0.000127   0.000004
    25  H   -0.000027   0.000000   0.000000   0.000855   0.001573  -0.000004
    26  O   -0.000561   0.000004   0.000036   0.010842   0.001199   0.000088
    27  H    0.000135  -0.000001   0.000000   0.000457  -0.000070  -0.000009
             19         20         21         22         23         24
     1  C    0.018239   0.005202   0.032628  -0.002335  -0.051406   0.003592
     2  C   -0.287076   0.036799  -0.009996  -0.009543   0.101100  -0.005249
     3  N    0.053996  -0.001334   0.083142  -0.001395  -0.019462  -0.007946
     4  C    0.002551   0.001948   0.020531  -0.003378  -0.032456   0.014798
     5  C   -0.009700  -0.002144  -0.000669   0.000650  -0.078163  -0.004635
     6  C   -0.042019  -0.013622  -0.101530  -0.054327  -1.035426  -0.104574
     7  C    0.074811  -0.059205   0.171848   0.077575   0.438478   0.048023
     8  C    0.174795   0.051667  -0.079886  -0.000811  -0.243636  -0.020645
     9  H   -0.000413   0.000000   0.000095   0.000000  -0.000170   0.000000
    10  H    0.000470  -0.000204  -0.000016   0.000000   0.000365   0.000000
    11  H    0.009580  -0.000256  -0.001667  -0.000016  -0.000610   0.000006
    12  H    0.000227   0.000000   0.000054   0.000005  -0.000160  -0.000111
    13  H    0.000549  -0.000002  -0.000100   0.000003  -0.023915   0.001494
    14  H    0.000385  -0.000002  -0.000012   0.000000   0.000758   0.000001
    15  H   -0.001647   0.000088   0.000018   0.000000   0.000444  -0.000001
    16  H    0.003838   0.000511   0.010094  -0.000081  -0.027141  -0.002904
    17  H   -0.012726   0.005349  -0.044935   0.000667  -0.047356  -0.000127
    18  H   -0.035866  -0.006269  -0.004997   0.000202   0.014436   0.000004
    19  O    8.343637   0.228051   0.007082  -0.000354   0.035169   0.000187
    20  H    0.228051   0.373296   0.000662  -0.000014  -0.006632   0.000000
    21  O    0.007082   0.000662   8.320667   0.222373  -0.039932  -0.002350
    22  H   -0.000354  -0.000014   0.222373   0.330071  -0.017828   0.000769
    23  C    0.035169  -0.006632  -0.039932  -0.017828   6.254020   0.438572
    24  H    0.000187   0.000000  -0.002350   0.000769   0.438572   0.560840
    25  H   -0.000163   0.000004   0.003828  -0.002154   0.491837  -0.033275
    26  O    0.000956   0.000035  -0.023700   0.059218   0.201957  -0.046847
    27  H   -0.000087   0.000000  -0.000377  -0.007156   0.019446  -0.004513
             25         26         27
     1  C    0.000159   0.010682  -0.002455
     2  C    0.008415  -0.037143   0.018683
     3  N    0.013255   0.053418   0.038858
     4  C    0.001989   0.019569   0.004828
     5  C    0.000170  -0.003634  -0.000599
     6  C   -0.115917  -0.283504  -0.026663
     7  C   -0.025245   0.146053  -0.043444
     8  C    0.000553  -0.039213   0.001916
     9  H    0.000000   0.000019   0.000000
    10  H    0.000000   0.000005  -0.000001
    11  H   -0.000004   0.001093  -0.000548
    12  H    0.000002   0.001349  -0.000295
    13  H   -0.000027  -0.000561   0.000135
    14  H    0.000000   0.000004  -0.000001
    15  H    0.000000   0.000036   0.000000
    16  H    0.000855   0.010842   0.000457
    17  H    0.001573   0.001199  -0.000070
    18  H   -0.000004   0.000088  -0.000009
    19  O   -0.000163   0.000956  -0.000087
    20  H    0.000004   0.000035   0.000000
    21  O    0.003828  -0.023700  -0.000377
    22  H   -0.002154   0.059218  -0.007156
    23  C    0.491837   0.201957   0.019446
    24  H   -0.033275  -0.046847  -0.004513
    25  H    0.522028  -0.051732   0.005884
    26  O   -0.051732   8.317386   0.251601
    27  H    0.005884   0.251601   0.336543
 Mulliken atomic charges:
              1
     1  C   -0.466927
     2  C    0.052769
     3  N   -0.280200
     4  C   -0.245869
     5  C   -0.298731
     6  C    0.269775
     7  C   -0.290399
     8  C    0.087325
     9  H    0.174790
    10  H    0.180525
    11  H    0.171031
    12  H    0.165143
    13  H    0.163024
    14  H    0.168876
    15  H    0.182662
    16  H    0.181963
    17  H    0.161197
    18  H    0.167175
    19  O   -0.564472
    20  H    0.386072
    21  O   -0.562854
    22  H    0.407857
    23  C   -0.372288
    24  H    0.164891
    25  H    0.177970
    26  O   -0.589175
    27  H    0.407869
 Sum of Mulliken atomic charges =   0.00000
 Mulliken charges with hydrogens summed into heavy atoms:
              1
     1  C   -0.111611
     2  C    0.223800
     3  N   -0.280200
     4  C    0.082298
     5  C    0.052807
     6  C    0.451738
     7  C   -0.129202
     8  C    0.254500
    19  O   -0.178400
    21  O   -0.154997
    23  C   -0.029426
    26  O   -0.181305
 Sum of Mulliken charges with hydrogens summed into heavy atoms =   0.00000
 Electronic spatial extent (au):  <R**2>=           1917.7812
 Charge=              0.0000 electrons
 Dipole moment (field-independent basis, Debye):
    X=              2.0548    Y=             -0.9114    Z=              2.5086  Tot=              3.3683
 Quadrupole moment (field-independent basis, Debye-Ang):
   XX=            -83.3515   YY=            -69.4105   ZZ=            -69.9285
   XY=              0.2314   XZ=             -7.1649   YZ=              3.6323
 Traceless Quadrupole moment (field-independent basis, Debye-Ang):
   XX=             -9.1213   YY=              4.8197   ZZ=              4.3017
   XY=              0.2314   XZ=             -7.1649   YZ=              3.6323
 Octapole moment (field-independent basis, Debye-Ang**2):
  XXX=             16.1562  YYY=             13.8933  ZZZ=              2.8583  XYY=             11.9666
  XXY=             -3.2718  XXZ=              7.1678  XZZ=             -6.4353  YZZ=              2.5694
  YYZ=             15.9937  XYZ=             -3.0694
 Hexadecapole moment (field-independent basis, Debye-Ang**3):
 XXXX=          -1469.4558 YYYY=           -731.6302 ZZZZ=           -312.2882 XXXY=            -33.6799
 XXXZ=            -31.0676 YYYX=             37.4007 YYYZ=             47.1422 ZZZX=             12.0985
 ZZZY=             23.5333 XXYY=           -391.2878 XXZZ=           -272.0810 YYZZ=           -165.7770
 XXYZ=              1.7366 YYXZ=             -5.5535 ZZXY=             15.0364
 N-N= 8.211043933300D+02 E-N=-3.028108559428D+03  KE= 5.886571860982D+02
 1\1\GINC-COMPUTE-3-2\SP\RmPW1PW91\6-31+G(d,p)\C8H15N1O3\MAMICHETTI.IQU
 IR\17-May-2024\0\\# mpw1pw91/6-31+G** nmr scrf=(pcm,solvent=water)\\co
 mment\\0,1\C,0,2.387519,-0.168579,-0.797222\C,0,0.919517,0.291036,-0.9
 1409\N,0,0.082262,-0.821656,-0.338147\C,0,1.003598,-1.87446,0.153149\C
 ,0,2.367986,-1.198701,0.343498\C,0,-0.795256,-0.235681,0.704809\C,0,-0
 .90739,1.248609,0.319901\C,0,0.522355,1.566284,-0.144899\H,0,2.694399,
 -0.650822,-1.732438\H,0,3.0684,0.666723,-0.613727\H,0,0.647242,0.44538
 7,-1.96331\H,0,1.081391,-2.672934,-0.596507\H,0,0.607664,-2.326875,1.0
 68026\H,0,3.198627,-1.910533,0.294492\H,0,2.410988,-0.692621,1.313737\
 H,0,-0.327364,-0.278474,1.70065\H,0,-1.194429,1.860189,1.186695\H,0,0.
 543212,2.452384,-0.791892\O,0,1.388462,1.754401,0.979184\H,0,1.060587,
 2.530604,1.464141\O,0,-1.806721,1.501461,-0.765892\H,0,-2.390482,0.717
 188,-0.844669\C,0,-2.123881,-0.987161,0.784506\H,0,-1.96021,-2.000286,
 1.175662\H,0,-2.821348,-0.47319,1.452476\O,0,-2.756786,-1.057478,-0.50
 5767\H,0,-2.040846,-1.350313,-1.104422\\Version=AM64L-G09RevC.01\State
 =1-A\HF=-594.201657\RMSD=8.715e-09\Dipole=0.8084131,-0.3585849,0.98694
 35\Quadrupole=-6.7814861,3.5832934,3.1981927,0.1720347,-5.3269112,2.70
 0536\PG=C01 [X(C8H15N1O3)]\\@


 THERE IS MUCH PLEASURE TO BE GAINED FROM USELESS KNOWLEDGE

                                       -- BERTRAND RUSSELL
 Job cpu time:  0 days  0 hours  8 minutes 38.9 seconds.
 File lengths (MBytes):  RWF=    112 Int=      0 D2E=      0 Chk=      7 Scr=      1
 Normal termination of Gaussian 09 at Fri May 17 12:32:14 2024.
