 Entering Gaussian System, Link 0=g09
 Input=/home/mamichetti.iquir/Linux/03_Cardona_A1A3_R__S_S_R_009_OptB.gjc
 Output=/home/mamichetti.iquir/Linux/03_Cardona_A1A3_R__S_S_R_009_OptB.log
 Initial command:
 /opt/ohpc/pub/apps/software/Gaussian/09/AMD64.SSE4a-enabled/g09/l1.exe /local/mamichetti.iquir/Gau-123080.inp -scrdir=/local/mamichetti.iquir/
 Entering Link 1 = /opt/ohpc/pub/apps/software/Gaussian/09/AMD64.SSE4a-enabled/g09/l1.exe PID=    123081.
  
 Copyright (c) 1988,1990,1992,1993,1995,1998,2003,2009,2011,
            Gaussian, Inc.  All Rights Reserved.
  
 This is part of the Gaussian(R) 09 program.  It is based on
 the Gaussian(R) 03 system (copyright 2003, Gaussian, Inc.),
 the Gaussian(R) 98 system (copyright 1998, Gaussian, Inc.),
 the Gaussian(R) 94 system (copyright 1995, Gaussian, Inc.),
 the Gaussian 92(TM) system (copyright 1992, Gaussian, Inc.),
 the Gaussian 90(TM) system (copyright 1990, Gaussian, Inc.),
 the Gaussian 88(TM) system (copyright 1988, Gaussian, Inc.),
 the Gaussian 86(TM) system (copyright 1986, Carnegie Mellon
 University), and the Gaussian 82(TM) system (copyright 1983,
 Carnegie Mellon University). Gaussian is a federally registered
 trademark of Gaussian, Inc.
  
 This software contains proprietary and confidential information,
 including trade secrets, belonging to Gaussian, Inc.
  
 This software is provided under written license and may be
 used, copied, transmitted, or stored only in accord with that
 written license.
  
 The following legend is applicable only to US Government
 contracts under FAR:
  
                    RESTRICTED RIGHTS LEGEND
  
 Use, reproduction and disclosure by the US Government is
 subject to restrictions as set forth in subparagraphs (a)
 and (c) of the Commercial Computer Software - Restricted
 Rights clause in FAR 52.227-19.
  
 Gaussian, Inc.
 340 Quinnipiac St., Bldg. 40, Wallingford CT 06492
  
  
 ---------------------------------------------------------------
 Warning -- This program may not be used in any manner that
 competes with the business of Gaussian, Inc. or will provide
 assistance to any competitor of Gaussian, Inc.  The licensee
 of this program is prohibited from giving any competitor of
 Gaussian, Inc. access to this program.  By using this program,
 the user acknowledges that Gaussian, Inc. is engaged in the
 business of creating and licensing software in the field of
 computational chemistry and represents and warrants to the
 licensee that it is not a competitor of Gaussian, Inc. and that
 it will not use this program in any manner prohibited above.
 ---------------------------------------------------------------
  

 Cite this work as:
 Gaussian 09, Revision C.01,
 M. J. Frisch, G. W. Trucks, H. B. Schlegel, G. E. Scuseria, 
 M. A. Robb, J. R. Cheeseman, G. Scalmani, V. Barone, B. Mennucci, 
 G. A. Petersson, H. Nakatsuji, M. Caricato, X. Li, H. P. Hratchian, 
 A. F. Izmaylov, J. Bloino, G. Zheng, J. L. Sonnenberg, M. Hada, 
 M. Ehara, K. Toyota, R. Fukuda, J. Hasegawa, M. Ishida, T. Nakajima, 
 Y. Honda, O. Kitao, H. Nakai, T. Vreven, J. A. Montgomery, Jr., 
 J. E. Peralta, F. Ogliaro, M. Bearpark, J. J. Heyd, E. Brothers, 
 K. N. Kudin, V. N. Staroverov, T. Keith, R. Kobayashi, J. Normand, 
 K. Raghavachari, A. Rendell, J. C. Burant, S. S. Iyengar, J. Tomasi, 
 M. Cossi, N. Rega, J. M. Millam, M. Klene, J. E. Knox, J. B. Cross, 
 V. Bakken, C. Adamo, J. Jaramillo, R. Gomperts, R. E. Stratmann, 
 O. Yazyev, A. J. Austin, R. Cammi, C. Pomelli, J. W. Ochterski, 
 R. L. Martin, K. Morokuma, V. G. Zakrzewski, G. A. Voth, 
 P. Salvador, J. J. Dannenberg, S. Dapprich, A. D. Daniels, 
 O. Farkas, J. B. Foresman, J. V. Ortiz, J. Cioslowski, 
 and D. J. Fox, Gaussian, Inc., Wallingford CT, 2010.
 
 ******************************************
 Gaussian 09:  AM64L-G09RevC.01 23-Sep-2011
                17-May-2024 
 ******************************************
 %nprocshared=4
 Will use up to    4 processors via shared memory.
 ------------------------------------------------
 # mpw1pw91/6-31+G** nmr scrf=(pcm,solvent=water)
 ------------------------------------------------
 1/38=1/1;
 2/12=2,17=6,18=5,40=1/2;
 3/5=1,6=6,7=111,11=2,16=1,25=1,30=1,70=2201,72=1,74=-7/1,2,8,3;
 4//1;
 5/5=2,38=5,53=1/2;
 8/6=1,10=90,11=11/1;
 10/13=100,45=16/2;
 6/7=2,8=2,9=2,10=2,28=1/1;
 99/9=1/99;
 -------
 comment
 -------
 Charge =  0 Multiplicity = 1
 Symbolic Z-Matrix:
 6                     2.20056  -0.88974   0.03464 
 6                     1.07899  -0.2674   -0.85541 
 7                    -0.20118  -0.95442  -0.49614 
 6                     0.20865  -2.2348    0.11633 
 6                     1.47879  -1.92667   0.92131 
 6                    -0.97232  -0.06275   0.42795 
 6                    -0.10192   1.19812   0.62648 
 6                     0.7797    1.21617  -0.61996 
 1                     2.94672  -1.37643  -0.60187 
 1                     2.72213  -0.13174   0.62449 
 1                     1.30809  -0.44657  -1.91051 
 1                     0.43766  -2.94943  -0.68497 
 1                    -0.61149  -2.65183   0.7065 
 1                     2.08559  -2.81682   1.11643 
 1                     1.20945  -1.48788   1.8899 
 1                    -1.13584  -0.5738    1.38369 
 1                     0.54051   1.06906   1.50751 
 1                     0.18058   1.60302  -1.45737 
 8                     1.97339   1.9822   -0.49125 
 1                     1.69762   2.90003  -0.328 
 8                    -0.81341   2.43229   0.72773 
 1                    -1.25217   2.44674   1.59454 
 6                    -2.34958   0.23202  -0.17422 
 1                    -2.96854   0.78992   0.53448 
 1                    -2.25277   0.83687  -1.08734 
 8                    -3.03998  -0.9889   -0.45214 
 1                    -2.39645  -1.52457  -0.95204 
 
                          Input orientation:                          
 ---------------------------------------------------------------------
 Center     Atomic      Atomic             Coordinates (Angstroms)
 Number     Number       Type             X           Y           Z
 ---------------------------------------------------------------------
      1          6           0        2.200559   -0.889740    0.034643
      2          6           0        1.078990   -0.267403   -0.855409
      3          7           0       -0.201180   -0.954423   -0.496137
      4          6           0        0.208645   -2.234795    0.116334
      5          6           0        1.478788   -1.926673    0.921310
      6          6           0       -0.972324   -0.062753    0.427947
      7          6           0       -0.101917    1.198115    0.626481
      8          6           0        0.779698    1.216171   -0.619961
      9          1           0        2.946718   -1.376434   -0.601871
     10          1           0        2.722133   -0.131743    0.624487
     11          1           0        1.308087   -0.446573   -1.910508
     12          1           0        0.437656   -2.949431   -0.684971
     13          1           0       -0.611488   -2.651834    0.706497
     14          1           0        2.085585   -2.816816    1.116427
     15          1           0        1.209446   -1.487877    1.889898
     16          1           0       -1.135843   -0.573798    1.383694
     17          1           0        0.540512    1.069062    1.507505
     18          1           0        0.180578    1.603021   -1.457370
     19          8           0        1.973389    1.982200   -0.491247
     20          1           0        1.697615    2.900028   -0.328001
     21          8           0       -0.813405    2.432289    0.727730
     22          1           0       -1.252169    2.446743    1.594536
     23          6           0       -2.349584    0.232021   -0.174219
     24          1           0       -2.968541    0.789920    0.534475
     25          1           0       -2.252773    0.836871   -1.087340
     26          8           0       -3.039977   -0.988897   -0.452135
     27          1           0       -2.396447   -1.524571   -0.952039
 ---------------------------------------------------------------------
                    Distance matrix (angstroms):
                    1          2          3          4          5
     1  C    0.000000
     2  C    1.561222   0.000000
     3  N    2.460541   1.496632   0.000000
     4  C    2.404905   2.360597   1.477305   0.000000
     5  C    1.543490   2.463685   2.403481   1.534988   0.000000
     6  C    3.302390   2.428327   1.497888   2.491898   3.118582
     7  C    3.163986   2.395471   2.429721   3.484476   3.514236
     8  C    2.623397   1.531667   2.385148   3.574549   3.569553
     9  H    1.094886   2.186925   3.177819   2.957980   2.185786
    10  H    1.092939   2.215494   3.237029   3.316424   2.203584
    11  H    2.185524   1.094450   2.129846   2.917979   3.199848
    12  H    2.804995   2.762903   2.103289   1.097834   2.170283
    13  H    3.385849   3.314027   2.120350   1.093084   2.222894
    14  H    2.212939   3.376519   3.361274   2.204958   1.094819
    15  H    2.186789   3.007206   2.822694   2.169105   1.096927
    16  H    3.612663   3.164324   2.133597   2.484504   2.979994
    17  H    2.960065   2.767573   2.942648   3.600134   3.193496
    18  H    3.538401   2.160553   2.758664   4.148031   4.449967
    19  O    2.928516   2.448117   3.654111   4.611564   4.185599
    20  H    3.840157   3.270088   4.300056   5.364781   4.990562
    21  O    4.538747   3.657297   3.652737   4.816645   4.928709
    22  H    5.048437   4.336257   4.128368   5.122095   5.199820
    23  C    4.691031   3.531085   2.475262   3.565689   4.529523
    24  H    5.458084   4.408199   3.429749   4.406615   5.225730
    25  H    4.906343   3.517649   2.786986   4.116132   5.059288
    26  O    5.264029   4.201080   2.839347   3.525474   4.815082
    27  H    4.744367   3.697090   2.313463   2.903850   4.323028
                    6          7          8          9         10
     6  C    0.000000
     7  C    1.544931   0.000000
     8  C    2.409012   1.526823   0.000000
     9  H    4.259715   4.175084   3.379039   0.000000
    10  H    3.700324   3.121504   2.671812   1.761717   0.000000
    11  H    3.288763   3.336079   2.170121   2.293967   2.919733
    12  H    3.399932   4.383285   4.180127   2.962536   3.856537
    13  H    2.628903   3.884350   4.319300   3.999913   4.179786
    14  H    4.172490   4.598357   4.580979   2.401832   2.803001
    15  H    2.988043   3.245065   3.714290   3.039646   2.393447
    16  H    1.096065   2.186790   3.299685   4.610206   3.956739
    17  H    2.176034   1.097986   2.145918   4.027374   2.642182
    18  H    2.767383   2.141539   1.099933   4.154583   3.715244
    19  O    3.701888   2.484150   1.424172   3.498575   2.504842
    20  H    4.059323   2.654404   1.939893   4.463563   3.338938
    21  O    2.518007   1.428164   2.415200   5.514774   4.368632
    22  H    2.781513   1.954298   3.247582   6.088640   4.835769
    23  C    1.531777   2.574192   3.310535   5.551651   5.147093
    24  H    2.173311   2.897002   3.945087   6.401145   5.765530
    25  H    2.178295   2.773781   3.091633   5.671782   5.349603
    26  O    2.430530   3.818197   4.413661   6.001093   5.924166
    27  H    2.463615   3.894819   4.208306   5.356676   5.534010
                   11         12         13         14         15
    11  H    0.000000
    12  H    2.919570   0.000000
    13  H    3.923858   1.767894   0.000000
    14  H    3.922358   2.445054   2.733032   0.000000
    15  H    3.941717   3.059698   2.463947   1.769733   0.000000
    16  H    4.103748   3.521208   2.247616   3.934483   2.567521
    17  H    3.816953   4.578844   3.976655   4.200029   2.670512
    18  H    2.382739   4.624663   4.838748   5.457879   4.670805
    19  O    2.890652   5.168848   5.439711   5.062387   4.277253
    20  H    3.722338   5.994255   6.101255   5.909247   4.940759
    21  O    4.443971   5.702963   5.088175   6.009021   4.561827
    22  H    5.216466   6.096750   5.214842   6.250939   4.650594
    23  C    4.105331   4.260424   3.480411   5.534609   4.459296
    24  H    5.079016   5.203073   4.175040   6.236297   4.947839
    25  H    3.873572   4.662230   4.252379   6.085012   5.123998
    26  O    4.618076   3.998980   3.163123   5.663308   4.877673
    27  H    3.975464   3.183346   2.684687   5.102652   4.591341
                   16         17         18         19         20
    16  H    0.000000
    17  H    2.350422   0.000000
    18  H    3.813548   3.033999   0.000000
    19  O    4.440254   2.623350   2.071555   0.000000
    20  H    4.798526   2.839085   2.293273   0.972167   0.000000
    21  O    3.093673   2.073530   2.539754   3.074851   2.763796
    22  H    3.030124   2.262584   3.475451   3.869175   3.550048
    23  C    2.132980   3.446953   3.150847   4.674583   4.849921
    24  H    2.437146   3.652145   3.813860   5.186165   5.193210
    25  H    3.056719   3.819630   2.577810   4.418999   4.520927
    26  O    2.677368   4.571136   4.254470   5.827760   6.130573
    27  H    2.819351   4.626231   4.083901   5.621854   6.060350
                   21         22         23         24         25
    21  O    0.000000
    22  H    0.971635   0.000000
    23  C    2.830996   3.039376   0.000000
    24  H    2.716493   2.610503   1.093895   0.000000
    25  H    2.812760   3.284106   1.099548   1.773362   0.000000
    26  O    4.249026   4.380496   1.429867   2.035360   2.087248
    27  H    4.580872   4.854457   1.921670   2.809606   2.369674
                   26         27
    26  O    0.000000
    27  H    0.975183   0.000000
 Stoichiometry    C8H15NO3
 Framework group  C1[X(C8H15NO3)]
 Deg. of freedom    75
 Full point group                 C1      NOp   1
 Largest Abelian subgroup         C1      NOp   1
 Largest concise Abelian subgroup C1      NOp   1
                         Standard orientation:                         
 ---------------------------------------------------------------------
 Center     Atomic      Atomic             Coordinates (Angstroms)
 Number     Number       Type             X           Y           Z
 ---------------------------------------------------------------------
      1          6           0        2.200560   -0.889738    0.034643
      2          6           0        1.078990   -0.267402   -0.855409
      3          7           0       -0.201179   -0.954423   -0.496137
      4          6           0        0.208647   -2.234795    0.116334
      5          6           0        1.478790   -1.926672    0.921310
      6          6           0       -0.972324   -0.062754    0.427947
      7          6           0       -0.101918    1.198115    0.626481
      8          6           0        0.779697    1.216172   -0.619961
      9          1           0        2.946719   -1.376431   -0.601871
     10          1           0        2.722133   -0.131740    0.624487
     11          1           0        1.308088   -0.446572   -1.910508
     12          1           0        0.437659   -2.949431   -0.684971
     13          1           0       -0.611485   -2.651835    0.706497
     14          1           0        2.085588   -2.816814    1.116427
     15          1           0        1.209448   -1.487876    1.889898
     16          1           0       -1.135842   -0.573799    1.383694
     17          1           0        0.540511    1.069063    1.507505
     18          1           0        0.180576    1.603021   -1.457370
     19          8           0        1.973387    1.982202   -0.491247
     20          1           0        1.697612    2.900030   -0.328001
     21          8           0       -0.813407    2.432288    0.727730
     22          1           0       -1.252171    2.446742    1.594536
     23          6           0       -2.349584    0.232019   -0.174219
     24          1           0       -2.968542    0.789917    0.534475
     25          1           0       -2.252774    0.836869   -1.087340
     26          8           0       -3.039976   -0.988900   -0.452135
     27          1           0       -2.396445   -1.524573   -0.952039
 ---------------------------------------------------------------------
 Rotational constants (GHZ):      1.1054261      0.9565099      0.6001471
 Standard basis: 6-31+G(d,p) (6D, 7F)
 There are   303 symmetry adapted basis functions of A   symmetry.
 Integral buffers will be    131072 words long.
 Raffenetti 2 integral format.
 Two-electron integral symmetry is turned on.
   303 basis functions,   489 primitive gaussians,   303 cartesian basis functions
    47 alpha electrons       47 beta electrons
       nuclear repulsion energy       808.3992340505 Hartrees.
 NAtoms=   27 NActive=   27 NUniq=   27 SFac= 1.00D+00 NAtFMM=   60 NAOKFM=F Big=F
 ------------------------------------------------------------------------------
 Polarizable Continuum Model (PCM)
 =================================
 Model                : PCM.
 Atomic radii         : UFF (Universal Force Field).
 Polarization charges : Total charges.
 Charge compensation  : None.
 Solution method      : Matrix inversion.
 Cavity type          : Scaled VdW (van der Waals Surface) (Alpha=1.100).
 Cavity algorithm     : GePol (No added spheres)
                        Default sphere list used, NSphG=   27.
                        Lebedev-Laikov grids with approx.  5.0 points / Ang**2.
                        Smoothing algorithm: Karplus/York (Gamma=1.0000).
                        Polarization charges: spherical gaussians, with
                                              point-specific exponents (IZeta= 3).
                        Self-potential: point-specific (ISelfS= 7).
                        Self-field    : sphere-specific E.n sum rule (ISelfD= 2).
 Solvent              : Water, Eps=  78.355300 Eps(inf)=   1.777849
 ------------------------------------------------------------------------------
 One-electron integrals computed using PRISM.
 NBasis=   303 RedAO= T  NBF=   303
 NBsUse=   303 1.00D-06 NBFU=   303
 Harris functional with IExCor=  908 diagonalized for initial guess.
 ExpMin= 4.38D-02 ExpMax= 5.48D+03 ExpMxC= 8.25D+02 IAcc=2 IRadAn=         4 AccDes= 0.00D+00
 HarFok:  IExCor=  908 AccDes= 0.00D+00 IRadAn=         4 IDoV= 1
 ScaDFX=  1.000000  1.000000  1.000000  1.000000
 FoFCou: FMM=F IPFlag=           0 FMFlag=      100000 FMFlg1=           0
         NFxFlg=           0 DoJE=T BraDBF=F KetDBF=T FulRan=T
         Omega=  0.000000  0.000000  1.000000  0.000000  0.000000 ICntrl=     500 IOpCl=  0
         NMat0=    1 NMatS0=    1 NMatT0=    0 NMatD0=    1 NMtDS0=    0 NMtDT0=    0
         I1Cent=           4 NGrid=           0.
 Petite list used in FoFCou.
 Initial guess orbital symmetries:
       Occupied  (A) (A) (A) (A) (A) (A) (A) (A) (A) (A) (A) (A)
                 (A) (A) (A) (A) (A) (A) (A) (A) (A) (A) (A) (A)
                 (A) (A) (A) (A) (A) (A) (A) (A) (A) (A) (A) (A)
                 (A) (A) (A) (A) (A) (A) (A) (A) (A) (A) (A)
       Virtual   (A) (A) (A) (A) (A) (A) (A) (A) (A) (A) (A) (A)
                 (A) (A) (A) (A) (A) (A) (A) (A) (A) (A) (A) (A)
                 (A) (A) (A) (A) (A) (A) (A) (A) (A) (A) (A) (A)
                 (A) (A) (A) (A) (A) (A) (A) (A) (A) (A) (A) (A)
                 (A) (A) (A) (A) (A) (A) (A) (A) (A) (A) (A) (A)
                 (A) (A) (A) (A) (A) (A) (A) (A) (A) (A) (A) (A)
                 (A) (A) (A) (A) (A) (A) (A) (A) (A) (A) (A) (A)
                 (A) (A) (A) (A) (A) (A) (A) (A) (A) (A) (A) (A)
                 (A) (A) (A) (A) (A) (A) (A) (A) (A) (A) (A) (A)
                 (A) (A) (A) (A) (A) (A) (A) (A) (A) (A) (A) (A)
                 (A) (A) (A) (A) (A) (A) (A) (A) (A) (A) (A) (A)
                 (A) (A) (A) (A) (A) (A) (A) (A) (A) (A) (A) (A)
                 (A) (A) (A) (A) (A) (A) (A) (A) (A) (A) (A) (A)
                 (A) (A) (A) (A) (A) (A) (A) (A) (A) (A) (A) (A)
                 (A) (A) (A) (A) (A) (A) (A) (A) (A) (A) (A) (A)
                 (A) (A) (A) (A) (A) (A) (A) (A) (A) (A) (A) (A)
                 (A) (A) (A) (A) (A) (A) (A) (A) (A) (A) (A) (A)
                 (A) (A) (A) (A) (A) (A) (A) (A) (A) (A) (A) (A)
                 (A) (A) (A) (A) (A) (A) (A) (A) (A) (A) (A) (A)
                 (A) (A) (A) (A) (A) (A) (A) (A) (A) (A) (A) (A)
                 (A) (A) (A) (A) (A) (A) (A) (A) (A) (A) (A) (A)
                 (A) (A) (A) (A)
 The electronic state of the initial guess is 1-A.
 Requested convergence on RMS density matrix=1.00D-08 within 128 cycles.
 Requested convergence on MAX density matrix=1.00D-06.
 Requested convergence on             energy=1.00D-06.
 No special actions if energy rises.
 Error on total polarization charges =  0.01416
 SCF Done:  E(RmPW1PW91) =  -594.196389462     A.U. after   13 cycles
             Convg  =    0.3522D-08             -V/T =  2.0094
 Range of M.O.s used for correlation:     1   303
 NBasis=   303 NAE=    47 NBE=    47 NFC=     0 NFV=     0
 NROrb=    303 NOA=    47 NOB=    47 NVA=   256 NVB=   256

 **** Warning!!: The largest alpha MO coefficient is  0.62965286D+02

 NEqPCM:  Using equilibrium solvation (IEInf=0, Eps=  78.3553, EpsInf=   1.7778)
          Differentiating once with respect to magnetic field using GIAOs.
          Electric field/nuclear overlap derivatives assumed to be zero.
 FoFCou: FMM=F IPFlag=           0 FMFlag=    10101102 FMFlg1=           0
         NFxFlg=    40000000 DoJE=F BraDBF=F KetDBF=T FulRan=T
         Omega=  0.000000  0.000000  1.000000  0.000000  0.000000 ICntrl=    6100 IOpCl=  0
         NMat0=    1 NMatS0=    1 NMatT0=    0 NMatD0=    1 NMtDS0=    0 NMtDT0=    0
         I1Cent=           7 NGrid=        1818.
 Symmetry not used in FoFCou.
          There are     3 degrees of freedom in the 1st order CPHF.  IDoFFX=0.
      3 vectors produced by pass  0 Test12= 4.01D-13 3.33D-08 XBig12= 2.53D+01 7.27D-01.
 AX will form     3 AO Fock derivatives at one time.
      3 vectors produced by pass  1 Test12= 4.01D-13 3.33D-08 XBig12= 6.05D-02 2.81D-02.
      3 vectors produced by pass  2 Test12= 4.01D-13 3.33D-08 XBig12= 1.13D-04 2.11D-03.
      3 vectors produced by pass  3 Test12= 4.01D-13 3.33D-08 XBig12= 5.13D-07 1.41D-04.
      3 vectors produced by pass  4 Test12= 4.01D-13 3.33D-08 XBig12= 1.98D-09 6.91D-06.
      3 vectors produced by pass  5 Test12= 4.01D-13 3.33D-08 XBig12= 6.19D-12 4.85D-07.
 Inverted reduced A of dimension    18 with in-core refinement.
 Calculating GIAO nuclear magnetic shielding tensors.
 SCF GIAO Magnetic shielding tensor (ppm):
      1  C    Isotropic =   169.4482   Anisotropy =    25.4492
   XX=   180.1006   YX=     3.0046   ZX=     5.1960
   XY=     0.2732   YY=   164.1888   ZY=   -19.1227
   XZ=     4.8160   YZ=   -23.5214   ZZ=   164.0551
   Eigenvalues:   142.2141   179.7161   186.4143
      2  C    Isotropic =   129.6055   Anisotropy =    60.8798
   XX=   152.4029   YX=    23.1521   ZX=    -3.5513
   XY=    24.4421   YY=   133.3537   ZY=   -14.2789
   XZ=     1.6549   YZ=   -19.8277   ZZ=   103.0598
   Eigenvalues:    93.7627   124.8617   170.1920
      3  N    Isotropic =   191.5334   Anisotropy =    56.0106
   XX=   204.7742   YX=    11.6247   ZX=   -21.7669
   XY=     0.1511   YY=   198.0000   ZY=   -21.2254
   XZ=   -37.1673   YZ=   -14.1219   ZZ=   171.8262
   Eigenvalues:   151.1293   194.5972   228.8738
      4  C    Isotropic =   137.7130   Anisotropy =    59.3179
   XX=   131.2917   YX=   -14.7775   ZX=     5.7269
   XY=    -0.2754   YY=   163.8078   ZY=   -25.1066
   XZ=    21.4895   YZ=   -22.3725   ZZ=   118.0396
   Eigenvalues:   104.2608   131.6199   177.2583
      5  C    Isotropic =   169.2844   Anisotropy =    20.8654
   XX=   174.5089   YX=     6.8494   ZX=    10.7334
   XY=     9.2589   YY=   172.8698   ZY=   -11.0636
   XZ=    12.9972   YZ=   -19.5668   ZZ=   160.4745
   Eigenvalues:   143.5152   181.1434   183.1947
      6  C    Isotropic =   126.1600   Anisotropy =    39.7132
   XX=   128.7264   YX=    -2.8466   ZX=   -10.5203
   XY=   -15.6965   YY=   135.2262   ZY=    21.3210
   XZ=   -16.1526   YZ=     9.5016   ZZ=   114.5275
   Eigenvalues:   103.5592   122.2854   152.6355
      7  C    Isotropic =   118.0767   Anisotropy =    41.2598
   XX=   122.3426   YX=    -3.5008   ZX=   -13.2494
   XY=   -17.2478   YY=   134.6580   ZY=     7.3781
   XZ=   -15.5509   YZ=    11.2741   ZZ=    97.2296
   Eigenvalues:    90.2387   118.4082   145.5832
      8  C    Isotropic =   116.9834   Anisotropy =    41.6275
   XX=   127.4544   YX=    10.4622   ZX=   -12.9653
   XY=    25.4545   YY=   121.4989   ZY=    10.7280
   XZ=   -20.4483   YZ=     1.9420   ZZ=   101.9968
   Eigenvalues:    87.5689   118.6461   144.7350
      9  H    Isotropic =    30.0102   Anisotropy =    12.2953
   XX=    34.2680   YX=    -4.0940   ZX=    -4.5720
   XY=    -4.3510   YY=    27.2914   ZY=     0.2981
   XZ=    -4.7317   YZ=     0.1412   ZZ=    28.4711
   Eigenvalues:    24.1594    27.6640    38.2070
     10  H    Isotropic =    29.5112   Anisotropy =     7.7496
   XX=    30.6255   YX=     2.5275   ZX=     3.7154
   XY=     2.7432   YY=    31.5886   ZY=     0.3139
   XZ=     3.1228   YZ=     0.7257   ZZ=    26.3195
   Eigenvalues:    24.3283    29.5277    34.6777
     11  H    Isotropic =    27.9592   Anisotropy =     9.0782
   XX=    26.4445   YX=    -0.4781   ZX=    -2.3806
   XY=    -0.7287   YY=    23.9615   ZY=     0.1526
   XZ=    -1.6552   YZ=    -0.2252   ZZ=    33.4717
   Eigenvalues:    23.7939    26.0723    34.0114
     12  H    Isotropic =    28.7148   Anisotropy =    11.6169
   XX=    25.1312   YX=    -1.8358   ZX=     0.9360
   XY=    -1.0762   YY=    34.5017   ZY=     4.9029
   XZ=     2.5208   YZ=     3.8231   ZZ=    26.5116
   Eigenvalues:    22.6628    27.0223    36.4594
     13  H    Isotropic =    28.7883   Anisotropy =     8.8956
   XX=    30.0598   YX=     2.4310   ZX=    -0.1999
   XY=     3.1778   YY=    31.5156   ZY=    -4.0621
   XZ=    -0.8048   YZ=    -3.0687   ZZ=    24.7893
   Eigenvalues:    23.1820    28.4642    34.7186
     14  H    Isotropic =    29.9638   Anisotropy =    12.5196
   XX=    29.6361   YX=    -4.3389   ZX=     1.9600
   XY=    -4.8666   YY=    33.5799   ZY=    -4.0487
   XZ=     2.2635   YZ=    -3.7985   ZZ=    26.6755
   Eigenvalues:    24.9013    26.6800    38.3102
     15  H    Isotropic =    30.0640   Anisotropy =     9.0800
   XX=    27.2865   YX=     0.0161   ZX=    -0.5758
   XY=    -0.0152   YY=    26.8077   ZY=     0.6037
   XZ=    -0.1861   YZ=    -0.2563   ZZ=    36.0976
   Eigenvalues:    26.8044    27.2702    36.1173
     16  H    Isotropic =    28.8903   Anisotropy =     5.5445
   XX=    29.2107   YX=    -1.5194   ZX=    -2.6410
   XY=    -1.2275   YY=    26.6770   ZY=     0.2303
   XZ=    -2.1625   YZ=    -0.7603   ZZ=    30.7831
   Eigenvalues:    25.7117    28.3725    32.5866
     17  H    Isotropic =    27.4731   Anisotropy =     4.7775
   XX=    26.2444   YX=    -2.1713   ZX=     1.8748
   XY=    -2.6966   YY=    29.2167   ZY=     0.4810
   XZ=     1.1058   YZ=     2.2888   ZZ=    26.9583
   Eigenvalues:    23.6755    28.0857    30.6581
     18  H    Isotropic =    27.1051   Anisotropy =     3.0020
   XX=    27.7705   YX=     1.1971   ZX=     2.1853
   XY=     2.4160   YY=    26.6618   ZY=    -1.5538
   XZ=     1.1379   YZ=    -2.9089   ZZ=    26.8830
   Eigenvalues:    23.2159    28.9930    29.1064
     19  O    Isotropic =   300.6998   Anisotropy =    32.8243
   XX=   297.0513   YX=     5.5458   ZX=     0.2242
   XY=     7.5110   YY=   320.6423   ZY=     5.6575
   XZ=    22.2484   YZ=    -5.4020   ZZ=   284.4058
   Eigenvalues:   277.5927   301.9240   322.5827
     20  H    Isotropic =    29.3901   Anisotropy =    19.0588
   XX=    26.4341   YX=     0.0940   ZX=    -0.8326
   XY=    -0.3986   YY=    41.9079   ZY=     2.1943
   XZ=    -2.1924   YZ=     1.8390   ZZ=    19.8282
   Eigenvalues:    19.3317    26.7426    42.0960
     21  O    Isotropic =   305.2681   Anisotropy =    52.9085
   XX=   301.5747   YX=   -22.2966   ZX=   -16.4539
   XY=    -5.6795   YY=   285.9747   ZY=     0.3038
   XZ=   -23.6088   YZ=     5.1623   ZZ=   328.2550
   Eigenvalues:   276.2995   298.9644   340.5404
     22  H    Isotropic =    30.0249   Anisotropy =    19.8041
   XX=    26.3091   YX=    -3.4257   ZX=    -8.8065
   XY=    -3.8818   YY=    27.2298   ZY=     3.9746
   XZ=    -8.8379   YZ=     3.4950   ZZ=    36.5356
   Eigenvalues:    20.8936    25.9534    43.2276
     23  C    Isotropic =   130.7959   Anisotropy =    45.9301
   XX=   128.8649   YX=    10.2777   ZX=     6.4868
   XY=    24.6664   YY=   150.2002   ZY=     2.6617
   XZ=     9.9259   YZ=     6.9210   ZZ=   113.3226
   Eigenvalues:   109.5556   121.4162   161.4160
     24  H    Isotropic =    28.0764   Anisotropy =     5.7619
   XX=    30.5706   YX=    -0.0378   ZX=    -0.7310
   XY=    -1.2811   YY=    29.0990   ZY=     3.2515
   XZ=    -1.9426   YZ=     3.1994   ZZ=    24.5596
   Eigenvalues:    22.7829    29.5287    31.9177
     25  H    Isotropic =    28.1923   Anisotropy =     6.1714
   XX=    28.1968   YX=     2.5352   ZX=     2.7489
   XY=     1.6296   YY=    30.6583   ZY=    -4.0221
   XZ=     2.7727   YZ=    -2.1258   ZZ=    25.7218
   Eigenvalues:    22.2876    29.9828    32.3066
     26  O    Isotropic =   319.9760   Anisotropy =    31.2720
   XX=   326.5694   YX=   -14.6845   ZX=    -9.6244
   XY=    -2.4536   YY=   323.6712   ZY=     8.0779
   XZ=   -25.1895   YZ=    -7.2271   ZZ=   309.6874
   Eigenvalues:   298.0575   321.0464   340.8240
     27  H    Isotropic =    29.2484   Anisotropy =    15.2290
   XX=    34.0290   YX=    -2.6956   ZX=    -3.7925
   XY=    -4.4307   YY=    28.9837   ZY=     7.5341
   XZ=    -3.1052   YZ=     7.9216   ZZ=    24.7325
   Eigenvalues:    18.8184    29.5257    39.4011
 End of Minotr Frequency-dependent properties file   721 does not exist.
 End of Minotr Frequency-dependent properties file   722 does not exist.

 **********************************************************************

            Population analysis using the SCF density.

 **********************************************************************

 Orbital symmetries:
       Occupied  (A) (A) (A) (A) (A) (A) (A) (A) (A) (A) (A) (A)
                 (A) (A) (A) (A) (A) (A) (A) (A) (A) (A) (A) (A)
                 (A) (A) (A) (A) (A) (A) (A) (A) (A) (A) (A) (A)
                 (A) (A) (A) (A) (A) (A) (A) (A) (A) (A) (A)
       Virtual   (A) (A) (A) (A) (A) (A) (A) (A) (A) (A) (A) (A)
                 (A) (A) (A) (A) (A) (A) (A) (A) (A) (A) (A) (A)
                 (A) (A) (A) (A) (A) (A) (A) (A) (A) (A) (A) (A)
                 (A) (A) (A) (A) (A) (A) (A) (A) (A) (A) (A) (A)
                 (A) (A) (A) (A) (A) (A) (A) (A) (A) (A) (A) (A)
                 (A) (A) (A) (A) (A) (A) (A) (A) (A) (A) (A) (A)
                 (A) (A) (A) (A) (A) (A) (A) (A) (A) (A) (A) (A)
                 (A) (A) (A) (A) (A) (A) (A) (A) (A) (A) (A) (A)
                 (A) (A) (A) (A) (A) (A) (A) (A) (A) (A) (A) (A)
                 (A) (A) (A) (A) (A) (A) (A) (A) (A) (A) (A) (A)
                 (A) (A) (A) (A) (A) (A) (A) (A) (A) (A) (A) (A)
                 (A) (A) (A) (A) (A) (A) (A) (A) (A) (A) (A) (A)
                 (A) (A) (A) (A) (A) (A) (A) (A) (A) (A) (A) (A)
                 (A) (A) (A) (A) (A) (A) (A) (A) (A) (A) (A) (A)
                 (A) (A) (A) (A) (A) (A) (A) (A) (A) (A) (A) (A)
                 (A) (A) (A) (A) (A) (A) (A) (A) (A) (A) (A) (A)
                 (A) (A) (A) (A) (A) (A) (A) (A) (A) (A) (A) (A)
                 (A) (A) (A) (A) (A) (A) (A) (A) (A) (A) (A) (A)
                 (A) (A) (A) (A) (A) (A) (A) (A) (A) (A) (A) (A)
                 (A) (A) (A) (A) (A) (A) (A) (A) (A) (A) (A) (A)
                 (A) (A) (A) (A) (A) (A) (A) (A) (A) (A) (A) (A)
                 (A) (A) (A) (A)
 The electronic state is 1-A.
 Alpha  occ. eigenvalues --  -19.26402 -19.26028 -19.25028 -14.42109 -10.30710
 Alpha  occ. eigenvalues --  -10.30607 -10.29134 -10.28206 -10.28104 -10.27057
 Alpha  occ. eigenvalues --  -10.24442 -10.24384  -1.07564  -1.05756  -1.05304
 Alpha  occ. eigenvalues --   -0.96951  -0.82261  -0.79384  -0.75487  -0.71593
 Alpha  occ. eigenvalues --   -0.66965  -0.61938  -0.60330  -0.58139  -0.56150
 Alpha  occ. eigenvalues --   -0.52570  -0.51842  -0.49786  -0.49070  -0.47862
 Alpha  occ. eigenvalues --   -0.46955  -0.44992  -0.43735  -0.41301  -0.40846
 Alpha  occ. eigenvalues --   -0.40041  -0.38384  -0.37955  -0.36255  -0.35655
 Alpha  occ. eigenvalues --   -0.34728  -0.34113  -0.33333  -0.31256  -0.29462
 Alpha  occ. eigenvalues --   -0.29105  -0.24232
 Alpha virt. eigenvalues --    0.00595   0.00891   0.01574   0.02256   0.04098
 Alpha virt. eigenvalues --    0.04213   0.04352   0.04658   0.05350   0.07096
 Alpha virt. eigenvalues --    0.07631   0.08074   0.08896   0.09335   0.09647
 Alpha virt. eigenvalues --    0.10089   0.11234   0.11703   0.12330   0.12849
 Alpha virt. eigenvalues --    0.13128   0.13816   0.14109   0.14792   0.15102
 Alpha virt. eigenvalues --    0.15487   0.16813   0.16962   0.17382   0.17847
 Alpha virt. eigenvalues --    0.18237   0.19053   0.19250   0.20720   0.21101
 Alpha virt. eigenvalues --    0.21600   0.21912   0.22384   0.22879   0.23252
 Alpha virt. eigenvalues --    0.23512   0.23640   0.24464   0.25312   0.26068
 Alpha virt. eigenvalues --    0.26561   0.27043   0.27271   0.28565   0.28827
 Alpha virt. eigenvalues --    0.29181   0.30531   0.31229   0.32190   0.32357
 Alpha virt. eigenvalues --    0.32603   0.33254   0.34134   0.34751   0.35452
 Alpha virt. eigenvalues --    0.35948   0.36472   0.37288   0.37515   0.38441
 Alpha virt. eigenvalues --    0.38686   0.39638   0.40568   0.41241   0.41851
 Alpha virt. eigenvalues --    0.42635   0.43317   0.44856   0.45495   0.47433
 Alpha virt. eigenvalues --    0.47719   0.63320   0.65857   0.67068   0.68698
 Alpha virt. eigenvalues --    0.69555   0.71434   0.71890   0.73934   0.75355
 Alpha virt. eigenvalues --    0.76197   0.77690   0.78104   0.79121   0.80632
 Alpha virt. eigenvalues --    0.81420   0.84359   0.85354   0.86596   0.87849
 Alpha virt. eigenvalues --    0.90473   0.91261   0.93144   0.95458   0.97312
 Alpha virt. eigenvalues --    0.99746   1.00181   1.02226   1.04060   1.06172
 Alpha virt. eigenvalues --    1.06536   1.07324   1.07903   1.08992   1.09635
 Alpha virt. eigenvalues --    1.11608   1.13188   1.13812   1.15538   1.16271
 Alpha virt. eigenvalues --    1.17716   1.19293   1.20594   1.25041   1.26074
 Alpha virt. eigenvalues --    1.26620   1.27920   1.30275   1.32018   1.32710
 Alpha virt. eigenvalues --    1.35093   1.36305   1.39087   1.40971   1.41001
 Alpha virt. eigenvalues --    1.42605   1.46080   1.48508   1.49589   1.50847
 Alpha virt. eigenvalues --    1.53013   1.55709   1.57532   1.59844   1.60981
 Alpha virt. eigenvalues --    1.62011   1.63477   1.66102   1.69475   1.71958
 Alpha virt. eigenvalues --    1.73415   1.74750   1.75983   1.78099   1.79746
 Alpha virt. eigenvalues --    1.80396   1.82654   1.82916   1.83336   1.87146
 Alpha virt. eigenvalues --    1.88789   1.89756   1.90742   1.91893   1.92387
 Alpha virt. eigenvalues --    1.94568   1.99043   1.99392   2.02635   2.03019
 Alpha virt. eigenvalues --    2.04268   2.04961   2.08071   2.08946   2.10834
 Alpha virt. eigenvalues --    2.13968   2.16532   2.17050   2.18783   2.20796
 Alpha virt. eigenvalues --    2.23382   2.24978   2.27168   2.27864   2.31096
 Alpha virt. eigenvalues --    2.32504   2.33197   2.36001   2.37674   2.38782
 Alpha virt. eigenvalues --    2.39046   2.39987   2.44952   2.46040   2.48164
 Alpha virt. eigenvalues --    2.48195   2.50413   2.51903   2.53965   2.55628
 Alpha virt. eigenvalues --    2.56506   2.57242   2.59126   2.60518   2.62829
 Alpha virt. eigenvalues --    2.64289   2.65978   2.66252   2.67263   2.68161
 Alpha virt. eigenvalues --    2.69052   2.72240   2.75381   2.75893   2.78489
 Alpha virt. eigenvalues --    2.79223   2.81423   2.82485   2.82875   2.84471
 Alpha virt. eigenvalues --    2.86428   2.89694   2.91617   2.92963   2.96111
 Alpha virt. eigenvalues --    2.96811   2.98259   3.00376   3.04533   3.06282
 Alpha virt. eigenvalues --    3.07272   3.08408   3.15043   3.17829   3.32280
 Alpha virt. eigenvalues --    3.35383   3.36498   3.38261   3.41334   3.44913
 Alpha virt. eigenvalues --    3.47147   3.50707   3.53864   3.54389   3.55242
 Alpha virt. eigenvalues --    3.55909   3.58334   3.60306   3.63428   4.31930
 Alpha virt. eigenvalues --    4.37204   4.42189   4.42818   4.51637   4.55539
 Alpha virt. eigenvalues --    4.60742   4.67509   4.72082   4.86247   4.90047
 Alpha virt. eigenvalues --    4.92593
          Condensed to atoms (all electrons):
              1          2          3          4          5          6
     1  C    5.754530  -0.395835   0.151207   0.004645   0.046019   0.000273
     2  C   -0.395835   7.823503  -0.311090  -0.361031   0.288719  -0.208996
     3  N    0.151207  -0.311090   7.493176   0.175413  -0.287677  -0.144265
     4  C    0.004645  -0.361031   0.175413   5.696320   0.095944  -0.031219
     5  C    0.046019   0.288719  -0.287677   0.095944   5.531070   0.005963
     6  C    0.000273  -0.208996  -0.144265  -0.031219   0.005963   8.112331
     7  C   -0.072679  -0.087476  -0.066569  -0.090415   0.076401  -0.785671
     8  C   -0.030563  -0.401831   0.025282  -0.037403  -0.017480  -0.074795
     9  H    0.417031  -0.089548   0.012677   0.013003  -0.045467   0.009384
    10  H    0.470649  -0.136579   0.021464   0.025014  -0.054507   0.003888
    11  H   -0.003723   0.266118  -0.036986  -0.015223   0.002675   0.004124
    12  H    0.018627  -0.029884  -0.035545   0.414767  -0.071398  -0.000378
    13  H    0.011573   0.024818  -0.050382   0.385298  -0.026431  -0.000559
    14  H   -0.012789   0.003014   0.016832  -0.033737   0.363443  -0.001960
    15  H   -0.047244  -0.011651   0.008454  -0.057166   0.408524   0.018072
    16  H   -0.007578   0.030567  -0.065065   0.034100  -0.006426   0.319847
    17  H    0.014628   0.001465   0.024721   0.006991  -0.012566  -0.065129
    18  H    0.002014  -0.054480   0.021475   0.004053  -0.001999   0.007411
    19  O    0.005172  -0.203643   0.008954   0.000820   0.009256   0.034713
    20  H   -0.007888   0.061754  -0.002358   0.000023  -0.001193   0.010300
    21  O    0.007996   0.013729   0.035545   0.002642  -0.004707  -0.181605
    22  H    0.000157  -0.003771   0.000514  -0.001370   0.000944  -0.039754
    23  C    0.065594  -0.191192   0.122923  -0.000869  -0.051349  -0.450633
    24  H    0.000634   0.005966   0.010328  -0.004505   0.001391  -0.101372
    25  H   -0.001891   0.006428   0.008959   0.002646  -0.000229  -0.144925
    26  O   -0.000957  -0.009784  -0.006461  -0.019886   0.000563  -0.058002
    27  H   -0.005738   0.032315   0.045204  -0.015506   0.010057  -0.066701
              7          8          9         10         11         12
     1  C   -0.072679  -0.030563   0.417031   0.470649  -0.003723   0.018627
     2  C   -0.087476  -0.401831  -0.089548  -0.136579   0.266118  -0.029884
     3  N   -0.066569   0.025282   0.012677   0.021464  -0.036986  -0.035545
     4  C   -0.090415  -0.037403   0.013003   0.025014  -0.015223   0.414767
     5  C    0.076401  -0.017480  -0.045467  -0.054507   0.002675  -0.071398
     6  C   -0.785671  -0.074795   0.009384   0.003888   0.004124  -0.000378
     7  C    6.623927   0.053680  -0.011337  -0.002180   0.016384   0.002922
     8  C    0.053680   5.982153   0.029395   0.004970   0.050130   0.010040
     9  H   -0.011337   0.029395   0.521786  -0.023755  -0.007511   0.001166
    10  H   -0.002180   0.004970  -0.023755   0.503058   0.003519  -0.000028
    11  H    0.016384   0.050130  -0.007511   0.003519   0.542898   0.001589
    12  H    0.002922   0.010040   0.001166  -0.000028   0.001589   0.534019
    13  H    0.000648  -0.003004  -0.000119  -0.000131  -0.000130  -0.024332
    14  H    0.002397   0.002511  -0.005771   0.001674   0.000015  -0.002940
    15  H   -0.009937   0.015265   0.003882  -0.007049  -0.000159   0.004043
    16  H    0.022693  -0.010476   0.000003  -0.000037  -0.000253   0.000047
    17  H    0.440291  -0.090832   0.000062   0.000568  -0.000079   0.000006
    18  H   -0.026910   0.353859  -0.000079   0.000095  -0.007382   0.000007
    19  O   -0.112483   0.336880  -0.000276   0.001753   0.000908  -0.000075
    20  H   -0.070892   0.016272   0.000006  -0.000168  -0.000240   0.000000
    21  O    0.286883  -0.084416   0.000019  -0.000232  -0.000296   0.000070
    22  H    0.037704   0.018815   0.000000   0.000005   0.000004   0.000000
    23  C   -0.253331   0.048195   0.000808  -0.000822   0.006269   0.006202
    24  H   -0.018013  -0.004224   0.000000   0.000000   0.000001   0.000000
    25  H    0.085215  -0.002084   0.000000   0.000000  -0.000086   0.000013
    26  O    0.042838   0.009739   0.000007   0.000008   0.000380   0.000641
    27  H   -0.002003  -0.011409  -0.000001  -0.000001  -0.000147  -0.000335
             13         14         15         16         17         18
     1  C    0.011573  -0.012789  -0.047244  -0.007578   0.014628   0.002014
     2  C    0.024818   0.003014  -0.011651   0.030567   0.001465  -0.054480
     3  N   -0.050382   0.016832   0.008454  -0.065065   0.024721   0.021475
     4  C    0.385298  -0.033737  -0.057166   0.034100   0.006991   0.004053
     5  C   -0.026431   0.363443   0.408524  -0.006426  -0.012566  -0.001999
     6  C   -0.000559  -0.001960   0.018072   0.319847  -0.065129   0.007411
     7  C    0.000648   0.002397  -0.009937   0.022693   0.440291  -0.026910
     8  C   -0.003004   0.002511   0.015265  -0.010476  -0.090832   0.353859
     9  H   -0.000119  -0.005771   0.003882   0.000003   0.000062  -0.000079
    10  H   -0.000131   0.001674  -0.007049  -0.000037   0.000568   0.000095
    11  H   -0.000130   0.000015  -0.000159  -0.000253  -0.000079  -0.007382
    12  H   -0.024332  -0.002940   0.004043   0.000047   0.000006   0.000007
    13  H    0.521684   0.001201  -0.005335   0.000904   0.000026   0.000005
    14  H    0.001201   0.516417  -0.023870  -0.000150   0.000043   0.000003
    15  H   -0.005335  -0.023870   0.524419   0.000774  -0.000080   0.000001
    16  H    0.000904  -0.000150   0.000774   0.539925  -0.008548  -0.000179
    17  H    0.000026   0.000043  -0.000080  -0.008548   0.545304   0.004539
    18  H    0.000005   0.000003   0.000001  -0.000179   0.004539   0.559580
    19  O    0.000035   0.000068  -0.000268  -0.000376  -0.002177  -0.039806
    20  H    0.000000   0.000000  -0.000002  -0.000002  -0.000765  -0.005453
    21  O   -0.000025   0.000005   0.000159  -0.000609  -0.046976  -0.001288
    22  H   -0.000001   0.000000  -0.000001   0.000889  -0.005631   0.000129
    23  C   -0.010536  -0.000177   0.006389  -0.031867   0.011233   0.009404
    24  H   -0.000030   0.000000  -0.000002  -0.004529  -0.000133   0.000082
    25  H   -0.000016   0.000000   0.000001   0.004577  -0.000245  -0.000919
    26  O    0.001705   0.000023  -0.000114   0.000037  -0.000569  -0.000335
    27  H   -0.000140  -0.000005   0.000002   0.000309  -0.000011   0.000036
             19         20         21         22         23         24
     1  C    0.005172  -0.007888   0.007996   0.000157   0.065594   0.000634
     2  C   -0.203643   0.061754   0.013729  -0.003771  -0.191192   0.005966
     3  N    0.008954  -0.002358   0.035545   0.000514   0.122923   0.010328
     4  C    0.000820   0.000023   0.002642  -0.001370  -0.000869  -0.004505
     5  C    0.009256  -0.001193  -0.004707   0.000944  -0.051349   0.001391
     6  C    0.034713   0.010300  -0.181605  -0.039754  -0.450633  -0.101372
     7  C   -0.112483  -0.070892   0.286883   0.037704  -0.253331  -0.018013
     8  C    0.336880   0.016272  -0.084416   0.018815   0.048195  -0.004224
     9  H   -0.000276   0.000006   0.000019   0.000000   0.000808   0.000000
    10  H    0.001753  -0.000168  -0.000232   0.000005  -0.000822   0.000000
    11  H    0.000908  -0.000240  -0.000296   0.000004   0.006269   0.000001
    12  H   -0.000075   0.000000   0.000070   0.000000   0.006202   0.000000
    13  H    0.000035   0.000000  -0.000025  -0.000001  -0.010536  -0.000030
    14  H    0.000068   0.000000   0.000005   0.000000  -0.000177   0.000000
    15  H   -0.000268  -0.000002   0.000159  -0.000001   0.006389  -0.000002
    16  H   -0.000376  -0.000002  -0.000609   0.000889  -0.031867  -0.004529
    17  H   -0.002177  -0.000765  -0.046976  -0.005631   0.011233  -0.000133
    18  H   -0.039806  -0.005453  -0.001288   0.000129   0.009404   0.000082
    19  O    8.263597   0.231578  -0.008776   0.000600   0.008423   0.000107
    20  H    0.231578   0.374857   0.010716  -0.000430  -0.000441  -0.000001
    21  O   -0.008776   0.010716   8.258966   0.246229   0.027985   0.004403
    22  H    0.000600  -0.000430   0.246229   0.360782  -0.010899   0.000141
    23  C    0.008423  -0.000441   0.027985  -0.010899   5.730685   0.493882
    24  H    0.000107  -0.000001   0.004403   0.000141   0.493882   0.543471
    25  H   -0.000454   0.000005  -0.008213   0.000329   0.404649  -0.037403
    26  O    0.000024  -0.000003  -0.001972  -0.000206   0.145390  -0.061148
    27  H    0.000025   0.000000   0.000104  -0.000003   0.028332   0.006646
             25         26         27
     1  C   -0.001891  -0.000957  -0.005738
     2  C    0.006428  -0.009784   0.032315
     3  N    0.008959  -0.006461   0.045204
     4  C    0.002646  -0.019886  -0.015506
     5  C   -0.000229   0.000563   0.010057
     6  C   -0.144925  -0.058002  -0.066701
     7  C    0.085215   0.042838  -0.002003
     8  C   -0.002084   0.009739  -0.011409
     9  H    0.000000   0.000007  -0.000001
    10  H    0.000000   0.000008  -0.000001
    11  H   -0.000086   0.000380  -0.000147
    12  H    0.000013   0.000641  -0.000335
    13  H   -0.000016   0.001705  -0.000140
    14  H    0.000000   0.000023  -0.000005
    15  H    0.000001  -0.000114   0.000002
    16  H    0.004577   0.000037   0.000309
    17  H   -0.000245  -0.000569  -0.000011
    18  H   -0.000919  -0.000335   0.000036
    19  O   -0.000454   0.000024   0.000025
    20  H    0.000005  -0.000003   0.000000
    21  O   -0.008213  -0.001972   0.000104
    22  H    0.000329  -0.000206  -0.000003
    23  C    0.404649   0.145390   0.028332
    24  H   -0.037403  -0.061148   0.006646
    25  H    0.579240  -0.048979  -0.004036
    26  O   -0.048979   8.303284   0.235602
    27  H   -0.004036   0.235602   0.367870
 Mulliken atomic charges:
              1
     1  C   -0.383862
     2  C   -0.061604
     3  N   -0.176732
     4  C   -0.193347
     5  C   -0.259538
     6  C   -0.170342
     7  C   -0.082087
     8  C   -0.188669
     9  H    0.174634
    10  H    0.188824
    11  H    0.177202
    12  H    0.170756
    13  H    0.173274
    14  H    0.173750
    15  H    0.172894
    16  H    0.181424
    17  H    0.183864
    18  H    0.176137
    19  O   -0.534578
    20  H    0.384324
    21  O   -0.556335
    22  H    0.394823
    23  C   -0.114250
    24  H    0.164308
    25  H    0.157420
    26  O   -0.531825
    27  H    0.379535
 Sum of Mulliken atomic charges =   0.00000
 Mulliken charges with hydrogens summed into heavy atoms:
              1
     1  C   -0.020404
     2  C    0.115598
     3  N   -0.176732
     4  C    0.150682
     5  C    0.087106
     6  C    0.011082
     7  C    0.101777
     8  C   -0.012531
    19  O   -0.150254
    21  O   -0.161512
    23  C    0.207478
    26  O   -0.152290
 Sum of Mulliken charges with hydrogens summed into heavy atoms =   0.00000
 Electronic spatial extent (au):  <R**2>=           2015.9413
 Charge=              0.0000 electrons
 Dipole moment (field-independent basis, Debye):
    X=              1.6663    Y=             -0.0437    Z=              2.5762  Tot=              3.0684
 Quadrupole moment (field-independent basis, Debye-Ang):
   XX=            -89.3242   YY=            -69.3626   ZZ=            -68.0258
   XY=             -7.5783   XZ=             -3.1076   YZ=              3.3828
 Traceless Quadrupole moment (field-independent basis, Debye-Ang):
   XX=            -13.7533   YY=              6.2083   ZZ=              7.5450
   XY=             -7.5783   XZ=             -3.1076   YZ=              3.3828
 Octapole moment (field-independent basis, Debye-Ang**2):
  XXX=             28.1685  YYY=              9.3554  ZZZ=              8.3769  XYY=              6.6915
  XXY=             13.5745  XXZ=             12.7348  XZZ=             -8.6860  YZZ=             12.1496
  YYZ=              4.2235  XYZ=             -3.1652
 Hexadecapole moment (field-independent basis, Debye-Ang**3):
 XXXX=          -1464.9617 YYYY=           -986.0700 ZZZZ=           -267.3085 XXXY=            -89.8030
 XXXZ=            -26.8147 YYYX=             47.5844 YYYZ=             20.3722 ZZZX=            -14.0174
 ZZZY=             27.9744 XXYY=           -381.2006 XXZZ=           -248.0305 YYZZ=           -200.7040
 XXYZ=             24.7873 YYXZ=             -8.7222 ZZXY=            -11.9009
 N-N= 8.083992340505D+02 E-N=-3.002445829846D+03  KE= 5.886587524568D+02
 1\1\GINC-COMPUTE-3-2\SP\RmPW1PW91\6-31+G(d,p)\C8H15N1O3\MAMICHETTI.IQU
 IR\17-May-2024\0\\# mpw1pw91/6-31+G** nmr scrf=(pcm,solvent=water)\\co
 mment\\0,1\C,0,2.200559,-0.88974,0.034643\C,0,1.07899,-0.267403,-0.855
 409\N,0,-0.20118,-0.954423,-0.496137\C,0,0.208645,-2.234795,0.116334\C
 ,0,1.478788,-1.926673,0.92131\C,0,-0.972324,-0.062753,0.427947\C,0,-0.
 101917,1.198115,0.626481\C,0,0.779698,1.216171,-0.619961\H,0,2.946718,
 -1.376434,-0.601871\H,0,2.722133,-0.131743,0.624487\H,0,1.308087,-0.44
 6573,-1.910508\H,0,0.437656,-2.949431,-0.684971\H,0,-0.611488,-2.65183
 4,0.706497\H,0,2.085585,-2.816816,1.116427\H,0,1.209446,-1.487877,1.88
 9898\H,0,-1.135843,-0.573798,1.383694\H,0,0.540512,1.069062,1.507505\H
 ,0,0.180578,1.603021,-1.45737\O,0,1.973389,1.9822,-0.491247\H,0,1.6976
 15,2.900028,-0.328001\O,0,-0.813405,2.432289,0.72773\H,0,-1.252169,2.4
 46743,1.594536\C,0,-2.349584,0.232021,-0.174219\H,0,-2.968541,0.78992,
 0.534475\H,0,-2.252773,0.836871,-1.08734\O,0,-3.039977,-0.988897,-0.45
 2135\H,0,-2.396447,-1.524571,-0.952039\\Version=AM64L-G09RevC.01\State
 =1-A\HF=-594.1963895\RMSD=3.522e-09\Dipole=0.6555776,-0.0172061,1.0135
 489\Quadrupole=-10.2252557,4.6157076,5.609548,-5.6342596,-2.310457,2.5
 150677\PG=C01 [X(C8H15N1O3)]\\@


 A COMPLEXITY IS MERELY A DISARRANGEMENT OF SIMPLICITIES.

                                    -- G. O. ABELL IN "EXPLORATION OF THE UNIVERSE"
 Job cpu time:  0 days  0 hours  8 minutes 43.3 seconds.
 File lengths (MBytes):  RWF=    112 Int=      0 D2E=      0 Chk=      7 Scr=      1
 Normal termination of Gaussian 09 at Fri May 17 12:15:04 2024.
