 Entering Gaussian System, Link 0=g09
 Input=/home/mamichetti.iquir/Linux/03_Cardona_A1A3_R__S_S_R_027_OptB.gjc
 Output=/home/mamichetti.iquir/Linux/03_Cardona_A1A3_R__S_S_R_027_OptB.log
 Initial command:
 /opt/ohpc/pub/apps/software/Gaussian/09/AMD64.SSE4a-enabled/g09/l1.exe /local/mamichetti.iquir/Gau-124422.inp -scrdir=/local/mamichetti.iquir/
 Entering Link 1 = /opt/ohpc/pub/apps/software/Gaussian/09/AMD64.SSE4a-enabled/g09/l1.exe PID=    124423.
  
 Copyright (c) 1988,1990,1992,1993,1995,1998,2003,2009,2011,
            Gaussian, Inc.  All Rights Reserved.
  
 This is part of the Gaussian(R) 09 program.  It is based on
 the Gaussian(R) 03 system (copyright 2003, Gaussian, Inc.),
 the Gaussian(R) 98 system (copyright 1998, Gaussian, Inc.),
 the Gaussian(R) 94 system (copyright 1995, Gaussian, Inc.),
 the Gaussian 92(TM) system (copyright 1992, Gaussian, Inc.),
 the Gaussian 90(TM) system (copyright 1990, Gaussian, Inc.),
 the Gaussian 88(TM) system (copyright 1988, Gaussian, Inc.),
 the Gaussian 86(TM) system (copyright 1986, Carnegie Mellon
 University), and the Gaussian 82(TM) system (copyright 1983,
 Carnegie Mellon University). Gaussian is a federally registered
 trademark of Gaussian, Inc.
  
 This software contains proprietary and confidential information,
 including trade secrets, belonging to Gaussian, Inc.
  
 This software is provided under written license and may be
 used, copied, transmitted, or stored only in accord with that
 written license.
  
 The following legend is applicable only to US Government
 contracts under FAR:
  
                    RESTRICTED RIGHTS LEGEND
  
 Use, reproduction and disclosure by the US Government is
 subject to restrictions as set forth in subparagraphs (a)
 and (c) of the Commercial Computer Software - Restricted
 Rights clause in FAR 52.227-19.
  
 Gaussian, Inc.
 340 Quinnipiac St., Bldg. 40, Wallingford CT 06492
  
  
 ---------------------------------------------------------------
 Warning -- This program may not be used in any manner that
 competes with the business of Gaussian, Inc. or will provide
 assistance to any competitor of Gaussian, Inc.  The licensee
 of this program is prohibited from giving any competitor of
 Gaussian, Inc. access to this program.  By using this program,
 the user acknowledges that Gaussian, Inc. is engaged in the
 business of creating and licensing software in the field of
 computational chemistry and represents and warrants to the
 licensee that it is not a competitor of Gaussian, Inc. and that
 it will not use this program in any manner prohibited above.
 ---------------------------------------------------------------
  

 Cite this work as:
 Gaussian 09, Revision C.01,
 M. J. Frisch, G. W. Trucks, H. B. Schlegel, G. E. Scuseria, 
 M. A. Robb, J. R. Cheeseman, G. Scalmani, V. Barone, B. Mennucci, 
 G. A. Petersson, H. Nakatsuji, M. Caricato, X. Li, H. P. Hratchian, 
 A. F. Izmaylov, J. Bloino, G. Zheng, J. L. Sonnenberg, M. Hada, 
 M. Ehara, K. Toyota, R. Fukuda, J. Hasegawa, M. Ishida, T. Nakajima, 
 Y. Honda, O. Kitao, H. Nakai, T. Vreven, J. A. Montgomery, Jr., 
 J. E. Peralta, F. Ogliaro, M. Bearpark, J. J. Heyd, E. Brothers, 
 K. N. Kudin, V. N. Staroverov, T. Keith, R. Kobayashi, J. Normand, 
 K. Raghavachari, A. Rendell, J. C. Burant, S. S. Iyengar, J. Tomasi, 
 M. Cossi, N. Rega, J. M. Millam, M. Klene, J. E. Knox, J. B. Cross, 
 V. Bakken, C. Adamo, J. Jaramillo, R. Gomperts, R. E. Stratmann, 
 O. Yazyev, A. J. Austin, R. Cammi, C. Pomelli, J. W. Ochterski, 
 R. L. Martin, K. Morokuma, V. G. Zakrzewski, G. A. Voth, 
 P. Salvador, J. J. Dannenberg, S. Dapprich, A. D. Daniels, 
 O. Farkas, J. B. Foresman, J. V. Ortiz, J. Cioslowski, 
 and D. J. Fox, Gaussian, Inc., Wallingford CT, 2010.
 
 ******************************************
 Gaussian 09:  AM64L-G09RevC.01 23-Sep-2011
                17-May-2024 
 ******************************************
 %nprocshared=4
 Will use up to    4 processors via shared memory.
 ------------------------------------------------
 # mpw1pw91/6-31+G** nmr scrf=(pcm,solvent=water)
 ------------------------------------------------
 1/38=1/1;
 2/12=2,17=6,18=5,40=1/2;
 3/5=1,6=6,7=111,11=2,16=1,25=1,30=1,70=2201,72=1,74=-7/1,2,8,3;
 4//1;
 5/5=2,38=5,53=1/2;
 8/6=1,10=90,11=11/1;
 10/13=100,45=16/2;
 6/7=2,8=2,9=2,10=2,28=1/1;
 99/9=1/99;
 -------
 comment
 -------
 Charge =  0 Multiplicity = 1
 Symbolic Z-Matrix:
 6                    -2.47588   0.32117  -0.43559 
 6                    -1.11598  -0.34768  -0.70719 
 7                    -0.07172   0.67731  -0.37234 
 6                    -0.74274   1.79439   0.3119 
 6                    -2.1334    1.81871  -0.32171 
 6                     1.01975   0.0194    0.37417 
 6                     0.79609  -1.49566   0.16887 
 6                    -0.73782  -1.60248   0.10791 
 1                    -3.20702   0.10588  -1.2199 
 1                    -2.89479  -0.0271    0.51464 
 1                    -1.03152  -0.61311  -1.7707 
 1                    -0.19311   2.73147   0.17289 
 1                    -0.82035   1.61694   1.39938 
 1                    -2.08482   2.27802  -1.3162 
 1                    -2.85861   2.37994   0.27584 
 1                     0.91412   0.22079   1.45289 
 1                     1.19966  -2.07706   1.0009 
 1                    -1.05531  -2.53196  -0.37986 
 8                    -1.19685  -1.56199   1.46315 
 1                    -2.16069  -1.68085   1.44805 
 8                     1.42095  -2.03127  -1.00127 
 1                     1.12026  -1.5257   -1.77503 
 6                     2.4082    0.48418  -0.03844 
 1                     3.16612  -0.15399   0.44013 
 1                     2.52636   0.39641  -1.1257 
 8                     2.56935   1.84781   0.37554 
 1                     3.42478   2.15064   0.03012 
 
                          Input orientation:                          
 ---------------------------------------------------------------------
 Center     Atomic      Atomic             Coordinates (Angstroms)
 Number     Number       Type             X           Y           Z
 ---------------------------------------------------------------------
      1          6           0       -2.475880    0.321169   -0.435585
      2          6           0       -1.115982   -0.347679   -0.707186
      3          7           0       -0.071715    0.677311   -0.372343
      4          6           0       -0.742739    1.794387    0.311896
      5          6           0       -2.133404    1.818710   -0.321707
      6          6           0        1.019755    0.019402    0.374169
      7          6           0        0.796087   -1.495661    0.168869
      8          6           0       -0.737818   -1.602478    0.107908
      9          1           0       -3.207016    0.105877   -1.219900
     10          1           0       -2.894786   -0.027097    0.514641
     11          1           0       -1.031523   -0.613113   -1.770700
     12          1           0       -0.193112    2.731467    0.172886
     13          1           0       -0.820354    1.616941    1.399384
     14          1           0       -2.084817    2.278025   -1.316204
     15          1           0       -2.858606    2.379937    0.275840
     16          1           0        0.914119    0.220786    1.452888
     17          1           0        1.199664   -2.077055    1.000904
     18          1           0       -1.055310   -2.531958   -0.379862
     19          8           0       -1.196850   -1.561991    1.463149
     20          1           0       -2.160687   -1.680852    1.448046
     21          8           0        1.420950   -2.031272   -1.001270
     22          1           0        1.120257   -1.525701   -1.775028
     23          6           0        2.408197    0.484179   -0.038436
     24          1           0        3.166119   -0.153991    0.440134
     25          1           0        2.526364    0.396405   -1.125702
     26          8           0        2.569351    1.847805    0.375543
     27          1           0        3.424781    2.150636    0.030118
 ---------------------------------------------------------------------
                    Distance matrix (angstroms):
                    1          2          3          4          5
     1  C    0.000000
     2  C    1.539626   0.000000
     3  N    2.431223   1.501072   0.000000
     4  C    2.394343   2.401309   1.471841   0.000000
     5  C    1.540418   2.424249   2.357099   1.528396   0.000000
     6  C    3.600865   2.421869   1.476967   2.502166   3.696507
     7  C    3.791043   2.396110   2.401624   3.634950   4.450577
     8  C    2.648898   1.543343   2.423174   3.402988   3.719779
     9  H    1.093646   2.200230   3.297727   3.357101   2.212056
    10  H    1.095309   2.181691   3.041819   2.826697   2.164760
    11  H    2.177517   1.099386   2.131156   3.196351   3.037678
    12  H    3.375026   3.332770   2.128748   1.095232   2.200564
    13  H    2.790502   2.895646   2.140650   1.104600   2.174159
    14  H    2.181217   2.864239   2.739660   2.164668   1.096520
    15  H    2.211590   3.382746   3.329540   2.195692   1.094512
    16  H    3.881817   3.018341   2.124088   2.554068   3.871685
    17  H    4.617857   3.357161   3.329977   4.385855   5.294868
    18  H    3.187704   2.209501   3.356624   4.392436   4.482631
    19  O    2.964355   2.488262   3.106354   3.577272   3.935986
    20  H    2.766858   2.741128   3.638482   3.921568   3.921697
    21  O    4.586858   3.058921   3.155950   4.587115   5.283711
    22  H    4.258784   2.743864   2.870816   4.341542   4.887079
    23  C    4.902908   3.682262   2.509733   3.430419   4.742083
    24  H    5.729294   4.437369   3.440167   4.369416   5.705865
    25  H    5.050185   3.741056   2.719646   3.835111   4.937894
    26  O    5.333189   4.424266   2.984061   3.313132   4.754252
    27  H    6.195291   5.234857   3.815514   4.192199   5.579191
                    6          7          8          9         10
     6  C    0.000000
     7  C    1.545183   0.000000
     8  C    2.406336   1.538828   0.000000
     9  H    4.518200   4.529728   3.283061   0.000000
    10  H    3.917337   3.987328   2.701808   1.767428   0.000000
    11  H    3.034515   2.807308   2.143426   2.356501   3.006318
    12  H    2.977727   4.341330   4.368524   4.232871   3.876276
    13  H    2.643709   3.716899   3.469781   3.852287   2.790860
    14  H    4.194890   4.974511   4.347506   2.446800   3.053135
    15  H    4.541308   5.328084   4.515038   2.744080   2.419121
    16  H    1.102429   2.146818   2.803954   4.913324   3.930587
    17  H    2.195517   1.092326   2.185521   5.395924   4.604704
    18  H    3.374003   2.191504   1.096656   3.506234   3.233904
    19  O    2.932579   2.377259   1.431443   3.744503   2.477610
    20  H    3.762883   3.226934   1.956187   3.377150   2.035940
    21  O    2.501610   1.430580   2.464634   5.102281   4.994025
    22  H    2.648866   1.970970   2.646467   4.657843   4.858906
    23  C    1.521194   2.561570   3.777958   5.750616   5.356204
    24  H    2.154366   2.736917   4.177225   6.590910   6.062691
    25  H    2.159077   2.872227   4.021469   5.741509   5.679696
    26  O    2.396728   3.790243   4.786799   6.240686   5.778529
    27  H    3.231823   4.497195   5.605278   7.051547   6.701807
                   11         12         13         14         15
    11  H    0.000000
    12  H    3.958115   0.000000
    13  H    3.881645   1.771976   0.000000
    14  H    3.110414   2.449805   3.067624   0.000000
    15  H    4.060161   2.690545   2.449283   1.773059   0.000000
    16  H    3.856479   3.027851   2.227220   4.570965   4.503424
    17  H    3.847481   5.074182   4.229050   5.926511   6.071248
    18  H    2.370013   5.362141   4.520430   5.007250   5.273380
    19  O    3.374238   4.594132   3.201784   4.822760   4.439587
    20  H    3.574270   4.996593   3.560098   4.829031   4.283826
    21  O    2.935613   5.164061   4.908772   5.564138   6.277290
    22  H    2.337305   4.862385   4.870222   4.995133   5.940658
    23  C    4.004555   3.444092   3.711336   5.003774   5.606414
    24  H    4.766422   4.436409   4.466355   6.047458   6.537973
    25  H    3.754159   3.812400   4.366496   4.983952   5.907336
    26  O    4.860943   2.907427   3.548471   4.970752   5.454890
    27  H    5.544357   3.667001   4.492315   5.673137   6.292369
                   16         17         18         19         20
    16  H    0.000000
    17  H    2.359216   0.000000
    18  H    3.849055   2.682976   0.000000
    19  O    2.763076   2.494442   2.087477   0.000000
    20  H    3.615340   3.413044   2.299454   0.971256   0.000000
    21  O    3.369204   2.014886   2.601672   3.625805   4.353167
    22  H    3.675888   2.831271   2.773470   3.981971   4.601833
    23  C    2.127367   3.016737   4.605381   4.408847   5.269885
    24  H    2.497525   2.807060   4.914019   4.697289   5.632233
    25  H    3.046195   3.521447   4.686147   4.939614   5.736517
    26  O    2.558839   4.203766   5.735079   5.195562   5.997912
    27  H    3.471602   4.875135   6.493534   6.098906   6.920135
                   21         22         23         24         25
    21  O    0.000000
    22  H    0.971967   0.000000
    23  C    2.868658   2.951975   0.000000
    24  H    2.940654   3.312715   1.100334   0.000000
    25  H    2.670401   2.468451   1.097185   1.778782   0.000000
    26  O    4.273368   4.255041   1.434164   2.089854   2.088575
    27  H    4.750521   4.699451   1.953259   2.355064   2.284819
                   26         27
    26  O    0.000000
    27  H    0.970971   0.000000
 Stoichiometry    C8H15NO3
 Framework group  C1[X(C8H15NO3)]
 Deg. of freedom    75
 Full point group                 C1      NOp   1
 Largest Abelian subgroup         C1      NOp   1
 Largest concise Abelian subgroup C1      NOp   1
                         Standard orientation:                         
 ---------------------------------------------------------------------
 Center     Atomic      Atomic             Coordinates (Angstroms)
 Number     Number       Type             X           Y           Z
 ---------------------------------------------------------------------
      1          6           0       -2.475880    0.321169   -0.435585
      2          6           0       -1.115982   -0.347679   -0.707186
      3          7           0       -0.071715    0.677311   -0.372343
      4          6           0       -0.742739    1.794387    0.311896
      5          6           0       -2.133404    1.818710   -0.321707
      6          6           0        1.019755    0.019402    0.374169
      7          6           0        0.796087   -1.495661    0.168869
      8          6           0       -0.737818   -1.602478    0.107908
      9          1           0       -3.207016    0.105877   -1.219900
     10          1           0       -2.894786   -0.027097    0.514641
     11          1           0       -1.031523   -0.613113   -1.770700
     12          1           0       -0.193112    2.731467    0.172886
     13          1           0       -0.820354    1.616941    1.399384
     14          1           0       -2.084817    2.278025   -1.316204
     15          1           0       -2.858606    2.379937    0.275840
     16          1           0        0.914119    0.220786    1.452888
     17          1           0        1.199664   -2.077055    1.000904
     18          1           0       -1.055310   -2.531958   -0.379862
     19          8           0       -1.196850   -1.561991    1.463149
     20          1           0       -2.160687   -1.680852    1.448046
     21          8           0        1.420950   -2.031272   -1.001270
     22          1           0        1.120257   -1.525701   -1.775028
     23          6           0        2.408197    0.484179   -0.038436
     24          1           0        3.166119   -0.153991    0.440134
     25          1           0        2.526364    0.396405   -1.125702
     26          8           0        2.569351    1.847805    0.375543
     27          1           0        3.424781    2.150636    0.030118
 ---------------------------------------------------------------------
 Rotational constants (GHZ):      1.1592970      0.8962381      0.6106806
 Standard basis: 6-31+G(d,p) (6D, 7F)
 There are   303 symmetry adapted basis functions of A   symmetry.
 Integral buffers will be    131072 words long.
 Raffenetti 2 integral format.
 Two-electron integral symmetry is turned on.
   303 basis functions,   489 primitive gaussians,   303 cartesian basis functions
    47 alpha electrons       47 beta electrons
       nuclear repulsion energy       807.6621969030 Hartrees.
 NAtoms=   27 NActive=   27 NUniq=   27 SFac= 1.00D+00 NAtFMM=   60 NAOKFM=F Big=F
 ------------------------------------------------------------------------------
 Polarizable Continuum Model (PCM)
 =================================
 Model                : PCM.
 Atomic radii         : UFF (Universal Force Field).
 Polarization charges : Total charges.
 Charge compensation  : None.
 Solution method      : Matrix inversion.
 Cavity type          : Scaled VdW (van der Waals Surface) (Alpha=1.100).
 Cavity algorithm     : GePol (No added spheres)
                        Default sphere list used, NSphG=   27.
                        Lebedev-Laikov grids with approx.  5.0 points / Ang**2.
                        Smoothing algorithm: Karplus/York (Gamma=1.0000).
                        Polarization charges: spherical gaussians, with
                                              point-specific exponents (IZeta= 3).
                        Self-potential: point-specific (ISelfS= 7).
                        Self-field    : sphere-specific E.n sum rule (ISelfD= 2).
 Solvent              : Water, Eps=  78.355300 Eps(inf)=   1.777849
 ------------------------------------------------------------------------------
 One-electron integrals computed using PRISM.
 NBasis=   303 RedAO= T  NBF=   303
 NBsUse=   303 1.00D-06 NBFU=   303
 Harris functional with IExCor=  908 diagonalized for initial guess.
 ExpMin= 4.38D-02 ExpMax= 5.48D+03 ExpMxC= 8.25D+02 IAcc=2 IRadAn=         4 AccDes= 0.00D+00
 HarFok:  IExCor=  908 AccDes= 0.00D+00 IRadAn=         4 IDoV= 1
 ScaDFX=  1.000000  1.000000  1.000000  1.000000
 FoFCou: FMM=F IPFlag=           0 FMFlag=      100000 FMFlg1=           0
         NFxFlg=           0 DoJE=T BraDBF=F KetDBF=T FulRan=T
         Omega=  0.000000  0.000000  1.000000  0.000000  0.000000 ICntrl=     500 IOpCl=  0
         NMat0=    1 NMatS0=    1 NMatT0=    0 NMatD0=    1 NMtDS0=    0 NMtDT0=    0
         I1Cent=           4 NGrid=           0.
 Petite list used in FoFCou.
 Initial guess orbital symmetries:
       Occupied  (A) (A) (A) (A) (A) (A) (A) (A) (A) (A) (A) (A)
                 (A) (A) (A) (A) (A) (A) (A) (A) (A) (A) (A) (A)
                 (A) (A) (A) (A) (A) (A) (A) (A) (A) (A) (A) (A)
                 (A) (A) (A) (A) (A) (A) (A) (A) (A) (A) (A)
       Virtual   (A) (A) (A) (A) (A) (A) (A) (A) (A) (A) (A) (A)
                 (A) (A) (A) (A) (A) (A) (A) (A) (A) (A) (A) (A)
                 (A) (A) (A) (A) (A) (A) (A) (A) (A) (A) (A) (A)
                 (A) (A) (A) (A) (A) (A) (A) (A) (A) (A) (A) (A)
                 (A) (A) (A) (A) (A) (A) (A) (A) (A) (A) (A) (A)
                 (A) (A) (A) (A) (A) (A) (A) (A) (A) (A) (A) (A)
                 (A) (A) (A) (A) (A) (A) (A) (A) (A) (A) (A) (A)
                 (A) (A) (A) (A) (A) (A) (A) (A) (A) (A) (A) (A)
                 (A) (A) (A) (A) (A) (A) (A) (A) (A) (A) (A) (A)
                 (A) (A) (A) (A) (A) (A) (A) (A) (A) (A) (A) (A)
                 (A) (A) (A) (A) (A) (A) (A) (A) (A) (A) (A) (A)
                 (A) (A) (A) (A) (A) (A) (A) (A) (A) (A) (A) (A)
                 (A) (A) (A) (A) (A) (A) (A) (A) (A) (A) (A) (A)
                 (A) (A) (A) (A) (A) (A) (A) (A) (A) (A) (A) (A)
                 (A) (A) (A) (A) (A) (A) (A) (A) (A) (A) (A) (A)
                 (A) (A) (A) (A) (A) (A) (A) (A) (A) (A) (A) (A)
                 (A) (A) (A) (A) (A) (A) (A) (A) (A) (A) (A) (A)
                 (A) (A) (A) (A) (A) (A) (A) (A) (A) (A) (A) (A)
                 (A) (A) (A) (A) (A) (A) (A) (A) (A) (A) (A) (A)
                 (A) (A) (A) (A) (A) (A) (A) (A) (A) (A) (A) (A)
                 (A) (A) (A) (A) (A) (A) (A) (A) (A) (A) (A) (A)
                 (A) (A) (A) (A)
 The electronic state of the initial guess is 1-A.
 Requested convergence on RMS density matrix=1.00D-08 within 128 cycles.
 Requested convergence on MAX density matrix=1.00D-06.
 Requested convergence on             energy=1.00D-06.
 No special actions if energy rises.
 Error on total polarization charges =  0.01409
 SCF Done:  E(RmPW1PW91) =  -594.193894819     A.U. after   13 cycles
             Convg  =    0.5225D-08             -V/T =  2.0094
 Range of M.O.s used for correlation:     1   303
 NBasis=   303 NAE=    47 NBE=    47 NFC=     0 NFV=     0
 NROrb=    303 NOA=    47 NOB=    47 NVA=   256 NVB=   256

 **** Warning!!: The largest alpha MO coefficient is  0.76231680D+02

 NEqPCM:  Using equilibrium solvation (IEInf=0, Eps=  78.3553, EpsInf=   1.7778)
          Differentiating once with respect to magnetic field using GIAOs.
          Electric field/nuclear overlap derivatives assumed to be zero.
 FoFCou: FMM=F IPFlag=           0 FMFlag=    10101102 FMFlg1=           0
         NFxFlg=    40000000 DoJE=F BraDBF=F KetDBF=T FulRan=T
         Omega=  0.000000  0.000000  1.000000  0.000000  0.000000 ICntrl=    6100 IOpCl=  0
         NMat0=    1 NMatS0=    1 NMatT0=    0 NMatD0=    1 NMtDS0=    0 NMtDT0=    0
         I1Cent=           7 NGrid=        1839.
 Symmetry not used in FoFCou.
          There are     3 degrees of freedom in the 1st order CPHF.  IDoFFX=0.
      3 vectors produced by pass  0 Test12= 4.01D-13 3.33D-08 XBig12= 4.26D+01 1.30D+00.
 AX will form     3 AO Fock derivatives at one time.
      3 vectors produced by pass  1 Test12= 4.01D-13 3.33D-08 XBig12= 1.05D-01 4.48D-02.
      3 vectors produced by pass  2 Test12= 4.01D-13 3.33D-08 XBig12= 1.63D-04 2.37D-03.
      3 vectors produced by pass  3 Test12= 4.01D-13 3.33D-08 XBig12= 6.91D-07 1.70D-04.
      3 vectors produced by pass  4 Test12= 4.01D-13 3.33D-08 XBig12= 2.70D-09 1.12D-05.
      3 vectors produced by pass  5 Test12= 4.01D-13 3.33D-08 XBig12= 9.06D-12 4.41D-07.
 Inverted reduced A of dimension    18 with in-core refinement.
 Calculating GIAO nuclear magnetic shielding tensors.
 SCF GIAO Magnetic shielding tensor (ppm):
      1  C    Isotropic =   171.2724   Anisotropy =    20.5600
   XX=   179.5013   YX=    -3.5792   ZX=     2.8295
   XY=     5.3385   YY=   183.2350   ZY=    10.3178
   XZ=     0.9773   YZ=     3.6686   ZZ=   151.0809
   Eigenvalues:   149.5310   179.3071   184.9791
      2  C    Isotropic =   126.2480   Anisotropy =    60.0372
   XX=   143.9798   YX=    18.2061   ZX=     9.2037
   XY=    22.4600   YY=   146.8584   ZY=     1.4916
   XZ=    11.2072   YZ=    -4.1027   ZZ=    87.9058
   Eigenvalues:    85.6817   126.7895   166.2729
      3  N    Isotropic =   186.4498   Anisotropy =    97.2101
   XX=   235.8789   YX=    -6.3194   ZX=    37.3614
   XY=   -17.0870   YY=   197.3218   ZY=     4.8906
   XZ=    45.7487   YZ=    10.3197   ZZ=   126.1486
   Eigenvalues:   110.7969   197.2959   251.2565
      4  C    Isotropic =   136.7427   Anisotropy =    56.0675
   XX=   138.6717   YX=   -21.6749   ZX=    -6.1328
   XY=   -30.2851   YY=   146.0968   ZY=    14.5285
   XZ=    -0.1565   YZ=    22.5600   ZZ=   125.4596
   Eigenvalues:   108.5590   127.5481   174.1211
      5  C    Isotropic =   163.5270   Anisotropy =    26.6107
   XX=   177.6528   YX=    -2.0800   ZX=     8.5076
   XY=    -1.7816   YY=   175.2304   ZY=    11.5351
   XZ=    16.5491   YZ=     3.5620   ZZ=   137.6979
   Eigenvalues:   132.6693   176.6443   181.2675
      6  C    Isotropic =   126.1017   Anisotropy =    37.4052
   XX=   136.9929   YX=   -11.8895   ZX=     8.8205
   XY=   -16.1858   YY=   127.8373   ZY=   -10.7289
   XZ=    10.1170   YZ=    -4.1656   ZZ=   113.4747
   Eigenvalues:   109.5928   117.6737   151.0385
      7  C    Isotropic =   110.3549   Anisotropy =    27.9221
   XX=   121.7586   YX=    -3.9917   ZX=   -11.0974
   XY=     5.2703   YY=   107.4322   ZY=     3.1315
   XZ=   -14.8213   YZ=    17.2493   ZZ=   101.8738
   Eigenvalues:    90.2043   111.8907   128.9696
      8  C    Isotropic =   116.7457   Anisotropy =    32.1038
   XX=   116.8826   YX=     0.2229   ZX=   -17.6980
   XY=    -7.8675   YY=   108.6816   ZY=     9.6611
   XZ=   -15.2577   YZ=    -6.5604   ZZ=   124.6728
   Eigenvalues:   103.0570   109.0318   138.1482
      9  H    Isotropic =    29.8525   Anisotropy =    11.7474
   XX=    33.1611   YX=     0.9747   ZX=     5.7937
   XY=     2.2232   YY=    27.2342   ZY=     2.2697
   XZ=     5.5375   YZ=     1.2308   ZZ=    29.1623
   Eigenvalues:    25.0105    26.8630    37.6841
     10  H    Isotropic =    30.0395   Anisotropy =     7.5316
   XX=    31.5679   YX=     0.1726   ZX=    -3.4455
   XY=     0.0599   YY=    29.4978   ZY=    -3.7233
   XZ=    -3.6843   YZ=    -3.2974   ZZ=    29.0529
   Eigenvalues:    24.7116    30.3464    35.0606
     11  H    Isotropic =    27.7401   Anisotropy =     7.6860
   XX=    26.5703   YX=     0.2151   ZX=     1.4591
   XY=    -0.2914   YY=    25.4809   ZY=     3.7347
   XZ=     1.5512   YZ=     2.5623   ZZ=    31.1692
   Eigenvalues:    23.9115    26.4448    32.8641
     12  H    Isotropic =    28.2430   Anisotropy =     8.6053
   XX=    28.4084   YX=     1.0968   ZX=     0.2629
   XY=     2.0342   YY=    33.4131   ZY=     0.7862
   XZ=     0.1100   YZ=     1.4794   ZZ=    22.9075
   Eigenvalues:    22.7867    27.9624    33.9799
     13  H    Isotropic =    29.0775   Anisotropy =     7.7077
   XX=    27.2001   YX=    -1.2184   ZX=    -1.2770
   XY=    -1.1849   YY=    28.0293   ZY=     3.8072
   XZ=     0.0009   YZ=     3.1542   ZZ=    32.0031
   Eigenvalues:    25.6396    27.3769    34.2160
     14  H    Isotropic =    29.3565   Anisotropy =    10.5591
   XX=    26.7848   YX=    -0.6746   ZX=     2.2265
   XY=    -1.0534   YY=    31.0021   ZY=    -5.2707
   XZ=     2.3422   YZ=    -5.2020   ZZ=    30.2826
   Eigenvalues:    24.6925    26.9811    36.3959
     15  H    Isotropic =    29.4884   Anisotropy =    11.6130
   XX=    31.3662   YX=    -4.4964   ZX=    -2.3798
   XY=    -5.1754   YY=    31.2668   ZY=     2.6924
   XZ=    -2.3394   YZ=     2.5029   ZZ=    25.8321
   Eigenvalues:    24.7364    26.4983    37.2304
     16  H    Isotropic =    28.5204   Anisotropy =     5.0776
   XX=    28.7316   YX=     0.5470   ZX=     1.9097
   XY=     1.9271   YY=    26.5616   ZY=    -1.2527
   XZ=     2.5388   YZ=     0.7560   ZZ=    30.2681
   Eigenvalues:    25.6392    28.0166    31.9055
     17  H    Isotropic =    27.1927   Anisotropy =     5.0650
   XX=    25.9697   YX=    -2.3894   ZX=    -0.3224
   XY=    -2.3522   YY=    27.7929   ZY=    -1.7169
   XZ=     0.0942   YZ=    -2.5368   ZZ=    27.8155
   Eigenvalues:    23.8529    27.1558    30.5694
     18  H    Isotropic =    27.7467   Anisotropy =     6.9839
   XX=    24.6258   YX=     1.3442   ZX=    -1.1413
   XY=     1.9335   YY=    31.1836   ZY=     1.7072
   XZ=    -1.6193   YZ=     2.9390   ZZ=    27.4306
   Eigenvalues:    23.2844    27.5531    32.4026
     19  O    Isotropic =   292.3900   Anisotropy =    45.8193
   XX=   319.2051   YX=     4.1674   ZX=    14.9061
   XY=    -1.4356   YY=   274.0360   ZY=     7.1702
   XZ=     8.9858   YZ=    -3.7923   ZZ=   283.9289
   Eigenvalues:   273.7439   280.4899   322.9362
     20  H    Isotropic =    29.9675   Anisotropy =    18.9851
   XX=    40.9711   YX=     3.2848   ZX=    -4.1174
   XY=     2.6006   YY=    22.5855   ZY=    -4.3386
   XZ=    -3.6316   YZ=    -2.5093   ZZ=    26.3458
   Eigenvalues:    20.5415    26.7367    42.6242
     21  O    Isotropic =   297.3476   Anisotropy =    27.2588
   XX=   286.4590   YX=    -4.6990   ZX=    26.7263
   XY=    -2.4226   YY=   294.4413   ZY=   -12.4556
   XZ=    -5.0211   YZ=     9.9358   ZZ=   311.1424
   Eigenvalues:   281.7025   294.8201   315.5201
     22  H    Isotropic =    30.3866   Anisotropy =    13.2896
   XX=    25.4624   YX=    -4.7107   ZX=     0.2550
   XY=    -3.4744   YY=    27.4718   ZY=    -3.0450
   XZ=     0.0350   YZ=    -3.4303   ZZ=    38.2255
   Eigenvalues:    22.0226    29.8908    39.2463
     23  C    Isotropic =   127.8788   Anisotropy =    46.9096
   XX=   120.5158   YX=     3.0182   ZX=     0.9916
   XY=    14.0653   YY=   152.6411   ZY=    15.6677
   XZ=     4.3944   YZ=    13.0822   ZZ=   110.4795
   Eigenvalues:   106.0446   118.4400   159.1519
     24  H    Isotropic =    27.5284   Anisotropy =     6.0728
   XX=    30.4130   YX=    -0.2675   ZX=     2.0705
   XY=    -1.9132   YY=    29.8577   ZY=    -0.3489
   XZ=     2.3683   YZ=     0.7596   ZZ=    22.3145
   Eigenvalues:    21.7188    29.2895    31.5770
     25  H    Isotropic =    27.8308   Anisotropy =     5.3826
   XX=    26.7547   YX=     2.2832   ZX=    -2.4514
   XY=     2.1158   YY=    29.0949   ZY=     4.2854
   XZ=    -2.8502   YZ=     1.6331   ZZ=    27.6427
   Eigenvalues:    22.5209    29.5523    31.4192
     26  O    Isotropic =   312.5871   Anisotropy =    84.2236
   XX=   343.0918   YX=    44.0987   ZX=   -14.2237
   XY=    28.9173   YY=   302.5105   ZY=    -4.1045
   XZ=   -20.5406   YZ=    -7.1812   ZZ=   292.1590
   Eigenvalues:   279.3197   289.7054   368.7362
     27  H    Isotropic =    30.1954   Anisotropy =    21.5567
   XX=    38.2217   YX=     7.4922   ZX=    -6.2361
   XY=     9.0948   YY=    29.4747   ZY=    -0.9164
   XZ=    -5.6311   YZ=    -0.1325   ZZ=    22.8899
   Eigenvalues:    20.0905    25.9292    44.5666
 End of Minotr Frequency-dependent properties file   721 does not exist.
 End of Minotr Frequency-dependent properties file   722 does not exist.

 **********************************************************************

            Population analysis using the SCF density.

 **********************************************************************

 Orbital symmetries:
       Occupied  (A) (A) (A) (A) (A) (A) (A) (A) (A) (A) (A) (A)
                 (A) (A) (A) (A) (A) (A) (A) (A) (A) (A) (A) (A)
                 (A) (A) (A) (A) (A) (A) (A) (A) (A) (A) (A) (A)
                 (A) (A) (A) (A) (A) (A) (A) (A) (A) (A) (A)
       Virtual   (A) (A) (A) (A) (A) (A) (A) (A) (A) (A) (A) (A)
                 (A) (A) (A) (A) (A) (A) (A) (A) (A) (A) (A) (A)
                 (A) (A) (A) (A) (A) (A) (A) (A) (A) (A) (A) (A)
                 (A) (A) (A) (A) (A) (A) (A) (A) (A) (A) (A) (A)
                 (A) (A) (A) (A) (A) (A) (A) (A) (A) (A) (A) (A)
                 (A) (A) (A) (A) (A) (A) (A) (A) (A) (A) (A) (A)
                 (A) (A) (A) (A) (A) (A) (A) (A) (A) (A) (A) (A)
                 (A) (A) (A) (A) (A) (A) (A) (A) (A) (A) (A) (A)
                 (A) (A) (A) (A) (A) (A) (A) (A) (A) (A) (A) (A)
                 (A) (A) (A) (A) (A) (A) (A) (A) (A) (A) (A) (A)
                 (A) (A) (A) (A) (A) (A) (A) (A) (A) (A) (A) (A)
                 (A) (A) (A) (A) (A) (A) (A) (A) (A) (A) (A) (A)
                 (A) (A) (A) (A) (A) (A) (A) (A) (A) (A) (A) (A)
                 (A) (A) (A) (A) (A) (A) (A) (A) (A) (A) (A) (A)
                 (A) (A) (A) (A) (A) (A) (A) (A) (A) (A) (A) (A)
                 (A) (A) (A) (A) (A) (A) (A) (A) (A) (A) (A) (A)
                 (A) (A) (A) (A) (A) (A) (A) (A) (A) (A) (A) (A)
                 (A) (A) (A) (A) (A) (A) (A) (A) (A) (A) (A) (A)
                 (A) (A) (A) (A) (A) (A) (A) (A) (A) (A) (A) (A)
                 (A) (A) (A) (A) (A) (A) (A) (A) (A) (A) (A) (A)
                 (A) (A) (A) (A) (A) (A) (A) (A) (A) (A) (A) (A)
                 (A) (A) (A) (A)
 The electronic state is 1-A.
 Alpha  occ. eigenvalues --  -19.26279 -19.26047 -19.25323 -14.40915 -10.30877
 Alpha  occ. eigenvalues --  -10.30441 -10.29363 -10.27903 -10.27889 -10.26533
 Alpha  occ. eigenvalues --  -10.24913 -10.24567  -1.07373  -1.05935  -1.05366
 Alpha  occ. eigenvalues --   -0.96074  -0.82897  -0.79005  -0.75419  -0.72301
 Alpha  occ. eigenvalues --   -0.66203  -0.61651  -0.60492  -0.57823  -0.55285
 Alpha  occ. eigenvalues --   -0.53910  -0.51498  -0.50597  -0.49499  -0.47004
 Alpha  occ. eigenvalues --   -0.45803  -0.44940  -0.43934  -0.41876  -0.40197
 Alpha  occ. eigenvalues --   -0.39604  -0.38037  -0.37619  -0.36725  -0.35658
 Alpha  occ. eigenvalues --   -0.34984  -0.34589  -0.32949  -0.30946  -0.29995
 Alpha  occ. eigenvalues --   -0.29222  -0.22824
 Alpha virt. eigenvalues --    0.00664   0.01133   0.01835   0.02324   0.03142
 Alpha virt. eigenvalues --    0.04307   0.04808   0.05277   0.05350   0.07131
 Alpha virt. eigenvalues --    0.07673   0.07846   0.08601   0.09035   0.09729
 Alpha virt. eigenvalues --    0.10299   0.11505   0.11792   0.12235   0.12949
 Alpha virt. eigenvalues --    0.13143   0.13776   0.14347   0.14765   0.15374
 Alpha virt. eigenvalues --    0.15666   0.17334   0.17719   0.18311   0.18826
 Alpha virt. eigenvalues --    0.19272   0.19870   0.20345   0.20588   0.21397
 Alpha virt. eigenvalues --    0.21475   0.21883   0.22286   0.23055   0.23276
 Alpha virt. eigenvalues --    0.23324   0.24556   0.24748   0.24894   0.25832
 Alpha virt. eigenvalues --    0.26540   0.27326   0.27785   0.28138   0.28298
 Alpha virt. eigenvalues --    0.29032   0.30377   0.31251   0.31567   0.32169
 Alpha virt. eigenvalues --    0.32833   0.33366   0.33840   0.34147   0.35099
 Alpha virt. eigenvalues --    0.35492   0.35812   0.36087   0.37266   0.38386
 Alpha virt. eigenvalues --    0.39049   0.39783   0.40407   0.40515   0.40800
 Alpha virt. eigenvalues --    0.42941   0.43528   0.44554   0.44999   0.45439
 Alpha virt. eigenvalues --    0.51262   0.63400   0.66388   0.66831   0.69074
 Alpha virt. eigenvalues --    0.69381   0.69972   0.72030   0.72683   0.74103
 Alpha virt. eigenvalues --    0.75307   0.76487   0.78527   0.79339   0.81481
 Alpha virt. eigenvalues --    0.83421   0.84024   0.87169   0.88219   0.88481
 Alpha virt. eigenvalues --    0.89890   0.92804   0.93582   0.94794   0.95606
 Alpha virt. eigenvalues --    0.98135   0.99624   1.02013   1.03260   1.04841
 Alpha virt. eigenvalues --    1.05516   1.06201   1.07952   1.09024   1.10172
 Alpha virt. eigenvalues --    1.11503   1.12370   1.13802   1.14179   1.16876
 Alpha virt. eigenvalues --    1.16979   1.18979   1.20449   1.23480   1.25463
 Alpha virt. eigenvalues --    1.26775   1.28032   1.29128   1.31010   1.31663
 Alpha virt. eigenvalues --    1.34913   1.35489   1.39112   1.40421   1.41114
 Alpha virt. eigenvalues --    1.43929   1.46417   1.47252   1.51284   1.52498
 Alpha virt. eigenvalues --    1.53118   1.55180   1.57640   1.57822   1.60285
 Alpha virt. eigenvalues --    1.62178   1.64014   1.64732   1.69122   1.70291
 Alpha virt. eigenvalues --    1.72940   1.75112   1.76302   1.77976   1.79196
 Alpha virt. eigenvalues --    1.80300   1.82686   1.83966   1.86961   1.88143
 Alpha virt. eigenvalues --    1.89418   1.91744   1.93546   1.94510   1.97306
 Alpha virt. eigenvalues --    1.98478   1.99753   2.01116   2.02270   2.03756
 Alpha virt. eigenvalues --    2.04072   2.06291   2.08387   2.10324   2.10866
 Alpha virt. eigenvalues --    2.11692   2.13406   2.15148   2.16999   2.18924
 Alpha virt. eigenvalues --    2.22299   2.23696   2.26831   2.27368   2.29548
 Alpha virt. eigenvalues --    2.29965   2.32503   2.33413   2.35904   2.37692
 Alpha virt. eigenvalues --    2.41830   2.43513   2.44725   2.46526   2.48536
 Alpha virt. eigenvalues --    2.48921   2.50519   2.51333   2.53477   2.56025
 Alpha virt. eigenvalues --    2.56641   2.57771   2.60188   2.61718   2.63438
 Alpha virt. eigenvalues --    2.65327   2.65851   2.67102   2.68656   2.68898
 Alpha virt. eigenvalues --    2.70696   2.74090   2.74995   2.76689   2.77836
 Alpha virt. eigenvalues --    2.79527   2.80274   2.81265   2.83043   2.83759
 Alpha virt. eigenvalues --    2.86056   2.88233   2.91011   2.91574   2.95180
 Alpha virt. eigenvalues --    2.97109   3.00216   3.00883   3.02984   3.04282
 Alpha virt. eigenvalues --    3.05165   3.09987   3.11572   3.16717   3.32354
 Alpha virt. eigenvalues --    3.35957   3.36336   3.37281   3.44030   3.44335
 Alpha virt. eigenvalues --    3.47412   3.49749   3.52053   3.54200   3.55748
 Alpha virt. eigenvalues --    3.56717   3.58332   3.59003   3.61184   4.32352
 Alpha virt. eigenvalues --    4.35203   4.37890   4.43192   4.49666   4.57538
 Alpha virt. eigenvalues --    4.59127   4.69889   4.77360   4.81720   4.91023
 Alpha virt. eigenvalues --    4.97295
          Condensed to atoms (all electrons):
              1          2          3          4          5          6
     1  C    6.299707  -1.194928   0.149366  -0.233370   0.261536   0.190740
     2  C   -1.194928   9.480737  -0.319147  -0.275392   0.173834  -0.799925
     3  N    0.149366  -0.319147   7.552738   0.246339  -0.160197  -0.096465
     4  C   -0.233370  -0.275392   0.246339   5.704438  -0.019504  -0.285092
     5  C    0.261536   0.173834  -0.160197  -0.019504   5.789234   0.030848
     6  C    0.190740  -0.799925  -0.096465  -0.285092   0.030848   8.748261
     7  C   -0.453161   1.202802  -0.360391   0.107329  -0.164969  -1.573355
     8  C    0.516221  -2.208427   0.119341   0.132169  -0.075699   0.825400
     9  H    0.405288  -0.085117   0.012096   0.028312  -0.039757   0.004043
    10  H    0.468726  -0.208057   0.029801   0.029325  -0.065090  -0.006107
    11  H    0.084004   0.085154  -0.003848   0.023593  -0.031837   0.018459
    12  H    0.038144  -0.005734  -0.051277   0.392574  -0.041446   0.012955
    13  H   -0.016269   0.021186  -0.105596   0.432384  -0.018762  -0.018514
    14  H   -0.024922  -0.050850   0.015472  -0.035333   0.408664   0.003376
    15  H   -0.078235   0.060006   0.004753  -0.013204   0.372298  -0.004248
    16  H   -0.015578   0.041701  -0.072889   0.029936   0.008997   0.256042
    17  H    0.011985   0.011374   0.024162   0.001336   0.001851   0.003116
    18  H   -0.007403  -0.031879   0.016243   0.004070  -0.006562  -0.011153
    19  O    0.005596  -0.073048   0.017799   0.044550  -0.047055  -0.041603
    20  H    0.012017  -0.083454  -0.000267   0.002095  -0.007770  -0.002203
    21  O    0.016091  -0.011555   0.045438   0.013007   0.000734  -0.217202
    22  H    0.014537   0.019654   0.019928   0.004957   0.001016  -0.031044
    23  C   -0.009841   0.165531   0.068973  -0.071258   0.005116  -0.865930
    24  H    0.000134   0.005624  -0.002842  -0.011212  -0.000228  -0.138683
    25  H    0.000411   0.012771   0.023843   0.016067   0.000911  -0.140903
    26  O   -0.001257   0.000724  -0.024008  -0.010392  -0.005923   0.040946
    27  H   -0.000365  -0.002253  -0.001061  -0.000643   0.000171   0.047906
              7          8          9         10         11         12
     1  C   -0.453161   0.516221   0.405288   0.468726   0.084004   0.038144
     2  C    1.202802  -2.208427  -0.085117  -0.208057   0.085154  -0.005734
     3  N   -0.360391   0.119341   0.012096   0.029801  -0.003848  -0.051277
     4  C    0.107329   0.132169   0.028312   0.029325   0.023593   0.392574
     5  C   -0.164969  -0.075699  -0.039757  -0.065090  -0.031837  -0.041446
     6  C   -1.573355   0.825400   0.004043  -0.006107   0.018459   0.012955
     7  C    8.311593  -1.596885  -0.010116  -0.014349  -0.061610  -0.005048
     8  C   -1.596885   7.958322   0.029855   0.073560   0.140834  -0.003807
     9  H   -0.010116   0.029855   0.512084  -0.025648  -0.004859  -0.000107
    10  H   -0.014349   0.073560  -0.025648   0.555550   0.004371  -0.000042
    11  H   -0.061610   0.140834  -0.004859   0.004371   0.577769   0.000116
    12  H   -0.005048  -0.003807  -0.000107  -0.000042   0.000116   0.540802
    13  H    0.019197  -0.008863  -0.000152   0.001385  -0.000571  -0.042835
    14  H   -0.003700   0.017776  -0.005369   0.004246   0.000585  -0.005818
    15  H    0.004402  -0.007337   0.000766  -0.006053  -0.000125   0.000513
    16  H    0.063363  -0.055349  -0.000004  -0.000006  -0.000612  -0.001433
    17  H    0.271524   0.023770   0.000002  -0.000017  -0.000063   0.000004
    18  H    0.040431   0.306225   0.000203   0.000300  -0.000984   0.000005
    19  O    0.029351   0.106429  -0.000555   0.005189   0.005938   0.000226
    20  H   -0.002187   0.091650   0.000015   0.006926   0.000281  -0.000001
    21  O    0.374769  -0.111754  -0.000004   0.000088   0.000208   0.000026
    22  H   -0.018538  -0.017529   0.000006  -0.000001   0.000789   0.000002
    23  C    0.081128  -0.274075   0.000176  -0.002907   0.000453   0.006303
    24  H    0.065843   0.006515   0.000000   0.000000  -0.000014  -0.000040
    25  H   -0.010404  -0.029021   0.000000   0.000000  -0.000073   0.000012
    26  O    0.056528  -0.017037  -0.000004   0.000001  -0.000237  -0.001638
    27  H   -0.008009   0.003312   0.000000   0.000000  -0.000001   0.000037
             13         14         15         16         17         18
     1  C   -0.016269  -0.024922  -0.078235  -0.015578   0.011985  -0.007403
     2  C    0.021186  -0.050850   0.060006   0.041701   0.011374  -0.031879
     3  N   -0.105596   0.015472   0.004753  -0.072889   0.024162   0.016243
     4  C    0.432384  -0.035333  -0.013204   0.029936   0.001336   0.004070
     5  C   -0.018762   0.408664   0.372298   0.008997   0.001851  -0.006562
     6  C   -0.018514   0.003376  -0.004248   0.256042   0.003116  -0.011153
     7  C    0.019197  -0.003700   0.004402   0.063363   0.271524   0.040431
     8  C   -0.008863   0.017776  -0.007337  -0.055349   0.023770   0.306225
     9  H   -0.000152  -0.005369   0.000766  -0.000004   0.000002   0.000203
    10  H    0.001385   0.004246  -0.006053  -0.000006  -0.000017   0.000300
    11  H   -0.000571   0.000585  -0.000125  -0.000612  -0.000063  -0.000984
    12  H   -0.042835  -0.005818   0.000513  -0.001433   0.000004   0.000005
    13  H    0.589270   0.004048  -0.003772   0.013159  -0.000064  -0.000043
    14  H    0.004048   0.520289  -0.024845  -0.000007   0.000000  -0.000001
    15  H   -0.003772  -0.024845   0.518296  -0.000001   0.000000   0.000003
    16  H    0.013159  -0.000007  -0.000001   0.568413  -0.004185  -0.000191
    17  H   -0.000064   0.000000   0.000000  -0.004185   0.526821  -0.002405
    18  H   -0.000043  -0.000001   0.000003  -0.000191  -0.002405   0.555810
    19  O    0.000595   0.000032   0.000402   0.002197  -0.002112  -0.037943
    20  H    0.000071   0.000005   0.000002  -0.000037   0.000083  -0.005681
    21  O   -0.000053   0.000011   0.000004   0.009349  -0.046512  -0.004652
    22  H   -0.000005  -0.000001   0.000000  -0.000116   0.006264  -0.000856
    23  C   -0.012945  -0.001966   0.001084  -0.016856  -0.011424   0.011548
    24  H    0.000036   0.000000   0.000000  -0.002813   0.000841  -0.000006
    25  H    0.000001  -0.000001   0.000000   0.004872   0.000110  -0.000003
    26  O    0.001486  -0.000050   0.000018   0.006073  -0.000642   0.000011
    27  H   -0.000003   0.000000   0.000000  -0.000041  -0.000001   0.000000
             19         20         21         22         23         24
     1  C    0.005596   0.012017   0.016091   0.014537  -0.009841   0.000134
     2  C   -0.073048  -0.083454  -0.011555   0.019654   0.165531   0.005624
     3  N    0.017799  -0.000267   0.045438   0.019928   0.068973  -0.002842
     4  C    0.044550   0.002095   0.013007   0.004957  -0.071258  -0.011212
     5  C   -0.047055  -0.007770   0.000734   0.001016   0.005116  -0.000228
     6  C   -0.041603  -0.002203  -0.217202  -0.031044  -0.865930  -0.138683
     7  C    0.029351  -0.002187   0.374769  -0.018538   0.081128   0.065843
     8  C    0.106429   0.091650  -0.111754  -0.017529  -0.274075   0.006515
     9  H   -0.000555   0.000015  -0.000004   0.000006   0.000176   0.000000
    10  H    0.005189   0.006926   0.000088  -0.000001  -0.002907   0.000000
    11  H    0.005938   0.000281   0.000208   0.000789   0.000453  -0.000014
    12  H    0.000226  -0.000001   0.000026   0.000002   0.006303  -0.000040
    13  H    0.000595   0.000071  -0.000053  -0.000005  -0.012945   0.000036
    14  H    0.000032   0.000005   0.000011  -0.000001  -0.001966   0.000000
    15  H    0.000402   0.000002   0.000004   0.000000   0.001084   0.000000
    16  H    0.002197  -0.000037   0.009349  -0.000116  -0.016856  -0.002813
    17  H   -0.002112   0.000083  -0.046512   0.006264  -0.011424   0.000841
    18  H   -0.037943  -0.005681  -0.004652  -0.000856   0.011548  -0.000006
    19  O    8.278714   0.239122   0.006737  -0.000400   0.037378  -0.000161
    20  H    0.239122   0.373560  -0.000267   0.000000  -0.006699   0.000000
    21  O    0.006737  -0.000267   8.153086   0.267174   0.011931  -0.006372
    22  H   -0.000400   0.000000   0.267174   0.359634  -0.004908   0.000411
    23  C    0.037378  -0.006699   0.011931  -0.004908   6.035445   0.449101
    24  H   -0.000161   0.000000  -0.006372   0.000411   0.449101   0.580765
    25  H    0.000132   0.000000   0.009875  -0.000254   0.484028  -0.044906
    26  O    0.000468  -0.000012  -0.003273  -0.000110   0.036413  -0.056450
    27  H   -0.000011   0.000000   0.000212  -0.000007  -0.031608  -0.003658
             25         26         27
     1  C    0.000411  -0.001257  -0.000365
     2  C    0.012771   0.000724  -0.002253
     3  N    0.023843  -0.024008  -0.001061
     4  C    0.016067  -0.010392  -0.000643
     5  C    0.000911  -0.005923   0.000171
     6  C   -0.140903   0.040946   0.047906
     7  C   -0.010404   0.056528  -0.008009
     8  C   -0.029021  -0.017037   0.003312
     9  H    0.000000  -0.000004   0.000000
    10  H    0.000000   0.000001   0.000000
    11  H   -0.000073  -0.000237  -0.000001
    12  H    0.000012  -0.001638   0.000037
    13  H    0.000001   0.001486  -0.000003
    14  H   -0.000001  -0.000050   0.000000
    15  H    0.000000   0.000018   0.000000
    16  H    0.004872   0.006073  -0.000041
    17  H    0.000110  -0.000642  -0.000001
    18  H   -0.000003   0.000011   0.000000
    19  O    0.000132   0.000468  -0.000011
    20  H    0.000000  -0.000012   0.000000
    21  O    0.009875  -0.003273   0.000212
    22  H   -0.000254  -0.000110  -0.000007
    23  C    0.484028   0.036413  -0.031608
    24  H   -0.044906  -0.056450  -0.003658
    25  H    0.569569  -0.049241  -0.005522
    26  O   -0.049241   8.393925   0.229274
    27  H   -0.005522   0.229274   0.380128
 Mulliken atomic charges:
              1
     1  C   -0.439172
     2  C    0.068669
     3  N   -0.148306
     4  C   -0.257079
     5  C   -0.370412
     6  C    0.050335
     7  C   -0.345536
     8  C    0.054404
     9  H    0.178844
    10  H    0.148808
    11  H    0.162279
    12  H    0.167504
    13  H    0.145630
    14  H    0.178360
    15  H    0.175274
    16  H    0.166019
    17  H    0.184182
    18  H    0.174912
    19  O   -0.577968
    20  H    0.382751
    21  O   -0.507095
    22  H    0.379398
    23  C   -0.084190
    24  H    0.158115
    25  H    0.157723
    26  O   -0.595593
    27  H    0.392141
 Sum of Mulliken atomic charges =   0.00000
 Mulliken charges with hydrogens summed into heavy atoms:
              1
     1  C   -0.111519
     2  C    0.230948
     3  N   -0.148306
     4  C    0.056055
     5  C   -0.016778
     6  C    0.216354
     7  C   -0.161354
     8  C    0.229316
    19  O   -0.195217
    21  O   -0.127697
    23  C    0.231648
    26  O   -0.203452
 Sum of Mulliken charges with hydrogens summed into heavy atoms =   0.00000
 Electronic spatial extent (au):  <R**2>=           2022.0578
 Charge=              0.0000 electrons
 Dipole moment (field-independent basis, Debye):
    X=             -2.2164    Y=             -0.0706    Z=             -1.7058  Tot=              2.7977
 Quadrupole moment (field-independent basis, Debye-Ang):
   XX=            -59.0167   YY=            -79.0631   ZZ=            -74.2750
   XY=              6.2032   XZ=             -1.5629   YZ=             -0.9387
 Traceless Quadrupole moment (field-independent basis, Debye-Ang):
   XX=             11.7682   YY=             -8.2782   ZZ=             -3.4901
   XY=              6.2032   XZ=             -1.5629   YZ=             -0.9387
 Octapole moment (field-independent basis, Debye-Ang**2):
  XXX=             24.7597  YYY=              8.5688  ZZZ=            -13.6111  XYY=            -12.4048
  XXY=             12.5106  XXZ=              1.5922  XZZ=              1.0215  YZZ=             -3.4235
  YYZ=              1.1885  XYZ=             -9.7150
 Hexadecapole moment (field-independent basis, Debye-Ang**3):
 XXXX=          -1113.8119 YYYY=          -1000.8190 ZZZZ=           -296.9831 XXXY=            137.6714
 XXXZ=            -43.9967 YYYX=             64.5363 YYYZ=            -22.8790 ZZZX=            -17.1703
 ZZZY=             17.7031 XXYY=           -343.9287 XXZZ=           -260.8217 YYZZ=           -225.5420
 XXYZ=            -38.8264 YYXZ=             -4.0143 ZZXY=             -0.4101
 N-N= 8.076621969030D+02 E-N=-3.001624668229D+03  KE= 5.886570223738D+02
 1\1\GINC-COMPUTE-3-2\SP\RmPW1PW91\6-31+G(d,p)\C8H15N1O3\MAMICHETTI.IQU
 IR\17-May-2024\0\\# mpw1pw91/6-31+G** nmr scrf=(pcm,solvent=water)\\co
 mment\\0,1\C,0,-2.47588,0.321169,-0.435585\C,0,-1.115982,-0.347679,-0.
 707186\N,0,-0.071715,0.677311,-0.372343\C,0,-0.742739,1.794387,0.31189
 6\C,0,-2.133404,1.81871,-0.321707\C,0,1.019755,0.019402,0.374169\C,0,0
 .796087,-1.495661,0.168869\C,0,-0.737818,-1.602478,0.107908\H,0,-3.207
 016,0.105877,-1.2199\H,0,-2.894786,-0.027097,0.514641\H,0,-1.031523,-0
 .613113,-1.7707\H,0,-0.193112,2.731467,0.172886\H,0,-0.820354,1.616941
 ,1.399384\H,0,-2.084817,2.278025,-1.316204\H,0,-2.858606,2.379937,0.27
 584\H,0,0.914119,0.220786,1.452888\H,0,1.199664,-2.077055,1.000904\H,0
 ,-1.05531,-2.531958,-0.379862\O,0,-1.19685,-1.561991,1.463149\H,0,-2.1
 60687,-1.680852,1.448046\O,0,1.42095,-2.031272,-1.00127\H,0,1.120257,-
 1.525701,-1.775028\C,0,2.408197,0.484179,-0.038436\H,0,3.166119,-0.153
 991,0.440134\H,0,2.526364,0.396405,-1.125702\O,0,2.569351,1.847805,0.3
 75543\H,0,3.424781,2.150636,0.030118\\Version=AM64L-G09RevC.01\State=1
 -A\HF=-594.1938948\RMSD=5.225e-09\Dipole=-0.8719899,-0.0277627,-0.6711
 291\Quadrupole=8.7493891,-6.1546176,-2.5947714,4.6119158,-1.1619695,-0
 .6979207\PG=C01 [X(C8H15N1O3)]\\@


 NO SCIENCE HAS EVER MADE MORE RAPID PROGRESS IN A
 SHORTER TIME THAN CHEMISTRY.
   -- MARTIN HEINRICH KLOPROTH, 1791
 (FIRST PROFESSOR OF CHEMISTRY AT THE UNIVERSITY OF BERLIN)
 Job cpu time:  0 days  0 hours  8 minutes 49.0 seconds.
 File lengths (MBytes):  RWF=    114 Int=      0 D2E=      0 Chk=      7 Scr=      1
 Normal termination of Gaussian 09 at Fri May 17 12:20:57 2024.
