 Entering Gaussian System, Link 0=g09
 Input=/home/mamichetti.iquir/Linux/03_Cardona_A1A3_R__S_S_R_025_OptB.gjc
 Output=/home/mamichetti.iquir/Linux/03_Cardona_A1A3_R__S_S_R_025_OptB.log
 Initial command:
 /opt/ohpc/pub/apps/software/Gaussian/09/AMD64.SSE4a-enabled/g09/l1.exe /local/mamichetti.iquir/Gau-123116.inp -scrdir=/local/mamichetti.iquir/
 Entering Link 1 = /opt/ohpc/pub/apps/software/Gaussian/09/AMD64.SSE4a-enabled/g09/l1.exe PID=    123117.
  
 Copyright (c) 1988,1990,1992,1993,1995,1998,2003,2009,2011,
            Gaussian, Inc.  All Rights Reserved.
  
 This is part of the Gaussian(R) 09 program.  It is based on
 the Gaussian(R) 03 system (copyright 2003, Gaussian, Inc.),
 the Gaussian(R) 98 system (copyright 1998, Gaussian, Inc.),
 the Gaussian(R) 94 system (copyright 1995, Gaussian, Inc.),
 the Gaussian 92(TM) system (copyright 1992, Gaussian, Inc.),
 the Gaussian 90(TM) system (copyright 1990, Gaussian, Inc.),
 the Gaussian 88(TM) system (copyright 1988, Gaussian, Inc.),
 the Gaussian 86(TM) system (copyright 1986, Carnegie Mellon
 University), and the Gaussian 82(TM) system (copyright 1983,
 Carnegie Mellon University). Gaussian is a federally registered
 trademark of Gaussian, Inc.
  
 This software contains proprietary and confidential information,
 including trade secrets, belonging to Gaussian, Inc.
  
 This software is provided under written license and may be
 used, copied, transmitted, or stored only in accord with that
 written license.
  
 The following legend is applicable only to US Government
 contracts under FAR:
  
                    RESTRICTED RIGHTS LEGEND
  
 Use, reproduction and disclosure by the US Government is
 subject to restrictions as set forth in subparagraphs (a)
 and (c) of the Commercial Computer Software - Restricted
 Rights clause in FAR 52.227-19.
  
 Gaussian, Inc.
 340 Quinnipiac St., Bldg. 40, Wallingford CT 06492
  
  
 ---------------------------------------------------------------
 Warning -- This program may not be used in any manner that
 competes with the business of Gaussian, Inc. or will provide
 assistance to any competitor of Gaussian, Inc.  The licensee
 of this program is prohibited from giving any competitor of
 Gaussian, Inc. access to this program.  By using this program,
 the user acknowledges that Gaussian, Inc. is engaged in the
 business of creating and licensing software in the field of
 computational chemistry and represents and warrants to the
 licensee that it is not a competitor of Gaussian, Inc. and that
 it will not use this program in any manner prohibited above.
 ---------------------------------------------------------------
  

 Cite this work as:
 Gaussian 09, Revision C.01,
 M. J. Frisch, G. W. Trucks, H. B. Schlegel, G. E. Scuseria, 
 M. A. Robb, J. R. Cheeseman, G. Scalmani, V. Barone, B. Mennucci, 
 G. A. Petersson, H. Nakatsuji, M. Caricato, X. Li, H. P. Hratchian, 
 A. F. Izmaylov, J. Bloino, G. Zheng, J. L. Sonnenberg, M. Hada, 
 M. Ehara, K. Toyota, R. Fukuda, J. Hasegawa, M. Ishida, T. Nakajima, 
 Y. Honda, O. Kitao, H. Nakai, T. Vreven, J. A. Montgomery, Jr., 
 J. E. Peralta, F. Ogliaro, M. Bearpark, J. J. Heyd, E. Brothers, 
 K. N. Kudin, V. N. Staroverov, T. Keith, R. Kobayashi, J. Normand, 
 K. Raghavachari, A. Rendell, J. C. Burant, S. S. Iyengar, J. Tomasi, 
 M. Cossi, N. Rega, J. M. Millam, M. Klene, J. E. Knox, J. B. Cross, 
 V. Bakken, C. Adamo, J. Jaramillo, R. Gomperts, R. E. Stratmann, 
 O. Yazyev, A. J. Austin, R. Cammi, C. Pomelli, J. W. Ochterski, 
 R. L. Martin, K. Morokuma, V. G. Zakrzewski, G. A. Voth, 
 P. Salvador, J. J. Dannenberg, S. Dapprich, A. D. Daniels, 
 O. Farkas, J. B. Foresman, J. V. Ortiz, J. Cioslowski, 
 and D. J. Fox, Gaussian, Inc., Wallingford CT, 2010.
 
 ******************************************
 Gaussian 09:  AM64L-G09RevC.01 23-Sep-2011
                17-May-2024 
 ******************************************
 %nprocshared=4
 Will use up to    4 processors via shared memory.
 ------------------------------------------------
 # mpw1pw91/6-31+G** nmr scrf=(pcm,solvent=water)
 ------------------------------------------------
 1/38=1/1;
 2/12=2,17=6,18=5,40=1/2;
 3/5=1,6=6,7=111,11=2,16=1,25=1,30=1,70=2201,72=1,74=-7/1,2,8,3;
 4//1;
 5/5=2,38=5,53=1/2;
 8/6=1,10=90,11=11/1;
 10/13=100,45=16/2;
 6/7=2,8=2,9=2,10=2,28=1/1;
 99/9=1/99;
 -------
 comment
 -------
 Charge =  0 Multiplicity = 1
 Symbolic Z-Matrix:
 6                    -2.40085   0.59173  -0.543 
 6                    -1.15382  -0.27372  -0.81944 
 7                     0.04393   0.61918  -0.62507 
 6                    -0.45858   1.95414  -0.2276 
 6                    -1.87093   1.73843   0.33197 
 6                     0.95301  -0.03385   0.34549 
 6                     0.60408  -1.52696   0.23272 
 6                    -0.92918  -1.48954   0.09728 
 1                    -2.78894   0.98816  -1.48814 
 1                    -3.20198   0.02007  -0.0671 
 1                    -1.17466  -0.64453  -1.85132 
 1                    -0.50354   2.60688  -1.11046 
 1                     0.22657   2.41941   0.48437 
 1                    -2.4895    2.64058   0.27762 
 1                    -1.82037   1.42499   1.38045 
 1                     0.72258   0.27654   1.37788 
 1                     0.91906  -2.09009   1.11542 
 1                    -1.31194  -2.41638  -0.3474 
 8                    -1.53962  -1.26071   1.37176 
 1                    -1.34482  -2.03653   1.92436 
 8                     1.22263  -2.1823   -0.88088 
 1                     1.02878  -1.66394  -1.6805 
 6                     2.42814   0.25177   0.10174 
 1                     3.03141  -0.41116   0.74046 
 1                     2.68659   0.04066  -0.94332 
 8                     2.69883   1.62401   0.41689 
 1                     3.62723   1.79093   0.186 
 
                          Input orientation:                          
 ---------------------------------------------------------------------
 Center     Atomic      Atomic             Coordinates (Angstroms)
 Number     Number       Type             X           Y           Z
 ---------------------------------------------------------------------
      1          6           0       -2.400850    0.591731   -0.543003
      2          6           0       -1.153820   -0.273718   -0.819442
      3          7           0        0.043933    0.619183   -0.625071
      4          6           0       -0.458581    1.954144   -0.227596
      5          6           0       -1.870925    1.738434    0.331972
      6          6           0        0.953012   -0.033845    0.345494
      7          6           0        0.604083   -1.526959    0.232720
      8          6           0       -0.929181   -1.489536    0.097284
      9          1           0       -2.788939    0.988156   -1.488144
     10          1           0       -3.201977    0.020066   -0.067100
     11          1           0       -1.174664   -0.644530   -1.851322
     12          1           0       -0.503538    2.606881   -1.110461
     13          1           0        0.226567    2.419405    0.484367
     14          1           0       -2.489498    2.640584    0.277623
     15          1           0       -1.820370    1.424988    1.380445
     16          1           0        0.722575    0.276536    1.377876
     17          1           0        0.919059   -2.090095    1.115415
     18          1           0       -1.311938   -2.416379   -0.347399
     19          8           0       -1.539617   -1.260709    1.371758
     20          1           0       -1.344815   -2.036525    1.924363
     21          8           0        1.222628   -2.182297   -0.880879
     22          1           0        1.028778   -1.663939   -1.680503
     23          6           0        2.428141    0.251766    0.101744
     24          1           0        3.031407   -0.411155    0.740460
     25          1           0        2.686591    0.040660   -0.943321
     26          8           0        2.698830    1.624009    0.416891
     27          1           0        3.627232    1.790934    0.186000
 ---------------------------------------------------------------------
                    Distance matrix (angstroms):
                    1          2          3          4          5
     1  C    0.000000
     2  C    1.542888   0.000000
     3  N    2.446314   1.506541   0.000000
     4  C    2.393337   2.407698   1.480752   0.000000
     5  C    1.536662   2.426675   2.415644   1.534393   0.000000
     6  C    3.525502   2.419371   1.481508   2.504621   3.334033
     7  C    3.757688   2.401641   2.378129   3.668681   4.098574
     8  C    2.628203   1.539176   2.432168   3.490837   3.370720
     9  H    1.095928   2.170968   2.984326   2.820050   2.172208
    10  H    1.093201   2.201653   3.347567   3.360452   2.209920
    11  H    2.177974   1.096682   2.141411   3.146803   3.306066
    12  H    2.825355   2.967391   2.118082   1.098880   2.169000
    13  H    3.361428   3.295193   2.122500   1.092148   2.210524
    14  H    2.208865   3.388325   3.364401   2.202514   1.095199
    15  H    2.175069   2.858215   2.854302   2.172619   1.095491
    16  H    3.680341   2.941402   2.142372   2.605195   3.155519
    17  H    4.578683   3.367451   3.336963   4.478553   4.801607
    18  H    3.205108   2.199732   3.336184   4.454665   4.246938
    19  O    2.799922   2.433998   3.166852   3.749914   3.191517
    20  H    3.756439   3.266869   3.934593   4.619716   4.130716
    21  O    4.575913   3.048599   3.050090   4.512581   5.139378
    22  H    4.259613   2.727247   2.701204   4.172973   4.902497
    23  C    4.883690   3.735661   2.519465   3.367450   4.554685
    24  H    5.671197   4.468591   3.442568   4.325712   5.368469
    25  H    5.132834   3.855248   2.723897   3.750439   5.027898
    26  O    5.290910   4.469094   3.023878   3.239382   4.571976
    27  H    6.189290   5.303976   3.856276   4.109935   5.500345
                    6          7          8          9         10
     6  C    0.000000
     7  C    1.537485   0.000000
     8  C    2.392341   1.539689   0.000000
     9  H    4.290561   4.560677   3.480121   0.000000
    10  H    4.175772   4.119378   2.733408   1.768379   0.000000
    11  H    3.118644   2.878516   2.138074   2.324531   2.781211
    12  H    3.348847   4.485487   4.291905   2.825946   3.880952
    13  H    2.562312   3.972359   4.094558   3.877183   4.220883
    14  H    4.359822   5.190441   4.418711   2.436825   2.737439
    15  H    3.300146   3.988638   3.306837   3.059044   2.445001
    16  H    1.102384   2.139630   2.736279   4.588159   4.189969
    17  H    2.195927   1.093381   2.193913   5.477536   4.778500
    18  H    3.359549   2.190603   1.096943   3.882485   3.096301
    19  O    2.961691   2.442078   1.431530   3.846718   2.544433
    20  H    3.432720   2.630497   1.951965   4.783241   3.412410
    21  O    2.488479   1.432539   2.463129   5.149098   5.008969
    22  H    2.601463   1.964574   2.650386   4.652480   4.830966
    23  C    1.522167   2.551118   3.782032   5.503448   5.637413
    24  H    2.148973   2.719323   4.154857   6.387580   6.300252
    25  H    2.161456   2.859605   4.061793   5.583548   5.953438
    26  O    2.408622   3.788203   4.791532   5.843721   6.134036
    27  H    3.241405   4.488878   5.615181   6.679406   7.059612
                   11         12         13         14         15
    11  H    0.000000
    12  H    3.401611   0.000000
    13  H    4.099584   1.763995   0.000000
    14  H    4.129548   2.423211   2.732887   0.000000
    15  H    3.891550   3.055410   2.445766   1.772462   0.000000
    16  H    3.856890   3.622938   2.374083   4.137232   2.790254
    17  H    3.908307   5.388867   4.605796   5.890626   4.464361
    18  H    2.328106   5.144795   5.142338   5.229739   4.242646
    19  O    3.301683   4.710958   4.177333   4.161669   2.700346
    20  H    4.027704   5.610626   4.939448   5.088949   3.536110
    21  O    3.008903   5.095938   4.902213   6.195336   5.233157
    22  H    2.433830   4.573056   4.690832   5.894187   5.198896
    23  C    4.194999   3.951044   3.113196   5.469969   4.589267
    24  H    4.945991   5.003028   3.993092   6.325166   5.226925
    25  H    4.025325   4.097603   3.707889   5.919646   5.256325
    26  O    5.029415   3.681576   2.597940   5.288815   4.625064
    27  H    5.756767   4.405660   3.471098   6.176138   5.589006
                   16         17         18         19         20
    16  H    0.000000
    17  H    2.389233   0.000000
    18  H    3.790463   2.687682   0.000000
    19  O    2.735082   2.607428   2.083965   0.000000
    20  H    3.150079   2.404660   2.303535   0.972219   0.000000
    21  O    3.376076   2.021347   2.600658   3.681534   3.805574
    22  H    3.634953   2.830336   2.796835   4.009432   4.332185
    23  C    2.130277   2.964653   4.616158   4.432112   4.774245
    24  H    2.491972   2.724233   4.906017   4.691965   4.816095
    25  H    3.049746   3.450026   4.730793   4.991391   5.365682
    26  O    2.577743   4.177330   5.744139   5.215151   5.658891
    27  H    3.485829   4.822904   6.510100   6.116770   6.510960
                   21         22         23         24         25
    21  O    0.000000
    22  H    0.972456   0.000000
    23  C    2.888507   2.967246   0.000000
    24  H    3.006221   3.382462   1.100614   0.000000
    25  H    2.662447   2.489466   1.097052   1.777119   0.000000
    26  O    4.283847   4.242492   1.433751   2.087390   2.087420
    27  H    4.765177   4.708709   1.952935   2.347686   2.285526
                   26         27
    26  O    0.000000
    27  H    0.971136   0.000000
 Stoichiometry    C8H15NO3
 Framework group  C1[X(C8H15NO3)]
 Deg. of freedom    75
 Full point group                 C1      NOp   1
 Largest Abelian subgroup         C1      NOp   1
 Largest concise Abelian subgroup C1      NOp   1
                         Standard orientation:                         
 ---------------------------------------------------------------------
 Center     Atomic      Atomic             Coordinates (Angstroms)
 Number     Number       Type             X           Y           Z
 ---------------------------------------------------------------------
      1          6           0        2.400850   -0.591731   -0.543003
      2          6           0        1.153820    0.273718   -0.819442
      3          7           0       -0.043933   -0.619183   -0.625071
      4          6           0        0.458581   -1.954144   -0.227596
      5          6           0        1.870925   -1.738434    0.331972
      6          6           0       -0.953012    0.033845    0.345494
      7          6           0       -0.604083    1.526959    0.232720
      8          6           0        0.929181    1.489536    0.097284
      9          1           0        2.788939   -0.988156   -1.488144
     10          1           0        3.201977   -0.020066   -0.067100
     11          1           0        1.174664    0.644530   -1.851322
     12          1           0        0.503538   -2.606881   -1.110461
     13          1           0       -0.226567   -2.419405    0.484367
     14          1           0        2.489498   -2.640584    0.277623
     15          1           0        1.820370   -1.424988    1.380445
     16          1           0       -0.722575   -0.276536    1.377876
     17          1           0       -0.919059    2.090095    1.115415
     18          1           0        1.311938    2.416379   -0.347399
     19          8           0        1.539617    1.260709    1.371758
     20          1           0        1.344815    2.036525    1.924363
     21          8           0       -1.222628    2.182297   -0.880879
     22          1           0       -1.028778    1.663939   -1.680503
     23          6           0       -2.428141   -0.251766    0.101744
     24          1           0       -3.031407    0.411155    0.740460
     25          1           0       -2.686591   -0.040660   -0.943321
     26          8           0       -2.698830   -1.624009    0.416891
     27          1           0       -3.627232   -1.790934    0.186000
 ---------------------------------------------------------------------
 Rotational constants (GHZ):      1.1957940      0.9074983      0.6275696
 Standard basis: 6-31+G(d,p) (6D, 7F)
 There are   303 symmetry adapted basis functions of A   symmetry.
 Integral buffers will be    131072 words long.
 Raffenetti 2 integral format.
 Two-electron integral symmetry is turned on.
   303 basis functions,   489 primitive gaussians,   303 cartesian basis functions
    47 alpha electrons       47 beta electrons
       nuclear repulsion energy       811.8293299000 Hartrees.
 NAtoms=   27 NActive=   27 NUniq=   27 SFac= 1.00D+00 NAtFMM=   60 NAOKFM=F Big=F
 ------------------------------------------------------------------------------
 Polarizable Continuum Model (PCM)
 =================================
 Model                : PCM.
 Atomic radii         : UFF (Universal Force Field).
 Polarization charges : Total charges.
 Charge compensation  : None.
 Solution method      : Matrix inversion.
 Cavity type          : Scaled VdW (van der Waals Surface) (Alpha=1.100).
 Cavity algorithm     : GePol (No added spheres)
                        Default sphere list used, NSphG=   27.
                        Lebedev-Laikov grids with approx.  5.0 points / Ang**2.
                        Smoothing algorithm: Karplus/York (Gamma=1.0000).
                        Polarization charges: spherical gaussians, with
                                              point-specific exponents (IZeta= 3).
                        Self-potential: point-specific (ISelfS= 7).
                        Self-field    : sphere-specific E.n sum rule (ISelfD= 2).
 Solvent              : Water, Eps=  78.355300 Eps(inf)=   1.777849
 ------------------------------------------------------------------------------
 One-electron integrals computed using PRISM.
 NBasis=   303 RedAO= T  NBF=   303
 NBsUse=   303 1.00D-06 NBFU=   303
 Harris functional with IExCor=  908 diagonalized for initial guess.
 ExpMin= 4.38D-02 ExpMax= 5.48D+03 ExpMxC= 8.25D+02 IAcc=2 IRadAn=         4 AccDes= 0.00D+00
 HarFok:  IExCor=  908 AccDes= 0.00D+00 IRadAn=         4 IDoV= 1
 ScaDFX=  1.000000  1.000000  1.000000  1.000000
 FoFCou: FMM=F IPFlag=           0 FMFlag=      100000 FMFlg1=           0
         NFxFlg=           0 DoJE=T BraDBF=F KetDBF=T FulRan=T
         Omega=  0.000000  0.000000  1.000000  0.000000  0.000000 ICntrl=     500 IOpCl=  0
         NMat0=    1 NMatS0=    1 NMatT0=    0 NMatD0=    1 NMtDS0=    0 NMtDT0=    0
         I1Cent=           4 NGrid=           0.
 Petite list used in FoFCou.
 Initial guess orbital symmetries:
       Occupied  (A) (A) (A) (A) (A) (A) (A) (A) (A) (A) (A) (A)
                 (A) (A) (A) (A) (A) (A) (A) (A) (A) (A) (A) (A)
                 (A) (A) (A) (A) (A) (A) (A) (A) (A) (A) (A) (A)
                 (A) (A) (A) (A) (A) (A) (A) (A) (A) (A) (A)
       Virtual   (A) (A) (A) (A) (A) (A) (A) (A) (A) (A) (A) (A)
                 (A) (A) (A) (A) (A) (A) (A) (A) (A) (A) (A) (A)
                 (A) (A) (A) (A) (A) (A) (A) (A) (A) (A) (A) (A)
                 (A) (A) (A) (A) (A) (A) (A) (A) (A) (A) (A) (A)
                 (A) (A) (A) (A) (A) (A) (A) (A) (A) (A) (A) (A)
                 (A) (A) (A) (A) (A) (A) (A) (A) (A) (A) (A) (A)
                 (A) (A) (A) (A) (A) (A) (A) (A) (A) (A) (A) (A)
                 (A) (A) (A) (A) (A) (A) (A) (A) (A) (A) (A) (A)
                 (A) (A) (A) (A) (A) (A) (A) (A) (A) (A) (A) (A)
                 (A) (A) (A) (A) (A) (A) (A) (A) (A) (A) (A) (A)
                 (A) (A) (A) (A) (A) (A) (A) (A) (A) (A) (A) (A)
                 (A) (A) (A) (A) (A) (A) (A) (A) (A) (A) (A) (A)
                 (A) (A) (A) (A) (A) (A) (A) (A) (A) (A) (A) (A)
                 (A) (A) (A) (A) (A) (A) (A) (A) (A) (A) (A) (A)
                 (A) (A) (A) (A) (A) (A) (A) (A) (A) (A) (A) (A)
                 (A) (A) (A) (A) (A) (A) (A) (A) (A) (A) (A) (A)
                 (A) (A) (A) (A) (A) (A) (A) (A) (A) (A) (A) (A)
                 (A) (A) (A) (A) (A) (A) (A) (A) (A) (A) (A) (A)
                 (A) (A) (A) (A) (A) (A) (A) (A) (A) (A) (A) (A)
                 (A) (A) (A) (A) (A) (A) (A) (A) (A) (A) (A) (A)
                 (A) (A) (A) (A) (A) (A) (A) (A) (A) (A) (A) (A)
                 (A) (A) (A) (A)
 The electronic state of the initial guess is 1-A.
 Requested convergence on RMS density matrix=1.00D-08 within 128 cycles.
 Requested convergence on MAX density matrix=1.00D-06.
 Requested convergence on             energy=1.00D-06.
 No special actions if energy rises.
 Error on total polarization charges =  0.01409
 SCF Done:  E(RmPW1PW91) =  -594.194025852     A.U. after   13 cycles
             Convg  =    0.3274D-08             -V/T =  2.0094
 Range of M.O.s used for correlation:     1   303
 NBasis=   303 NAE=    47 NBE=    47 NFC=     0 NFV=     0
 NROrb=    303 NOA=    47 NOB=    47 NVA=   256 NVB=   256

 **** Warning!!: The largest alpha MO coefficient is  0.88728677D+02

 NEqPCM:  Using equilibrium solvation (IEInf=0, Eps=  78.3553, EpsInf=   1.7778)
          Differentiating once with respect to magnetic field using GIAOs.
          Electric field/nuclear overlap derivatives assumed to be zero.
 FoFCou: FMM=F IPFlag=           0 FMFlag=    10101102 FMFlg1=           0
         NFxFlg=    40000000 DoJE=F BraDBF=F KetDBF=T FulRan=T
         Omega=  0.000000  0.000000  1.000000  0.000000  0.000000 ICntrl=    6100 IOpCl=  0
         NMat0=    1 NMatS0=    1 NMatT0=    0 NMatD0=    1 NMtDS0=    0 NMtDT0=    0
         I1Cent=           7 NGrid=        1827.
 Symmetry not used in FoFCou.
          There are     3 degrees of freedom in the 1st order CPHF.  IDoFFX=0.
      3 vectors produced by pass  0 Test12= 4.01D-13 3.33D-08 XBig12= 3.93D+01 1.57D+00.
 AX will form     3 AO Fock derivatives at one time.
      3 vectors produced by pass  1 Test12= 4.01D-13 3.33D-08 XBig12= 9.90D-02 6.18D-02.
      3 vectors produced by pass  2 Test12= 4.01D-13 3.33D-08 XBig12= 1.84D-04 3.03D-03.
      3 vectors produced by pass  3 Test12= 4.01D-13 3.33D-08 XBig12= 8.66D-07 2.13D-04.
      3 vectors produced by pass  4 Test12= 4.01D-13 3.33D-08 XBig12= 3.07D-09 7.26D-06.
      3 vectors produced by pass  5 Test12= 4.01D-13 3.33D-08 XBig12= 1.09D-11 5.34D-07.
      1 vectors produced by pass  6 Test12= 4.01D-13 3.33D-08 XBig12= 3.92D-14 3.57D-08.
 Inverted reduced A of dimension    19 with in-core refinement.
 Calculating GIAO nuclear magnetic shielding tensors.
 SCF GIAO Magnetic shielding tensor (ppm):
      1  C    Isotropic =   168.2703   Anisotropy =    23.6491
   XX=   177.1777   YX=    -1.0960   ZX=     0.3483
   XY=    -0.8068   YY=   174.0307   ZY=   -16.4828
   XZ=    -6.6744   YZ=   -18.2233   ZZ=   153.6024
   Eigenvalues:   143.3741   177.4003   184.0364
      2  C    Isotropic =   127.4174   Anisotropy =    62.9108
   XX=   152.5573   YX=    20.4862   ZX=    -1.0033
   XY=    22.7614   YY=   141.5121   ZY=    -3.6182
   XZ=    -3.3280   YZ=     7.0483   ZZ=    88.1829
   Eigenvalues:    87.9816   124.9127   169.3579
      3  N    Isotropic =   189.9239   Anisotropy =    82.1856
   XX=   232.2300   YX=     8.3092   ZX=   -31.3989
   XY=    -3.3080   YY=   200.9295   ZY=    -3.2169
   XZ=   -41.3026   YZ=    -1.9951   ZZ=   136.6120
   Eigenvalues:   124.3256   200.7318   244.7142
      4  C    Isotropic =   140.4961   Anisotropy =    56.4891
   XX=   139.7252   YX=   -18.5933   ZX=     2.2608
   XY=   -10.7904   YY=   167.1234   ZY=   -16.0657
   XZ=    16.2939   YZ=   -13.2738   ZZ=   114.6397
   Eigenvalues:   109.7279   133.6049   178.1555
      5  C    Isotropic =   168.3025   Anisotropy =    24.3988
   XX=   174.9689   YX=     0.4346   ZX=     5.1529
   XY=     2.2712   YY=   179.4874   ZY=    -8.6440
   XZ=     9.7897   YZ=   -16.9912   ZZ=   150.4513
   Eigenvalues:   143.8107   176.5285   184.5684
      6  C    Isotropic =   127.6920   Anisotropy =    35.7558
   XX=   132.1724   YX=   -11.6651   ZX=   -11.8086
   XY=    -5.7532   YY=   135.0523   ZY=    14.3166
   XZ=   -22.3227   YZ=     2.5202   ZZ=   115.8512
   Eigenvalues:   104.8635   126.6832   151.5291
      7  C    Isotropic =   111.1996   Anisotropy =    29.4957
   XX=   122.1756   YX=    -8.1309   ZX=    13.2192
   XY=     2.5562   YY=   105.7577   ZY=     0.5378
   XZ=    12.2688   YZ=   -17.4578   ZZ=   105.6656
   Eigenvalues:    94.8787   107.8567   130.8635
      8  C    Isotropic =   116.4044   Anisotropy =    30.0585
   XX=   124.2345   YX=     0.1480   ZX=    14.9372
   XY=    -8.7498   YY=   103.5960   ZY=   -11.1401
   XZ=    10.0232   YZ=     2.9435   ZZ=   121.3827
   Eigenvalues:   102.5179   110.2519   136.4434
      9  H    Isotropic =    29.8984   Anisotropy =    12.4500
   XX=    30.3431   YX=    -2.7464   ZX=    -5.7342
   XY=    -3.1429   YY=    26.7570   ZY=     1.1238
   XZ=    -6.1527   YZ=     1.1839   ZZ=    32.5950
   Eigenvalues:    24.2223    27.2745    38.1984
     10  H    Isotropic =    29.4724   Anisotropy =     9.4457
   XX=    34.5299   YX=     2.2831   ZX=     1.2429
   XY=     2.9446   YY=    28.5469   ZY=     1.8786
   XZ=     0.9685   YZ=     1.4976   ZZ=    25.3404
   Eigenvalues:    24.6155    28.0322    35.7695
     11  H    Isotropic =    27.7296   Anisotropy =     8.2880
   XX=    26.1471   YX=     0.2170   ZX=    -1.7350
   XY=    -0.1837   YY=    25.6582   ZY=    -3.7675
   XZ=    -2.0786   YZ=    -2.6515   ZZ=    31.3836
   Eigenvalues:    23.9114    26.0225    33.2549
     12  H    Isotropic =    28.6043   Anisotropy =    11.5394
   XX=    25.7687   YX=    -1.4884   ZX=     0.9749
   XY=    -0.7264   YY=    33.2476   ZY=     5.8027
   XZ=     2.3323   YZ=     4.9576   ZZ=    26.7967
   Eigenvalues:    22.5318    26.9839    36.2973
     13  H    Isotropic =    28.4176   Anisotropy =     7.6715
   XX=    30.9137   YX=     1.2392   ZX=    -1.2218
   XY=     1.6650   YY=    30.7540   ZY=    -3.5920
   XZ=    -2.0778   YZ=    -2.9611   ZZ=    23.5850
   Eigenvalues:    22.1902    29.5306    33.5319
     14  H    Isotropic =    30.1337   Anisotropy =    12.7617
   XX=    30.4358   YX=    -5.1473   ZX=     0.5656
   XY=    -5.7385   YY=    34.6569   ZY=    -1.6280
   XZ=     0.9473   YZ=    -1.8240   ZZ=    25.3082
   Eigenvalues:    24.9811    26.7784    38.6414
     15  H    Isotropic =    29.8272   Anisotropy =     8.0013
   XX=    27.1605   YX=    -0.2559   ZX=     1.3028
   XY=    -0.1738   YY=    27.5608   ZY=    -0.1858
   XZ=     1.8856   YZ=    -1.3210   ZZ=    34.7602
   Eigenvalues:    26.8338    27.4865    35.1614
     16  H    Isotropic =    28.4286   Anisotropy =     5.4482
   XX=    28.8454   YX=    -0.2289   ZX=    -1.2831
   XY=     1.1002   YY=    25.5755   ZY=     1.0428
   XZ=    -2.6336   YZ=    -0.8010   ZZ=    30.8647
   Eigenvalues:    25.4859    27.7391    32.0607
     17  H    Isotropic =    27.7820   Anisotropy =     5.3241
   XX=    26.0721   YX=    -2.0007   ZX=     0.4878
   XY=    -2.3254   YY=    28.4512   ZY=     1.9052
   XZ=     0.1786   YZ=     2.8192   ZZ=    28.8227
   Eigenvalues:    24.2329    27.7818    31.3314
     18  H    Isotropic =    27.6529   Anisotropy =     6.5691
   XX=    25.2503   YX=     1.8481   ZX=     1.6057
   XY=     2.3350   YY=    30.6876   ZY=    -1.7935
   XZ=     1.0650   YZ=    -2.6756   ZZ=    27.0207
   Eigenvalues:    23.3519    27.5744    32.0323
     19  O    Isotropic =   291.7333   Anisotropy =    78.0638
   XX=   273.6941   YX=   -12.6730   ZX=   -23.3901
   XY=   -12.2995   YY=   289.5099   ZY=    38.8010
   XZ=     3.5296   YZ=    37.1750   ZZ=   311.9961
   Eigenvalues:   259.6495   271.7746   343.7759
     20  H    Isotropic =    30.3444   Anisotropy =    20.4358
   XX=    23.5888   YX=    -2.2658   ZX=     2.2360
   XY=    -2.0468   YY=    33.5933   ZY=     9.2960
   XZ=     1.6340   YZ=    11.1926   ZZ=    33.8511
   Eigenvalues:    20.6381    26.4269    43.9683
     21  O    Isotropic =   298.4861   Anisotropy =    29.9730
   XX=   288.3577   YX=    -6.0818   ZX=   -15.2525
   XY=     0.6567   YY=   290.7937   ZY=    18.5307
   XZ=     8.8627   YZ=    -4.9668   ZZ=   316.3070
   Eigenvalues:   286.5533   290.4369   318.4681
     22  H    Isotropic =    30.3409   Anisotropy =    13.0764
   XX=    24.0607   YX=    -4.2071   ZX=     0.9059
   XY=    -3.3013   YY=    28.7609   ZY=     2.4638
   XZ=     1.0623   YZ=     3.4767   ZZ=    38.2010
   Eigenvalues:    21.6523    30.3118    39.0585
     23  C    Isotropic =   127.4092   Anisotropy =    46.6166
   XX=   122.1925   YX=     6.8145   ZX=    -2.8510
   XY=    16.5267   YY=   151.1753   ZY=   -13.5865
   XZ=    -5.2993   YZ=   -10.2493   ZZ=   108.8598
   Eigenvalues:   105.6623   118.0784   158.4869
     24  H    Isotropic =    27.5295   Anisotropy =     6.0967
   XX=    29.5512   YX=    -0.0045   ZX=    -2.8583
   XY=    -1.4941   YY=    29.9644   ZY=     1.6523
   XZ=    -3.5725   YZ=     0.3188   ZZ=    23.0727
   Eigenvalues:    21.6997    29.2947    31.5940
     25  H    Isotropic =    27.8331   Anisotropy =     5.6445
   XX=    27.8601   YX=     2.1198   ZX=     2.2286
   XY=     1.2413   YY=    29.4285   ZY=    -4.7574
   XZ=     2.6768   YZ=    -2.0662   ZZ=    26.2108
   Eigenvalues:    22.4233    29.4800    31.5962
     26  O    Isotropic =   313.0479   Anisotropy =    84.3273
   XX=   357.2520   YX=    37.3437   ZX=    10.1451
   XY=    18.7580   YY=   290.5965   ZY=    -0.0746
   XZ=    14.6251   YZ=     0.8620   ZZ=   291.2952
   Eigenvalues:   278.9679   290.9097   369.2661
     27  H    Isotropic =    30.2023   Anisotropy =    21.5727
   XX=    41.5805   YX=     5.5551   ZX=     4.3002
   XY=     7.1457   YY=    27.6446   ZY=    -0.3137
   XZ=     3.7429   YZ=    -0.8684   ZZ=    21.3818
   Eigenvalues:    20.0744    25.9485    44.5841
 End of Minotr Frequency-dependent properties file   721 does not exist.
 End of Minotr Frequency-dependent properties file   722 does not exist.

 **********************************************************************

            Population analysis using the SCF density.

 **********************************************************************

 Orbital symmetries:
       Occupied  (A) (A) (A) (A) (A) (A) (A) (A) (A) (A) (A) (A)
                 (A) (A) (A) (A) (A) (A) (A) (A) (A) (A) (A) (A)
                 (A) (A) (A) (A) (A) (A) (A) (A) (A) (A) (A) (A)
                 (A) (A) (A) (A) (A) (A) (A) (A) (A) (A) (A)
       Virtual   (A) (A) (A) (A) (A) (A) (A) (A) (A) (A) (A) (A)
                 (A) (A) (A) (A) (A) (A) (A) (A) (A) (A) (A) (A)
                 (A) (A) (A) (A) (A) (A) (A) (A) (A) (A) (A) (A)
                 (A) (A) (A) (A) (A) (A) (A) (A) (A) (A) (A) (A)
                 (A) (A) (A) (A) (A) (A) (A) (A) (A) (A) (A) (A)
                 (A) (A) (A) (A) (A) (A) (A) (A) (A) (A) (A) (A)
                 (A) (A) (A) (A) (A) (A) (A) (A) (A) (A) (A) (A)
                 (A) (A) (A) (A) (A) (A) (A) (A) (A) (A) (A) (A)
                 (A) (A) (A) (A) (A) (A) (A) (A) (A) (A) (A) (A)
                 (A) (A) (A) (A) (A) (A) (A) (A) (A) (A) (A) (A)
                 (A) (A) (A) (A) (A) (A) (A) (A) (A) (A) (A) (A)
                 (A) (A) (A) (A) (A) (A) (A) (A) (A) (A) (A) (A)
                 (A) (A) (A) (A) (A) (A) (A) (A) (A) (A) (A) (A)
                 (A) (A) (A) (A) (A) (A) (A) (A) (A) (A) (A) (A)
                 (A) (A) (A) (A) (A) (A) (A) (A) (A) (A) (A) (A)
                 (A) (A) (A) (A) (A) (A) (A) (A) (A) (A) (A) (A)
                 (A) (A) (A) (A) (A) (A) (A) (A) (A) (A) (A) (A)
                 (A) (A) (A) (A) (A) (A) (A) (A) (A) (A) (A) (A)
                 (A) (A) (A) (A) (A) (A) (A) (A) (A) (A) (A) (A)
                 (A) (A) (A) (A) (A) (A) (A) (A) (A) (A) (A) (A)
                 (A) (A) (A) (A) (A) (A) (A) (A) (A) (A) (A) (A)
                 (A) (A) (A) (A)
 The electronic state is 1-A.
 Alpha  occ. eigenvalues --  -19.26152 -19.25856 -19.25362 -14.40968 -10.30737
 Alpha  occ. eigenvalues --  -10.30332 -10.29376 -10.27933 -10.27808 -10.26320
 Alpha  occ. eigenvalues --  -10.24378 -10.23908  -1.07253  -1.05773  -1.05405
 Alpha  occ. eigenvalues --   -0.95773  -0.82364  -0.78969  -0.75406  -0.71685
 Alpha  occ. eigenvalues --   -0.66343  -0.62476  -0.59564  -0.57058  -0.54876
 Alpha  occ. eigenvalues --   -0.54035  -0.52457  -0.50636  -0.48699  -0.46491
 Alpha  occ. eigenvalues --   -0.46028  -0.44518  -0.42461  -0.41900  -0.41127
 Alpha  occ. eigenvalues --   -0.38985  -0.38127  -0.37805  -0.36747  -0.35209
 Alpha  occ. eigenvalues --   -0.34617  -0.34309  -0.32675  -0.31821  -0.29618
 Alpha  occ. eigenvalues --   -0.28246  -0.23058
 Alpha virt. eigenvalues --    0.00536   0.01412   0.01780   0.02147   0.03068
 Alpha virt. eigenvalues --    0.04245   0.04761   0.05018   0.05508   0.07155
 Alpha virt. eigenvalues --    0.07440   0.08177   0.08383   0.08775   0.09419
 Alpha virt. eigenvalues --    0.10716   0.11544   0.12355   0.12581   0.12866
 Alpha virt. eigenvalues --    0.13290   0.13492   0.14202   0.15046   0.15595
 Alpha virt. eigenvalues --    0.15851   0.16841   0.17275   0.17858   0.18426
 Alpha virt. eigenvalues --    0.19338   0.19841   0.20463   0.20787   0.21005
 Alpha virt. eigenvalues --    0.21193   0.21463   0.22713   0.22822   0.23273
 Alpha virt. eigenvalues --    0.23640   0.24101   0.24824   0.25305   0.25424
 Alpha virt. eigenvalues --    0.26754   0.27306   0.27655   0.28186   0.28786
 Alpha virt. eigenvalues --    0.29237   0.29852   0.30998   0.31715   0.32397
 Alpha virt. eigenvalues --    0.32739   0.33262   0.33847   0.34051   0.34976
 Alpha virt. eigenvalues --    0.35160   0.35671   0.36234   0.37637   0.38362
 Alpha virt. eigenvalues --    0.39539   0.39781   0.41416   0.41939   0.42475
 Alpha virt. eigenvalues --    0.43580   0.44453   0.44652   0.45518   0.46200
 Alpha virt. eigenvalues --    0.47703   0.65000   0.67544   0.67924   0.68860
 Alpha virt. eigenvalues --    0.70229   0.70744   0.72169   0.73294   0.74936
 Alpha virt. eigenvalues --    0.77261   0.78789   0.80117   0.80669   0.81518
 Alpha virt. eigenvalues --    0.83945   0.84461   0.85488   0.87920   0.88342
 Alpha virt. eigenvalues --    0.90215   0.90771   0.93011   0.94317   0.97140
 Alpha virt. eigenvalues --    0.99029   1.00030   1.03338   1.03570   1.04418
 Alpha virt. eigenvalues --    1.05560   1.06150   1.07146   1.09831   1.11128
 Alpha virt. eigenvalues --    1.12075   1.13330   1.13996   1.15279   1.16111
 Alpha virt. eigenvalues --    1.16444   1.18636   1.20155   1.24369   1.25529
 Alpha virt. eigenvalues --    1.27683   1.27945   1.28434   1.30436   1.32191
 Alpha virt. eigenvalues --    1.33868   1.35894   1.37272   1.40505   1.41831
 Alpha virt. eigenvalues --    1.43144   1.45571   1.48249   1.49720   1.52177
 Alpha virt. eigenvalues --    1.56085   1.57281   1.58115   1.59560   1.60539
 Alpha virt. eigenvalues --    1.63174   1.64845   1.66482   1.68980   1.71180
 Alpha virt. eigenvalues --    1.72592   1.75953   1.77631   1.78504   1.80128
 Alpha virt. eigenvalues --    1.81659   1.82948   1.83912   1.85747   1.88815
 Alpha virt. eigenvalues --    1.89587   1.90060   1.93159   1.93686   1.95882
 Alpha virt. eigenvalues --    1.97876   1.99096   2.01672   2.02497   2.03506
 Alpha virt. eigenvalues --    2.04837   2.06332   2.08917   2.09776   2.12734
 Alpha virt. eigenvalues --    2.13445   2.16325   2.17071   2.17576   2.19606
 Alpha virt. eigenvalues --    2.21022   2.22135   2.24662   2.27634   2.28226
 Alpha virt. eigenvalues --    2.30791   2.33692   2.35571   2.37805   2.39994
 Alpha virt. eigenvalues --    2.43122   2.43655   2.45477   2.47161   2.48430
 Alpha virt. eigenvalues --    2.49496   2.51489   2.53400   2.53567   2.54794
 Alpha virt. eigenvalues --    2.56459   2.56975   2.61220   2.62690   2.63317
 Alpha virt. eigenvalues --    2.64725   2.66035   2.67310   2.68051   2.69096
 Alpha virt. eigenvalues --    2.70224   2.71219   2.75991   2.77309   2.77499
 Alpha virt. eigenvalues --    2.78229   2.79578   2.81120   2.84408   2.86182
 Alpha virt. eigenvalues --    2.87663   2.89136   2.89944   2.94042   2.96255
 Alpha virt. eigenvalues --    2.96645   2.97903   3.02155   3.03871   3.04052
 Alpha virt. eigenvalues --    3.05614   3.08274   3.10881   3.14105   3.33369
 Alpha virt. eigenvalues --    3.36085   3.37374   3.39754   3.43355   3.45379
 Alpha virt. eigenvalues --    3.45882   3.49807   3.54040   3.55340   3.55749
 Alpha virt. eigenvalues --    3.56536   3.57649   3.60307   3.60529   4.31950
 Alpha virt. eigenvalues --    4.33055   4.39304   4.45652   4.52694   4.59216
 Alpha virt. eigenvalues --    4.62233   4.71611   4.79078   4.82911   4.88085
 Alpha virt. eigenvalues --    4.99492
          Condensed to atoms (all electrons):
              1          2          3          4          5          6
     1  C    6.292603  -0.758962   0.080876   0.124910   0.067177   0.022849
     2  C   -0.758962   8.098570  -0.151262  -0.081863  -0.105048  -0.785757
     3  N    0.080876  -0.151262   7.501802   0.110044  -0.111056  -0.234464
     4  C    0.124910  -0.081863   0.110044   6.009909  -0.013773  -0.408288
     5  C    0.067177  -0.105048  -0.111056  -0.013773   5.576114   0.148629
     6  C    0.022849  -0.785757  -0.234464  -0.408288   0.148629   9.681125
     7  C   -0.404607   0.886668  -0.092721  -0.166949  -0.013293  -2.017717
     8  C    0.149045  -1.052000  -0.108660  -0.121732   0.175871   1.157097
     9  H    0.441028  -0.108010   0.011680  -0.002168  -0.046427   0.017389
    10  H    0.412507  -0.122909   0.017193   0.021968  -0.024844  -0.002574
    11  H    0.000527   0.240466  -0.019409  -0.025524   0.029396  -0.014744
    12  H    0.012012  -0.035030  -0.026131   0.357474  -0.034434   0.026956
    13  H    0.020022   0.024578  -0.070270   0.415482  -0.039772   0.017596
    14  H   -0.042840   0.034590   0.013127  -0.033752   0.357090   0.002831
    15  H   -0.050417  -0.019931   0.012251  -0.087854   0.448020   0.023627
    16  H    0.003608   0.033016  -0.065781   0.077941  -0.013997   0.280438
    17  H    0.015018  -0.006756   0.024905   0.002166  -0.000591   0.005002
    18  H    0.003510  -0.021686   0.014429   0.002442  -0.010239  -0.008591
    19  O    0.001261  -0.241334   0.051509  -0.004795  -0.000619  -0.107624
    20  H    0.005784   0.035031  -0.002983   0.002172  -0.002813  -0.007789
    21  O    0.022896   0.014905   0.046979   0.016597  -0.005249  -0.221209
    22  H    0.017790   0.022421   0.026626   0.008843  -0.002726  -0.043351
    23  C    0.042042   0.010767   0.133902   0.097604  -0.099366  -1.297491
    24  H    0.000552   0.006395   0.000003  -0.008440   0.001237  -0.101870
    25  H    0.001306   0.003359   0.022365   0.017455  -0.001611  -0.143858
    26  O    0.002336   0.004532  -0.013388  -0.027223   0.005176   0.056267
    27  H   -0.000272  -0.002475  -0.001354  -0.000407   0.000059   0.044279
              7          8          9         10         11         12
     1  C   -0.404607   0.149045   0.441028   0.412507   0.000527   0.012012
     2  C    0.886668  -1.052000  -0.108010  -0.122909   0.240466  -0.035030
     3  N   -0.092721  -0.108660   0.011680   0.017193  -0.019409  -0.026131
     4  C   -0.166949  -0.121732  -0.002168   0.021968  -0.025524   0.357474
     5  C   -0.013293   0.175871  -0.046427  -0.024844   0.029396  -0.034434
     6  C   -2.017717   1.157097   0.017389  -0.002574  -0.014744   0.026956
     7  C    8.298421  -1.504117  -0.015761  -0.001356   0.006869   0.001143
     8  C   -1.504117   7.291924   0.033027   0.037084   0.043054   0.007423
     9  H   -0.015761   0.033027   0.529571  -0.025464  -0.007520   0.001403
    10  H   -0.001356   0.037084  -0.025464   0.509697   0.002784  -0.000031
    11  H    0.006869   0.043054  -0.007520   0.002784   0.566512   0.000904
    12  H    0.001143   0.007423   0.001403  -0.000031   0.000904   0.559622
    13  H    0.007507  -0.016756  -0.000109  -0.000138  -0.000187  -0.030179
    14  H    0.005388  -0.002378  -0.005265   0.000902  -0.000049  -0.003413
    15  H   -0.004074   0.014364   0.004173  -0.005392  -0.000097   0.004097
    16  H   -0.036669  -0.034851  -0.000011  -0.000022  -0.000567  -0.000384
    17  H    0.259673   0.059804   0.000003  -0.000009  -0.000123   0.000003
    18  H    0.086934   0.234486  -0.000019   0.000243  -0.003271   0.000005
    19  O    0.105481   0.175248  -0.000392   0.000659   0.009816   0.000227
    20  H   -0.066833   0.057712  -0.000001  -0.000230  -0.000269   0.000000
    21  O    0.367425  -0.137357  -0.000015  -0.000011  -0.000784   0.000078
    22  H   -0.009605  -0.027685   0.000009  -0.000002  -0.000714   0.000007
    23  C    0.473952  -0.431390  -0.000920   0.000091   0.004696   0.001958
    24  H    0.031559   0.008705   0.000000   0.000000  -0.000006  -0.000002
    25  H   -0.009093  -0.022368   0.000000   0.000000  -0.000019   0.000016
    26  O    0.060661  -0.019047  -0.000024  -0.000001  -0.000046  -0.000640
    27  H   -0.006950   0.003191   0.000000   0.000000   0.000000   0.000007
             13         14         15         16         17         18
     1  C    0.020022  -0.042840  -0.050417   0.003608   0.015018   0.003510
     2  C    0.024578   0.034590  -0.019931   0.033016  -0.006756  -0.021686
     3  N   -0.070270   0.013127   0.012251  -0.065781   0.024905   0.014429
     4  C    0.415482  -0.033752  -0.087854   0.077941   0.002166   0.002442
     5  C   -0.039772   0.357090   0.448020  -0.013997  -0.000591  -0.010239
     6  C    0.017596   0.002831   0.023627   0.280438   0.005002  -0.008591
     7  C    0.007507   0.005388  -0.004074  -0.036669   0.259673   0.086934
     8  C   -0.016756  -0.002378   0.014364  -0.034851   0.059804   0.234486
     9  H   -0.000109  -0.005265   0.004173  -0.000011   0.000003  -0.000019
    10  H   -0.000138   0.000902  -0.005392  -0.000022  -0.000009   0.000243
    11  H   -0.000187  -0.000049  -0.000097  -0.000567  -0.000123  -0.003271
    12  H   -0.030179  -0.003413   0.004097  -0.000384   0.000003   0.000005
    13  H    0.518942   0.001032  -0.005701   0.002274  -0.000012   0.000004
    14  H    0.001032   0.530033  -0.025159  -0.000132  -0.000001   0.000005
    15  H   -0.005701  -0.025159   0.515150  -0.000053   0.000017   0.000021
    16  H    0.002274  -0.000132  -0.000053   0.560682  -0.003150  -0.000088
    17  H   -0.000012  -0.000001   0.000017  -0.003150   0.536221  -0.002867
    18  H    0.000004   0.000005   0.000021  -0.000088  -0.002867   0.560425
    19  O    0.000499   0.000458  -0.001156   0.001815  -0.012976  -0.034355
    20  H    0.000000  -0.000002   0.000058   0.000484   0.004298  -0.006663
    21  O   -0.000028   0.000002  -0.000011   0.009542  -0.047423  -0.002358
    22  H   -0.000003   0.000000   0.000001  -0.000045   0.006179  -0.000956
    23  C   -0.019143   0.001066  -0.001204   0.003571  -0.017491   0.015328
    24  H   -0.000040   0.000000   0.000000  -0.003264   0.001157  -0.000006
    25  H    0.000075   0.000000   0.000001   0.004695   0.000151   0.000000
    26  O    0.000596   0.000034  -0.000264   0.003621  -0.000781   0.000038
    27  H    0.000039   0.000000   0.000000  -0.000079  -0.000001   0.000000
             19         20         21         22         23         24
     1  C    0.001261   0.005784   0.022896   0.017790   0.042042   0.000552
     2  C   -0.241334   0.035031   0.014905   0.022421   0.010767   0.006395
     3  N    0.051509  -0.002983   0.046979   0.026626   0.133902   0.000003
     4  C   -0.004795   0.002172   0.016597   0.008843   0.097604  -0.008440
     5  C   -0.000619  -0.002813  -0.005249  -0.002726  -0.099366   0.001237
     6  C   -0.107624  -0.007789  -0.221209  -0.043351  -1.297491  -0.101870
     7  C    0.105481  -0.066833   0.367425  -0.009605   0.473952   0.031559
     8  C    0.175248   0.057712  -0.137357  -0.027685  -0.431390   0.008705
     9  H   -0.000392  -0.000001  -0.000015   0.000009  -0.000920   0.000000
    10  H    0.000659  -0.000230  -0.000011  -0.000002   0.000091   0.000000
    11  H    0.009816  -0.000269  -0.000784  -0.000714   0.004696  -0.000006
    12  H    0.000227   0.000000   0.000078   0.000007   0.001958  -0.000002
    13  H    0.000499   0.000000  -0.000028  -0.000003  -0.019143  -0.000040
    14  H    0.000458  -0.000002   0.000002   0.000000   0.001066   0.000000
    15  H   -0.001156   0.000058  -0.000011   0.000001  -0.001204   0.000000
    16  H    0.001815   0.000484   0.009542  -0.000045   0.003571  -0.003264
    17  H   -0.012976   0.004298  -0.047423   0.006179  -0.017491   0.001157
    18  H   -0.034355  -0.006663  -0.002358  -0.000956   0.015328  -0.000006
    19  O    8.330191   0.228134   0.005243  -0.000304   0.057581  -0.000243
    20  H    0.228134   0.371423   0.000300   0.000017  -0.006217   0.000003
    21  O    0.005243   0.000300   8.160716   0.267087   0.010055  -0.005663
    22  H   -0.000304   0.000017   0.267087   0.352837   0.000174   0.000455
    23  C    0.057581  -0.006217   0.010055   0.000174   6.223578   0.436340
    24  H   -0.000243   0.000003  -0.005663   0.000455   0.436340   0.579401
    25  H    0.000152   0.000001   0.009716  -0.000422   0.492274  -0.044906
    26  O    0.000773  -0.000003  -0.003106  -0.000142   0.002117  -0.055677
    27  H   -0.000013   0.000000   0.000215  -0.000007  -0.027680  -0.004016
             25         26         27
     1  C    0.001306   0.002336  -0.000272
     2  C    0.003359   0.004532  -0.002475
     3  N    0.022365  -0.013388  -0.001354
     4  C    0.017455  -0.027223  -0.000407
     5  C   -0.001611   0.005176   0.000059
     6  C   -0.143858   0.056267   0.044279
     7  C   -0.009093   0.060661  -0.006950
     8  C   -0.022368  -0.019047   0.003191
     9  H    0.000000  -0.000024   0.000000
    10  H    0.000000  -0.000001   0.000000
    11  H   -0.000019  -0.000046   0.000000
    12  H    0.000016  -0.000640   0.000007
    13  H    0.000075   0.000596   0.000039
    14  H    0.000000   0.000034   0.000000
    15  H    0.000001  -0.000264   0.000000
    16  H    0.004695   0.003621  -0.000079
    17  H    0.000151  -0.000781  -0.000001
    18  H    0.000000   0.000038   0.000000
    19  O    0.000152   0.000773  -0.000013
    20  H    0.000001  -0.000003   0.000000
    21  O    0.009716  -0.003106   0.000215
    22  H   -0.000422  -0.000142  -0.000007
    23  C    0.492274   0.002117  -0.027680
    24  H   -0.044906  -0.055677  -0.004016
    25  H    0.565196  -0.050449  -0.005194
    26  O   -0.050449   8.401382   0.226205
    27  H   -0.005194   0.226205   0.379082
 Mulliken atomic charges:
              1
     1  C   -0.482562
     2  C    0.077726
     3  N   -0.170211
     4  C   -0.282240
     5  C   -0.282913
     6  C   -0.088762
     7  C   -0.241939
     8  C    0.030307
     9  H    0.173823
    10  H    0.179854
    11  H    0.168304
    12  H    0.156908
    13  H    0.173689
    14  H    0.166432
    15  H    0.179533
    16  H    0.177404
    17  H    0.177580
    18  H    0.173229
    19  O   -0.565235
    20  H    0.388385
    21  O   -0.508542
    22  H    0.383517
    23  C   -0.106195
    24  H    0.158327
    25  H    0.161159
    26  O   -0.592949
    27  H    0.395371
 Sum of Mulliken atomic charges =   0.00000
 Mulliken charges with hydrogens summed into heavy atoms:
              1
     1  C   -0.128885
     2  C    0.246030
     3  N   -0.170211
     4  C    0.048356
     5  C    0.063052
     6  C    0.088642
     7  C   -0.064358
     8  C    0.203536
    19  O   -0.176850
    21  O   -0.125025
    23  C    0.213291
    26  O   -0.197578
 Sum of Mulliken charges with hydrogens summed into heavy atoms =   0.00000
 Electronic spatial extent (au):  <R**2>=           1979.6196
 Charge=              0.0000 electrons
 Dipole moment (field-independent basis, Debye):
    X=             -0.2031    Y=              1.2993    Z=              0.0598  Tot=              1.3165
 Quadrupole moment (field-independent basis, Debye-Ang):
   XX=            -66.7425   YY=            -74.9586   ZZ=            -70.5363
   XY=              3.3497   XZ=             -1.6979   YZ=              5.2813
 Traceless Quadrupole moment (field-independent basis, Debye-Ang):
   XX=              4.0033   YY=             -4.2128   ZZ=              0.2095
   XY=              3.3497   XZ=             -1.6979   YZ=              5.2813
 Octapole moment (field-independent basis, Debye-Ang**2):
  XXX=            -59.7434  YYY=              2.6623  ZZZ=              1.4282  XYY=             17.2200
  XXY=            -16.5560  XXZ=             -7.1010  XZZ=             -1.7248  YZZ=             17.3717
  YYZ=             15.6099  XYZ=             -3.7233
 Hexadecapole moment (field-independent basis, Debye-Ang**3):
 XXXX=          -1093.6120 YYYY=           -961.1346 ZZZZ=           -279.3385 XXXY=             96.0585
 XXXZ=              2.5442 YYYX=             59.6638 YYYZ=             56.3722 ZZZX=             19.3639
 ZZZY=             10.4316 XXYY=           -360.8055 XXZZ=           -272.1999 YYZZ=           -185.3520
 XXYZ=             18.0610 YYXZ=              5.0578 ZZXY=              3.7265
 N-N= 8.118293299000D+02 E-N=-3.010085784861D+03  KE= 5.886526989286D+02
 1\1\GINC-COMPUTE-3-2\SP\RmPW1PW91\6-31+G(d,p)\C8H15N1O3\MAMICHETTI.IQU
 IR\17-May-2024\0\\# mpw1pw91/6-31+G** nmr scrf=(pcm,solvent=water)\\co
 mment\\0,1\C,0,-2.40085,0.591731,-0.543003\C,0,-1.15382,-0.273718,-0.8
 19442\N,0,0.043933,0.619183,-0.625071\C,0,-0.458581,1.954144,-0.227596
 \C,0,-1.870925,1.738434,0.331972\C,0,0.953012,-0.033845,0.345494\C,0,0
 .604083,-1.526959,0.23272\C,0,-0.929181,-1.489536,0.097284\H,0,-2.7889
 39,0.988156,-1.488144\H,0,-3.201977,0.020066,-0.0671\H,0,-1.174664,-0.
 64453,-1.851322\H,0,-0.503538,2.606881,-1.110461\H,0,0.226567,2.419405
 ,0.484367\H,0,-2.489498,2.640584,0.277623\H,0,-1.82037,1.424988,1.3804
 45\H,0,0.722575,0.276536,1.377876\H,0,0.919059,-2.090095,1.115415\H,0,
 -1.311938,-2.416379,-0.347399\O,0,-1.539617,-1.260709,1.371758\H,0,-1.
 344815,-2.036525,1.924363\O,0,1.222628,-2.182297,-0.880879\H,0,1.02877
 8,-1.663939,-1.680503\C,0,2.428141,0.251766,0.101744\H,0,3.031407,-0.4
 11155,0.74046\H,0,2.686591,0.04066,-0.943321\O,0,2.69883,1.624009,0.41
 6891\H,0,3.627232,1.790934,0.186\\Version=AM64L-G09RevC.01\State=1-A\H
 F=-594.1940259\RMSD=3.274e-09\Dipole=0.0799035,-0.5112017,0.0235128\Qu
 adrupole=2.9763568,-3.1321053,0.1557484,2.4903925,1.2623493,-3.9265218
 \PG=C01 [X(C8H15N1O3)]\\@


 Experience is what you get when you don't get what you want.
 -- Dan Stanford
 Job cpu time:  0 days  0 hours  8 minutes 52.1 seconds.
 File lengths (MBytes):  RWF=    113 Int=      0 D2E=      0 Chk=      7 Scr=      1
 Normal termination of Gaussian 09 at Fri May 17 12:15:00 2024.
