 Entering Gaussian System, Link 0=g09
 Input=/home/mamichetti.iquir/Linux/03_Cardona_A1A3_R__S_S_R_010_OptB.gjc
 Output=/home/mamichetti.iquir/Linux/03_Cardona_A1A3_R__S_S_R_010_OptB.log
 Initial command:
 /opt/ohpc/pub/apps/software/Gaussian/09/AMD64.SSE4a-enabled/g09/l1.exe /local/mamichetti.iquir/Gau-123848.inp -scrdir=/local/mamichetti.iquir/
 Entering Link 1 = /opt/ohpc/pub/apps/software/Gaussian/09/AMD64.SSE4a-enabled/g09/l1.exe PID=    123849.
  
 Copyright (c) 1988,1990,1992,1993,1995,1998,2003,2009,2011,
            Gaussian, Inc.  All Rights Reserved.
  
 This is part of the Gaussian(R) 09 program.  It is based on
 the Gaussian(R) 03 system (copyright 2003, Gaussian, Inc.),
 the Gaussian(R) 98 system (copyright 1998, Gaussian, Inc.),
 the Gaussian(R) 94 system (copyright 1995, Gaussian, Inc.),
 the Gaussian 92(TM) system (copyright 1992, Gaussian, Inc.),
 the Gaussian 90(TM) system (copyright 1990, Gaussian, Inc.),
 the Gaussian 88(TM) system (copyright 1988, Gaussian, Inc.),
 the Gaussian 86(TM) system (copyright 1986, Carnegie Mellon
 University), and the Gaussian 82(TM) system (copyright 1983,
 Carnegie Mellon University). Gaussian is a federally registered
 trademark of Gaussian, Inc.
  
 This software contains proprietary and confidential information,
 including trade secrets, belonging to Gaussian, Inc.
  
 This software is provided under written license and may be
 used, copied, transmitted, or stored only in accord with that
 written license.
  
 The following legend is applicable only to US Government
 contracts under FAR:
  
                    RESTRICTED RIGHTS LEGEND
  
 Use, reproduction and disclosure by the US Government is
 subject to restrictions as set forth in subparagraphs (a)
 and (c) of the Commercial Computer Software - Restricted
 Rights clause in FAR 52.227-19.
  
 Gaussian, Inc.
 340 Quinnipiac St., Bldg. 40, Wallingford CT 06492
  
  
 ---------------------------------------------------------------
 Warning -- This program may not be used in any manner that
 competes with the business of Gaussian, Inc. or will provide
 assistance to any competitor of Gaussian, Inc.  The licensee
 of this program is prohibited from giving any competitor of
 Gaussian, Inc. access to this program.  By using this program,
 the user acknowledges that Gaussian, Inc. is engaged in the
 business of creating and licensing software in the field of
 computational chemistry and represents and warrants to the
 licensee that it is not a competitor of Gaussian, Inc. and that
 it will not use this program in any manner prohibited above.
 ---------------------------------------------------------------
  

 Cite this work as:
 Gaussian 09, Revision C.01,
 M. J. Frisch, G. W. Trucks, H. B. Schlegel, G. E. Scuseria, 
 M. A. Robb, J. R. Cheeseman, G. Scalmani, V. Barone, B. Mennucci, 
 G. A. Petersson, H. Nakatsuji, M. Caricato, X. Li, H. P. Hratchian, 
 A. F. Izmaylov, J. Bloino, G. Zheng, J. L. Sonnenberg, M. Hada, 
 M. Ehara, K. Toyota, R. Fukuda, J. Hasegawa, M. Ishida, T. Nakajima, 
 Y. Honda, O. Kitao, H. Nakai, T. Vreven, J. A. Montgomery, Jr., 
 J. E. Peralta, F. Ogliaro, M. Bearpark, J. J. Heyd, E. Brothers, 
 K. N. Kudin, V. N. Staroverov, T. Keith, R. Kobayashi, J. Normand, 
 K. Raghavachari, A. Rendell, J. C. Burant, S. S. Iyengar, J. Tomasi, 
 M. Cossi, N. Rega, J. M. Millam, M. Klene, J. E. Knox, J. B. Cross, 
 V. Bakken, C. Adamo, J. Jaramillo, R. Gomperts, R. E. Stratmann, 
 O. Yazyev, A. J. Austin, R. Cammi, C. Pomelli, J. W. Ochterski, 
 R. L. Martin, K. Morokuma, V. G. Zakrzewski, G. A. Voth, 
 P. Salvador, J. J. Dannenberg, S. Dapprich, A. D. Daniels, 
 O. Farkas, J. B. Foresman, J. V. Ortiz, J. Cioslowski, 
 and D. J. Fox, Gaussian, Inc., Wallingford CT, 2010.
 
 ******************************************
 Gaussian 09:  AM64L-G09RevC.01 23-Sep-2011
                17-May-2024 
 ******************************************
 %nprocshared=4
 Will use up to    4 processors via shared memory.
 ------------------------------------------------
 # mpw1pw91/6-31+G** nmr scrf=(pcm,solvent=water)
 ------------------------------------------------
 1/38=1/1;
 2/12=2,17=6,18=5,40=1/2;
 3/5=1,6=6,7=111,11=2,16=1,25=1,30=1,70=2201,72=1,74=-7/1,2,8,3;
 4//1;
 5/5=2,38=5,53=1/2;
 8/6=1,10=90,11=11/1;
 10/13=100,45=16/2;
 6/7=2,8=2,9=2,10=2,28=1/1;
 99/9=1/99;
 -------
 comment
 -------
 Charge =  0 Multiplicity = 1
 Symbolic Z-Matrix:
 6                    -2.3656    0.54126  -0.66682 
 6                    -1.07484  -0.28008  -0.85565 
 7                     0.06174   0.65021  -0.5451 
 6                    -0.51244   1.93398  -0.07534 
 6                    -1.96272   1.63872   0.33064 
 6                     0.97555  -0.02605   0.40558 
 6                     0.63946  -1.52435   0.27539 
 6                    -0.88214  -1.5028    0.06782 
 1                    -2.65771   0.98953  -1.62318 
 1                    -3.20942  -0.06943  -0.3261 
 1                    -0.99467  -0.63429  -1.89189 
 1                    -0.49569   2.66931  -0.89136 
 1                     0.09169   2.34242   0.73958 
 1                    -2.60558   2.52351   0.27706 
 1                    -1.99819   1.25105   1.35393 
 1                     0.74893   0.2712    1.44169 
 1                     0.91126  -2.07927   1.17621 
 1                    -1.23584  -2.42956  -0.40054 
 8                    -1.46614  -1.34982   1.36666 
 1                    -2.42811  -1.28044   1.25035 
 8                     1.3123   -2.18928  -0.79906 
 1                     1.13954  -1.69888  -1.6206 
 6                     2.44433   0.29818   0.1418 
 1                     3.07277  -0.22984   0.86704 
 1                     2.73201  -0.03143  -0.86406 
 8                     2.73644   1.69209   0.30647 
 1                     2.26644   2.15757  -0.40543 
 
                          Input orientation:                          
 ---------------------------------------------------------------------
 Center     Atomic      Atomic             Coordinates (Angstroms)
 Number     Number       Type             X           Y           Z
 ---------------------------------------------------------------------
      1          6           0       -2.365600    0.541256   -0.666822
      2          6           0       -1.074837   -0.280079   -0.855650
      3          7           0        0.061736    0.650205   -0.545102
      4          6           0       -0.512438    1.933978   -0.075340
      5          6           0       -1.962721    1.638718    0.330639
      6          6           0        0.975549   -0.026052    0.405576
      7          6           0        0.639460   -1.524345    0.275387
      8          6           0       -0.882137   -1.502796    0.067824
      9          1           0       -2.657712    0.989528   -1.623176
     10          1           0       -3.209419   -0.069433   -0.326103
     11          1           0       -0.994666   -0.634294   -1.891889
     12          1           0       -0.495687    2.669312   -0.891363
     13          1           0        0.091687    2.342421    0.739582
     14          1           0       -2.605577    2.523505    0.277059
     15          1           0       -1.998193    1.251053    1.353929
     16          1           0        0.748934    0.271199    1.441686
     17          1           0        0.911256   -2.079267    1.176213
     18          1           0       -1.235840   -2.429557   -0.400543
     19          8           0       -1.466142   -1.349824    1.366659
     20          1           0       -2.428109   -1.280435    1.250352
     21          8           0        1.312295   -2.189277   -0.799061
     22          1           0        1.139540   -1.698884   -1.620595
     23          6           0        2.444334    0.298182    0.141803
     24          1           0        3.072770   -0.229836    0.867044
     25          1           0        2.732012   -0.031431   -0.864061
     26          8           0        2.736441    1.692094    0.306466
     27          1           0        2.266440    2.157572   -0.405425
 ---------------------------------------------------------------------
                    Distance matrix (angstroms):
                    1          2          3          4          5
     1  C    0.000000
     2  C    1.541531   0.000000
     3  N    2.432827   1.501222   0.000000
     4  C    2.392433   2.413965   1.482709   0.000000
     5  C    1.536770   2.424335   2.417128   1.534705   0.000000
     6  C    3.554596   2.420600   1.481947   2.507410   3.377944
     7  C    3.766278   2.401303   2.394919   3.661950   4.096262
     8  C    2.630307   1.544336   2.429401   3.459565   3.332543
     9  H    1.095851   2.169445   2.944959   2.808911   2.172983
    10  H    1.095929   2.209351   3.356530   3.369012   2.214350
    11  H    2.182239   1.098038   2.140037   3.182517   3.323153
    12  H    2.841763   3.005927   2.123066   1.098586   2.169701
    13  H    3.355656   3.283755   2.124831   1.093568   2.209757
    14  H    2.208577   3.389141   3.361512   2.202943   1.094981
    15  H    2.173070   2.842392   2.865422   2.171788   1.094836
    16  H    3.770817   2.984594   2.136168   2.580167   3.233822
    17  H    4.582762   3.363051   3.336859   4.438403   4.774741
    18  H    3.189513   2.203021   3.345076   4.435032   4.196885
    19  O    2.918947   2.497225   3.160594   3.711101   3.201767
    20  H    2.645377   2.695793   3.626342   3.969850   3.095789
    21  O    4.582599   3.057227   3.113045   4.566690   5.162896
    22  H    4.267777   2.738907   2.799387   4.279548   4.956907
    23  C    4.883485   3.703223   2.504502   3.386072   4.610296
    24  H    5.702911   4.491419   3.440197   4.292306   5.397721
    25  H    5.133471   3.814970   2.774299   3.874451   5.124180
    26  O    5.320013   4.445877   2.994119   3.280167   4.699527
    27  H    4.912901   4.160406   2.674394   2.807332   4.323980
                    6          7          8          9         10
     6  C    0.000000
     7  C    1.541034   0.000000
     8  C    2.397050   1.535840   0.000000
     9  H    4.283436   4.560202   3.496259   0.000000
    10  H    4.248670   4.158417   2.761512   1.763002   0.000000
    11  H    3.087078   2.856509   2.146493   2.339813   2.770539
    12  H    3.333403   4.498513   4.298356   2.834004   3.896740
    13  H    2.549988   3.932863   4.023094   3.869385   4.224929
    14  H    4.397865   5.188001   4.384646   2.442682   2.729791
    15  H    3.372464   3.977851   3.237797   3.060476   2.456269
    16  H    1.101470   2.143879   2.773977   4.638385   4.348525
    17  H    2.194016   1.092382   2.185659   5.476460   4.824557
    18  H    3.364061   2.189301   1.096977   3.899576   3.077457
    19  O    2.939032   2.378002   1.432283   3.978884   2.746609
    20  H    3.724515   3.228007   1.959042   3.669143   2.135926
    21  O    2.498818   1.431531   2.457291   5.152176   5.016306
    22  H    2.632609   1.968576   2.641285   4.652600   4.821231
    23  C    1.527100   2.568466   3.783438   5.442792   5.684980
    24  H    2.157039   2.819009   4.230895   6.366040   6.396501
    25  H    2.167295   2.811745   4.011907   5.537846   5.965857
    26  O    2.462233   3.839762   4.833051   5.771828   6.233488
    27  H    2.663144   4.082534   4.851370   5.205239   5.911927
                   11         12         13         14         15
    11  H    0.000000
    12  H    3.487670   0.000000
    13  H    4.118936   1.764043   0.000000
    14  H    4.155847   2.416217   2.742618   0.000000
    15  H    3.885477   3.051282   2.436412   1.774175   0.000000
    16  H    3.869468   3.569754   2.283612   4.204995   2.917965
    17  H    3.890210   5.366876   4.518148   5.861920   4.425778
    18  H    2.346326   5.175635   5.082715   5.183449   4.148041
    19  O    3.369333   4.711040   4.056196   4.181892   2.654770
    20  H    3.513678   4.890981   4.442448   3.930490   2.569822
    21  O    2.989032   5.184902   4.938987   6.222385   5.237420
    22  H    2.400372   4.720899   4.795892   5.954457   5.234051
    23  C    4.102699   3.915790   3.173516   5.520141   4.702474
    24  H    4.931464   4.922493   3.939493   6.338185   5.305163
    25  H    3.912544   4.208658   3.895916   6.026584   5.379506
    26  O    4.915893   3.582792   2.757760   5.406410   4.869133
    27  H    4.543006   2.850852   2.464703   4.933178   4.701510
                   16         17         18         19         20
    16  H    0.000000
    17  H    2.370973   0.000000
    18  H    3.824555   2.686798   0.000000
    19  O    2.745889   2.494069   2.083714   0.000000
    20  H    3.540873   3.434383   2.338256   0.971454   0.000000
    21  O    3.375243   2.018574   2.590279   3.621427   4.360815
    22  H    3.662153   2.831773   2.768545   3.979335   4.598430
    23  C    2.136540   3.012075   4.612849   4.416788   5.240383
    24  H    2.445703   2.861490   5.000967   4.701671   5.613408
    25  H    3.056248   3.416358   4.659368   4.933434   5.714683
    26  O    2.694040   4.279127   5.767745   5.295184   6.033194
    27  H    3.045168   4.721113   5.771286   5.419804   6.049817
                   21         22         23         24         25
    21  O    0.000000
    22  H    0.972238   0.000000
    23  C    2.890362   2.965941   0.000000
    24  H    3.116823   3.476180   1.095312   0.000000
    25  H    2.583819   2.426666   1.096889   1.775445   0.000000
    26  O    4.279652   4.214545   1.433677   2.030069   2.083433
    27  H    4.467711   4.197475   1.946390   2.822953   2.284478
                   26         27
    26  O    0.000000
    27  H    0.971782   0.000000
 Stoichiometry    C8H15NO3
 Framework group  C1[X(C8H15NO3)]
 Deg. of freedom    75
 Full point group                 C1      NOp   1
 Largest Abelian subgroup         C1      NOp   1
 Largest concise Abelian subgroup C1      NOp   1
                         Standard orientation:                         
 ---------------------------------------------------------------------
 Center     Atomic      Atomic             Coordinates (Angstroms)
 Number     Number       Type             X           Y           Z
 ---------------------------------------------------------------------
      1          6           0        2.365600   -0.541256   -0.666822
      2          6           0        1.074837    0.280079   -0.855650
      3          7           0       -0.061736   -0.650205   -0.545102
      4          6           0        0.512438   -1.933978   -0.075340
      5          6           0        1.962721   -1.638718    0.330639
      6          6           0       -0.975549    0.026052    0.405576
      7          6           0       -0.639460    1.524345    0.275387
      8          6           0        0.882137    1.502796    0.067824
      9          1           0        2.657712   -0.989528   -1.623176
     10          1           0        3.209419    0.069434   -0.326103
     11          1           0        0.994666    0.634294   -1.891889
     12          1           0        0.495687   -2.669312   -0.891363
     13          1           0       -0.091687   -2.342421    0.739582
     14          1           0        2.605577   -2.523505    0.277059
     15          1           0        1.998193   -1.251053    1.353929
     16          1           0       -0.748934   -0.271199    1.441686
     17          1           0       -0.911256    2.079267    1.176213
     18          1           0        1.235840    2.429557   -0.400543
     19          8           0        1.466142    1.349824    1.366659
     20          1           0        2.428109    1.280435    1.250352
     21          8           0       -1.312295    2.189277   -0.799061
     22          1           0       -1.139540    1.698884   -1.620595
     23          6           0       -2.444334   -0.298182    0.141803
     24          1           0       -3.072770    0.229836    0.867044
     25          1           0       -2.732012    0.031431   -0.864061
     26          8           0       -2.736441   -1.692094    0.306466
     27          1           0       -2.266440   -2.157572   -0.405425
 ---------------------------------------------------------------------
 Rotational constants (GHZ):      1.2025474      0.9101781      0.6252557
 Standard basis: 6-31+G(d,p) (6D, 7F)
 There are   303 symmetry adapted basis functions of A   symmetry.
 Integral buffers will be    131072 words long.
 Raffenetti 2 integral format.
 Two-electron integral symmetry is turned on.
   303 basis functions,   489 primitive gaussians,   303 cartesian basis functions
    47 alpha electrons       47 beta electrons
       nuclear repulsion energy       812.8309925141 Hartrees.
 NAtoms=   27 NActive=   27 NUniq=   27 SFac= 1.00D+00 NAtFMM=   60 NAOKFM=F Big=F
 ------------------------------------------------------------------------------
 Polarizable Continuum Model (PCM)
 =================================
 Model                : PCM.
 Atomic radii         : UFF (Universal Force Field).
 Polarization charges : Total charges.
 Charge compensation  : None.
 Solution method      : Matrix inversion.
 Cavity type          : Scaled VdW (van der Waals Surface) (Alpha=1.100).
 Cavity algorithm     : GePol (No added spheres)
                        Default sphere list used, NSphG=   27.
                        Lebedev-Laikov grids with approx.  5.0 points / Ang**2.
                        Smoothing algorithm: Karplus/York (Gamma=1.0000).
                        Polarization charges: spherical gaussians, with
                                              point-specific exponents (IZeta= 3).
                        Self-potential: point-specific (ISelfS= 7).
                        Self-field    : sphere-specific E.n sum rule (ISelfD= 2).
 Solvent              : Water, Eps=  78.355300 Eps(inf)=   1.777849
 ------------------------------------------------------------------------------
 One-electron integrals computed using PRISM.
 NBasis=   303 RedAO= T  NBF=   303
 NBsUse=   303 1.00D-06 NBFU=   303
 Harris functional with IExCor=  908 diagonalized for initial guess.
 ExpMin= 4.38D-02 ExpMax= 5.48D+03 ExpMxC= 8.25D+02 IAcc=2 IRadAn=         4 AccDes= 0.00D+00
 HarFok:  IExCor=  908 AccDes= 0.00D+00 IRadAn=         4 IDoV= 1
 ScaDFX=  1.000000  1.000000  1.000000  1.000000
 FoFCou: FMM=F IPFlag=           0 FMFlag=      100000 FMFlg1=           0
         NFxFlg=           0 DoJE=T BraDBF=F KetDBF=T FulRan=T
         Omega=  0.000000  0.000000  1.000000  0.000000  0.000000 ICntrl=     500 IOpCl=  0
         NMat0=    1 NMatS0=    1 NMatT0=    0 NMatD0=    1 NMtDS0=    0 NMtDT0=    0
         I1Cent=           4 NGrid=           0.
 Petite list used in FoFCou.
 Initial guess orbital symmetries:
       Occupied  (A) (A) (A) (A) (A) (A) (A) (A) (A) (A) (A) (A)
                 (A) (A) (A) (A) (A) (A) (A) (A) (A) (A) (A) (A)
                 (A) (A) (A) (A) (A) (A) (A) (A) (A) (A) (A) (A)
                 (A) (A) (A) (A) (A) (A) (A) (A) (A) (A) (A)
       Virtual   (A) (A) (A) (A) (A) (A) (A) (A) (A) (A) (A) (A)
                 (A) (A) (A) (A) (A) (A) (A) (A) (A) (A) (A) (A)
                 (A) (A) (A) (A) (A) (A) (A) (A) (A) (A) (A) (A)
                 (A) (A) (A) (A) (A) (A) (A) (A) (A) (A) (A) (A)
                 (A) (A) (A) (A) (A) (A) (A) (A) (A) (A) (A) (A)
                 (A) (A) (A) (A) (A) (A) (A) (A) (A) (A) (A) (A)
                 (A) (A) (A) (A) (A) (A) (A) (A) (A) (A) (A) (A)
                 (A) (A) (A) (A) (A) (A) (A) (A) (A) (A) (A) (A)
                 (A) (A) (A) (A) (A) (A) (A) (A) (A) (A) (A) (A)
                 (A) (A) (A) (A) (A) (A) (A) (A) (A) (A) (A) (A)
                 (A) (A) (A) (A) (A) (A) (A) (A) (A) (A) (A) (A)
                 (A) (A) (A) (A) (A) (A) (A) (A) (A) (A) (A) (A)
                 (A) (A) (A) (A) (A) (A) (A) (A) (A) (A) (A) (A)
                 (A) (A) (A) (A) (A) (A) (A) (A) (A) (A) (A) (A)
                 (A) (A) (A) (A) (A) (A) (A) (A) (A) (A) (A) (A)
                 (A) (A) (A) (A) (A) (A) (A) (A) (A) (A) (A) (A)
                 (A) (A) (A) (A) (A) (A) (A) (A) (A) (A) (A) (A)
                 (A) (A) (A) (A) (A) (A) (A) (A) (A) (A) (A) (A)
                 (A) (A) (A) (A) (A) (A) (A) (A) (A) (A) (A) (A)
                 (A) (A) (A) (A) (A) (A) (A) (A) (A) (A) (A) (A)
                 (A) (A) (A) (A) (A) (A) (A) (A) (A) (A) (A) (A)
                 (A) (A) (A) (A)
 The electronic state of the initial guess is 1-A.
 Requested convergence on RMS density matrix=1.00D-08 within 128 cycles.
 Requested convergence on MAX density matrix=1.00D-06.
 Requested convergence on             energy=1.00D-06.
 No special actions if energy rises.
 Error on total polarization charges =  0.01427
 SCF Done:  E(RmPW1PW91) =  -594.194351726     A.U. after   13 cycles
             Convg  =    0.3187D-08             -V/T =  2.0094
 Range of M.O.s used for correlation:     1   303
 NBasis=   303 NAE=    47 NBE=    47 NFC=     0 NFV=     0
 NROrb=    303 NOA=    47 NOB=    47 NVA=   256 NVB=   256

 **** Warning!!: The largest alpha MO coefficient is  0.89743526D+02

 NEqPCM:  Using equilibrium solvation (IEInf=0, Eps=  78.3553, EpsInf=   1.7778)
          Differentiating once with respect to magnetic field using GIAOs.
          Electric field/nuclear overlap derivatives assumed to be zero.
 FoFCou: FMM=F IPFlag=           0 FMFlag=    10101102 FMFlg1=           0
         NFxFlg=    40000000 DoJE=F BraDBF=F KetDBF=T FulRan=T
         Omega=  0.000000  0.000000  1.000000  0.000000  0.000000 ICntrl=    6100 IOpCl=  0
         NMat0=    1 NMatS0=    1 NMatT0=    0 NMatD0=    1 NMtDS0=    0 NMtDT0=    0
         I1Cent=           7 NGrid=        1796.
 Symmetry not used in FoFCou.
          There are     3 degrees of freedom in the 1st order CPHF.  IDoFFX=0.
      3 vectors produced by pass  0 Test12= 4.01D-13 3.33D-08 XBig12= 3.44D+01 1.15D+00.
 AX will form     3 AO Fock derivatives at one time.
      3 vectors produced by pass  1 Test12= 4.01D-13 3.33D-08 XBig12= 8.11D-02 3.42D-02.
      3 vectors produced by pass  2 Test12= 4.01D-13 3.33D-08 XBig12= 1.40D-04 2.65D-03.
      3 vectors produced by pass  3 Test12= 4.01D-13 3.33D-08 XBig12= 6.94D-07 1.56D-04.
      3 vectors produced by pass  4 Test12= 4.01D-13 3.33D-08 XBig12= 2.19D-09 6.73D-06.
      3 vectors produced by pass  5 Test12= 4.01D-13 3.33D-08 XBig12= 8.12D-12 5.24D-07.
 Inverted reduced A of dimension    18 with in-core refinement.
 Calculating GIAO nuclear magnetic shielding tensors.
 SCF GIAO Magnetic shielding tensor (ppm):
      1  C    Isotropic =   168.0976   Anisotropy =    24.4838
   XX=   176.3799   YX=    -1.5354   ZX=    -1.5467
   XY=    -2.2004   YY=   171.7530   ZY=   -18.0673
   XZ=    -7.9979   YZ=   -19.4239   ZZ=   156.1601
   Eigenvalues:   142.9048   176.9680   184.4202
      2  C    Isotropic =   126.4511   Anisotropy =    61.1506
   XX=   146.9104   YX=    20.7724   ZX=    -6.0842
   XY=    23.3002   YY=   142.0991   ZY=    -7.0564
   XZ=    -9.6393   YZ=     5.2377   ZZ=    90.3438
   Eigenvalues:    89.1751   122.9601   167.2182
      3  N    Isotropic =   194.6097   Anisotropy =    82.4527
   XX=   231.4108   YX=     1.7586   ZX=   -35.7082
   XY=    -4.8008   YY=   206.0429   ZY=    -9.2008
   XZ=   -50.2918   YZ=   -13.7382   ZZ=   146.3752
   Eigenvalues:   126.8450   207.4059   249.5781
      4  C    Isotropic =   139.7855   Anisotropy =    59.3158
   XX=   140.9721   YX=   -22.5887   ZX=     1.0530
   XY=   -13.0395   YY=   162.8161   ZY=   -20.1791
   XZ=    15.2682   YZ=   -17.4549   ZZ=   115.5682
   Eigenvalues:   108.8611   131.1660   179.3293
      5  C    Isotropic =   168.2641   Anisotropy =    24.1150
   XX=   177.0153   YX=    -2.1380   ZX=     3.8111
   XY=     1.5272   YY=   176.9556   ZY=   -10.4314
   XZ=     8.2354   YZ=   -18.0908   ZZ=   150.8212
   Eigenvalues:   143.6698   176.7816   184.3407
      6  C    Isotropic =   125.0320   Anisotropy =    36.9009
   XX=   128.1213   YX=   -11.3098   ZX=   -12.8506
   XY=    -7.1385   YY=   133.2654   ZY=    15.9011
   XZ=   -22.6642   YZ=     1.3622   ZZ=   113.7095
   Eigenvalues:   101.6057   123.8578   149.6327
      7  C    Isotropic =   113.7088   Anisotropy =    30.9902
   XX=   124.2145   YX=    -8.2034   ZX=    11.7703
   XY=     0.9144   YY=   110.4604   ZY=    -3.4852
   XZ=    14.3119   YZ=   -18.9297   ZZ=   106.4515
   Eigenvalues:    94.6825   112.0749   134.3689
      8  C    Isotropic =   114.8152   Anisotropy =    27.6073
   XX=   119.1652   YX=    -0.7407   ZX=    16.3439
   XY=   -11.4764   YY=   108.5101   ZY=    -9.5725
   XZ=    11.5760   YZ=     6.6084   ZZ=   116.7702
   Eigenvalues:   102.2089   109.0166   133.2200
      9  H    Isotropic =    29.6722   Anisotropy =    12.3860
   XX=    29.1502   YX=    -2.7272   ZX=    -5.2680
   XY=    -3.0784   YY=    26.4898   ZY=     1.7024
   XZ=    -5.5585   YZ=     1.8551   ZZ=    33.3767
   Eigenvalues:    24.1955    26.8916    37.9296
     10  H    Isotropic =    29.9201   Anisotropy =     9.7792
   XX=    35.1244   YX=     2.7679   ZX=    -0.0143
   XY=     3.5062   YY=    28.9471   ZY=     0.9666
   XZ=    -0.4273   YZ=     0.7160   ZZ=    25.6887
   Eigenvalues:    25.3609    27.9597    36.4395
     11  H    Isotropic =    27.8027   Anisotropy =     8.2505
   XX=    26.0481   YX=    -0.0283   ZX=    -1.1607
   XY=    -0.3923   YY=    25.5257   ZY=    -3.6107
   XZ=    -1.4411   YZ=    -2.6617   ZZ=    31.8344
   Eigenvalues:    23.9843    26.1208    33.3031
     12  H    Isotropic =    28.5296   Anisotropy =    11.4224
   XX=    26.2293   YX=    -1.3622   ZX=     0.8324
   XY=    -0.3810   YY=    34.0571   ZY=     5.1901
   XZ=     2.3638   YZ=     4.3177   ZZ=    25.3024
   Eigenvalues:    22.3657    27.0785    36.1445
     13  H    Isotropic =    28.6664   Anisotropy =     7.4011
   XX=    30.4306   YX=     1.0176   ZX=    -0.8767
   XY=     1.2674   YY=    30.4587   ZY=    -4.5182
   XZ=    -2.0519   YZ=    -3.6637   ZZ=    25.1099
   Eigenvalues:    22.8210    29.5777    33.6005
     14  H    Isotropic =    30.0717   Anisotropy =    12.8533
   XX=    30.9057   YX=    -5.4304   ZX=     0.5441
   XY=    -5.9806   YY=    34.0195   ZY=    -1.6147
   XZ=     1.0135   YZ=    -1.9156   ZZ=    25.2899
   Eigenvalues:    24.9043    26.6702    38.6405
     15  H    Isotropic =    29.8339   Anisotropy =     7.8902
   XX=    27.1808   YX=    -0.1386   ZX=     1.8162
   XY=    -0.0603   YY=    27.8989   ZY=     0.3602
   XZ=     2.7799   YZ=    -0.6665   ZZ=    34.4221
   Eigenvalues:    26.5111    27.8967    35.0941
     16  H    Isotropic =    28.5421   Anisotropy =     5.8776
   XX=    28.7895   YX=    -0.2837   ZX=    -1.5283
   XY=     0.8810   YY=    25.6357   ZY=     1.3493
   XZ=    -2.7691   YZ=    -0.7803   ZZ=    31.2011
   Eigenvalues:    25.5530    27.6128    32.4605
     17  H    Isotropic =    27.4964   Anisotropy =     5.4130
   XX=    25.8550   YX=    -1.9992   ZX=     0.6102
   XY=    -2.2278   YY=    28.0877   ZY=     2.0281
   XZ=     0.0685   YZ=     2.9338   ZZ=    28.5464
   Eigenvalues:    23.9475    27.4365    31.1050
     18  H    Isotropic =    27.6546   Anisotropy =     6.9453
   XX=    25.0816   YX=     1.3515   ZX=     1.4456
   XY=     2.2653   YY=    31.1181   ZY=    -1.7920
   XZ=     1.6754   YZ=    -2.8352   ZZ=    26.7639
   Eigenvalues:    23.1752    27.5037    32.2848
     19  O    Isotropic =   298.8052   Anisotropy =    51.8494
   XX=   329.8894   YX=    -4.9234   ZX=    -1.5864
   XY=   -20.7692   YY=   274.0457   ZY=   -12.9915
   XZ=    -9.8842   YZ=     9.4156   ZZ=   292.4806
   Eigenvalues:   270.8157   292.2285   333.3715
     20  H    Isotropic =    30.0136   Anisotropy =    17.7513
   XX=    41.5771   YX=    -0.3701   ZX=     1.7599
   XY=    -0.8236   YY=    22.5834   ZY=     3.9710
   XZ=     2.3846   YZ=     2.4582   ZZ=    25.8802
   Eigenvalues:    20.4976    27.6953    41.8478
     21  O    Isotropic =   298.0798   Anisotropy =    29.0349
   XX=   287.0782   YX=    -3.4123   ZX=   -21.9386
   XY=     0.2036   YY=   293.6115   ZY=    17.7120
   XZ=     6.0205   YZ=    -5.4792   ZZ=   313.5498
   Eigenvalues:   284.8684   291.9346   317.4364
     22  H    Isotropic =    30.4710   Anisotropy =    13.0569
   XX=    24.5866   YX=    -4.1375   ZX=     1.2287
   XY=    -3.1743   YY=    28.3959   ZY=     2.4444
   XZ=     1.6600   YZ=     3.1535   ZZ=    38.4305
   Eigenvalues:    21.9233    30.3141    39.1756
     23  C    Isotropic =   128.1770   Anisotropy =    47.1761
   XX=   125.5497   YX=     2.2857   ZX=     1.7812
   XY=    14.4481   YY=   156.7023   ZY=   -10.1795
   XZ=     1.4438   YZ=    -4.7394   ZZ=   102.2790
   Eigenvalues:   100.9609   123.9425   159.6277
     24  H    Isotropic =    27.8146   Anisotropy =     6.6550
   XX=    30.3730   YX=    -0.0325   ZX=    -3.0501
   XY=    -1.4576   YY=    29.2053   ZY=     2.0405
   XZ=    -3.3970   YZ=     1.0053   ZZ=    23.8655
   Eigenvalues:    22.3498    28.8428    32.2513
     25  H    Isotropic =    27.8550   Anisotropy =     6.6668
   XX=    27.9829   YX=     2.1790   ZX=     3.1224
   XY=     0.6127   YY=    30.6142   ZY=    -4.7831
   XZ=     3.0345   YZ=    -2.2429   ZZ=    24.9679
   Eigenvalues:    21.5177    29.7477    32.2995
     26  O    Isotropic =   313.5575   Anisotropy =    55.0692
   XX=   308.4344   YX=   -22.8179   ZX=   -15.7060
   XY=    -4.0674   YY=   309.1947   ZY=    16.1931
   XZ=   -29.4426   YZ=    16.3332   ZZ=   323.0436
   Eigenvalues:   291.8023   298.6000   350.2703
     27  H    Isotropic =    30.3411   Anisotropy =    14.8300
   XX=    29.0110   YX=    -0.1904   ZX=    -6.3453
   XY=    -1.5324   YY=    32.2767   ZY=     7.2825
   XZ=    -5.5210   YZ=     7.0355   ZZ=    29.7357
   Eigenvalues:    21.2956    29.5000    40.2278
 End of Minotr Frequency-dependent properties file   721 does not exist.
 End of Minotr Frequency-dependent properties file   722 does not exist.

 **********************************************************************

            Population analysis using the SCF density.

 **********************************************************************

 Orbital symmetries:
       Occupied  (A) (A) (A) (A) (A) (A) (A) (A) (A) (A) (A) (A)
                 (A) (A) (A) (A) (A) (A) (A) (A) (A) (A) (A) (A)
                 (A) (A) (A) (A) (A) (A) (A) (A) (A) (A) (A) (A)
                 (A) (A) (A) (A) (A) (A) (A) (A) (A) (A) (A)
       Virtual   (A) (A) (A) (A) (A) (A) (A) (A) (A) (A) (A) (A)
                 (A) (A) (A) (A) (A) (A) (A) (A) (A) (A) (A) (A)
                 (A) (A) (A) (A) (A) (A) (A) (A) (A) (A) (A) (A)
                 (A) (A) (A) (A) (A) (A) (A) (A) (A) (A) (A) (A)
                 (A) (A) (A) (A) (A) (A) (A) (A) (A) (A) (A) (A)
                 (A) (A) (A) (A) (A) (A) (A) (A) (A) (A) (A) (A)
                 (A) (A) (A) (A) (A) (A) (A) (A) (A) (A) (A) (A)
                 (A) (A) (A) (A) (A) (A) (A) (A) (A) (A) (A) (A)
                 (A) (A) (A) (A) (A) (A) (A) (A) (A) (A) (A) (A)
                 (A) (A) (A) (A) (A) (A) (A) (A) (A) (A) (A) (A)
                 (A) (A) (A) (A) (A) (A) (A) (A) (A) (A) (A) (A)
                 (A) (A) (A) (A) (A) (A) (A) (A) (A) (A) (A) (A)
                 (A) (A) (A) (A) (A) (A) (A) (A) (A) (A) (A) (A)
                 (A) (A) (A) (A) (A) (A) (A) (A) (A) (A) (A) (A)
                 (A) (A) (A) (A) (A) (A) (A) (A) (A) (A) (A) (A)
                 (A) (A) (A) (A) (A) (A) (A) (A) (A) (A) (A) (A)
                 (A) (A) (A) (A) (A) (A) (A) (A) (A) (A) (A) (A)
                 (A) (A) (A) (A) (A) (A) (A) (A) (A) (A) (A) (A)
                 (A) (A) (A) (A) (A) (A) (A) (A) (A) (A) (A) (A)
                 (A) (A) (A) (A) (A) (A) (A) (A) (A) (A) (A) (A)
                 (A) (A) (A) (A) (A) (A) (A) (A) (A) (A) (A) (A)
                 (A) (A) (A) (A)
 The electronic state is 1-A.
 Alpha  occ. eigenvalues --  -19.26247 -19.26009 -19.25467 -14.41375 -10.30882
 Alpha  occ. eigenvalues --  -10.30482 -10.29338 -10.28128 -10.27943 -10.26911
 Alpha  occ. eigenvalues --  -10.25214 -10.24409  -1.07370  -1.05907  -1.05498
 Alpha  occ. eigenvalues --   -0.96128  -0.82745  -0.79160  -0.75551  -0.72433
 Alpha  occ. eigenvalues --   -0.66568  -0.62492  -0.60177  -0.58219  -0.55336
 Alpha  occ. eigenvalues --   -0.53460  -0.52089  -0.50641  -0.48939  -0.47071
 Alpha  occ. eigenvalues --   -0.45571  -0.44343  -0.43760  -0.43429  -0.40503
 Alpha  occ. eigenvalues --   -0.39420  -0.38795  -0.37385  -0.36614  -0.35939
 Alpha  occ. eigenvalues --   -0.35180  -0.34753  -0.33689  -0.31171  -0.29939
 Alpha  occ. eigenvalues --   -0.28802  -0.23226
 Alpha virt. eigenvalues --    0.00422   0.01266   0.02015   0.02230   0.03212
 Alpha virt. eigenvalues --    0.04247   0.04631   0.05195   0.05383   0.06695
 Alpha virt. eigenvalues --    0.07496   0.08183   0.08264   0.08745   0.09502
 Alpha virt. eigenvalues --    0.10600   0.11438   0.12013   0.12150   0.12690
 Alpha virt. eigenvalues --    0.12898   0.13212   0.14123   0.14734   0.14810
 Alpha virt. eigenvalues --    0.15678   0.16213   0.17840   0.18074   0.18713
 Alpha virt. eigenvalues --    0.19097   0.19685   0.19970   0.20654   0.20995
 Alpha virt. eigenvalues --    0.21192   0.21427   0.22090   0.22993   0.23261
 Alpha virt. eigenvalues --    0.23362   0.24007   0.24471   0.25204   0.25910
 Alpha virt. eigenvalues --    0.26147   0.26658   0.27433   0.27903   0.28749
 Alpha virt. eigenvalues --    0.29485   0.29601   0.31130   0.31381   0.31898
 Alpha virt. eigenvalues --    0.32549   0.33161   0.33621   0.33945   0.34655
 Alpha virt. eigenvalues --    0.34955   0.35310   0.36750   0.37387   0.38214
 Alpha virt. eigenvalues --    0.38373   0.39490   0.40696   0.41326   0.41799
 Alpha virt. eigenvalues --    0.42566   0.44173   0.44699   0.45337   0.46018
 Alpha virt. eigenvalues --    0.48051   0.64759   0.66611   0.67457   0.68508
 Alpha virt. eigenvalues --    0.68642   0.70587   0.71932   0.73882   0.74485
 Alpha virt. eigenvalues --    0.76931   0.77975   0.78614   0.80152   0.80720
 Alpha virt. eigenvalues --    0.83408   0.84493   0.85652   0.87204   0.88341
 Alpha virt. eigenvalues --    0.89974   0.90793   0.93088   0.93989   0.96467
 Alpha virt. eigenvalues --    0.98488   1.00008   1.03092   1.03870   1.04430
 Alpha virt. eigenvalues --    1.05224   1.06726   1.07031   1.08272   1.10092
 Alpha virt. eigenvalues --    1.10898   1.12355   1.13584   1.14971   1.15725
 Alpha virt. eigenvalues --    1.16939   1.17604   1.19668   1.23853   1.24561
 Alpha virt. eigenvalues --    1.26612   1.28700   1.29545   1.30828   1.34127
 Alpha virt. eigenvalues --    1.34943   1.37538   1.39016   1.40513   1.41418
 Alpha virt. eigenvalues --    1.43163   1.43543   1.47750   1.48521   1.50685
 Alpha virt. eigenvalues --    1.53701   1.54826   1.57223   1.59788   1.60985
 Alpha virt. eigenvalues --    1.61109   1.64047   1.66043   1.69377   1.72688
 Alpha virt. eigenvalues --    1.73705   1.75890   1.76296   1.77610   1.78021
 Alpha virt. eigenvalues --    1.80819   1.82041   1.83848   1.85834   1.87461
 Alpha virt. eigenvalues --    1.88861   1.89535   1.90323   1.93152   1.95188
 Alpha virt. eigenvalues --    1.97918   2.00174   2.00707   2.02789   2.04220
 Alpha virt. eigenvalues --    2.06031   2.07063   2.08118   2.09334   2.12356
 Alpha virt. eigenvalues --    2.14248   2.14890   2.16547   2.18302   2.20051
 Alpha virt. eigenvalues --    2.20480   2.22279   2.26617   2.27603   2.29343
 Alpha virt. eigenvalues --    2.29651   2.33652   2.35166   2.38110   2.39339
 Alpha virt. eigenvalues --    2.40687   2.43043   2.44050   2.45110   2.47629
 Alpha virt. eigenvalues --    2.48196   2.49246   2.52078   2.54265   2.55124
 Alpha virt. eigenvalues --    2.55582   2.56638   2.58008   2.59824   2.62884
 Alpha virt. eigenvalues --    2.64426   2.65908   2.67688   2.69488   2.70022
 Alpha virt. eigenvalues --    2.72405   2.72517   2.73502   2.76255   2.79391
 Alpha virt. eigenvalues --    2.79421   2.80454   2.83239   2.83489   2.84604
 Alpha virt. eigenvalues --    2.86958   2.88783   2.90174   2.92041   2.95778
 Alpha virt. eigenvalues --    2.97494   2.99030   3.01701   3.02995   3.04444
 Alpha virt. eigenvalues --    3.05269   3.08240   3.10359   3.16860   3.32628
 Alpha virt. eigenvalues --    3.34792   3.37048   3.38672   3.43021   3.44376
 Alpha virt. eigenvalues --    3.45265   3.49436   3.53488   3.54092   3.55486
 Alpha virt. eigenvalues --    3.57629   3.58849   3.60002   3.61822   4.31309
 Alpha virt. eigenvalues --    4.33836   4.35404   4.42503   4.51962   4.58511
 Alpha virt. eigenvalues --    4.61294   4.68399   4.79522   4.81379   4.89423
 Alpha virt. eigenvalues --    4.99611
          Condensed to atoms (all electrons):
              1          2          3          4          5          6
     1  C    6.229239  -0.762423   0.073077   0.019723   0.172228   0.060596
     2  C   -0.762423   8.328127  -0.145353  -0.202530  -0.005207  -0.972424
     3  N    0.073077  -0.145353   7.503696   0.114088  -0.099114  -0.192080
     4  C    0.019723  -0.202530   0.114088   5.899171   0.034747  -0.140170
     5  C    0.172228  -0.005207  -0.099114   0.034747   5.454287  -0.045991
     6  C    0.060596  -0.972424  -0.192080  -0.140170  -0.045991   9.134659
     7  C   -0.420669   1.131688  -0.150402  -0.294535   0.146901  -1.739243
     8  C    0.202310  -1.407936  -0.059415   0.138162  -0.032142   1.150628
     9  H    0.448409  -0.109842   0.011941   0.001428  -0.049860   0.014522
    10  H    0.368745  -0.107129   0.017237   0.024500  -0.013992  -0.001596
    11  H    0.023761   0.202881  -0.013597  -0.014347   0.021457  -0.008288
    12  H    0.019938  -0.047105  -0.029893   0.369995  -0.033164   0.027540
    13  H    0.019216   0.034702  -0.071824   0.409252  -0.035434   0.011241
    14  H   -0.048352   0.031795   0.012874  -0.034011   0.366130   0.003568
    15  H   -0.038117  -0.011787   0.012040  -0.081443   0.438072   0.013589
    16  H    0.000396   0.026553  -0.066426   0.060435  -0.012296   0.303555
    17  H    0.014232   0.002321   0.024720   0.002423  -0.000896  -0.000883
    18  H   -0.008782   0.002329   0.015537  -0.004643  -0.000253  -0.030907
    19  O    0.040837  -0.136710   0.045589  -0.029782   0.017006  -0.043884
    20  H    0.001075  -0.066463  -0.001811  -0.005392   0.005662  -0.001569
    21  O    0.023053  -0.013154   0.043650   0.012327  -0.003806  -0.174642
    22  H    0.018565   0.026657   0.024175   0.007482  -0.002564  -0.042061
    23  C    0.028847   0.147303   0.095660  -0.017364  -0.027597  -0.968361
    24  H    0.000625   0.012477   0.010543  -0.002561   0.001000  -0.161533
    25  H    0.001902   0.001061   0.019797   0.011524  -0.001443  -0.124081
    26  O   -0.001270   0.029640   0.019574  -0.016938   0.001578  -0.170121
    27  H   -0.001496   0.012545   0.023428  -0.001893   0.007757  -0.076835
              7          8          9         10         11         12
     1  C   -0.420669   0.202310   0.448409   0.368745   0.023761   0.019938
     2  C    1.131688  -1.407936  -0.109842  -0.107129   0.202881  -0.047105
     3  N   -0.150402  -0.059415   0.011941   0.017237  -0.013597  -0.029893
     4  C   -0.294535   0.138162   0.001428   0.024500  -0.014347   0.369995
     5  C    0.146901  -0.032142  -0.049860  -0.013992   0.021457  -0.033164
     6  C   -1.739243   1.150628   0.014522  -0.001596  -0.008288   0.027540
     7  C    8.231376  -1.669804  -0.011315  -0.012896  -0.003483  -0.001673
     8  C   -1.669804   7.474789   0.028757   0.056522   0.049196   0.006511
     9  H   -0.011315   0.028757   0.509091  -0.022748  -0.006559   0.001399
    10  H   -0.012896   0.056522  -0.022748   0.532567   0.002440  -0.000035
    11  H   -0.003483   0.049196  -0.006559   0.002440   0.568542   0.000732
    12  H   -0.001673   0.006511   0.001399  -0.000035   0.000732   0.552898
    13  H    0.010557  -0.023769  -0.000110  -0.000141  -0.000201  -0.033022
    14  H    0.003609   0.001282  -0.004882   0.000724  -0.000053  -0.003429
    15  H    0.002288  -0.002207   0.004004  -0.005314  -0.000095   0.003999
    16  H   -0.024453  -0.010961  -0.000005  -0.000007  -0.000543  -0.000355
    17  H    0.258765   0.050775   0.000003  -0.000006  -0.000118   0.000003
    18  H    0.092290   0.240999  -0.000024   0.000268  -0.001543   0.000006
    19  O    0.000286   0.134808   0.000280  -0.007538   0.009036   0.000325
    20  H   -0.003000   0.085027  -0.000049   0.005625   0.000221   0.000000
    21  O    0.391982  -0.124659  -0.000015   0.000041  -0.000459   0.000066
    22  H   -0.020131  -0.024859   0.000009  -0.000002  -0.000210   0.000007
    23  C    0.225339  -0.257241   0.000017  -0.000956   0.003852   0.000214
    24  H    0.037111  -0.004203   0.000000   0.000000  -0.000007  -0.000007
    25  H    0.006349  -0.020416   0.000000   0.000000  -0.000031   0.000025
    26  O    0.087693  -0.044000  -0.000022   0.000001   0.000110  -0.000535
    27  H    0.008832  -0.002571   0.000000   0.000000  -0.000025  -0.000792
             13         14         15         16         17         18
     1  C    0.019216  -0.048352  -0.038117   0.000396   0.014232  -0.008782
     2  C    0.034702   0.031795  -0.011787   0.026553   0.002321   0.002329
     3  N   -0.071824   0.012874   0.012040  -0.066426   0.024720   0.015537
     4  C    0.409252  -0.034011  -0.081443   0.060435   0.002423  -0.004643
     5  C   -0.035434   0.366130   0.438072  -0.012296  -0.000896  -0.000253
     6  C    0.011241   0.003568   0.013589   0.303555  -0.000883  -0.030907
     7  C    0.010557   0.003609   0.002288  -0.024453   0.258765   0.092290
     8  C   -0.023769   0.001282  -0.002207  -0.010961   0.050775   0.240999
     9  H   -0.000110  -0.004882   0.004004  -0.000005   0.000003  -0.000024
    10  H   -0.000141   0.000724  -0.005314  -0.000007  -0.000006   0.000268
    11  H   -0.000201  -0.000053  -0.000095  -0.000543  -0.000118  -0.001543
    12  H   -0.033022  -0.003429   0.003999  -0.000355   0.000003   0.000006
    13  H    0.526651   0.000949  -0.006080   0.003622  -0.000016   0.000005
    14  H    0.000949   0.521727  -0.023955  -0.000114  -0.000001   0.000005
    15  H   -0.006080  -0.023955   0.511934   0.000144   0.000019   0.000034
    16  H    0.003622  -0.000114   0.000144   0.555084  -0.003873  -0.000143
    17  H   -0.000016  -0.000001   0.000019  -0.003873   0.525243  -0.002618
    18  H    0.000005   0.000005   0.000034  -0.000143  -0.002618   0.559456
    19  O    0.000788   0.000249   0.002040  -0.000179  -0.002747  -0.035235
    20  H   -0.000011   0.000032  -0.000442  -0.000048   0.000066  -0.004701
    21  O    0.000003   0.000002   0.000002   0.008568  -0.046930  -0.004985
    22  H   -0.000003   0.000000   0.000001  -0.000081   0.006220  -0.000935
    23  C   -0.018891  -0.000231   0.000444  -0.019341  -0.011965   0.009369
    24  H   -0.000021   0.000000  -0.000001  -0.002997   0.000993  -0.000002
    25  H    0.000033   0.000000   0.000001   0.004426   0.000046   0.000001
    26  O    0.002818   0.000036  -0.000168  -0.000470  -0.000790   0.000034
    27  H   -0.000228  -0.000006   0.000001   0.000241   0.000005   0.000000
             19         20         21         22         23         24
     1  C    0.040837   0.001075   0.023053   0.018565   0.028847   0.000625
     2  C   -0.136710  -0.066463  -0.013154   0.026657   0.147303   0.012477
     3  N    0.045589  -0.001811   0.043650   0.024175   0.095660   0.010543
     4  C   -0.029782  -0.005392   0.012327   0.007482  -0.017364  -0.002561
     5  C    0.017006   0.005662  -0.003806  -0.002564  -0.027597   0.001000
     6  C   -0.043884  -0.001569  -0.174642  -0.042061  -0.968361  -0.161533
     7  C    0.000286  -0.003000   0.391982  -0.020131   0.225339   0.037111
     8  C    0.134808   0.085027  -0.124659  -0.024859  -0.257241  -0.004203
     9  H    0.000280  -0.000049  -0.000015   0.000009   0.000017   0.000000
    10  H   -0.007538   0.005625   0.000041  -0.000002  -0.000956   0.000000
    11  H    0.009036   0.000221  -0.000459  -0.000210   0.003852  -0.000007
    12  H    0.000325   0.000000   0.000066   0.000007   0.000214  -0.000007
    13  H    0.000788  -0.000011   0.000003  -0.000003  -0.018891  -0.000021
    14  H    0.000249   0.000032   0.000002   0.000000  -0.000231   0.000000
    15  H    0.002040  -0.000442   0.000002   0.000001   0.000444  -0.000001
    16  H   -0.000179  -0.000048   0.008568  -0.000081  -0.019341  -0.002997
    17  H   -0.002747   0.000066  -0.046930   0.006220  -0.011965   0.000993
    18  H   -0.035235  -0.004701  -0.004985  -0.000935   0.009369  -0.000002
    19  O    8.283479   0.235787   0.005964  -0.000282   0.031665  -0.000176
    20  H    0.235787   0.377905  -0.000247  -0.000001  -0.005980   0.000000
    21  O    0.005964  -0.000247   8.141883   0.268159  -0.023742  -0.003611
    22  H   -0.000282  -0.000001   0.268159   0.356868   0.002615   0.000334
    23  C    0.031665  -0.005980  -0.023742   0.002615   5.899036   0.487955
    24  H   -0.000176   0.000000  -0.003611   0.000334   0.487955   0.542954
    25  H    0.000140   0.000000   0.011036  -0.000580   0.452770  -0.032549
    26  O    0.000394  -0.000016  -0.003115  -0.000386   0.211171  -0.059991
    27  H   -0.000045   0.000000  -0.000120   0.000034   0.027391   0.006681
             25         26         27
     1  C    0.001902  -0.001270  -0.001496
     2  C    0.001061   0.029640   0.012545
     3  N    0.019797   0.019574   0.023428
     4  C    0.011524  -0.016938  -0.001893
     5  C   -0.001443   0.001578   0.007757
     6  C   -0.124081  -0.170121  -0.076835
     7  C    0.006349   0.087693   0.008832
     8  C   -0.020416  -0.044000  -0.002571
     9  H    0.000000  -0.000022   0.000000
    10  H    0.000000   0.000001   0.000000
    11  H   -0.000031   0.000110  -0.000025
    12  H    0.000025  -0.000535  -0.000792
    13  H    0.000033   0.002818  -0.000228
    14  H    0.000000   0.000036  -0.000006
    15  H    0.000001  -0.000168   0.000001
    16  H    0.004426  -0.000470   0.000241
    17  H    0.000046  -0.000790   0.000005
    18  H    0.000001   0.000034   0.000000
    19  O    0.000140   0.000394  -0.000045
    20  H    0.000000  -0.000016   0.000000
    21  O    0.011036  -0.003115  -0.000120
    22  H   -0.000580  -0.000386   0.000034
    23  C    0.452770   0.211171   0.027391
    24  H   -0.032549  -0.059991   0.006681
    25  H    0.563479  -0.045439  -0.006855
    26  O   -0.045439   8.278663   0.254932
    27  H   -0.006855   0.254932   0.371648
 Mulliken atomic charges:
              1
     1  C   -0.485665
     2  C   -0.002017
     3  N   -0.237710
     4  C   -0.259648
     5  C   -0.303064
     6  C    0.174770
     7  C   -0.283459
     8  C    0.064419
     9  H    0.185571
    10  H    0.163691
    11  H    0.167334
    12  H    0.166352
    13  H    0.169914
    14  H    0.172051
    15  H    0.180997
    16  H    0.179269
    17  H    0.185008
    18  H    0.174436
    19  O   -0.552097
    20  H    0.378328
    21  O   -0.507251
    22  H    0.380969
    23  C   -0.271979
    24  H    0.166985
    25  H    0.158805
    26  O   -0.543382
    27  H    0.377371
 Sum of Mulliken atomic charges =   0.00000
 Mulliken charges with hydrogens summed into heavy atoms:
              1
     1  C   -0.136403
     2  C    0.165317
     3  N   -0.237710
     4  C    0.076617
     5  C    0.049984
     6  C    0.354039
     7  C   -0.098450
     8  C    0.238855
    19  O   -0.173768
    21  O   -0.126282
    23  C    0.053812
    26  O   -0.166011
 Sum of Mulliken charges with hydrogens summed into heavy atoms =   0.00000
 Electronic spatial extent (au):  <R**2>=           1977.2672
 Charge=              0.0000 electrons
 Dipole moment (field-independent basis, Debye):
    X=              4.8829    Y=             -0.7153    Z=             -2.1875  Tot=              5.3981
 Quadrupole moment (field-independent basis, Debye-Ang):
   XX=            -74.3329   YY=            -78.3734   ZZ=            -73.1969
   XY=             -1.1671   XZ=              0.9852   YZ=              1.4590
 Traceless Quadrupole moment (field-independent basis, Debye-Ang):
   XX=              0.9682   YY=             -3.0723   ZZ=              2.1042
   XY=             -1.1671   XZ=              0.9852   YZ=              1.4590
 Octapole moment (field-independent basis, Debye-Ang**2):
  XXX=             49.5706  YYY=            -21.2449  ZZZ=            -11.0535  XYY=             20.7151
  XXY=             20.9651  XXZ=             -2.4742  XZZ=             -6.3662  YZZ=              3.0663
  YYZ=             -5.1637  XYZ=            -11.2670
 Hexadecapole moment (field-independent basis, Debye-Ang**3):
 XXXX=          -1343.6046 YYYY=           -970.3411 ZZZZ=           -296.8595 XXXY=            -22.8452
 XXXZ=             46.4173 YYYX=             36.0010 YYYZ=             29.9343 ZZZX=              9.2327
 ZZZY=            -19.2370 XXYY=           -409.4981 XXZZ=           -254.7611 YYZZ=           -209.8685
 XXYZ=             35.7167 YYXZ=              4.7305 ZZXY=             -8.5929
 N-N= 8.128309925141D+02 E-N=-3.011288252026D+03  KE= 5.886558231396D+02
 1\1\GINC-COMPUTE-3-2\SP\RmPW1PW91\6-31+G(d,p)\C8H15N1O3\MAMICHETTI.IQU
 IR\17-May-2024\0\\# mpw1pw91/6-31+G** nmr scrf=(pcm,solvent=water)\\co
 mment\\0,1\C,0,-2.3656,0.541256,-0.666822\C,0,-1.074837,-0.280079,-0.8
 5565\N,0,0.061736,0.650205,-0.545102\C,0,-0.512438,1.933978,-0.07534\C
 ,0,-1.962721,1.638718,0.330639\C,0,0.975549,-0.026052,0.405576\C,0,0.6
 3946,-1.524345,0.275387\C,0,-0.882137,-1.502796,0.067824\H,0,-2.657712
 ,0.989528,-1.623176\H,0,-3.209419,-0.069433,-0.326103\H,0,-0.994666,-0
 .634294,-1.891889\H,0,-0.495687,2.669312,-0.891363\H,0,0.091687,2.3424
 21,0.739582\H,0,-2.605577,2.523505,0.277059\H,0,-1.998193,1.251053,1.3
 53929\H,0,0.748934,0.271199,1.441686\H,0,0.911256,-2.079267,1.176213\H
 ,0,-1.23584,-2.429557,-0.400543\O,0,-1.466142,-1.349824,1.366659\H,0,-
 2.428109,-1.280435,1.250352\O,0,1.312295,-2.189277,-0.799061\H,0,1.139
 54,-1.698884,-1.620595\C,0,2.444334,0.298182,0.141803\H,0,3.07277,-0.2
 29836,0.867044\H,0,2.732012,-0.031431,-0.864061\O,0,2.736441,1.692094,
 0.306466\H,0,2.26644,2.157572,-0.405425\\Version=AM64L-G09RevC.01\Stat
 e=1-A\HF=-594.1943517\RMSD=3.187e-09\Dipole=-1.9210903,0.2814262,-0.86
 06137\Quadrupole=0.7198059,-2.2842143,1.5644084,-0.8676743,-0.732504,-
 1.0847395\PG=C01 [X(C8H15N1O3)]\\@


 GOORD'S AXIOM:  A MEETING IS AN EVENT AT WHICH
 THE MINUTES ARE KEPT AND THE HOURS ARE LOST.
 Job cpu time:  0 days  0 hours  8 minutes 53.1 seconds.
 File lengths (MBytes):  RWF=    111 Int=      0 D2E=      0 Chk=      7 Scr=      1
 Normal termination of Gaussian 09 at Fri May 17 12:18:46 2024.
