 Entering Gaussian System, Link 0=g09
 Input=/home/mamichetti.iquir/Linux/04_Cardona_A1A3_R__S_R_S_004_OptB.gjc
 Output=/home/mamichetti.iquir/Linux/04_Cardona_A1A3_R__S_R_S_004_OptB.log
 Initial command:
 /opt/ohpc/pub/apps/software/Gaussian/09/AMD64.SSE4a-enabled/g09/l1.exe /local/mamichetti.iquir/Gau-408715.inp -scrdir=/local/mamichetti.iquir/
 Entering Link 1 = /opt/ohpc/pub/apps/software/Gaussian/09/AMD64.SSE4a-enabled/g09/l1.exe PID=    408716.
  
 Copyright (c) 1988,1990,1992,1993,1995,1998,2003,2009,2011,
            Gaussian, Inc.  All Rights Reserved.
  
 This is part of the Gaussian(R) 09 program.  It is based on
 the Gaussian(R) 03 system (copyright 2003, Gaussian, Inc.),
 the Gaussian(R) 98 system (copyright 1998, Gaussian, Inc.),
 the Gaussian(R) 94 system (copyright 1995, Gaussian, Inc.),
 the Gaussian 92(TM) system (copyright 1992, Gaussian, Inc.),
 the Gaussian 90(TM) system (copyright 1990, Gaussian, Inc.),
 the Gaussian 88(TM) system (copyright 1988, Gaussian, Inc.),
 the Gaussian 86(TM) system (copyright 1986, Carnegie Mellon
 University), and the Gaussian 82(TM) system (copyright 1983,
 Carnegie Mellon University). Gaussian is a federally registered
 trademark of Gaussian, Inc.
  
 This software contains proprietary and confidential information,
 including trade secrets, belonging to Gaussian, Inc.
  
 This software is provided under written license and may be
 used, copied, transmitted, or stored only in accord with that
 written license.
  
 The following legend is applicable only to US Government
 contracts under FAR:
  
                    RESTRICTED RIGHTS LEGEND
  
 Use, reproduction and disclosure by the US Government is
 subject to restrictions as set forth in subparagraphs (a)
 and (c) of the Commercial Computer Software - Restricted
 Rights clause in FAR 52.227-19.
  
 Gaussian, Inc.
 340 Quinnipiac St., Bldg. 40, Wallingford CT 06492
  
  
 ---------------------------------------------------------------
 Warning -- This program may not be used in any manner that
 competes with the business of Gaussian, Inc. or will provide
 assistance to any competitor of Gaussian, Inc.  The licensee
 of this program is prohibited from giving any competitor of
 Gaussian, Inc. access to this program.  By using this program,
 the user acknowledges that Gaussian, Inc. is engaged in the
 business of creating and licensing software in the field of
 computational chemistry and represents and warrants to the
 licensee that it is not a competitor of Gaussian, Inc. and that
 it will not use this program in any manner prohibited above.
 ---------------------------------------------------------------
  

 Cite this work as:
 Gaussian 09, Revision C.01,
 M. J. Frisch, G. W. Trucks, H. B. Schlegel, G. E. Scuseria, 
 M. A. Robb, J. R. Cheeseman, G. Scalmani, V. Barone, B. Mennucci, 
 G. A. Petersson, H. Nakatsuji, M. Caricato, X. Li, H. P. Hratchian, 
 A. F. Izmaylov, J. Bloino, G. Zheng, J. L. Sonnenberg, M. Hada, 
 M. Ehara, K. Toyota, R. Fukuda, J. Hasegawa, M. Ishida, T. Nakajima, 
 Y. Honda, O. Kitao, H. Nakai, T. Vreven, J. A. Montgomery, Jr., 
 J. E. Peralta, F. Ogliaro, M. Bearpark, J. J. Heyd, E. Brothers, 
 K. N. Kudin, V. N. Staroverov, T. Keith, R. Kobayashi, J. Normand, 
 K. Raghavachari, A. Rendell, J. C. Burant, S. S. Iyengar, J. Tomasi, 
 M. Cossi, N. Rega, J. M. Millam, M. Klene, J. E. Knox, J. B. Cross, 
 V. Bakken, C. Adamo, J. Jaramillo, R. Gomperts, R. E. Stratmann, 
 O. Yazyev, A. J. Austin, R. Cammi, C. Pomelli, J. W. Ochterski, 
 R. L. Martin, K. Morokuma, V. G. Zakrzewski, G. A. Voth, 
 P. Salvador, J. J. Dannenberg, S. Dapprich, A. D. Daniels, 
 O. Farkas, J. B. Foresman, J. V. Ortiz, J. Cioslowski, 
 and D. J. Fox, Gaussian, Inc., Wallingford CT, 2010.
 
 ******************************************
 Gaussian 09:  AM64L-G09RevC.01 23-Sep-2011
                17-May-2024 
 ******************************************
 %nprocshared=4
 Will use up to    4 processors via shared memory.
 ------------------------------------------------
 # mpw1pw91/6-31+G** nmr scrf=(pcm,solvent=water)
 ------------------------------------------------
 1/38=1/1;
 2/12=2,17=6,18=5,40=1/2;
 3/5=1,6=6,7=111,11=2,16=1,25=1,30=1,70=2201,72=1,74=-7/1,2,8,3;
 4//1;
 5/5=2,38=5,53=1/2;
 8/6=1,10=90,11=11/1;
 10/13=100,45=16/2;
 6/7=2,8=2,9=2,10=2,28=1/1;
 99/9=1/99;
 -------
 comment
 -------
 Charge =  0 Multiplicity = 1
 Symbolic Z-Matrix:
 6                    -2.03039   1.34555  -0.16786 
 6                    -1.06825   0.43575  -0.95916 
 7                     0.30951   0.81786  -0.52214 
 6                     0.15926   1.49054   0.78921 
 6                    -1.10655   2.32116   0.58752 
 6                     1.09661  -0.43313  -0.55636 
 6                     0.15241  -1.57431  -0.15256 
 6                    -1.2176   -1.1194   -0.73825 
 1                    -2.74173   1.85785  -0.82247 
 1                    -2.61268   0.74743   0.53925 
 1                    -1.15616   0.61706  -2.03618 
 1                     1.04277   2.09949   1.01186 
 1                     0.01518   0.79046   1.62542 
 1                    -0.88477   3.2001   -0.02877 
 1                    -1.5341    2.67002   1.53277 
 1                     1.34469  -0.61799  -1.61208 
 1                     0.47681  -2.53306  -0.56822 
 1                    -1.38063  -1.60008  -1.70665 
 8                    -2.29906  -1.53581   0.08641 
 1                    -1.97732  -1.42899   1.00191 
 8                     0.07038  -1.68485   1.28085 
 1                    -0.21213  -2.59185   1.48439 
 6                     2.41748  -0.38193   0.2042 
 1                     2.25526  -0.16588   1.26642 
 1                     2.89986  -1.36198   0.13632 
 8                     3.34392   0.55198  -0.36208 
 1                     2.95865   1.43648  -0.25098 
 
                          Input orientation:                          
 ---------------------------------------------------------------------
 Center     Atomic      Atomic             Coordinates (Angstroms)
 Number     Number       Type             X           Y           Z
 ---------------------------------------------------------------------
      1          6           0       -2.030386    1.345546   -0.167859
      2          6           0       -1.068245    0.435748   -0.959155
      3          7           0        0.309511    0.817862   -0.522137
      4          6           0        0.159256    1.490536    0.789207
      5          6           0       -1.106554    2.321159    0.587521
      6          6           0        1.096608   -0.433131   -0.556361
      7          6           0        0.152414   -1.574309   -0.152557
      8          6           0       -1.217597   -1.119404   -0.738247
      9          1           0       -2.741729    1.857851   -0.822469
     10          1           0       -2.612676    0.747433    0.539249
     11          1           0       -1.156156    0.617058   -2.036179
     12          1           0        1.042771    2.099491    1.011861
     13          1           0        0.015183    0.790462    1.625424
     14          1           0       -0.884768    3.200101   -0.028770
     15          1           0       -1.534100    2.670023    1.532767
     16          1           0        1.344685   -0.617986   -1.612084
     17          1           0        0.476807   -2.533056   -0.568224
     18          1           0       -1.380629   -1.600081   -1.706646
     19          8           0       -2.299062   -1.535806    0.086414
     20          1           0       -1.977321   -1.428990    1.001914
     21          8           0        0.070378   -1.684851    1.280850
     22          1           0       -0.212125   -2.591846    1.484394
     23          6           0        2.417479   -0.381934    0.204201
     24          1           0        2.255258   -0.165877    1.266416
     25          1           0        2.899863   -1.361980    0.136319
     26          8           0        3.343917    0.551984   -0.362078
     27          1           0        2.958646    1.436478   -0.250984
 ---------------------------------------------------------------------
                    Distance matrix (angstroms):
                    1          2          3          4          5
     1  C    0.000000
     2  C    1.542594   0.000000
     3  N    2.424682   1.495061   0.000000
     4  C    2.394061   2.382458   1.481449   0.000000
     5  C    1.541391   2.438944   2.344458   1.527379   0.000000
     6  C    3.618386   2.367231   1.478403   2.527781   3.707897
     7  C    3.645601   2.486149   2.425644   3.206282   4.160215
     8  C    2.657432   1.577848   2.476239   3.322744   3.688830
     9  H    1.094066   2.200366   3.237567   3.338882   2.208285
    10  H    1.093985   2.174311   3.109771   2.880675   2.178841
    11  H    2.187600   1.095711   2.116796   3.236677   3.128933
    12  H    3.377050   3.333067   2.129177   1.095901   2.201999
    13  H    2.776389   2.824834   2.167809   1.100054   2.163000
    14  H    2.184299   2.922487   2.710125   2.163720   1.096149
    15  H    2.211938   3.379154   3.324460   2.193519   1.094528
    16  H    4.163214   2.712730   2.078757   3.408417   4.414228
    17  H    4.635716   3.369541   3.355408   4.258257   5.235091
    18  H    3.386262   2.191102   3.179007   4.260568   4.551312
    19  O    2.905001   2.548558   3.565773   3.961817   4.068091
    20  H    3.011517   2.854726   3.549743   3.624064   3.872154
    21  O    3.961726   3.288012   3.093787   3.214451   4.232492
    22  H    4.641020   3.983742   3.990536   4.157770   5.073658
    23  C    4.786034   3.764608   2.531918   2.991312   4.457853
    24  H    4.765321   4.044847   2.820035   2.713790   4.236511
    25  H    5.632990   4.491967   3.448942   4.009244   5.460813
    26  O    5.436046   4.453896   3.050234   3.514029   4.882459
    27  H    4.990553   4.209373   2.733885   2.986889   4.244008
                    6          7          8          9         10
     6  C    0.000000
     7  C    1.535203   0.000000
     8  C    2.420661   1.557852   0.000000
     9  H    4.477973   4.539225   3.345761   0.000000
    10  H    4.043869   3.676249   2.657691   1.761806   0.000000
    11  H    2.892698   3.172141   2.168802   2.350894   2.961634
    12  H    2.979328   3.955428   4.305047   4.212552   3.926031
    13  H    2.725224   2.961788   3.279371   3.838237   2.843813
    14  H    4.171879   4.887337   4.390018   2.424850   3.053505
    15  H    4.573253   4.868162   4.429157   2.768597   2.418007
    16  H    1.100120   2.113358   2.753234   4.842731   4.706730
    17  H    2.189516   1.094169   2.213216   5.450108   4.640367
    18  H    2.970123   2.183135   1.093356   3.819903   3.474594
    19  O    3.627620   2.463397   1.422330   3.541035   2.348743
    20  H    3.587338   2.426869   1.923846   3.836146   2.313990
    21  O    2.448529   1.440002   2.460765   4.988250   3.696587
    22  H    3.246154   1.961601   2.849420   5.614296   4.219802
    23  C    1.525049   2.584483   3.826989   5.717352   5.166255
    24  H    2.176330   2.901572   4.121724   5.781764   5.005965
    25  H    2.143431   2.770742   4.216300   6.566136   5.916085
    26  O    2.461421   3.840666   4.872623   6.241181   6.027569
    27  H    2.656290   4.116973   4.920464   5.744426   5.669116
                   11         12         13         14         15
    11  H    0.000000
    12  H    4.040227   0.000000
    13  H    3.848304   1.773684   0.000000
    14  H    3.282599   2.451461   3.058207   0.000000
    15  H    4.134596   2.690188   2.437542   1.772290   0.000000
    16  H    2.821240   3.789581   3.772633   4.696289   5.384096
    17  H    3.839880   4.927218   4.008860   5.917262   5.960700
    18  H    2.252706   5.191337   4.331937   5.109099   5.362009
    19  O    3.232098   5.023911   3.624335   4.943916   4.512882
    20  H    3.753749   4.644484   3.047098   4.866669   4.156941
    21  O    4.219698   3.916522   2.499790   5.146860   4.647875
    22  H    4.856202   4.879210   3.392870   6.024016   5.425608
    23  C    4.334531   2.949510   3.027443   4.877508   5.166673
    24  H    4.812262   2.582018   2.461992   4.781953   4.740517
    25  H    5.008755   4.024568   3.895102   5.929862   6.153628
    26  O    4.801823   3.094796   3.884264   5.000539   5.645492
    27  H    4.559601   2.388502   3.549960   4.234569   4.988804
                   16         17         18         19         20
    16  H    0.000000
    17  H    2.347413   0.000000
    18  H    2.898411   2.369919   0.000000
    19  O    4.123613   3.021342   2.015618   0.000000
    20  H    4.304235   3.115612   2.778779   0.976252   0.000000
    21  O    3.336334   2.074539   3.322309   2.657656   2.082388
    22  H    3.988478   2.165946   3.540019   2.724862   2.168165
    23  C    2.122616   2.998362   4.422764   4.857062   4.587694
    24  H    3.052754   3.483149   4.910775   4.900096   4.424945
    25  H    2.455406   2.781906   4.666457   5.202070   4.953854
    26  O    2.632161   4.216668   5.362889   6.033508   5.839547
    27  H    2.945893   4.692267   5.492627   6.049116   5.843324
                   21         22         23         24         25
    21  O    0.000000
    22  H    0.971534   0.000000
    23  C    2.892343   3.665709   0.000000
    24  H    2.661051   3.467105   1.096037   0.000000
    25  H    3.069232   3.607540   1.094437   1.767285   0.000000
    26  O    4.291701   5.092991   1.432188   2.086264   2.027028
    27  H    4.520100   5.412275   1.951071   2.316204   2.825743
                   26         27
    26  O    0.000000
    27  H    0.971136   0.000000
 Stoichiometry    C8H15NO3
 Framework group  C1[X(C8H15NO3)]
 Deg. of freedom    75
 Full point group                 C1      NOp   1
 Largest Abelian subgroup         C1      NOp   1
 Largest concise Abelian subgroup C1      NOp   1
                         Standard orientation:                         
 ---------------------------------------------------------------------
 Center     Atomic      Atomic             Coordinates (Angstroms)
 Number     Number       Type             X           Y           Z
 ---------------------------------------------------------------------
      1          6           0       -2.030386    1.345546   -0.167859
      2          6           0       -1.068245    0.435748   -0.959155
      3          7           0        0.309511    0.817862   -0.522137
      4          6           0        0.159256    1.490536    0.789207
      5          6           0       -1.106554    2.321159    0.587521
      6          6           0        1.096608   -0.433131   -0.556361
      7          6           0        0.152414   -1.574309   -0.152557
      8          6           0       -1.217597   -1.119404   -0.738247
      9          1           0       -2.741729    1.857851   -0.822469
     10          1           0       -2.612676    0.747433    0.539249
     11          1           0       -1.156156    0.617058   -2.036179
     12          1           0        1.042771    2.099491    1.011861
     13          1           0        0.015183    0.790462    1.625424
     14          1           0       -0.884768    3.200101   -0.028770
     15          1           0       -1.534100    2.670023    1.532767
     16          1           0        1.344685   -0.617986   -1.612084
     17          1           0        0.476807   -2.533056   -0.568224
     18          1           0       -1.380629   -1.600081   -1.706646
     19          8           0       -2.299062   -1.535806    0.086414
     20          1           0       -1.977321   -1.428990    1.001914
     21          8           0        0.070378   -1.684851    1.280850
     22          1           0       -0.212125   -2.591846    1.484394
     23          6           0        2.417479   -0.381934    0.204201
     24          1           0        2.255258   -0.165877    1.266416
     25          1           0        2.899863   -1.361980    0.136319
     26          8           0        3.343917    0.551984   -0.362078
     27          1           0        2.958646    1.436478   -0.250984
 ---------------------------------------------------------------------
 Rotational constants (GHZ):      1.2681105      0.8643251      0.6264169
 Standard basis: 6-31+G(d,p) (6D, 7F)
 There are   303 symmetry adapted basis functions of A   symmetry.
 Integral buffers will be    131072 words long.
 Raffenetti 2 integral format.
 Two-electron integral symmetry is turned on.
   303 basis functions,   489 primitive gaussians,   303 cartesian basis functions
    47 alpha electrons       47 beta electrons
       nuclear repulsion energy       812.7390912230 Hartrees.
 NAtoms=   27 NActive=   27 NUniq=   27 SFac= 1.00D+00 NAtFMM=   60 NAOKFM=F Big=F
 ------------------------------------------------------------------------------
 Polarizable Continuum Model (PCM)
 =================================
 Model                : PCM.
 Atomic radii         : UFF (Universal Force Field).
 Polarization charges : Total charges.
 Charge compensation  : None.
 Solution method      : Matrix inversion.
 Cavity type          : Scaled VdW (van der Waals Surface) (Alpha=1.100).
 Cavity algorithm     : GePol (No added spheres)
                        Default sphere list used, NSphG=   27.
                        Lebedev-Laikov grids with approx.  5.0 points / Ang**2.
                        Smoothing algorithm: Karplus/York (Gamma=1.0000).
                        Polarization charges: spherical gaussians, with
                                              point-specific exponents (IZeta= 3).
                        Self-potential: point-specific (ISelfS= 7).
                        Self-field    : sphere-specific E.n sum rule (ISelfD= 2).
 Solvent              : Water, Eps=  78.355300 Eps(inf)=   1.777849
 ------------------------------------------------------------------------------
 One-electron integrals computed using PRISM.
 NBasis=   303 RedAO= T  NBF=   303
 NBsUse=   303 1.00D-06 NBFU=   303
 Harris functional with IExCor=  908 diagonalized for initial guess.
 ExpMin= 4.38D-02 ExpMax= 5.48D+03 ExpMxC= 8.25D+02 IAcc=2 IRadAn=         4 AccDes= 0.00D+00
 HarFok:  IExCor=  908 AccDes= 0.00D+00 IRadAn=         4 IDoV= 1
 ScaDFX=  1.000000  1.000000  1.000000  1.000000
 FoFCou: FMM=F IPFlag=           0 FMFlag=      100000 FMFlg1=           0
         NFxFlg=           0 DoJE=T BraDBF=F KetDBF=T FulRan=T
         Omega=  0.000000  0.000000  1.000000  0.000000  0.000000 ICntrl=     500 IOpCl=  0
         NMat0=    1 NMatS0=    1 NMatT0=    0 NMatD0=    1 NMtDS0=    0 NMtDT0=    0
         I1Cent=           4 NGrid=           0.
 Petite list used in FoFCou.
 Initial guess orbital symmetries:
       Occupied  (A) (A) (A) (A) (A) (A) (A) (A) (A) (A) (A) (A)
                 (A) (A) (A) (A) (A) (A) (A) (A) (A) (A) (A) (A)
                 (A) (A) (A) (A) (A) (A) (A) (A) (A) (A) (A) (A)
                 (A) (A) (A) (A) (A) (A) (A) (A) (A) (A) (A)
       Virtual   (A) (A) (A) (A) (A) (A) (A) (A) (A) (A) (A) (A)
                 (A) (A) (A) (A) (A) (A) (A) (A) (A) (A) (A) (A)
                 (A) (A) (A) (A) (A) (A) (A) (A) (A) (A) (A) (A)
                 (A) (A) (A) (A) (A) (A) (A) (A) (A) (A) (A) (A)
                 (A) (A) (A) (A) (A) (A) (A) (A) (A) (A) (A) (A)
                 (A) (A) (A) (A) (A) (A) (A) (A) (A) (A) (A) (A)
                 (A) (A) (A) (A) (A) (A) (A) (A) (A) (A) (A) (A)
                 (A) (A) (A) (A) (A) (A) (A) (A) (A) (A) (A) (A)
                 (A) (A) (A) (A) (A) (A) (A) (A) (A) (A) (A) (A)
                 (A) (A) (A) (A) (A) (A) (A) (A) (A) (A) (A) (A)
                 (A) (A) (A) (A) (A) (A) (A) (A) (A) (A) (A) (A)
                 (A) (A) (A) (A) (A) (A) (A) (A) (A) (A) (A) (A)
                 (A) (A) (A) (A) (A) (A) (A) (A) (A) (A) (A) (A)
                 (A) (A) (A) (A) (A) (A) (A) (A) (A) (A) (A) (A)
                 (A) (A) (A) (A) (A) (A) (A) (A) (A) (A) (A) (A)
                 (A) (A) (A) (A) (A) (A) (A) (A) (A) (A) (A) (A)
                 (A) (A) (A) (A) (A) (A) (A) (A) (A) (A) (A) (A)
                 (A) (A) (A) (A) (A) (A) (A) (A) (A) (A) (A) (A)
                 (A) (A) (A) (A) (A) (A) (A) (A) (A) (A) (A) (A)
                 (A) (A) (A) (A) (A) (A) (A) (A) (A) (A) (A) (A)
                 (A) (A) (A) (A) (A) (A) (A) (A) (A) (A) (A) (A)
                 (A) (A) (A) (A)
 The electronic state of the initial guess is 1-A.
 Requested convergence on RMS density matrix=1.00D-08 within 128 cycles.
 Requested convergence on MAX density matrix=1.00D-06.
 Requested convergence on             energy=1.00D-06.
 No special actions if energy rises.
 Error on total polarization charges =  0.01404
 SCF Done:  E(RmPW1PW91) =  -594.190706428     A.U. after   13 cycles
             Convg  =    0.5276D-08             -V/T =  2.0094
 Range of M.O.s used for correlation:     1   303
 NBasis=   303 NAE=    47 NBE=    47 NFC=     0 NFV=     0
 NROrb=    303 NOA=    47 NOB=    47 NVA=   256 NVB=   256

 **** Warning!!: The largest alpha MO coefficient is  0.71925585D+02

 NEqPCM:  Using equilibrium solvation (IEInf=0, Eps=  78.3553, EpsInf=   1.7778)
          Differentiating once with respect to magnetic field using GIAOs.
          Electric field/nuclear overlap derivatives assumed to be zero.
 FoFCou: FMM=F IPFlag=           0 FMFlag=    10101102 FMFlg1=           0
         NFxFlg=    40000000 DoJE=F BraDBF=F KetDBF=T FulRan=T
         Omega=  0.000000  0.000000  1.000000  0.000000  0.000000 ICntrl=    6100 IOpCl=  0
         NMat0=    1 NMatS0=    1 NMatT0=    0 NMatD0=    1 NMtDS0=    0 NMtDT0=    0
         I1Cent=           7 NGrid=        1812.
 Symmetry not used in FoFCou.
          There are     3 degrees of freedom in the 1st order CPHF.  IDoFFX=0.
      3 vectors produced by pass  0 Test12= 4.01D-13 3.33D-08 XBig12= 3.36D+01 1.21D+00.
 AX will form     3 AO Fock derivatives at one time.
      3 vectors produced by pass  1 Test12= 4.01D-13 3.33D-08 XBig12= 8.03D-02 4.59D-02.
      3 vectors produced by pass  2 Test12= 4.01D-13 3.33D-08 XBig12= 1.54D-04 2.27D-03.
      3 vectors produced by pass  3 Test12= 4.01D-13 3.33D-08 XBig12= 5.82D-07 1.52D-04.
      3 vectors produced by pass  4 Test12= 4.01D-13 3.33D-08 XBig12= 1.64D-09 8.20D-06.
      3 vectors produced by pass  5 Test12= 4.01D-13 3.33D-08 XBig12= 5.31D-12 5.55D-07.
 Inverted reduced A of dimension    18 with in-core refinement.
 Calculating GIAO nuclear magnetic shielding tensors.
 SCF GIAO Magnetic shielding tensor (ppm):
      1  C    Isotropic =   171.0749   Anisotropy =    24.5341
   XX=   180.9453   YX=    -4.2710   ZX=     6.7087
   XY=     1.3105   YY=   170.5051   ZY=    21.4631
   XZ=     5.3167   YZ=    17.7851   ZZ=   161.7743
   Eigenvalues:   145.1505   180.6432   187.4309
      2  C    Isotropic =   127.5706   Anisotropy =    54.0515
   XX=   158.6052   YX=     8.7468   ZX=    12.6866
   XY=    10.5564   YY=   131.8338   ZY=    10.7410
   XZ=     5.5143   YZ=     7.7739   ZZ=    92.2727
   Eigenvalues:    89.5172   129.5896   163.6049
      3  N    Isotropic =   187.4120   Anisotropy =    77.6023
   XX=   223.4032   YX=   -35.0685   ZX=    16.9251
   XY=   -26.1242   YY=   175.4994   ZY=    19.7707
   XZ=    29.0851   YZ=    43.0644   ZZ=   163.3334
   Eigenvalues:   123.4186   199.6705   239.1468
      4  C    Isotropic =   145.8448   Anisotropy =    41.8885
   XX=   137.9855   YX=    -2.4662   ZX=    -3.0724
   XY=   -11.9730   YY=   142.7978   ZY=    20.8548
   XZ=     4.0637   YZ=    24.1621   ZZ=   156.7513
   Eigenvalues:   123.5682   140.1959   173.7705
      5  C    Isotropic =   166.6674   Anisotropy =    24.2152
   XX=   178.0736   YX=    -8.8027   ZX=     5.5394
   XY=    -8.9057   YY=   166.2595   ZY=    19.7741
   XZ=    10.7084   YZ=    10.9468   ZZ=   155.6691
   Eigenvalues:   140.9748   176.2165   182.8108
      6  C    Isotropic =   130.0371   Anisotropy =    23.4039
   XX=   143.4824   YX=     1.0418   ZX=     4.4000
   XY=    -7.7113   YY=   139.1676   ZY=    -7.5001
   XZ=    -7.5386   YZ=   -11.3212   ZZ=   107.4614
   Eigenvalues:   104.7297   139.7420   145.6397
      7  C    Isotropic =   117.4651   Anisotropy =    28.3805
   XX=   117.6591   YX=     8.9258   ZX=    -7.6204
   XY=     4.6082   YY=   102.1255   ZY=    -7.4161
   XZ=     0.6450   YZ=   -10.0060   ZZ=   132.6106
   Eigenvalues:    98.1197   117.8901   136.3854
      8  C    Isotropic =   120.6119   Anisotropy =    43.3147
   XX=   136.9200   YX=     6.0369   ZX=   -16.5733
   XY=     7.8922   YY=   126.7754   ZY=   -14.3084
   XZ=   -17.4733   YZ=   -13.0157   ZZ=    98.1404
   Eigenvalues:    88.7377   123.6097   149.4884
      9  H    Isotropic =    29.7991   Anisotropy =    12.1158
   XX=    32.6436   YX=    -4.6201   ZX=     5.0852
   XY=    -3.7457   YY=    28.6131   ZY=    -1.1439
   XZ=     4.8171   YZ=    -1.8761   ZZ=    28.1405
   Eigenvalues:    24.5419    26.9790    37.8762
     10  H    Isotropic =    29.4913   Anisotropy =     7.0723
   XX=    30.6131   YX=     2.1037   ZX=    -3.6053
   XY=     1.8328   YY=    31.5204   ZY=    -0.6523
   XZ=    -3.9279   YZ=    -0.2398   ZZ=    26.3403
   Eigenvalues:    24.0941    30.1736    34.2061
     11  H    Isotropic =    28.0344   Anisotropy =     9.2971
   XX=    25.3206   YX=     0.4370   ZX=     2.8477
   XY=    -0.4253   YY=    25.5406   ZY=    -1.0899
   XZ=     2.6564   YZ=    -1.1249   ZZ=    33.2421
   Eigenvalues:    24.3528    25.5180    34.2325
     12  H    Isotropic =    28.8144   Anisotropy =     9.2130
   XX=    31.1827   YX=     1.7197   ZX=     2.0923
   XY=     2.8698   YY=    28.9807   ZY=     3.9339
   XZ=     2.8000   YZ=     4.4890   ZZ=    26.2797
   Eigenvalues:    23.1504    28.3364    34.9563
     13  H    Isotropic =    28.6224   Anisotropy =     6.1772
   XX=    24.4635   YX=    -1.4476   ZX=    -0.1721
   XY=    -1.7931   YY=    28.7484   ZY=    -0.1347
   XZ=     0.8419   YZ=    -0.7609   ZZ=    32.6552
   Eigenvalues:    23.9163    29.2104    32.7405
     14  H    Isotropic =    29.7464   Anisotropy =    11.2593
   XX=    27.0677   YX=     1.3572   ZX=     0.6889
   XY=     0.6724   YY=    36.6235   ZY=    -2.4597
   XZ=     0.6255   YZ=    -2.6341   ZZ=    25.5479
   Eigenvalues:    24.6744    27.3121    37.2526
     15  H    Isotropic =    29.7107   Anisotropy =    11.5965
   XX=    27.9397   YX=    -1.9877   ZX=    -2.6725
   XY=    -2.3825   YY=    29.4780   ZY=     5.3894
   XZ=    -2.9721   YZ=     5.3919   ZZ=    31.7145
   Eigenvalues:    25.0864    26.6041    37.4418
     16  H    Isotropic =    28.4766   Anisotropy =     8.7658
   XX=    28.5879   YX=    -1.8929   ZX=    -3.0531
   XY=    -1.4850   YY=    26.8531   ZY=     2.7810
   XZ=    -4.7693   YZ=     1.7237   ZZ=    29.9888
   Eigenvalues:    25.2765    25.8329    34.3205
     17  H    Isotropic =    27.4899   Anisotropy =     8.0325
   XX=    24.3655   YX=    -1.8964   ZX=    -0.2948
   XY=    -1.6797   YY=    29.8529   ZY=     2.5943
   XZ=    -2.0204   YZ=     3.7288   ZZ=    28.2513
   Eigenvalues:    23.8181    25.8067    32.8449
     18  H    Isotropic =    27.5383   Anisotropy =     7.6933
   XX=    24.7685   YX=     2.0149   ZX=    -0.7276
   XY=     2.1977   YY=    27.7100   ZY=     3.2656
   XZ=     1.5278   YZ=     3.1648   ZZ=    30.1363
   Eigenvalues:    23.4148    26.5330    32.6671
     19  O    Isotropic =   303.5399   Anisotropy =    52.1760
   XX=   291.7455   YX=     3.1530   ZX=    25.5422
   XY=    34.3481   YY=   312.8314   ZY=   -11.9970
   XZ=    43.5038   YZ=     6.1205   ZZ=   306.0428
   Eigenvalues:   258.5714   313.7244   338.3239
     20  H    Isotropic =    29.2594   Anisotropy =    14.2407
   XX=    28.7001   YX=     1.2628   ZX=     3.5933
   XY=    -0.5216   YY=    20.9462   ZY=     0.4443
   XZ=     1.3583   YZ=    -1.5318   ZZ=    38.1319
   Eigenvalues:    20.9019    28.1231    38.7532
     21  O    Isotropic =   307.7050   Anisotropy =    61.8998
   XX=   285.6474   YX=    16.5180   ZX=    -9.6111
   XY=    22.9547   YY=   342.6663   ZY=     4.3267
   XZ=    -2.4563   YZ=    -6.3089   ZZ=   294.8011
   Eigenvalues:   277.7235   296.4199   348.9715
     22  H    Isotropic =    29.9794   Anisotropy =    22.5120
   XX=    22.8560   YX=     4.7429   ZX=    -0.6105
   XY=     4.0981   YY=    40.1767   ZY=    -8.7917
   XZ=    -1.1818   YZ=    -7.6881   ZZ=    26.9054
   Eigenvalues:    21.2926    23.6582    44.9874
     23  C    Isotropic =   132.7182   Anisotropy =    60.0995
   XX=   142.3456   YX=    24.7026   ZX=    -7.8556
   XY=    28.0287   YY=   135.7006   ZY=   -20.6481
   XZ=    -8.2803   YZ=   -19.0403   ZZ=   120.1083
   Eigenvalues:   103.7216   121.6484   172.7845
     24  H    Isotropic =    27.2456   Anisotropy =     4.3332
   XX=    28.8523   YX=     1.8849   ZX=    -0.6816
   XY=     2.2057   YY=    24.2707   ZY=    -3.1406
   XZ=     0.6932   YZ=    -0.8551   ZZ=    28.6139
   Eigenvalues:    22.8741    28.7283    30.1344
     25  H    Isotropic =    27.5970   Anisotropy =     6.1512
   XX=    29.9400   YX=     0.0577   ZX=     0.2214
   XY=    -2.3308   YY=    30.4585   ZY=    -1.6307
   XZ=     0.1162   YZ=    -2.4804   ZZ=    22.3925
   Eigenvalues:    21.8976    29.1956    31.6978
     26  O    Isotropic =   313.1051   Anisotropy =    35.9546
   XX=   307.4552   YX=   -22.1519   ZX=     2.5648
   XY=     5.5936   YY=   334.7255   ZY=    -0.4710
   XZ=    -9.1262   YZ=     0.9948   ZZ=   297.1344
   Eigenvalues:   296.0529   306.1875   337.0748
     27  H    Isotropic =    30.1672   Anisotropy =    15.2716
   XX=    30.2424   YX=    -2.1398   ZX=    -2.9191
   XY=    -2.3561   YY=    39.7865   ZY=     0.7724
   XZ=    -2.3891   YZ=     0.2235   ZZ=    20.4727
   Eigenvalues:    19.7979    30.3554    40.3483
 End of Minotr Frequency-dependent properties file   721 does not exist.
 End of Minotr Frequency-dependent properties file   722 does not exist.

 **********************************************************************

            Population analysis using the SCF density.

 **********************************************************************

 Orbital symmetries:
       Occupied  (A) (A) (A) (A) (A) (A) (A) (A) (A) (A) (A) (A)
                 (A) (A) (A) (A) (A) (A) (A) (A) (A) (A) (A) (A)
                 (A) (A) (A) (A) (A) (A) (A) (A) (A) (A) (A) (A)
                 (A) (A) (A) (A) (A) (A) (A) (A) (A) (A) (A)
       Virtual   (A) (A) (A) (A) (A) (A) (A) (A) (A) (A) (A) (A)
                 (A) (A) (A) (A) (A) (A) (A) (A) (A) (A) (A) (A)
                 (A) (A) (A) (A) (A) (A) (A) (A) (A) (A) (A) (A)
                 (A) (A) (A) (A) (A) (A) (A) (A) (A) (A) (A) (A)
                 (A) (A) (A) (A) (A) (A) (A) (A) (A) (A) (A) (A)
                 (A) (A) (A) (A) (A) (A) (A) (A) (A) (A) (A) (A)
                 (A) (A) (A) (A) (A) (A) (A) (A) (A) (A) (A) (A)
                 (A) (A) (A) (A) (A) (A) (A) (A) (A) (A) (A) (A)
                 (A) (A) (A) (A) (A) (A) (A) (A) (A) (A) (A) (A)
                 (A) (A) (A) (A) (A) (A) (A) (A) (A) (A) (A) (A)
                 (A) (A) (A) (A) (A) (A) (A) (A) (A) (A) (A) (A)
                 (A) (A) (A) (A) (A) (A) (A) (A) (A) (A) (A) (A)
                 (A) (A) (A) (A) (A) (A) (A) (A) (A) (A) (A) (A)
                 (A) (A) (A) (A) (A) (A) (A) (A) (A) (A) (A) (A)
                 (A) (A) (A) (A) (A) (A) (A) (A) (A) (A) (A) (A)
                 (A) (A) (A) (A) (A) (A) (A) (A) (A) (A) (A) (A)
                 (A) (A) (A) (A) (A) (A) (A) (A) (A) (A) (A) (A)
                 (A) (A) (A) (A) (A) (A) (A) (A) (A) (A) (A) (A)
                 (A) (A) (A) (A) (A) (A) (A) (A) (A) (A) (A) (A)
                 (A) (A) (A) (A) (A) (A) (A) (A) (A) (A) (A) (A)
                 (A) (A) (A) (A) (A) (A) (A) (A) (A) (A) (A) (A)
                 (A) (A) (A) (A)
 The electronic state is 1-A.
 Alpha  occ. eigenvalues --  -19.26849 -19.25639 -19.25564 -14.41195 -10.30838
 Alpha  occ. eigenvalues --  -10.30147 -10.29833 -10.28159 -10.27443 -10.26719
 Alpha  occ. eigenvalues --  -10.24441 -10.24316  -1.08224  -1.05760  -1.04898
 Alpha  occ. eigenvalues --   -0.96405  -0.82863  -0.78172  -0.75479  -0.71831
 Alpha  occ. eigenvalues --   -0.66839  -0.61872  -0.59712  -0.57559  -0.55922
 Alpha  occ. eigenvalues --   -0.54207  -0.52014  -0.50638  -0.48604  -0.46869
 Alpha  occ. eigenvalues --   -0.45610  -0.45014  -0.44308  -0.42598  -0.39578
 Alpha  occ. eigenvalues --   -0.39198  -0.38240  -0.37027  -0.36537  -0.35325
 Alpha  occ. eigenvalues --   -0.34815  -0.34559  -0.33466  -0.31842  -0.30025
 Alpha  occ. eigenvalues --   -0.28931  -0.23109
 Alpha virt. eigenvalues --   -0.00171   0.01323   0.01884   0.02219   0.03831
 Alpha virt. eigenvalues --    0.04487   0.04674   0.05049   0.05461   0.07498
 Alpha virt. eigenvalues --    0.07763   0.08241   0.08605   0.09008   0.09783
 Alpha virt. eigenvalues --    0.10662   0.11169   0.11846   0.12227   0.12957
 Alpha virt. eigenvalues --    0.13085   0.14048   0.14506   0.14903   0.15472
 Alpha virt. eigenvalues --    0.16230   0.17058   0.17440   0.18187   0.18481
 Alpha virt. eigenvalues --    0.18884   0.19146   0.19364   0.20382   0.21151
 Alpha virt. eigenvalues --    0.21572   0.22240   0.22447   0.22980   0.23311
 Alpha virt. eigenvalues --    0.23642   0.23953   0.24525   0.24946   0.25892
 Alpha virt. eigenvalues --    0.26542   0.26787   0.27661   0.27812   0.28404
 Alpha virt. eigenvalues --    0.29153   0.30077   0.30371   0.31329   0.31960
 Alpha virt. eigenvalues --    0.32533   0.33075   0.33635   0.34449   0.35022
 Alpha virt. eigenvalues --    0.35721   0.36041   0.36852   0.37332   0.38275
 Alpha virt. eigenvalues --    0.39021   0.39578   0.40286   0.40840   0.42007
 Alpha virt. eigenvalues --    0.43038   0.43780   0.44805   0.46727   0.48512
 Alpha virt. eigenvalues --    0.49513   0.63950   0.67610   0.68463   0.69269
 Alpha virt. eigenvalues --    0.69977   0.71057   0.71392   0.73078   0.74977
 Alpha virt. eigenvalues --    0.76300   0.78617   0.79221   0.80544   0.80885
 Alpha virt. eigenvalues --    0.82810   0.83809   0.85473   0.87093   0.87519
 Alpha virt. eigenvalues --    0.90168   0.90631   0.94771   0.96114   0.96620
 Alpha virt. eigenvalues --    0.98375   0.99573   1.01153   1.02646   1.04230
 Alpha virt. eigenvalues --    1.04994   1.05818   1.07373   1.08969   1.09652
 Alpha virt. eigenvalues --    1.10484   1.12802   1.12956   1.14919   1.15702
 Alpha virt. eigenvalues --    1.16321   1.19277   1.22244   1.23863   1.25947
 Alpha virt. eigenvalues --    1.26650   1.29808   1.30434   1.30768   1.32688
 Alpha virt. eigenvalues --    1.33830   1.36008   1.36983   1.40002   1.41720
 Alpha virt. eigenvalues --    1.43321   1.45092   1.48218   1.50563   1.52787
 Alpha virt. eigenvalues --    1.54061   1.55806   1.56632   1.59287   1.62481
 Alpha virt. eigenvalues --    1.63443   1.65522   1.67286   1.68779   1.70459
 Alpha virt. eigenvalues --    1.72439   1.74743   1.76102   1.76677   1.77360
 Alpha virt. eigenvalues --    1.79614   1.81299   1.82947   1.85336   1.86817
 Alpha virt. eigenvalues --    1.87749   1.88528   1.90233   1.91554   1.94180
 Alpha virt. eigenvalues --    1.96767   1.98687   2.01295   2.03001   2.04937
 Alpha virt. eigenvalues --    2.05755   2.07624   2.08941   2.10623   2.11758
 Alpha virt. eigenvalues --    2.12429   2.13664   2.15680   2.17808   2.19564
 Alpha virt. eigenvalues --    2.22988   2.24770   2.27055   2.27879   2.30383
 Alpha virt. eigenvalues --    2.32242   2.34583   2.36423   2.37946   2.39208
 Alpha virt. eigenvalues --    2.40862   2.42468   2.44869   2.46492   2.48181
 Alpha virt. eigenvalues --    2.49547   2.50673   2.51074   2.52704   2.53768
 Alpha virt. eigenvalues --    2.55197   2.57880   2.58570   2.60728   2.61752
 Alpha virt. eigenvalues --    2.63763   2.64491   2.66901   2.69528   2.70603
 Alpha virt. eigenvalues --    2.72205   2.72848   2.73768   2.76558   2.77325
 Alpha virt. eigenvalues --    2.79922   2.80172   2.82344   2.84065   2.84776
 Alpha virt. eigenvalues --    2.87054   2.88524   2.91591   2.94199   2.95089
 Alpha virt. eigenvalues --    2.95823   2.99229   3.00990   3.01798   3.04817
 Alpha virt. eigenvalues --    3.05702   3.08635   3.13292   3.17202   3.32416
 Alpha virt. eigenvalues --    3.36219   3.36398   3.37896   3.42918   3.43895
 Alpha virt. eigenvalues --    3.47619   3.51225   3.52375   3.53401   3.56331
 Alpha virt. eigenvalues --    3.58628   3.59841   3.61519   3.62510   4.27757
 Alpha virt. eigenvalues --    4.32516   4.38305   4.44302   4.50628   4.55587
 Alpha virt. eigenvalues --    4.61855   4.71347   4.76381   4.79661   4.89979
 Alpha virt. eigenvalues --    5.02692
          Condensed to atoms (all electrons):
              1          2          3          4          5          6
     1  C    5.900085  -0.594722   0.097362  -0.047939   0.116510  -0.055447
     2  C   -0.594722   8.421552  -0.412052  -0.726981   0.358438  -0.357095
     3  N    0.097362  -0.412052   7.639519   0.419170  -0.262426  -0.811649
     4  C   -0.047939  -0.726981   0.419170   5.924914  -0.059843  -0.487099
     5  C    0.116510   0.358438  -0.262426  -0.059843   5.666881   0.247208
     6  C   -0.055447  -0.357095  -0.811649  -0.487099   0.247208  11.370396
     7  C    0.096839   0.359542   0.325373   0.064424  -0.120667  -3.421126
     8  C    0.050398  -0.904401   0.085407   0.295605  -0.070602   0.263017
     9  H    0.380466  -0.067744   0.010741   0.045054  -0.054613   0.004440
    10  H    0.475958  -0.161924   0.028174   0.025335  -0.058858  -0.016217
    11  H    0.039618   0.251539  -0.006575   0.032899  -0.014042  -0.048305
    12  H    0.037166   0.006165  -0.059487   0.371517  -0.003477  -0.017283
    13  H   -0.016221   0.023612  -0.082667   0.359665  -0.012266   0.082104
    14  H   -0.032765  -0.031489   0.015593  -0.042037   0.420616  -0.005030
    15  H   -0.066846   0.035957   0.009334  -0.026279   0.386777  -0.006453
    16  H    0.001927  -0.007716  -0.014303   0.030000  -0.003160   0.228074
    17  H    0.003694   0.002850   0.019750   0.000022  -0.000184   0.003328
    18  H    0.016599  -0.091895   0.018034   0.008808  -0.007125  -0.017540
    19  O    0.042828  -0.174896   0.027856   0.031145  -0.038669   0.015460
    20  H    0.009869  -0.039508   0.003159   0.009174  -0.010645   0.017187
    21  O    0.038124   0.002753   0.054425   0.031101  -0.010676  -0.147746
    22  H   -0.001177  -0.006393  -0.002760  -0.003112   0.000169   0.029367
    23  C   -0.027930   0.110075   0.050160  -0.045660  -0.059361  -0.440065
    24  H   -0.002834   0.016242   0.003674   0.004907   0.001550  -0.124001
    25  H    0.000625  -0.002789   0.016785   0.001110  -0.001208  -0.183165
    26  O   -0.000598   0.028738   0.025684  -0.002160  -0.005946  -0.179932
    27  H    0.000205   0.007464   0.018819  -0.007330  -0.003244  -0.091939
              7          8          9         10         11         12
     1  C    0.096839   0.050398   0.380466   0.475958   0.039618   0.037166
     2  C    0.359542  -0.904401  -0.067744  -0.161924   0.251539   0.006165
     3  N    0.325373   0.085407   0.010741   0.028174  -0.006575  -0.059487
     4  C    0.064424   0.295605   0.045054   0.025335   0.032899   0.371517
     5  C   -0.120667  -0.070602  -0.054613  -0.058858  -0.014042  -0.003477
     6  C   -3.421126   0.263017   0.004440  -0.016217  -0.048305  -0.017283
     7  C    8.755853  -0.664769  -0.015989   0.021347   0.044515  -0.000862
     8  C   -0.664769   6.573627   0.041875   0.005069  -0.014905  -0.010136
     9  H   -0.015989   0.041875   0.519688  -0.025088  -0.006153  -0.000130
    10  H    0.021347   0.005069  -0.025088   0.522768   0.003775  -0.000097
    11  H    0.044515  -0.014905  -0.006153   0.003775   0.550655  -0.000014
    12  H   -0.000862  -0.010136  -0.000130  -0.000097  -0.000014   0.558702
    13  H    0.006469  -0.001586  -0.000099   0.000809  -0.000535  -0.043028
    14  H    0.006195   0.002514  -0.006052   0.003925   0.000256  -0.006473
    15  H    0.003379   0.000877   0.001214  -0.006038  -0.000125   0.000273
    16  H    0.041780  -0.006823   0.000002   0.000012   0.002716   0.000117
    17  H    0.299749   0.009430   0.000002  -0.000027  -0.000086   0.000011
    18  H   -0.002469   0.404310  -0.000049   0.000204  -0.006201   0.000005
    19  O   -0.122891   0.324257  -0.000683   0.008166   0.005463   0.000110
    20  H   -0.076531   0.050534   0.000089  -0.001106  -0.000113   0.000004
    21  O    0.172851  -0.153435   0.000233  -0.001886   0.000169   0.001067
    22  H    0.034177  -0.038971   0.000000   0.000033   0.000003  -0.000006
    23  C    0.023594  -0.135166   0.000415  -0.001310  -0.002403   0.010433
    24  H    0.042116  -0.021229   0.000000   0.000002   0.000002  -0.001322
    25  H    0.043837   0.001319   0.000000   0.000000   0.000005   0.000057
    26  O    0.062413  -0.017392  -0.000002   0.000019   0.000033  -0.000006
    27  H    0.011721  -0.003511   0.000000   0.000000  -0.000003   0.001584
             13         14         15         16         17         18
     1  C   -0.016221  -0.032765  -0.066846   0.001927   0.003694   0.016599
     2  C    0.023612  -0.031489   0.035957  -0.007716   0.002850  -0.091895
     3  N   -0.082667   0.015593   0.009334  -0.014303   0.019750   0.018034
     4  C    0.359665  -0.042037  -0.026279   0.030000   0.000022   0.008808
     5  C   -0.012266   0.420616   0.386777  -0.003160  -0.000184  -0.007125
     6  C    0.082104  -0.005030  -0.006453   0.228074   0.003328  -0.017540
     7  C    0.006469   0.006195   0.003379   0.041780   0.299749  -0.002469
     8  C   -0.001586   0.002514   0.000877  -0.006823   0.009430   0.404310
     9  H   -0.000099  -0.006052   0.001214   0.000002   0.000002  -0.000049
    10  H    0.000809   0.003925  -0.006038   0.000012  -0.000027   0.000204
    11  H   -0.000535   0.000256  -0.000125   0.002716  -0.000086  -0.006201
    12  H   -0.043028  -0.006473   0.000273   0.000117   0.000011   0.000005
    13  H    0.555120   0.003946  -0.003718  -0.000504  -0.000216  -0.000045
    14  H    0.003946   0.523384  -0.025860   0.000010   0.000000   0.000001
    15  H   -0.003718  -0.025860   0.521185   0.000002   0.000000   0.000003
    16  H   -0.000504   0.000010   0.000002   0.548686  -0.003811   0.000656
    17  H   -0.000216   0.000000   0.000000  -0.003811   0.542640  -0.005008
    18  H   -0.000045   0.000001   0.000003   0.000656  -0.005008   0.543347
    19  O   -0.000964   0.000082   0.000145  -0.000505   0.002109  -0.056082
    20  H   -0.000451  -0.000003   0.000014  -0.000024   0.000491   0.006817
    21  O   -0.018210  -0.000083  -0.000105   0.012179  -0.027256   0.006666
    22  H    0.000394   0.000000   0.000000  -0.000210  -0.010868   0.000019
    23  C   -0.033085  -0.002957   0.002835  -0.012933  -0.013856   0.009112
    24  H   -0.001610   0.000003   0.000003   0.004607  -0.000128   0.000001
    25  H   -0.000012   0.000000   0.000000  -0.003623   0.001131   0.000003
    26  O    0.000387   0.000095   0.000000   0.003525  -0.000885   0.000051
    27  H    0.000001  -0.000010   0.000001  -0.000895   0.000002   0.000000
             19         20         21         22         23         24
     1  C    0.042828   0.009869   0.038124  -0.001177  -0.027930  -0.002834
     2  C   -0.174896  -0.039508   0.002753  -0.006393   0.110075   0.016242
     3  N    0.027856   0.003159   0.054425  -0.002760   0.050160   0.003674
     4  C    0.031145   0.009174   0.031101  -0.003112  -0.045660   0.004907
     5  C   -0.038669  -0.010645  -0.010676   0.000169  -0.059361   0.001550
     6  C    0.015460   0.017187  -0.147746   0.029367  -0.440065  -0.124001
     7  C   -0.122891  -0.076531   0.172851   0.034177   0.023594   0.042116
     8  C    0.324257   0.050534  -0.153435  -0.038971  -0.135166  -0.021229
     9  H   -0.000683   0.000089   0.000233   0.000000   0.000415   0.000000
    10  H    0.008166  -0.001106  -0.001886   0.000033  -0.001310   0.000002
    11  H    0.005463  -0.000113   0.000169   0.000003  -0.002403   0.000002
    12  H    0.000110   0.000004   0.001067  -0.000006   0.010433  -0.001322
    13  H   -0.000964  -0.000451  -0.018210   0.000394  -0.033085  -0.001610
    14  H    0.000082  -0.000003  -0.000083   0.000000  -0.002957   0.000003
    15  H    0.000145   0.000014  -0.000105   0.000000   0.002835   0.000003
    16  H   -0.000505  -0.000024   0.012179  -0.000210  -0.012933   0.004607
    17  H    0.002109   0.000491  -0.027256  -0.010868  -0.013856  -0.000128
    18  H   -0.056082   0.006817   0.006666   0.000019   0.009112   0.000001
    19  O    8.220076   0.249380   0.015942   0.000913   0.003795  -0.000035
    20  H    0.249380   0.363275   0.032450  -0.002431   0.004014  -0.000007
    21  O    0.015942   0.032450   8.454344   0.231245  -0.038310   0.008501
    22  H    0.000913  -0.002431   0.231245   0.350896   0.003129   0.000006
    23  C    0.003795   0.004014  -0.038310   0.003129   5.626247   0.424937
    24  H   -0.000035  -0.000007   0.008501   0.000006   0.424937   0.560033
    25  H    0.000016  -0.000001   0.000365  -0.000115   0.505965  -0.033076
    26  O    0.000031  -0.000008   0.002026   0.000037   0.221698  -0.044524
    27  H    0.000002   0.000000  -0.000317   0.000000   0.071475  -0.007957
             25         26         27
     1  C    0.000625  -0.000598   0.000205
     2  C   -0.002789   0.028738   0.007464
     3  N    0.016785   0.025684   0.018819
     4  C    0.001110  -0.002160  -0.007330
     5  C   -0.001208  -0.005946  -0.003244
     6  C   -0.183165  -0.179932  -0.091939
     7  C    0.043837   0.062413   0.011721
     8  C    0.001319  -0.017392  -0.003511
     9  H    0.000000  -0.000002   0.000000
    10  H    0.000000   0.000019   0.000000
    11  H    0.000005   0.000033  -0.000003
    12  H    0.000057  -0.000006   0.001584
    13  H   -0.000012   0.000387   0.000001
    14  H    0.000000   0.000095  -0.000010
    15  H    0.000000   0.000000   0.000001
    16  H   -0.003623   0.003525  -0.000895
    17  H    0.001131  -0.000885   0.000002
    18  H    0.000003   0.000051   0.000000
    19  O    0.000016   0.000031   0.000002
    20  H   -0.000001  -0.000008   0.000000
    21  O    0.000365   0.002026  -0.000317
    22  H   -0.000115   0.000037   0.000000
    23  C    0.505965   0.221698   0.071475
    24  H   -0.033076  -0.044524  -0.007957
    25  H    0.532361  -0.057170   0.006180
    26  O   -0.057170   8.253861   0.248231
    27  H    0.006180   0.248231   0.373779
 Mulliken atomic charges:
              1
     1  C   -0.461796
     2  C   -0.045320
     3  N   -0.217101
     4  C   -0.206409
     5  C   -0.401137
     6  C    0.149507
     7  C    0.009131
     8  C   -0.065308
     9  H    0.172382
    10  H    0.176955
    11  H    0.167813
    12  H    0.155111
    13  H    0.182710
    14  H    0.176140
    15  H    0.173424
    16  H    0.180215
    17  H    0.177116
    18  H    0.171779
    19  O   -0.553050
    20  H    0.384370
    21  O   -0.666419
    22  H    0.415657
    23  C   -0.254847
    24  H    0.170139
    25  H    0.171401
    26  O   -0.538205
    27  H    0.375745
 Sum of Mulliken atomic charges =   0.00000
 Mulliken charges with hydrogens summed into heavy atoms:
              1
     1  C   -0.112459
     2  C    0.122492
     3  N   -0.217101
     4  C    0.131412
     5  C   -0.051573
     6  C    0.329722
     7  C    0.186247
     8  C    0.106470
    19  O   -0.168681
    21  O   -0.250762
    23  C    0.086693
    26  O   -0.162461
 Sum of Mulliken charges with hydrogens summed into heavy atoms =   0.00000
 Electronic spatial extent (au):  <R**2>=           1980.5227
 Charge=              0.0000 electrons
 Dipole moment (field-independent basis, Debye):
    X=             -1.2058    Y=             -1.3509    Z=              1.3535  Tot=              2.2607
 Quadrupole moment (field-independent basis, Debye-Ang):
   XX=            -91.1511   YY=            -63.8611   ZZ=            -71.1712
   XY=             -4.9397   XZ=              1.5259   YZ=              0.7708
 Traceless Quadrupole moment (field-independent basis, Debye-Ang):
   XX=            -15.7566   YY=             11.5334   ZZ=              4.2233
   XY=             -4.9397   XZ=              1.5259   YZ=              0.7708
 Octapole moment (field-independent basis, Debye-Ang**2):
  XXX=            -28.3432  YYY=            -26.0585  ZZZ=              3.7020  XYY=             15.6162
  XXY=              9.4102  XXZ=             15.2238  XZZ=            -10.4626  YZZ=            -11.6759
  YYZ=             12.4238  XYZ=              7.6614
 Hexadecapole moment (field-independent basis, Debye-Ang**3):
 XXXX=          -1627.8887 YYYY=           -816.8788 ZZZZ=           -315.2962 XXXY=            -44.8847
 XXXZ=             24.6172 YYYX=             15.0099 YYYZ=            -41.6426 ZZZX=             -4.5898
 ZZZY=            -10.9776 XXYY=           -363.2303 XXZZ=           -268.1607 YYZZ=           -182.0787
 XXYZ=             -6.5276 YYXZ=            -10.3770 ZZXY=             12.2309
 N-N= 8.127390912230D+02 E-N=-3.011232615661D+03  KE= 5.886556248522D+02
 1\1\GINC-COMPUTE-3-1\SP\RmPW1PW91\6-31+G(d,p)\C8H15N1O3\MAMICHETTI.IQU
 IR\17-May-2024\0\\# mpw1pw91/6-31+G** nmr scrf=(pcm,solvent=water)\\co
 mment\\0,1\C,0,-2.030386,1.345546,-0.167859\C,0,-1.068245,0.435748,-0.
 959155\N,0,0.309511,0.817862,-0.522137\C,0,0.159256,1.490536,0.789207\
 C,0,-1.106554,2.321159,0.587521\C,0,1.096608,-0.433131,-0.556361\C,0,0
 .152414,-1.574309,-0.152557\C,0,-1.217597,-1.119404,-0.738247\H,0,-2.7
 41729,1.857851,-0.822469\H,0,-2.612676,0.747433,0.539249\H,0,-1.156156
 ,0.617058,-2.036179\H,0,1.042771,2.099491,1.011861\H,0,0.015183,0.7904
 62,1.625424\H,0,-0.884768,3.200101,-0.02877\H,0,-1.5341,2.670023,1.532
 767\H,0,1.344685,-0.617986,-1.612084\H,0,0.476807,-2.533056,-0.568224\
 H,0,-1.380629,-1.600081,-1.706646\O,0,-2.299062,-1.535806,0.086414\H,0
 ,-1.977321,-1.42899,1.001914\O,0,0.070378,-1.684851,1.28085\H,0,-0.212
 125,-2.591846,1.484394\C,0,2.417479,-0.381934,0.204201\H,0,2.255258,-0
 .165877,1.266416\H,0,2.899863,-1.36198,0.136319\O,0,3.343917,0.551984,
 -0.362078\H,0,2.958646,1.436478,-0.250984\\Version=AM64L-G09RevC.01\St
 ate=1-A\HF=-594.1907064\RMSD=5.276e-09\Dipole=-0.4744068,-0.5314712,0.
 5325206\Quadrupole=-11.7146817,8.5747676,3.1399141,-3.6725558,1.134500
 7,0.5731058\PG=C01 [X(C8H15N1O3)]\\@


 OLD AGE AND TREACHERY WILL ALWAYS PREVAIL OVER YOUTH AND SKILL.
 Job cpu time:  0 days  0 hours  9 minutes  5.2 seconds.
 File lengths (MBytes):  RWF=    112 Int=      0 D2E=      0 Chk=      7 Scr=      1
 Normal termination of Gaussian 09 at Fri May 17 12:57:06 2024.
