 Entering Gaussian System, Link 0=g09
 Input=/home/mamichetti.iquir/Linux/04_Cardona_A1A3_R__S_R_S_026_OptB.gjc
 Output=/home/mamichetti.iquir/Linux/04_Cardona_A1A3_R__S_R_S_026_OptB.log
 Initial command:
 /opt/ohpc/pub/apps/software/Gaussian/09/AMD64.SSE4a-enabled/g09/l1.exe /local/mamichetti.iquir/Gau-409311.inp -scrdir=/local/mamichetti.iquir/
 Entering Link 1 = /opt/ohpc/pub/apps/software/Gaussian/09/AMD64.SSE4a-enabled/g09/l1.exe PID=    409312.
  
 Copyright (c) 1988,1990,1992,1993,1995,1998,2003,2009,2011,
            Gaussian, Inc.  All Rights Reserved.
  
 This is part of the Gaussian(R) 09 program.  It is based on
 the Gaussian(R) 03 system (copyright 2003, Gaussian, Inc.),
 the Gaussian(R) 98 system (copyright 1998, Gaussian, Inc.),
 the Gaussian(R) 94 system (copyright 1995, Gaussian, Inc.),
 the Gaussian 92(TM) system (copyright 1992, Gaussian, Inc.),
 the Gaussian 90(TM) system (copyright 1990, Gaussian, Inc.),
 the Gaussian 88(TM) system (copyright 1988, Gaussian, Inc.),
 the Gaussian 86(TM) system (copyright 1986, Carnegie Mellon
 University), and the Gaussian 82(TM) system (copyright 1983,
 Carnegie Mellon University). Gaussian is a federally registered
 trademark of Gaussian, Inc.
  
 This software contains proprietary and confidential information,
 including trade secrets, belonging to Gaussian, Inc.
  
 This software is provided under written license and may be
 used, copied, transmitted, or stored only in accord with that
 written license.
  
 The following legend is applicable only to US Government
 contracts under FAR:
  
                    RESTRICTED RIGHTS LEGEND
  
 Use, reproduction and disclosure by the US Government is
 subject to restrictions as set forth in subparagraphs (a)
 and (c) of the Commercial Computer Software - Restricted
 Rights clause in FAR 52.227-19.
  
 Gaussian, Inc.
 340 Quinnipiac St., Bldg. 40, Wallingford CT 06492
  
  
 ---------------------------------------------------------------
 Warning -- This program may not be used in any manner that
 competes with the business of Gaussian, Inc. or will provide
 assistance to any competitor of Gaussian, Inc.  The licensee
 of this program is prohibited from giving any competitor of
 Gaussian, Inc. access to this program.  By using this program,
 the user acknowledges that Gaussian, Inc. is engaged in the
 business of creating and licensing software in the field of
 computational chemistry and represents and warrants to the
 licensee that it is not a competitor of Gaussian, Inc. and that
 it will not use this program in any manner prohibited above.
 ---------------------------------------------------------------
  

 Cite this work as:
 Gaussian 09, Revision C.01,
 M. J. Frisch, G. W. Trucks, H. B. Schlegel, G. E. Scuseria, 
 M. A. Robb, J. R. Cheeseman, G. Scalmani, V. Barone, B. Mennucci, 
 G. A. Petersson, H. Nakatsuji, M. Caricato, X. Li, H. P. Hratchian, 
 A. F. Izmaylov, J. Bloino, G. Zheng, J. L. Sonnenberg, M. Hada, 
 M. Ehara, K. Toyota, R. Fukuda, J. Hasegawa, M. Ishida, T. Nakajima, 
 Y. Honda, O. Kitao, H. Nakai, T. Vreven, J. A. Montgomery, Jr., 
 J. E. Peralta, F. Ogliaro, M. Bearpark, J. J. Heyd, E. Brothers, 
 K. N. Kudin, V. N. Staroverov, T. Keith, R. Kobayashi, J. Normand, 
 K. Raghavachari, A. Rendell, J. C. Burant, S. S. Iyengar, J. Tomasi, 
 M. Cossi, N. Rega, J. M. Millam, M. Klene, J. E. Knox, J. B. Cross, 
 V. Bakken, C. Adamo, J. Jaramillo, R. Gomperts, R. E. Stratmann, 
 O. Yazyev, A. J. Austin, R. Cammi, C. Pomelli, J. W. Ochterski, 
 R. L. Martin, K. Morokuma, V. G. Zakrzewski, G. A. Voth, 
 P. Salvador, J. J. Dannenberg, S. Dapprich, A. D. Daniels, 
 O. Farkas, J. B. Foresman, J. V. Ortiz, J. Cioslowski, 
 and D. J. Fox, Gaussian, Inc., Wallingford CT, 2010.
 
 ******************************************
 Gaussian 09:  AM64L-G09RevC.01 23-Sep-2011
                17-May-2024 
 ******************************************
 %nprocshared=4
 Will use up to    4 processors via shared memory.
 ------------------------------------------------
 # mpw1pw91/6-31+G** nmr scrf=(pcm,solvent=water)
 ------------------------------------------------
 1/38=1/1;
 2/12=2,17=6,18=5,40=1/2;
 3/5=1,6=6,7=111,11=2,16=1,25=1,30=1,70=2201,72=1,74=-7/1,2,8,3;
 4//1;
 5/5=2,38=5,53=1/2;
 8/6=1,10=90,11=11/1;
 10/13=100,45=16/2;
 6/7=2,8=2,9=2,10=2,28=1/1;
 99/9=1/99;
 -------
 comment
 -------
 Charge =  0 Multiplicity = 1
 Symbolic Z-Matrix:
 6                    -2.09435   0.80091   0.41232 
 6                    -1.36532   0.178    -0.81578 
 7                    -0.08673   0.93373  -1.01096 
 6                    -0.21502   2.15635  -0.18891 
 6                    -1.0899    1.79881   1.01751 
 6                     1.05133  -0.0011   -0.7388 
 6                     0.46317  -1.25898  -0.08455 
 6                    -0.93803  -1.30644  -0.69767 
 1                    -2.99277   1.32619   0.07069 
 1                    -2.41787   0.03803   1.12536 
 1                    -2.00327   0.2878   -1.69974 
 1                    -0.72546   2.92072  -0.79126 
 1                     0.76115   2.5677    0.07257 
 1                    -1.57837   2.67505   1.457 
 1                    -0.48781   1.31946   1.79519 
 1                     1.44933  -0.332    -1.70893 
 1                     1.04947  -2.15138  -0.33817 
 1                    -0.86064  -1.73107  -1.70752 
 8                    -1.7672   -2.13654   0.11258 
 1                    -2.69184  -1.99099  -0.14851 
 8                     0.39461  -1.12297   1.33811 
 1                    -0.37312  -1.65589   1.61535 
 6                     2.24279   0.59262   0.01914 
 1                     2.64832   1.44682  -0.53068 
 1                     1.95348   0.93792   1.01738 
 8                     3.31074  -0.35788   0.11561 
 1                     3.04344  -1.01632   0.77807 
 
                          Input orientation:                          
 ---------------------------------------------------------------------
 Center     Atomic      Atomic             Coordinates (Angstroms)
 Number     Number       Type             X           Y           Z
 ---------------------------------------------------------------------
      1          6           0       -2.094352    0.800912    0.412317
      2          6           0       -1.365323    0.177995   -0.815778
      3          7           0       -0.086732    0.933725   -1.010959
      4          6           0       -0.215023    2.156352   -0.188913
      5          6           0       -1.089903    1.798813    1.017507
      6          6           0        1.051329   -0.001100   -0.738797
      7          6           0        0.463174   -1.258980   -0.084552
      8          6           0       -0.938032   -1.306436   -0.697666
      9          1           0       -2.992772    1.326189    0.070691
     10          1           0       -2.417866    0.038031    1.125363
     11          1           0       -2.003267    0.287802   -1.699736
     12          1           0       -0.725456    2.920719   -0.791257
     13          1           0        0.761152    2.567700    0.072566
     14          1           0       -1.578371    2.675051    1.456995
     15          1           0       -0.487813    1.319455    1.795185
     16          1           0        1.449325   -0.331995   -1.708926
     17          1           0        1.049471   -2.151376   -0.338166
     18          1           0       -0.860639   -1.731068   -1.707524
     19          8           0       -1.767203   -2.136536    0.112579
     20          1           0       -2.691839   -1.990993   -0.148505
     21          8           0        0.394606   -1.122973    1.338105
     22          1           0       -0.373121   -1.655888    1.615354
     23          6           0        2.242791    0.592615    0.019135
     24          1           0        2.648323    1.446822   -0.530679
     25          1           0        1.953483    0.937916    1.017379
     26          8           0        3.310736   -0.357884    0.115614
     27          1           0        3.043441   -1.016321    0.778066
 ---------------------------------------------------------------------
                    Distance matrix (angstroms):
                    1          2          3          4          5
     1  C    0.000000
     2  C    1.558116   0.000000
     3  N    2.464527   1.498005   0.000000
     4  C    2.393861   2.372772   1.478863   0.000000
     5  C    1.539798   2.462487   2.422685   1.532546   0.000000
     6  C    3.444357   2.424502   1.497716   2.561371   3.302903
     7  C    3.321291   2.437825   2.443068   3.483581   3.602316
     8  C    2.647651   1.549214   2.416854   3.573860   3.550698
     9  H    1.095346   2.180084   3.125550   2.910748   2.177325
    10  H    1.093199   2.212570   3.286385   3.326729   2.208047
    11  H    2.175396   1.095633   2.136524   2.995310   3.240493
    12  H    2.795720   2.816481   2.098662   1.098916   2.159426
    13  H    3.375037   3.319901   2.136073   1.091099   2.215966
    14  H    2.206804   3.383220   3.368679   2.199268   1.095237
    15  H    2.182242   2.981624   2.860786   2.170589   1.094111
    16  H    4.282616   2.996673   2.109189   3.357434   4.292023
    17  H    4.377540   3.388999   3.355809   4.491964   4.692416
    18  H    3.525152   2.166665   2.860989   4.223154   4.465245
    19  O    2.970769   2.525947   3.675979   4.574828   4.094460
    20  H    2.909681   2.628575   4.010534   4.830810   4.276495
    21  O    3.279227   3.070681   3.159081   3.668433   3.292929
    22  H    3.231996   3.202810   3.699410   4.220610   3.578569
    23  C    4.359907   3.726590   2.569850   2.920515   3.682188
    24  H    4.878464   4.219071   2.823909   2.969678   4.061417
    25  H    4.095099   3.866836   2.876917   2.764443   3.162806
    26  O    5.535866   4.797936   3.805287   4.341094   4.983009
    27  H    5.461962   4.837761   4.098936   4.649569   5.006680
                    6          7          8          9         10
     6  C    0.000000
     7  C    1.535000   0.000000
     8  C    2.379738   1.530209   0.000000
     9  H    4.332634   4.318653   3.426812   0.000000
    10  H    3.938520   3.383271   2.705723   1.761307   0.000000
    11  H    3.215187   3.329367   2.163438   2.278548   2.866263
    12  H    3.420050   4.402517   4.233531   2.902792   3.853255
    13  H    2.709473   3.841478   4.299932   3.953897   4.196875
    14  H    4.347253   4.692640   4.572181   2.396205   2.787222
    15  H    3.245595   3.329582   3.648603   3.041175   2.411600
    16  H    1.099565   2.114329   2.769775   5.064468   4.808875
    17  H    2.187280   1.097467   2.189368   5.347930   4.354061
    18  H    2.754422   2.146948   1.098233   4.129753   3.685094
    19  O    3.637176   2.404901   1.425864   3.673450   2.485525
    20  H    4.280120   3.239451   1.961131   3.338009   2.411377
    21  O    2.450185   1.430787   2.440071   4.367959   3.050113
    22  H    3.210827   1.935615   2.406513   4.259265   2.700081
    23  C    1.531842   2.570251   3.773305   5.286956   4.822139
    24  H    2.165683   3.506461   4.524407   5.674341   5.513024
    25  H    2.186272   2.874304   4.042197   5.050981   4.464319
    26  O    2.441768   2.993434   4.428680   6.524748   5.830371
    27  H    2.701862   2.731441   4.256064   6.513340   5.572984
                   11         12         13         14         15
    11  H    0.000000
    12  H    3.064374   0.000000
    13  H    3.997625   1.755225   0.000000
    14  H    3.980508   2.417117   2.720576   0.000000
    15  H    3.946566   3.051262   2.466870   1.772380   0.000000
    16  H    3.507795   4.018947   3.472107   5.313410   4.331118
    17  H    4.137955   5.392755   4.745683   5.781224   4.354434
    18  H    2.319805   4.743094   4.927305   5.472038   4.659792
    19  O    3.036054   5.241945   5.340788   4.999448   4.051157
    20  H    2.841365   5.329607   5.723085   5.058597   4.426593
    21  O    4.119291   4.705334   3.918802   4.281560   2.636862
    22  H    4.174342   5.182784   4.637399   4.498304   2.982978
    23  C    4.590908   3.858406   2.469629   4.583150   3.337491
    24  H    4.934299   3.690889   2.276332   4.829528   3.906560
    25  H    4.843680   3.792016   2.229466   3.960416   2.590459
    26  O    5.652525   5.278494   3.880886   5.907738   4.479219
    27  H    5.771438   5.671653   4.307178   5.953849   4.354324
                   16         17         18         19         20
    16  H    0.000000
    17  H    2.312793   0.000000
    18  H    2.700619   2.387534   0.000000
    19  O    4.113429   2.852550   2.073412   0.000000
    20  H    4.726143   3.749546   2.418966   0.971751   0.000000
    21  O    3.320011   2.072763   3.349817   2.683774   3.534064
    22  H    4.015575   2.466884   3.359292   2.105426   2.932567
    23  C    2.114400   3.013497   4.244070   4.851500   5.572585
    24  H    2.447458   3.942134   4.878193   5.722858   6.362543
    25  H    3.049523   3.492630   4.740027   4.910644   5.613983
    26  O    2.606620   2.921618   4.754980   5.380435   6.226372
    27  H    3.032266   2.551517   4.683040   4.983979   5.890837
                   21         22         23         24         25
    21  O    0.000000
    22  H    0.974818   0.000000
    23  C    2.845824   3.800878   0.000000
    24  H    3.895567   4.833362   1.093810   0.000000
    25  H    2.603887   3.535319   1.095182   1.771517   0.000000
    26  O    3.253254   4.183878   1.432921   2.028164   2.081925
    27  H    2.709492   3.575331   1.950818   2.817092   2.250405
                   26         27
    26  O    0.000000
    27  H    0.971508   0.000000
 Stoichiometry    C8H15NO3
 Framework group  C1[X(C8H15NO3)]
 Deg. of freedom    75
 Full point group                 C1      NOp   1
 Largest Abelian subgroup         C1      NOp   1
 Largest concise Abelian subgroup C1      NOp   1
                         Standard orientation:                         
 ---------------------------------------------------------------------
 Center     Atomic      Atomic             Coordinates (Angstroms)
 Number     Number       Type             X           Y           Z
 ---------------------------------------------------------------------
      1          6           0       -2.094352    0.800912    0.412317
      2          6           0       -1.365323    0.177995   -0.815778
      3          7           0       -0.086732    0.933725   -1.010959
      4          6           0       -0.215023    2.156352   -0.188913
      5          6           0       -1.089903    1.798813    1.017507
      6          6           0        1.051329   -0.001100   -0.738797
      7          6           0        0.463174   -1.258980   -0.084552
      8          6           0       -0.938032   -1.306436   -0.697666
      9          1           0       -2.992772    1.326189    0.070691
     10          1           0       -2.417866    0.038031    1.125363
     11          1           0       -2.003267    0.287802   -1.699736
     12          1           0       -0.725456    2.920719   -0.791257
     13          1           0        0.761152    2.567700    0.072566
     14          1           0       -1.578371    2.675051    1.456995
     15          1           0       -0.487813    1.319455    1.795185
     16          1           0        1.449325   -0.331995   -1.708926
     17          1           0        1.049471   -2.151376   -0.338166
     18          1           0       -0.860639   -1.731068   -1.707524
     19          8           0       -1.767203   -2.136536    0.112579
     20          1           0       -2.691839   -1.990993   -0.148505
     21          8           0        0.394606   -1.122973    1.338105
     22          1           0       -0.373121   -1.655888    1.615354
     23          6           0        2.242791    0.592615    0.019135
     24          1           0        2.648323    1.446822   -0.530679
     25          1           0        1.953483    0.937916    1.017379
     26          8           0        3.310736   -0.357884    0.115614
     27          1           0        3.043441   -1.016321    0.778066
 ---------------------------------------------------------------------
 Rotational constants (GHZ):      1.2701678      0.9051981      0.6672528
 Standard basis: 6-31+G(d,p) (6D, 7F)
 There are   303 symmetry adapted basis functions of A   symmetry.
 Integral buffers will be    131072 words long.
 Raffenetti 2 integral format.
 Two-electron integral symmetry is turned on.
   303 basis functions,   489 primitive gaussians,   303 cartesian basis functions
    47 alpha electrons       47 beta electrons
       nuclear repulsion energy       820.0358952797 Hartrees.
 NAtoms=   27 NActive=   27 NUniq=   27 SFac= 1.00D+00 NAtFMM=   60 NAOKFM=F Big=F
 ------------------------------------------------------------------------------
 Polarizable Continuum Model (PCM)
 =================================
 Model                : PCM.
 Atomic radii         : UFF (Universal Force Field).
 Polarization charges : Total charges.
 Charge compensation  : None.
 Solution method      : Matrix inversion.
 Cavity type          : Scaled VdW (van der Waals Surface) (Alpha=1.100).
 Cavity algorithm     : GePol (No added spheres)
                        Default sphere list used, NSphG=   27.
                        Lebedev-Laikov grids with approx.  5.0 points / Ang**2.
                        Smoothing algorithm: Karplus/York (Gamma=1.0000).
                        Polarization charges: spherical gaussians, with
                                              point-specific exponents (IZeta= 3).
                        Self-potential: point-specific (ISelfS= 7).
                        Self-field    : sphere-specific E.n sum rule (ISelfD= 2).
 Solvent              : Water, Eps=  78.355300 Eps(inf)=   1.777849
 ------------------------------------------------------------------------------
 One-electron integrals computed using PRISM.
 NBasis=   303 RedAO= T  NBF=   303
 NBsUse=   303 1.00D-06 NBFU=   303
 Harris functional with IExCor=  908 diagonalized for initial guess.
 ExpMin= 4.38D-02 ExpMax= 5.48D+03 ExpMxC= 8.25D+02 IAcc=2 IRadAn=         4 AccDes= 0.00D+00
 HarFok:  IExCor=  908 AccDes= 0.00D+00 IRadAn=         4 IDoV= 1
 ScaDFX=  1.000000  1.000000  1.000000  1.000000
 FoFCou: FMM=F IPFlag=           0 FMFlag=      100000 FMFlg1=           0
         NFxFlg=           0 DoJE=T BraDBF=F KetDBF=T FulRan=T
         Omega=  0.000000  0.000000  1.000000  0.000000  0.000000 ICntrl=     500 IOpCl=  0
         NMat0=    1 NMatS0=    1 NMatT0=    0 NMatD0=    1 NMtDS0=    0 NMtDT0=    0
         I1Cent=           4 NGrid=           0.
 Petite list used in FoFCou.
 Initial guess orbital symmetries:
       Occupied  (A) (A) (A) (A) (A) (A) (A) (A) (A) (A) (A) (A)
                 (A) (A) (A) (A) (A) (A) (A) (A) (A) (A) (A) (A)
                 (A) (A) (A) (A) (A) (A) (A) (A) (A) (A) (A) (A)
                 (A) (A) (A) (A) (A) (A) (A) (A) (A) (A) (A)
       Virtual   (A) (A) (A) (A) (A) (A) (A) (A) (A) (A) (A) (A)
                 (A) (A) (A) (A) (A) (A) (A) (A) (A) (A) (A) (A)
                 (A) (A) (A) (A) (A) (A) (A) (A) (A) (A) (A) (A)
                 (A) (A) (A) (A) (A) (A) (A) (A) (A) (A) (A) (A)
                 (A) (A) (A) (A) (A) (A) (A) (A) (A) (A) (A) (A)
                 (A) (A) (A) (A) (A) (A) (A) (A) (A) (A) (A) (A)
                 (A) (A) (A) (A) (A) (A) (A) (A) (A) (A) (A) (A)
                 (A) (A) (A) (A) (A) (A) (A) (A) (A) (A) (A) (A)
                 (A) (A) (A) (A) (A) (A) (A) (A) (A) (A) (A) (A)
                 (A) (A) (A) (A) (A) (A) (A) (A) (A) (A) (A) (A)
                 (A) (A) (A) (A) (A) (A) (A) (A) (A) (A) (A) (A)
                 (A) (A) (A) (A) (A) (A) (A) (A) (A) (A) (A) (A)
                 (A) (A) (A) (A) (A) (A) (A) (A) (A) (A) (A) (A)
                 (A) (A) (A) (A) (A) (A) (A) (A) (A) (A) (A) (A)
                 (A) (A) (A) (A) (A) (A) (A) (A) (A) (A) (A) (A)
                 (A) (A) (A) (A) (A) (A) (A) (A) (A) (A) (A) (A)
                 (A) (A) (A) (A) (A) (A) (A) (A) (A) (A) (A) (A)
                 (A) (A) (A) (A) (A) (A) (A) (A) (A) (A) (A) (A)
                 (A) (A) (A) (A) (A) (A) (A) (A) (A) (A) (A) (A)
                 (A) (A) (A) (A) (A) (A) (A) (A) (A) (A) (A) (A)
                 (A) (A) (A) (A) (A) (A) (A) (A) (A) (A) (A) (A)
                 (A) (A) (A) (A)
 The electronic state of the initial guess is 1-A.
 Requested convergence on RMS density matrix=1.00D-08 within 128 cycles.
 Requested convergence on MAX density matrix=1.00D-06.
 Requested convergence on             energy=1.00D-06.
 No special actions if energy rises.
 Error on total polarization charges =  0.01440
 SCF Done:  E(RmPW1PW91) =  -594.187549103     A.U. after   13 cycles
             Convg  =    0.6748D-08             -V/T =  2.0094
 Range of M.O.s used for correlation:     1   303
 NBasis=   303 NAE=    47 NBE=    47 NFC=     0 NFV=     0
 NROrb=    303 NOA=    47 NOB=    47 NVA=   256 NVB=   256

 **** Warning!!: The largest alpha MO coefficient is  0.71455812D+02

 NEqPCM:  Using equilibrium solvation (IEInf=0, Eps=  78.3553, EpsInf=   1.7778)
          Differentiating once with respect to magnetic field using GIAOs.
          Electric field/nuclear overlap derivatives assumed to be zero.
 FoFCou: FMM=F IPFlag=           0 FMFlag=    10101102 FMFlg1=           0
         NFxFlg=    40000000 DoJE=F BraDBF=F KetDBF=T FulRan=T
         Omega=  0.000000  0.000000  1.000000  0.000000  0.000000 ICntrl=    6100 IOpCl=  0
         NMat0=    1 NMatS0=    1 NMatT0=    0 NMatD0=    1 NMtDS0=    0 NMtDT0=    0
         I1Cent=           7 NGrid=        1769.
 Symmetry not used in FoFCou.
          There are     3 degrees of freedom in the 1st order CPHF.  IDoFFX=0.
      3 vectors produced by pass  0 Test12= 4.01D-13 3.33D-08 XBig12= 2.79D+01 1.31D+00.
 AX will form     3 AO Fock derivatives at one time.
      3 vectors produced by pass  1 Test12= 4.01D-13 3.33D-08 XBig12= 6.76D-02 6.10D-02.
      3 vectors produced by pass  2 Test12= 4.01D-13 3.33D-08 XBig12= 1.60D-04 2.91D-03.
      3 vectors produced by pass  3 Test12= 4.01D-13 3.33D-08 XBig12= 7.85D-07 1.70D-04.
      3 vectors produced by pass  4 Test12= 4.01D-13 3.33D-08 XBig12= 2.34D-09 7.95D-06.
      3 vectors produced by pass  5 Test12= 4.01D-13 3.33D-08 XBig12= 6.86D-12 3.70D-07.
 Inverted reduced A of dimension    18 with in-core refinement.
 Calculating GIAO nuclear magnetic shielding tensors.
 SCF GIAO Magnetic shielding tensor (ppm):
      1  C    Isotropic =   169.3955   Anisotropy =    26.1804
   XX=   174.9161   YX=    12.5474   ZX=    -7.0756
   XY=     8.1649   YY=   163.0485   ZY=    17.8421
   XZ=    -5.7745   YZ=    21.2421   ZZ=   170.2220
   Eigenvalues:   142.2927   179.0447   186.8491
      2  C    Isotropic =   125.7383   Anisotropy =    63.6419
   XX=   140.5397   YX=    27.7510   ZX=   -16.7766
   XY=    26.3488   YY=   136.3967   ZY=     1.5635
   XZ=   -22.7666   YZ=     3.4525   ZZ=   100.2785
   Eigenvalues:    88.1154   120.9332   168.1662
      3  N    Isotropic =   194.1257   Anisotropy =    82.2038
   XX=   240.7815   YX=    20.6555   ZX=     0.2439
   XY=    15.4416   YY=   205.0102   ZY=    21.6167
   XZ=     8.4289   YZ=     0.7706   ZZ=   136.5853
   Eigenvalues:   134.7802   198.6686   248.9282
      4  C    Isotropic =   144.5144   Anisotropy =    48.9823
   XX=   122.8080   YX=     1.9855   ZX=   -15.0577
   XY=    12.0222   YY=   163.4609   ZY=    21.0345
   XZ=   -23.8927   YZ=    18.2468   ZZ=   147.2745
   Eigenvalues:   107.3733   149.0007   177.1693
      5  C    Isotropic =   168.7714   Anisotropy =    19.6108
   XX=   166.2135   YX=    10.2569   ZX=   -12.3030
   XY=    10.8280   YY=   167.9211   ZY=     3.8222
   XZ=   -12.1248   YZ=    14.4778   ZZ=   172.1798
   Eigenvalues:   147.2248   177.2442   181.8453
      6  C    Isotropic =   128.5120   Anisotropy =    49.5287
   XX=   148.7746   YX=   -21.5359   ZX=     9.0476
   XY=   -11.4850   YY=   133.5349   ZY=   -10.1257
   XZ=     1.9647   YZ=   -14.1255   ZZ=   103.2264
   Eigenvalues:    98.9706   125.0341   161.5311
      7  C    Isotropic =   122.5399   Anisotropy =    29.3675
   XX=   114.0694   YX=    -0.1092   ZX=    -5.3123
   XY=     5.1948   YY=   111.5004   ZY=    -0.3060
   XZ=     6.0869   YZ=    -2.5315   ZZ=   142.0499
   Eigenvalues:   109.8741   115.6273   142.1182
      8  C    Isotropic =   120.4428   Anisotropy =    50.6979
   XX=   134.3245   YX=    16.6612   ZX=   -14.4705
   XY=    15.3222   YY=   129.3772   ZY=   -18.6905
   XZ=    -6.4141   YZ=   -14.1356   ZZ=    97.6267
   Eigenvalues:    90.3543   116.7327   154.2414
      9  H    Isotropic =    30.1868   Anisotropy =    12.6321
   XX=    36.6545   YX=    -4.1816   ZX=     1.8044
   XY=    -4.7063   YY=    27.5127   ZY=     1.1897
   XZ=     2.0283   YZ=     1.1407   ZZ=    26.3932
   Eigenvalues:    24.1662    27.7860    38.6082
     10  H    Isotropic =    29.5028   Anisotropy =     6.9581
   XX=    29.0261   YX=     1.4492   ZX=    -4.0649
   XY=     1.6104   YY=    31.3567   ZY=    -1.2572
   XZ=    -3.6614   YZ=    -1.8030   ZZ=    28.1256
   Eigenvalues:    24.6840    29.6829    34.1416
     11  H    Isotropic =    27.9601   Anisotropy =     9.2909
   XX=    28.5835   YX=     0.1045   ZX=     4.6462
   XY=    -0.4768   YY=    24.3310   ZY=     0.2899
   XZ=     3.7698   YZ=     0.5998   ZZ=    30.9658
   Eigenvalues:    24.1826    25.5437    34.1540
     12  H    Isotropic =    28.9284   Anisotropy =    12.4457
   XX=    23.8361   YX=    -3.0795   ZX=    -0.1997
   XY=    -2.8511   YY=    35.2605   ZY=    -4.1029
   XZ=    -0.7965   YZ=    -3.1754   ZZ=    27.6886
   Eigenvalues:    22.6739    26.8859    37.2255
     13  H    Isotropic =    28.7003   Anisotropy =     7.6496
   XX=    30.4280   YX=     1.5529   ZX=    -0.6287
   XY=     3.3070   YY=    31.8415   ZY=     1.9928
   XZ=    -0.0179   YZ=     1.3443   ZZ=    23.8313
   Eigenvalues:    23.3994    28.9014    33.8000
     14  H    Isotropic =    30.1797   Anisotropy =    12.3702
   XX=    28.2537   YX=    -2.9115   ZX=    -2.6424
   XY=    -2.9443   YY=    33.2697   ZY=     5.4092
   XZ=    -2.6874   YZ=     5.3185   ZZ=    29.0157
   Eigenvalues:    25.1936    26.9190    38.4265
     15  H    Isotropic =    29.7192   Anisotropy =     7.3505
   XX=    28.3402   YX=    -0.9662   ZX=     3.2627
   XY=    -1.6795   YY=    28.0763   ZY=    -0.7434
   XZ=     3.2314   YZ=    -0.1235   ZZ=    32.7411
   Eigenvalues:    26.1125    28.4257    34.6195
     16  H    Isotropic =    28.1546   Anisotropy =     8.2975
   XX=    29.3684   YX=    -1.8236   ZX=    -3.7417
   XY=    -2.6549   YY=    25.3611   ZY=     1.3759
   XZ=    -3.5992   YZ=    -0.3007   ZZ=    29.7345
   Eigenvalues:    24.0802    26.6974    33.6863
     17  H    Isotropic =    27.5226   Anisotropy =     7.7825
   XX=    26.8588   YX=    -3.6865   ZX=    -0.6886
   XY=    -2.6084   YY=    29.0925   ZY=     2.2032
   XZ=    -2.0355   YZ=     3.0027   ZZ=    26.6164
   Eigenvalues:    24.4694    25.3875    32.7110
     18  H    Isotropic =    27.0767   Anisotropy =     7.1623
   XX=    23.7628   YX=     0.8961   ZX=    -1.9107
   XY=     2.1494   YY=    27.7146   ZY=     2.2972
   XZ=     0.5873   YZ=     3.5635   ZZ=    29.7529
   Eigenvalues:    22.8132    26.5654    31.8516
     19  O    Isotropic =   302.1072   Anisotropy =    43.8430
   XX=   325.8983   YX=    -4.2529   ZX=     5.5615
   XY=     6.7480   YY=   311.3831   ZY=    -6.4600
   XZ=    30.6001   YZ=    11.2409   ZZ=   269.0402
   Eigenvalues:   263.6981   311.2877   331.3359
     20  H    Isotropic =    29.9025   Anisotropy =    19.0998
   XX=    41.9979   YX=     2.6137   ZX=     2.9346
   XY=     1.8600   YY=    25.2973   ZY=    -2.2364
   XZ=     2.8810   YZ=    -1.8997   ZZ=    22.4122
   Eigenvalues:    20.7179    26.3539    42.6357
     21  O    Isotropic =   317.6418   Anisotropy =    29.6712
   XX=   323.5073   YX=     7.7508   ZX=   -21.6486
   XY=     8.0948   YY=   327.0893   ZY=    15.0829
   XZ=   -13.4059   YZ=   -12.5359   ZZ=   302.3287
   Eigenvalues:   291.7136   323.7892   337.4226
     22  H    Isotropic =    28.7643   Anisotropy =    17.4521
   XX=    32.6316   YX=     8.9637   ZX=    -1.4228
   XY=     8.6325   YY=    25.0594   ZY=    -5.2454
   XZ=    -3.1775   YZ=    -5.0020   ZZ=    28.6019
   Eigenvalues:    18.2801    27.6137    40.3990
     23  C    Isotropic =   135.4051   Anisotropy =    68.9378
   XX=   151.0475   YX=   -30.9653   ZX=     9.6373
   XY=   -31.5606   YY=   147.7139   ZY=     0.0141
   XZ=     8.9333   YZ=    -0.8868   ZZ=   107.4539
   Eigenvalues:   104.1573   120.6943   181.3636
     24  H    Isotropic =    27.8056   Anisotropy =     5.4820
   XX=    30.1212   YX=    -0.1409   ZX=     0.6326
   XY=     1.4211   YY=    30.4026   ZY=    -2.9686
   XZ=    -0.6595   YZ=    -2.0938   ZZ=    22.8929
   Eigenvalues:    22.1156    29.8409    31.4603
     25  H    Isotropic =    27.4276   Anisotropy =     5.3521
   XX=    29.9275   YX=    -2.1992   ZX=     0.2955
   XY=    -1.9789   YY=    26.8107   ZY=     3.3512
   XZ=     1.7114   YZ=     1.9122   ZZ=    25.5445
   Eigenvalues:    22.8441    28.4429    30.9957
     26  O    Isotropic =   315.6243   Anisotropy =    52.6012
   XX=   306.0396   YX=    17.8199   ZX=   -11.7181
   XY=    -9.1751   YY=   324.6101   ZY=   -23.8287
   XZ=    -2.2039   YZ=   -33.3633   ZZ=   316.2231
   Eigenvalues:   291.0861   305.0950   350.6917
     27  H    Isotropic =    30.3243   Anisotropy =    15.5912
   XX=    29.8928   YX=    -0.8043   ZX=    -1.6202
   XY=    -0.2979   YY=    31.9516   ZY=   -10.6465
   XZ=    -1.6325   YZ=    -9.4335   ZZ=    29.1287
   Eigenvalues:    20.1419    30.1127    40.7185
 End of Minotr Frequency-dependent properties file   721 does not exist.
 End of Minotr Frequency-dependent properties file   722 does not exist.

 **********************************************************************

            Population analysis using the SCF density.

 **********************************************************************

 Orbital symmetries:
       Occupied  (A) (A) (A) (A) (A) (A) (A) (A) (A) (A) (A) (A)
                 (A) (A) (A) (A) (A) (A) (A) (A) (A) (A) (A) (A)
                 (A) (A) (A) (A) (A) (A) (A) (A) (A) (A) (A) (A)
                 (A) (A) (A) (A) (A) (A) (A) (A) (A) (A) (A)
       Virtual   (A) (A) (A) (A) (A) (A) (A) (A) (A) (A) (A) (A)
                 (A) (A) (A) (A) (A) (A) (A) (A) (A) (A) (A) (A)
                 (A) (A) (A) (A) (A) (A) (A) (A) (A) (A) (A) (A)
                 (A) (A) (A) (A) (A) (A) (A) (A) (A) (A) (A) (A)
                 (A) (A) (A) (A) (A) (A) (A) (A) (A) (A) (A) (A)
                 (A) (A) (A) (A) (A) (A) (A) (A) (A) (A) (A) (A)
                 (A) (A) (A) (A) (A) (A) (A) (A) (A) (A) (A) (A)
                 (A) (A) (A) (A) (A) (A) (A) (A) (A) (A) (A) (A)
                 (A) (A) (A) (A) (A) (A) (A) (A) (A) (A) (A) (A)
                 (A) (A) (A) (A) (A) (A) (A) (A) (A) (A) (A) (A)
                 (A) (A) (A) (A) (A) (A) (A) (A) (A) (A) (A) (A)
                 (A) (A) (A) (A) (A) (A) (A) (A) (A) (A) (A) (A)
                 (A) (A) (A) (A) (A) (A) (A) (A) (A) (A) (A) (A)
                 (A) (A) (A) (A) (A) (A) (A) (A) (A) (A) (A) (A)
                 (A) (A) (A) (A) (A) (A) (A) (A) (A) (A) (A) (A)
                 (A) (A) (A) (A) (A) (A) (A) (A) (A) (A) (A) (A)
                 (A) (A) (A) (A) (A) (A) (A) (A) (A) (A) (A) (A)
                 (A) (A) (A) (A) (A) (A) (A) (A) (A) (A) (A) (A)
                 (A) (A) (A) (A) (A) (A) (A) (A) (A) (A) (A) (A)
                 (A) (A) (A) (A) (A) (A) (A) (A) (A) (A) (A) (A)
                 (A) (A) (A) (A) (A) (A) (A) (A) (A) (A) (A) (A)
                 (A) (A) (A) (A)
 The electronic state is 1-A.
 Alpha  occ. eigenvalues --  -19.26886 -19.25803 -19.25338 -14.41277 -10.30789
 Alpha  occ. eigenvalues --  -10.30236 -10.29873 -10.28148 -10.27785 -10.26708
 Alpha  occ. eigenvalues --  -10.24217 -10.23802  -1.08166  -1.05979  -1.04890
 Alpha  occ. eigenvalues --   -0.95953  -0.82257  -0.78900  -0.75464  -0.71650
 Alpha  occ. eigenvalues --   -0.67350  -0.61856  -0.59674  -0.58154  -0.55224
 Alpha  occ. eigenvalues --   -0.52892  -0.52313  -0.50889  -0.49009  -0.48111
 Alpha  occ. eigenvalues --   -0.45500  -0.44425  -0.43275  -0.42453  -0.40563
 Alpha  occ. eigenvalues --   -0.39997  -0.37882  -0.37782  -0.36089  -0.35324
 Alpha  occ. eigenvalues --   -0.34806  -0.34498  -0.32680  -0.30539  -0.30152
 Alpha  occ. eigenvalues --   -0.29368  -0.22826
 Alpha virt. eigenvalues --   -0.00198   0.01621   0.01815   0.01998   0.03645
 Alpha virt. eigenvalues --    0.04075   0.04736   0.04840   0.05278   0.07264
 Alpha virt. eigenvalues --    0.07879   0.08573   0.08852   0.08942   0.09674
 Alpha virt. eigenvalues --    0.09948   0.11315   0.12092   0.12493   0.13427
 Alpha virt. eigenvalues --    0.13676   0.14108   0.14512   0.14631   0.14910
 Alpha virt. eigenvalues --    0.15438   0.16531   0.17218   0.17766   0.18393
 Alpha virt. eigenvalues --    0.18876   0.19162   0.19825   0.20072   0.21105
 Alpha virt. eigenvalues --    0.21442   0.21667   0.21767   0.22105   0.22586
 Alpha virt. eigenvalues --    0.23664   0.24296   0.25202   0.25285   0.25500
 Alpha virt. eigenvalues --    0.26409   0.27042   0.27509   0.27844   0.28704
 Alpha virt. eigenvalues --    0.29744   0.30078   0.30830   0.31021   0.31976
 Alpha virt. eigenvalues --    0.32827   0.33154   0.34069   0.34879   0.35387
 Alpha virt. eigenvalues --    0.35669   0.36225   0.36537   0.37838   0.39036
 Alpha virt. eigenvalues --    0.39796   0.40380   0.41466   0.42008   0.42358
 Alpha virt. eigenvalues --    0.43512   0.43803   0.44695   0.45406   0.46725
 Alpha virt. eigenvalues --    0.47890   0.64239   0.66896   0.67244   0.69166
 Alpha virt. eigenvalues --    0.70595   0.70984   0.72275   0.72912   0.74318
 Alpha virt. eigenvalues --    0.76102   0.78330   0.78931   0.80833   0.82277
 Alpha virt. eigenvalues --    0.82555   0.83423   0.84341   0.86069   0.88022
 Alpha virt. eigenvalues --    0.90566   0.93053   0.94886   0.95835   0.96483
 Alpha virt. eigenvalues --    0.98030   0.99916   1.02762   1.03132   1.05006
 Alpha virt. eigenvalues --    1.05507   1.06460   1.08329   1.09234   1.10024
 Alpha virt. eigenvalues --    1.10669   1.12988   1.13767   1.14968   1.16708
 Alpha virt. eigenvalues --    1.17765   1.19085   1.21865   1.23279   1.25151
 Alpha virt. eigenvalues --    1.28100   1.28849   1.31020   1.31959   1.33292
 Alpha virt. eigenvalues --    1.34830   1.36112   1.38887   1.40536   1.41770
 Alpha virt. eigenvalues --    1.42956   1.43667   1.46366   1.49870   1.53040
 Alpha virt. eigenvalues --    1.54548   1.55368   1.59571   1.61847   1.62048
 Alpha virt. eigenvalues --    1.63848   1.64718   1.67482   1.69499   1.71303
 Alpha virt. eigenvalues --    1.72750   1.74057   1.77357   1.78398   1.78580
 Alpha virt. eigenvalues --    1.80721   1.81539   1.82625   1.85188   1.86206
 Alpha virt. eigenvalues --    1.86613   1.89593   1.90819   1.92373   1.94651
 Alpha virt. eigenvalues --    1.96745   1.97279   2.00844   2.03151   2.04666
 Alpha virt. eigenvalues --    2.06077   2.06947   2.08680   2.09843   2.11021
 Alpha virt. eigenvalues --    2.12464   2.15079   2.16787   2.17864   2.19803
 Alpha virt. eigenvalues --    2.21923   2.24391   2.28118   2.29778   2.31167
 Alpha virt. eigenvalues --    2.32611   2.36375   2.37672   2.38677   2.40235
 Alpha virt. eigenvalues --    2.41400   2.42453   2.43170   2.46188   2.47386
 Alpha virt. eigenvalues --    2.49828   2.50468   2.52758   2.53635   2.56357
 Alpha virt. eigenvalues --    2.57567   2.60175   2.61059   2.62774   2.63791
 Alpha virt. eigenvalues --    2.64147   2.66727   2.68144   2.69191   2.69380
 Alpha virt. eigenvalues --    2.70391   2.71004   2.73476   2.75877   2.77408
 Alpha virt. eigenvalues --    2.79392   2.79631   2.81964   2.82857   2.85146
 Alpha virt. eigenvalues --    2.86205   2.88153   2.89223   2.92767   2.94039
 Alpha virt. eigenvalues --    2.96044   2.99132   3.01564   3.04815   3.05896
 Alpha virt. eigenvalues --    3.07831   3.09743   3.13575   3.15067   3.33379
 Alpha virt. eigenvalues --    3.36435   3.38226   3.39216   3.43893   3.44927
 Alpha virt. eigenvalues --    3.45395   3.48687   3.53214   3.54228   3.56579
 Alpha virt. eigenvalues --    3.56955   3.59145   3.59842   3.61858   4.30558
 Alpha virt. eigenvalues --    4.36061   4.37946   4.45997   4.50383   4.58597
 Alpha virt. eigenvalues --    4.63543   4.69752   4.74589   4.83994   4.92151
 Alpha virt. eigenvalues --    5.01506
          Condensed to atoms (all electrons):
              1          2          3          4          5          6
     1  C    5.898703  -0.181402   0.061808   0.079568   0.010787  -0.128097
     2  C   -0.181402   7.350724  -0.282925  -0.162005  -0.041413  -0.339436
     3  N    0.061808  -0.282925   7.621890   0.190468  -0.226827  -0.963009
     4  C    0.079568  -0.162005   0.190468   5.723870   0.094708  -0.210189
     5  C    0.010787  -0.041413  -0.226827   0.094708   5.489126   0.265798
     6  C   -0.128097  -0.339436  -0.963009  -0.210189   0.265798  11.653467
     7  C   -0.009670   0.466756   0.113884   0.135437  -0.131051  -2.588486
     8  C   -0.149957  -0.777206   0.058431  -0.191771   0.219454   0.577585
     9  H    0.405269  -0.081957   0.011763  -0.009878  -0.027474   0.016651
    10  H    0.467694  -0.131601   0.023184   0.033169  -0.052421  -0.000194
    11  H   -0.035371   0.267265  -0.006513  -0.002352   0.013947  -0.042090
    12  H   -0.005604  -0.011219  -0.020871   0.396888  -0.048303  -0.037111
    13  H    0.018533   0.016916  -0.046182   0.352970  -0.018306   0.015159
    14  H   -0.006894   0.005969   0.023012  -0.034586   0.359259  -0.023189
    15  H   -0.078411   0.006537   0.011318  -0.080201   0.459088   0.011875
    16  H    0.003377  -0.017331   0.029044   0.011221  -0.002824   0.093035
    17  H    0.000707   0.032090   0.031692  -0.002472  -0.000500  -0.187839
    18  H    0.029765   0.008800   0.026560   0.013996  -0.010563  -0.071484
    19  O    0.062957  -0.074354   0.009721   0.018047  -0.024771   0.049297
    20  H   -0.012130  -0.058817   0.000420  -0.002812   0.009043  -0.004324
    21  O    0.036398   0.020028   0.157980  -0.001392  -0.037662  -0.614168
    22  H    0.019781  -0.015072  -0.010081   0.003282  -0.009624   0.103581
    23  C    0.006031  -0.080981   0.236526  -0.122840  -0.022868  -0.935502
    24  H    0.000871   0.001797  -0.003840  -0.008392   0.000598  -0.052656
    25  H    0.001447  -0.001551   0.023382   0.008135  -0.005250  -0.127033
    26  O    0.003853  -0.010116   0.030111   0.003882  -0.000573  -0.166608
    27  H    0.000728  -0.003502  -0.000569  -0.001091  -0.000753  -0.047065
              7          8          9         10         11         12
     1  C   -0.009670  -0.149957   0.405269   0.467694  -0.035371  -0.005604
     2  C    0.466756  -0.777206  -0.081957  -0.131601   0.267265  -0.011219
     3  N    0.113884   0.058431   0.011763   0.023184  -0.006513  -0.020871
     4  C    0.135437  -0.191771  -0.009878   0.033169  -0.002352   0.396888
     5  C   -0.131051   0.219454  -0.027474  -0.052421   0.013947  -0.048303
     6  C   -2.588486   0.577585   0.016651  -0.000194  -0.042090  -0.037111
     7  C    7.585771  -0.938611  -0.024600  -0.002056   0.023784   0.006312
     8  C   -0.938611   6.993555   0.046268  -0.010425   0.053693   0.010250
     9  H   -0.024600   0.046268   0.528807  -0.026909  -0.007958   0.001289
    10  H   -0.002056  -0.010425  -0.026909   0.516552   0.004240   0.000004
    11  H    0.023784   0.053693  -0.007958   0.004240   0.561960   0.001763
    12  H    0.006312   0.010250   0.001289   0.000004   0.001763   0.553719
    13  H   -0.013347  -0.000228  -0.000129  -0.000148  -0.000138  -0.027237
    14  H    0.007439  -0.005701  -0.006223   0.001449  -0.000010  -0.003463
    15  H   -0.005199   0.012669   0.003836  -0.006283  -0.000093   0.004271
    16  H    0.046779  -0.005151   0.000003   0.000017   0.000844   0.000202
    17  H    0.455619  -0.019710   0.000005  -0.000047  -0.000104   0.000004
    18  H    0.073023   0.220052  -0.000089   0.000101  -0.007743   0.000007
    19  O   -0.134864   0.192927  -0.001364   0.006956  -0.005945  -0.000059
    20  H    0.020052   0.051902  -0.000085   0.000558   0.001830   0.000001
    21  O    0.433686  -0.105137   0.000692  -0.002177   0.000873   0.000579
    22  H   -0.047639  -0.039233  -0.000001  -0.000469  -0.000036  -0.000003
    23  C    0.308713  -0.033594  -0.001255  -0.000052   0.008972   0.015418
    24  H    0.013373   0.002890   0.000000   0.000000  -0.000002  -0.000126
    25  H    0.001144  -0.005908   0.000001   0.000010   0.000005   0.000266
    26  O    0.007053   0.030820  -0.000002  -0.000002   0.000067   0.000046
    27  H    0.021515   0.016102   0.000000   0.000000   0.000000   0.000000
             13         14         15         16         17         18
     1  C    0.018533  -0.006894  -0.078411   0.003377   0.000707   0.029765
     2  C    0.016916   0.005969   0.006537  -0.017331   0.032090   0.008800
     3  N   -0.046182   0.023012   0.011318   0.029044   0.031692   0.026560
     4  C    0.352970  -0.034586  -0.080201   0.011221  -0.002472   0.013996
     5  C   -0.018306   0.359259   0.459088  -0.002824  -0.000500  -0.010563
     6  C    0.015159  -0.023189   0.011875   0.093035  -0.187839  -0.071484
     7  C   -0.013347   0.007439  -0.005199   0.046779   0.455619   0.073023
     8  C   -0.000228  -0.005701   0.012669  -0.005151  -0.019710   0.220052
     9  H   -0.000129  -0.006223   0.003836   0.000003   0.000005  -0.000089
    10  H   -0.000148   0.001449  -0.006283   0.000017  -0.000047   0.000101
    11  H   -0.000138  -0.000010  -0.000093   0.000844  -0.000104  -0.007743
    12  H   -0.027237  -0.003463   0.004271   0.000202   0.000004   0.000007
    13  H    0.537525   0.001311  -0.005439  -0.000040  -0.000008   0.000009
    14  H    0.001311   0.531437  -0.025410   0.000007   0.000000   0.000002
    15  H   -0.005439  -0.025410   0.510446   0.000023   0.000017   0.000002
    16  H   -0.000040   0.000007   0.000023   0.578503   0.000276   0.000890
    17  H   -0.000008   0.000000   0.000017   0.000276   0.564890  -0.004175
    18  H    0.000009   0.000002   0.000002   0.000890  -0.004175   0.568724
    19  O    0.000070   0.000165  -0.000170  -0.000738  -0.000512  -0.031730
    20  H    0.000000  -0.000001   0.000009   0.000009  -0.000174  -0.004041
    21  O    0.000081   0.000866  -0.002948   0.014570  -0.048169   0.004675
    22  H   -0.000002  -0.000016  -0.000249  -0.000315  -0.000677   0.000643
    23  C    0.011217   0.008795   0.001487   0.066642   0.007126   0.006252
    24  H    0.000202  -0.000003  -0.000006  -0.007513  -0.000071   0.000005
    25  H   -0.003458   0.000055   0.001105   0.004997   0.000234   0.000001
    26  O    0.000468   0.000011  -0.000224   0.008023   0.005007  -0.000040
    27  H    0.000003   0.000000   0.000011  -0.000448  -0.000954  -0.000002
             19         20         21         22         23         24
     1  C    0.062957  -0.012130   0.036398   0.019781   0.006031   0.000871
     2  C   -0.074354  -0.058817   0.020028  -0.015072  -0.080981   0.001797
     3  N    0.009721   0.000420   0.157980  -0.010081   0.236526  -0.003840
     4  C    0.018047  -0.002812  -0.001392   0.003282  -0.122840  -0.008392
     5  C   -0.024771   0.009043  -0.037662  -0.009624  -0.022868   0.000598
     6  C    0.049297  -0.004324  -0.614168   0.103581  -0.935502  -0.052656
     7  C   -0.134864   0.020052   0.433686  -0.047639   0.308713   0.013373
     8  C    0.192927   0.051902  -0.105137  -0.039233  -0.033594   0.002890
     9  H   -0.001364  -0.000085   0.000692  -0.000001  -0.001255   0.000000
    10  H    0.006956   0.000558  -0.002177  -0.000469  -0.000052   0.000000
    11  H   -0.005945   0.001830   0.000873  -0.000036   0.008972  -0.000002
    12  H   -0.000059   0.000001   0.000579  -0.000003   0.015418  -0.000126
    13  H    0.000070   0.000000   0.000081  -0.000002   0.011217   0.000202
    14  H    0.000165  -0.000001   0.000866  -0.000016   0.008795  -0.000003
    15  H   -0.000170   0.000009  -0.002948  -0.000249   0.001487  -0.000006
    16  H   -0.000738   0.000009   0.014570  -0.000315   0.066642  -0.007513
    17  H   -0.000512  -0.000174  -0.048169  -0.000677   0.007126  -0.000071
    18  H   -0.031730  -0.004041   0.004675   0.000643   0.006252   0.000005
    19  O    8.300625   0.241095  -0.018801   0.027810  -0.016835   0.000027
    20  H    0.241095   0.362688   0.000037  -0.001116   0.001846   0.000000
    21  O   -0.018801   0.000037   8.377760   0.237278   0.127806  -0.000777
    22  H    0.027810  -0.001116   0.237278   0.353007  -0.014909   0.000001
    23  C   -0.016835   0.001846   0.127806  -0.014909   5.557592   0.424203
    24  H    0.000027   0.000000  -0.000777   0.000001   0.424203   0.535009
    25  H    0.000070   0.000000   0.008316  -0.000272   0.445955  -0.037482
    26  O   -0.000182   0.000004   0.005508  -0.000137   0.196305  -0.052477
    27  H    0.000014   0.000000   0.003529  -0.000083   0.006359   0.005940
             25         26         27
     1  C    0.001447   0.003853   0.000728
     2  C   -0.001551  -0.010116  -0.003502
     3  N    0.023382   0.030111  -0.000569
     4  C    0.008135   0.003882  -0.001091
     5  C   -0.005250  -0.000573  -0.000753
     6  C   -0.127033  -0.166608  -0.047065
     7  C    0.001144   0.007053   0.021515
     8  C   -0.005908   0.030820   0.016102
     9  H    0.000001  -0.000002   0.000000
    10  H    0.000010  -0.000002   0.000000
    11  H    0.000005   0.000067   0.000000
    12  H    0.000266   0.000046   0.000000
    13  H   -0.003458   0.000468   0.000003
    14  H    0.000055   0.000011   0.000000
    15  H    0.001105  -0.000224   0.000011
    16  H    0.004997   0.008023  -0.000448
    17  H    0.000234   0.005007  -0.000954
    18  H    0.000001  -0.000040  -0.000002
    19  O    0.000070  -0.000182   0.000014
    20  H    0.000000   0.000004   0.000000
    21  O    0.008316   0.005508   0.003529
    22  H   -0.000272  -0.000137  -0.000083
    23  C    0.445955   0.196305   0.006359
    24  H   -0.037482  -0.052477   0.005940
    25  H    0.553797  -0.035023  -0.008165
    26  O   -0.035023   8.263909   0.261548
    27  H   -0.008165   0.261548   0.362554
 Mulliken atomic charges:
              1
     1  C   -0.500742
     2  C    0.094008
     3  N   -0.100378
     4  C   -0.235659
     5  C   -0.260625
     6  C   -0.247968
     7  C    0.175182
     8  C   -0.203964
     9  H    0.173339
    10  H    0.178848
    11  H    0.169114
    12  H    0.162976
    13  H    0.160200
    14  H    0.165720
    15  H    0.181939
    16  H    0.175899
    17  H    0.167745
    18  H    0.176361
    19  O   -0.599455
    20  H    0.394005
    21  O   -0.599431
    22  H    0.394547
    23  C   -0.208411
    24  H    0.178433
    25  H    0.175221
    26  O   -0.551232
    27  H    0.384328
 Sum of Mulliken atomic charges =   0.00000
 Mulliken charges with hydrogens summed into heavy atoms:
              1
     1  C   -0.148555
     2  C    0.263122
     3  N   -0.100378
     4  C    0.087517
     5  C    0.087034
     6  C   -0.072069
     7  C    0.342928
     8  C   -0.027603
    19  O   -0.205450
    21  O   -0.204884
    23  C    0.145244
    26  O   -0.166905
 Sum of Mulliken charges with hydrogens summed into heavy atoms =   0.00000
 Electronic spatial extent (au):  <R**2>=           1906.4877
 Charge=              0.0000 electrons
 Dipole moment (field-independent basis, Debye):
    X=             -4.4371    Y=             -0.1134    Z=             -0.0105  Tot=              4.4386
 Quadrupole moment (field-independent basis, Debye-Ang):
   XX=            -75.8212   YY=            -71.2850   ZZ=            -75.1890
   XY=              1.8329   XZ=              3.0096   YZ=              2.8782
 Traceless Quadrupole moment (field-independent basis, Debye-Ang):
   XX=             -1.7228   YY=              2.8134   ZZ=             -1.0906
   XY=              1.8329   XZ=              3.0096   YZ=              2.8782
 Octapole moment (field-independent basis, Debye-Ang**2):
  XXX=            -73.4706  YYY=             -0.6002  ZZZ=              9.0400  XYY=              6.6573
  XXY=            -10.9658  XXZ=              2.8082  XZZ=             -0.9019  YZZ=            -12.9865
  YYZ=              3.2290  XYZ=             -4.8839
 Hexadecapole moment (field-independent basis, Debye-Ang**3):
 XXXX=          -1371.1569 YYYY=           -882.0796 ZZZZ=           -358.9226 XXXY=             54.8558
 XXXZ=             41.1780 YYYX=            -11.6178 YYYZ=             -3.8780 ZZZX=              3.1899
 ZZZY=             -0.0792 XXYY=           -310.1784 XXZZ=           -252.9812 YYZZ=           -199.6676
 XXYZ=            -13.3463 YYXZ=              8.2140 ZZXY=              8.3145
 N-N= 8.200358952797D+02 E-N=-3.025889033512D+03  KE= 5.886500430097D+02
 1\1\GINC-COMPUTE-3-1\SP\RmPW1PW91\6-31+G(d,p)\C8H15N1O3\MAMICHETTI.IQU
 IR\17-May-2024\0\\# mpw1pw91/6-31+G** nmr scrf=(pcm,solvent=water)\\co
 mment\\0,1\C,0,-2.094352,0.800912,0.412317\C,0,-1.365323,0.177995,-0.8
 15778\N,0,-0.086732,0.933725,-1.010959\C,0,-0.215023,2.156352,-0.18891
 3\C,0,-1.089903,1.798813,1.017507\C,0,1.051329,-0.0011,-0.738797\C,0,0
 .463174,-1.25898,-0.084552\C,0,-0.938032,-1.306436,-0.697666\H,0,-2.99
 2772,1.326189,0.070691\H,0,-2.417866,0.038031,1.125363\H,0,-2.003267,0
 .287802,-1.699736\H,0,-0.725456,2.920719,-0.791257\H,0,0.761152,2.5677
 ,0.072566\H,0,-1.578371,2.675051,1.456995\H,0,-0.487813,1.319455,1.795
 185\H,0,1.449325,-0.331995,-1.708926\H,0,1.049471,-2.151376,-0.338166\
 H,0,-0.860639,-1.731068,-1.707524\O,0,-1.767203,-2.136536,0.112579\H,0
 ,-2.691839,-1.990993,-0.148505\O,0,0.394606,-1.122973,1.338105\H,0,-0.
 373121,-1.655888,1.615354\C,0,2.242791,0.592615,0.019135\H,0,2.648323,
 1.446822,-0.530679\H,0,1.953483,0.937916,1.017379\O,0,3.310736,-0.3578
 84,0.115614\H,0,3.043441,-1.016321,0.778066\\Version=AM64L-G09RevC.01\
 State=1-A\HF=-594.1875491\RMSD=6.748e-09\Dipole=-1.7456982,-0.0446327,
 -0.0041402\Quadrupole=-1.2808504,2.0916949,-0.8108445,1.3627298,2.2375
 326,2.1398397\PG=C01 [X(C8H15N1O3)]\\@


 SUCCESS-- IF YOU HAVE TRIED TO DO SOMETHING AND FAILED
           YOU ARE BETTER OFF THAN IF YOU HAD TRIED TO DO
           NOTHING AND SUCCEEDED.

                   -- FROM THE BACK OF A SUGAR PACKET
 Job cpu time:  0 days  0 hours  9 minutes  8.3 seconds.
 File lengths (MBytes):  RWF=    109 Int=      0 D2E=      0 Chk=      7 Scr=      1
 Normal termination of Gaussian 09 at Fri May 17 13:01:55 2024.
