 Entering Gaussian System, Link 0=g09
 Input=/home/mamichetti.iquir/Linux/04_Cardona_A1A3_R__S_R_S_003_OptB.gjc
 Output=/home/mamichetti.iquir/Linux/04_Cardona_A1A3_R__S_R_S_003_OptB.log
 Initial command:
 /opt/ohpc/pub/apps/software/Gaussian/09/AMD64.SSE4a-enabled/g09/l1.exe /local/mamichetti.iquir/Gau-408250.inp -scrdir=/local/mamichetti.iquir/
 Entering Link 1 = /opt/ohpc/pub/apps/software/Gaussian/09/AMD64.SSE4a-enabled/g09/l1.exe PID=    408251.
  
 Copyright (c) 1988,1990,1992,1993,1995,1998,2003,2009,2011,
            Gaussian, Inc.  All Rights Reserved.
  
 This is part of the Gaussian(R) 09 program.  It is based on
 the Gaussian(R) 03 system (copyright 2003, Gaussian, Inc.),
 the Gaussian(R) 98 system (copyright 1998, Gaussian, Inc.),
 the Gaussian(R) 94 system (copyright 1995, Gaussian, Inc.),
 the Gaussian 92(TM) system (copyright 1992, Gaussian, Inc.),
 the Gaussian 90(TM) system (copyright 1990, Gaussian, Inc.),
 the Gaussian 88(TM) system (copyright 1988, Gaussian, Inc.),
 the Gaussian 86(TM) system (copyright 1986, Carnegie Mellon
 University), and the Gaussian 82(TM) system (copyright 1983,
 Carnegie Mellon University). Gaussian is a federally registered
 trademark of Gaussian, Inc.
  
 This software contains proprietary and confidential information,
 including trade secrets, belonging to Gaussian, Inc.
  
 This software is provided under written license and may be
 used, copied, transmitted, or stored only in accord with that
 written license.
  
 The following legend is applicable only to US Government
 contracts under FAR:
  
                    RESTRICTED RIGHTS LEGEND
  
 Use, reproduction and disclosure by the US Government is
 subject to restrictions as set forth in subparagraphs (a)
 and (c) of the Commercial Computer Software - Restricted
 Rights clause in FAR 52.227-19.
  
 Gaussian, Inc.
 340 Quinnipiac St., Bldg. 40, Wallingford CT 06492
  
  
 ---------------------------------------------------------------
 Warning -- This program may not be used in any manner that
 competes with the business of Gaussian, Inc. or will provide
 assistance to any competitor of Gaussian, Inc.  The licensee
 of this program is prohibited from giving any competitor of
 Gaussian, Inc. access to this program.  By using this program,
 the user acknowledges that Gaussian, Inc. is engaged in the
 business of creating and licensing software in the field of
 computational chemistry and represents and warrants to the
 licensee that it is not a competitor of Gaussian, Inc. and that
 it will not use this program in any manner prohibited above.
 ---------------------------------------------------------------
  

 Cite this work as:
 Gaussian 09, Revision C.01,
 M. J. Frisch, G. W. Trucks, H. B. Schlegel, G. E. Scuseria, 
 M. A. Robb, J. R. Cheeseman, G. Scalmani, V. Barone, B. Mennucci, 
 G. A. Petersson, H. Nakatsuji, M. Caricato, X. Li, H. P. Hratchian, 
 A. F. Izmaylov, J. Bloino, G. Zheng, J. L. Sonnenberg, M. Hada, 
 M. Ehara, K. Toyota, R. Fukuda, J. Hasegawa, M. Ishida, T. Nakajima, 
 Y. Honda, O. Kitao, H. Nakai, T. Vreven, J. A. Montgomery, Jr., 
 J. E. Peralta, F. Ogliaro, M. Bearpark, J. J. Heyd, E. Brothers, 
 K. N. Kudin, V. N. Staroverov, T. Keith, R. Kobayashi, J. Normand, 
 K. Raghavachari, A. Rendell, J. C. Burant, S. S. Iyengar, J. Tomasi, 
 M. Cossi, N. Rega, J. M. Millam, M. Klene, J. E. Knox, J. B. Cross, 
 V. Bakken, C. Adamo, J. Jaramillo, R. Gomperts, R. E. Stratmann, 
 O. Yazyev, A. J. Austin, R. Cammi, C. Pomelli, J. W. Ochterski, 
 R. L. Martin, K. Morokuma, V. G. Zakrzewski, G. A. Voth, 
 P. Salvador, J. J. Dannenberg, S. Dapprich, A. D. Daniels, 
 O. Farkas, J. B. Foresman, J. V. Ortiz, J. Cioslowski, 
 and D. J. Fox, Gaussian, Inc., Wallingford CT, 2010.
 
 ******************************************
 Gaussian 09:  AM64L-G09RevC.01 23-Sep-2011
                17-May-2024 
 ******************************************
 %nprocshared=4
 Will use up to    4 processors via shared memory.
 ------------------------------------------------
 # mpw1pw91/6-31+G** nmr scrf=(pcm,solvent=water)
 ------------------------------------------------
 1/38=1/1;
 2/12=2,17=6,18=5,40=1/2;
 3/5=1,6=6,7=111,11=2,16=1,25=1,30=1,70=2201,72=1,74=-7/1,2,8,3;
 4//1;
 5/5=2,38=5,53=1/2;
 8/6=1,10=90,11=11/1;
 10/13=100,45=16/2;
 6/7=2,8=2,9=2,10=2,28=1/1;
 99/9=1/99;
 -------
 comment
 -------
 Charge =  0 Multiplicity = 1
 Symbolic Z-Matrix:
 6                    -2.4691   -0.66465   0.35824 
 6                    -1.25806  -0.78229  -0.57952 
 7                    -0.76829   0.61862  -0.799 
 6                    -1.56685   1.52946   0.0446 
 6                    -2.9055    0.8       0.18365 
 6                     0.70766   0.65521  -0.73147 
 6                     1.11136  -0.8493   -0.81134 
 6                    -0.0449   -1.59236  -0.11998 
 1                    -3.25693  -1.38271   0.11193 
 1                    -2.16373  -0.83794   1.3947 
 1                    -1.57429  -1.20311  -1.54446 
 1                    -1.66934   2.51549  -0.42447 
 1                    -1.13744   1.68606   1.04522 
 1                    -3.50152   0.91908  -0.72907 
 1                    -3.49645   1.17557   1.02483 
 1                     1.11223   1.17683  -1.61034 
 1                     1.13915  -1.14922  -1.86709 
 1                    -0.10769  -2.63932  -0.44676 
 8                     0.1398   -1.53963   1.2965 
 1                     1.11131  -1.5644    1.40769 
 8                     2.35025  -1.18836  -0.18872 
 1                     2.80519  -0.34052   0.01983 
 6                     1.29911   1.3815    0.48566 
 1                     0.91732   2.40697   0.54461 
 1                     1.05887   0.86327   1.4187 
 8                     2.72999   1.41815   0.28417 
 1                     3.13865   1.65689   1.13312 
 
                          Input orientation:                          
 ---------------------------------------------------------------------
 Center     Atomic      Atomic             Coordinates (Angstroms)
 Number     Number       Type             X           Y           Z
 ---------------------------------------------------------------------
      1          6           0       -2.469104   -0.664645    0.358242
      2          6           0       -1.258059   -0.782287   -0.579518
      3          7           0       -0.768286    0.618620   -0.799004
      4          6           0       -1.566852    1.529457    0.044597
      5          6           0       -2.905502    0.800000    0.183653
      6          6           0        0.707657    0.655211   -0.731468
      7          6           0        1.111360   -0.849299   -0.811340
      8          6           0       -0.044898   -1.592362   -0.119983
      9          1           0       -3.256930   -1.382713    0.111926
     10          1           0       -2.163735   -0.837935    1.394704
     11          1           0       -1.574285   -1.203113   -1.544461
     12          1           0       -1.669341    2.515490   -0.424470
     13          1           0       -1.137443    1.686060    1.045223
     14          1           0       -3.501521    0.919080   -0.729067
     15          1           0       -3.496452    1.175567    1.024834
     16          1           0        1.112234    1.176826   -1.610339
     17          1           0        1.139153   -1.149218   -1.867094
     18          1           0       -0.107688   -2.639318   -0.446763
     19          8           0        0.139803   -1.539628    1.296497
     20          1           0        1.111308   -1.564401    1.407688
     21          8           0        2.350251   -1.188364   -0.188720
     22          1           0        2.805189   -0.340518    0.019829
     23          6           0        1.299112    1.381501    0.485655
     24          1           0        0.917322    2.406965    0.544613
     25          1           0        1.058873    0.863273    1.418695
     26          8           0        2.729994    1.418151    0.284167
     27          1           0        3.138655    1.656886    1.133123
 ---------------------------------------------------------------------
                    Distance matrix (angstroms):
                    1          2          3          4          5
     1  C    0.000000
     2  C    1.536185   0.000000
     3  N    2.424617   1.500197   0.000000
     4  C    2.393014   2.414339   1.476142   0.000000
     5  C    1.538216   2.408346   2.359281   1.530826   0.000000
     6  C    3.608504   2.439985   1.477940   2.557337   3.730057
     7  C    3.771172   2.381676   2.384954   3.682924   4.454815
     8  C    2.639343   1.529429   2.423386   3.476950   3.741476
     9  H    1.094058   2.198657   3.320915   3.367734   2.211986
    10  H    1.094319   2.172763   2.980132   2.789911   2.167878
    11  H    2.170467   1.099185   2.126982   3.161028   2.961584
    12  H    3.371278   3.326939   2.133141   1.096717   2.200185
    13  H    2.787665   2.957544   2.162609   1.100077   2.157183
    14  H    2.180897   2.819599   2.750589   2.171189   1.096575
    15  H    2.210468   3.378985   3.328583   2.193048   1.094467
    16  H    4.482444   3.243301   2.122784   3.168701   4.416176
    17  H    4.266902   2.745745   2.811475   4.260555   4.936015
    18  H    3.181769   2.188502   3.342847   4.444016   4.478180
    19  O    2.907286   2.459068   3.142258   3.728164   3.998270
    20  H    3.838001   3.189763   3.628766   4.313063   4.819068
    21  O    4.878487   3.652057   3.655532   4.773330   5.631624
    22  H    5.295068   4.130903   3.789480   4.755225   5.825771
    23  C    4.289802   3.515067   2.550778   2.903476   4.255365
    24  H    4.575741   4.020856   2.800850   2.681633   4.162525
    25  H    3.988197   3.474032   2.883844   3.037495   4.152782
    26  O    5.601263   4.635995   3.748396   4.304959   5.670188
    27  H    6.118571   5.311666   4.480547   4.831451   6.177992
                    6          7          8          9         10
     6  C    0.000000
     7  C    1.559778   0.000000
     8  C    2.447823   1.538522   0.000000
     9  H    4.536783   4.496544   3.227210   0.000000
    10  H    3.872336   3.948798   2.711624   1.771264   0.000000
    11  H    3.053127   2.806304   2.125953   2.367946   3.019851
    12  H    3.033975   4.382211   4.427864   4.243129   3.846983
    13  H    2.761100   3.864193   3.646836   3.844559   2.746992
    14  H    4.217441   4.940911   4.315851   2.462792   3.063850
    15  H    4.585837   5.357569   4.570040   2.726824   2.442771
    16  H    1.099172   2.177977   3.350898   5.348554   4.880729
    17  H    2.175270   1.097880   2.156560   4.826654   4.652450
    18  H    3.405843   2.196170   1.098565   3.436410   3.295954
    19  O    3.041779   2.421457   1.429444   3.600781   2.410043
    20  H    3.108955   2.331406   1.916083   4.559990   3.354673
    21  O    2.528134   1.427400   2.429954   5.618598   4.796468
    22  H    2.440402   1.954164   3.116032   6.151743   5.179567
    23  C    1.535807   2.587260   3.319190   5.342104   4.212312
    24  H    2.177380   3.532636   4.166794   5.654490   4.554662
    25  H    2.188571   2.812244   3.100965   5.037683   3.644158
    26  O    2.388187   2.993567   4.114189   6.611941   5.501981
    27  H    3.223322   3.764548   4.718357   7.154405   5.865824
                   11         12         13         14         15
    11  H    0.000000
    12  H    3.884768   0.000000
    13  H    3.904435   1.769426   0.000000
    14  H    2.980404   2.449120   3.053724   0.000000
    15  H    3.994261   2.689649   2.413699   1.772563   0.000000
    16  H    3.589684   3.306882   3.517439   4.704233   5.308872
    17  H    2.733083   4.837240   4.658678   5.206613   5.937736
    18  H    2.327774   5.386214   4.689916   4.925444   5.310618
    19  O    3.335024   4.762217   3.478442   4.838119   4.546255
    20  H    4.007259   5.266339   3.969100   5.657879   5.374519
    21  O    4.152136   5.470944   4.684969   6.243119   6.422213
    22  H    4.729785   5.326875   4.550033   6.474722   6.558904
    23  C    4.365548   3.305446   2.518466   4.973476   4.830172
    24  H    4.858498   2.764367   2.234362   4.833450   4.607424
    25  H    4.470321   3.683779   2.374924   5.041150   4.582973
    26  O    5.361131   4.589169   3.950703   6.333048   6.275035
    27  H    6.128691   5.126414   4.277101   6.935708   6.653423
                   16         17         18         19         20
    16  H    0.000000
    17  H    2.340327   0.000000
    18  H    4.171939   2.406730   0.000000
    19  O    4.095661   3.340573   2.075940   0.000000
    20  H    4.077108   3.301113   2.465844   0.978161   0.000000
    21  O    3.024535   2.070080   2.865889   2.686138   2.055457
    22  H    2.797477   2.643889   3.739925   3.189362   2.508640
    23  C    2.114239   3.459126   4.360674   3.245683   3.092532
    24  H    2.488986   4.302555   5.243896   4.092122   4.068695
    25  H    3.045687   3.853956   4.136296   2.575569   2.428265
    26  O    2.502906   3.708110   5.004973   4.059847   3.574641
    27  H    3.444332   4.568756   5.611787   4.386058   3.816047
                   21         22         23         24         25
    21  O    0.000000
    22  H    0.984532   0.000000
    23  C    2.857251   2.334654   0.000000
    24  H    3.939220   3.374626   1.095818   0.000000
    25  H    2.908720   2.540779   1.094001   1.779618   0.000000
    26  O    2.676144   1.780013   1.445463   2.081193   2.094681
    27  H    3.234857   2.310897   1.969510   2.417288   2.244296
                   26         27
    26  O    0.000000
    27  H    0.971969   0.000000
 Stoichiometry    C8H15NO3
 Framework group  C1[X(C8H15NO3)]
 Deg. of freedom    75
 Full point group                 C1      NOp   1
 Largest Abelian subgroup         C1      NOp   1
 Largest concise Abelian subgroup C1      NOp   1
                         Standard orientation:                         
 ---------------------------------------------------------------------
 Center     Atomic      Atomic             Coordinates (Angstroms)
 Number     Number       Type             X           Y           Z
 ---------------------------------------------------------------------
      1          6           0       -2.469104   -0.664645    0.358242
      2          6           0       -1.258059   -0.782287   -0.579518
      3          7           0       -0.768286    0.618620   -0.799004
      4          6           0       -1.566852    1.529457    0.044597
      5          6           0       -2.905502    0.800000    0.183653
      6          6           0        0.707657    0.655211   -0.731468
      7          6           0        1.111360   -0.849299   -0.811340
      8          6           0       -0.044898   -1.592362   -0.119983
      9          1           0       -3.256930   -1.382713    0.111926
     10          1           0       -2.163735   -0.837935    1.394704
     11          1           0       -1.574285   -1.203113   -1.544461
     12          1           0       -1.669341    2.515490   -0.424470
     13          1           0       -1.137443    1.686060    1.045223
     14          1           0       -3.501521    0.919080   -0.729067
     15          1           0       -3.496452    1.175567    1.024834
     16          1           0        1.112234    1.176826   -1.610339
     17          1           0        1.139153   -1.149218   -1.867094
     18          1           0       -0.107688   -2.639318   -0.446763
     19          8           0        0.139803   -1.539628    1.296497
     20          1           0        1.111308   -1.564401    1.407688
     21          8           0        2.350251   -1.188364   -0.188720
     22          1           0        2.805189   -0.340518    0.019829
     23          6           0        1.299112    1.381501    0.485655
     24          1           0        0.917322    2.406965    0.544613
     25          1           0        1.058873    0.863273    1.418695
     26          8           0        2.729994    1.418151    0.284167
     27          1           0        3.138655    1.656886    1.133123
 ---------------------------------------------------------------------
 Rotational constants (GHZ):      1.5269933      0.8017401      0.6307269
 Standard basis: 6-31+G(d,p) (6D, 7F)
 There are   303 symmetry adapted basis functions of A   symmetry.
 Integral buffers will be    131072 words long.
 Raffenetti 2 integral format.
 Two-electron integral symmetry is turned on.
   303 basis functions,   489 primitive gaussians,   303 cartesian basis functions
    47 alpha electrons       47 beta electrons
       nuclear repulsion energy       818.6820897698 Hartrees.
 NAtoms=   27 NActive=   27 NUniq=   27 SFac= 1.00D+00 NAtFMM=   60 NAOKFM=F Big=F
 ------------------------------------------------------------------------------
 Polarizable Continuum Model (PCM)
 =================================
 Model                : PCM.
 Atomic radii         : UFF (Universal Force Field).
 Polarization charges : Total charges.
 Charge compensation  : None.
 Solution method      : Matrix inversion.
 Cavity type          : Scaled VdW (van der Waals Surface) (Alpha=1.100).
 Cavity algorithm     : GePol (No added spheres)
                        Default sphere list used, NSphG=   27.
                        Lebedev-Laikov grids with approx.  5.0 points / Ang**2.
                        Smoothing algorithm: Karplus/York (Gamma=1.0000).
                        Polarization charges: spherical gaussians, with
                                              point-specific exponents (IZeta= 3).
                        Self-potential: point-specific (ISelfS= 7).
                        Self-field    : sphere-specific E.n sum rule (ISelfD= 2).
 Solvent              : Water, Eps=  78.355300 Eps(inf)=   1.777849
 ------------------------------------------------------------------------------
 One-electron integrals computed using PRISM.
 NBasis=   303 RedAO= T  NBF=   303
 NBsUse=   303 1.00D-06 NBFU=   303
 Harris functional with IExCor=  908 diagonalized for initial guess.
 ExpMin= 4.38D-02 ExpMax= 5.48D+03 ExpMxC= 8.25D+02 IAcc=2 IRadAn=         4 AccDes= 0.00D+00
 HarFok:  IExCor=  908 AccDes= 0.00D+00 IRadAn=         4 IDoV= 1
 ScaDFX=  1.000000  1.000000  1.000000  1.000000
 FoFCou: FMM=F IPFlag=           0 FMFlag=      100000 FMFlg1=           0
         NFxFlg=           0 DoJE=T BraDBF=F KetDBF=T FulRan=T
         Omega=  0.000000  0.000000  1.000000  0.000000  0.000000 ICntrl=     500 IOpCl=  0
         NMat0=    1 NMatS0=    1 NMatT0=    0 NMatD0=    1 NMtDS0=    0 NMtDT0=    0
         I1Cent=           4 NGrid=           0.
 Petite list used in FoFCou.
 Initial guess orbital symmetries:
       Occupied  (A) (A) (A) (A) (A) (A) (A) (A) (A) (A) (A) (A)
                 (A) (A) (A) (A) (A) (A) (A) (A) (A) (A) (A) (A)
                 (A) (A) (A) (A) (A) (A) (A) (A) (A) (A) (A) (A)
                 (A) (A) (A) (A) (A) (A) (A) (A) (A) (A) (A)
       Virtual   (A) (A) (A) (A) (A) (A) (A) (A) (A) (A) (A) (A)
                 (A) (A) (A) (A) (A) (A) (A) (A) (A) (A) (A) (A)
                 (A) (A) (A) (A) (A) (A) (A) (A) (A) (A) (A) (A)
                 (A) (A) (A) (A) (A) (A) (A) (A) (A) (A) (A) (A)
                 (A) (A) (A) (A) (A) (A) (A) (A) (A) (A) (A) (A)
                 (A) (A) (A) (A) (A) (A) (A) (A) (A) (A) (A) (A)
                 (A) (A) (A) (A) (A) (A) (A) (A) (A) (A) (A) (A)
                 (A) (A) (A) (A) (A) (A) (A) (A) (A) (A) (A) (A)
                 (A) (A) (A) (A) (A) (A) (A) (A) (A) (A) (A) (A)
                 (A) (A) (A) (A) (A) (A) (A) (A) (A) (A) (A) (A)
                 (A) (A) (A) (A) (A) (A) (A) (A) (A) (A) (A) (A)
                 (A) (A) (A) (A) (A) (A) (A) (A) (A) (A) (A) (A)
                 (A) (A) (A) (A) (A) (A) (A) (A) (A) (A) (A) (A)
                 (A) (A) (A) (A) (A) (A) (A) (A) (A) (A) (A) (A)
                 (A) (A) (A) (A) (A) (A) (A) (A) (A) (A) (A) (A)
                 (A) (A) (A) (A) (A) (A) (A) (A) (A) (A) (A) (A)
                 (A) (A) (A) (A) (A) (A) (A) (A) (A) (A) (A) (A)
                 (A) (A) (A) (A) (A) (A) (A) (A) (A) (A) (A) (A)
                 (A) (A) (A) (A) (A) (A) (A) (A) (A) (A) (A) (A)
                 (A) (A) (A) (A) (A) (A) (A) (A) (A) (A) (A) (A)
                 (A) (A) (A) (A) (A) (A) (A) (A) (A) (A) (A) (A)
                 (A) (A) (A) (A)
 The electronic state of the initial guess is 1-A.
 Requested convergence on RMS density matrix=1.00D-08 within 128 cycles.
 Requested convergence on MAX density matrix=1.00D-06.
 Requested convergence on             energy=1.00D-06.
 No special actions if energy rises.
 Error on total polarization charges =  0.01416
 SCF Done:  E(RmPW1PW91) =  -594.193258131     A.U. after   13 cycles
             Convg  =    0.8125D-08             -V/T =  2.0094
 Range of M.O.s used for correlation:     1   303
 NBasis=   303 NAE=    47 NBE=    47 NFC=     0 NFV=     0
 NROrb=    303 NOA=    47 NOB=    47 NVA=   256 NVB=   256

 **** Warning!!: The largest alpha MO coefficient is  0.78643749D+02

 NEqPCM:  Using equilibrium solvation (IEInf=0, Eps=  78.3553, EpsInf=   1.7778)
          Differentiating once with respect to magnetic field using GIAOs.
          Electric field/nuclear overlap derivatives assumed to be zero.
 FoFCou: FMM=F IPFlag=           0 FMFlag=    10101102 FMFlg1=           0
         NFxFlg=    40000000 DoJE=F BraDBF=F KetDBF=T FulRan=T
         Omega=  0.000000  0.000000  1.000000  0.000000  0.000000 ICntrl=    6100 IOpCl=  0
         NMat0=    1 NMatS0=    1 NMatT0=    0 NMatD0=    1 NMtDS0=    0 NMtDT0=    0
         I1Cent=           7 NGrid=        1814.
 Symmetry not used in FoFCou.
          There are     3 degrees of freedom in the 1st order CPHF.  IDoFFX=0.
      3 vectors produced by pass  0 Test12= 4.01D-13 3.33D-08 XBig12= 3.51D+01 1.15D+00.
 AX will form     3 AO Fock derivatives at one time.
      3 vectors produced by pass  1 Test12= 4.01D-13 3.33D-08 XBig12= 8.13D-02 3.38D-02.
      3 vectors produced by pass  2 Test12= 4.01D-13 3.33D-08 XBig12= 1.73D-04 2.11D-03.
      3 vectors produced by pass  3 Test12= 4.01D-13 3.33D-08 XBig12= 8.05D-07 2.15D-04.
      3 vectors produced by pass  4 Test12= 4.01D-13 3.33D-08 XBig12= 2.45D-09 9.55D-06.
      3 vectors produced by pass  5 Test12= 4.01D-13 3.33D-08 XBig12= 6.86D-12 3.56D-07.
 Inverted reduced A of dimension    18 with in-core refinement.
 Calculating GIAO nuclear magnetic shielding tensors.
 SCF GIAO Magnetic shielding tensor (ppm):
      1  C    Isotropic =   170.1137   Anisotropy =    18.5214
   XX=   173.1848   YX=    -6.8786   ZX=   -11.5479
   XY=     2.9610   YY=   182.0368   ZY=    -0.7739
   XZ=   -13.2185   YZ=    -3.7734   ZZ=   155.1193
   Eigenvalues:   148.5706   179.3092   182.4612
      2  C    Isotropic =   127.7522   Anisotropy =    50.9402
   XX=   130.7659   YX=     3.2089   ZX=   -11.2367
   XY=     5.5761   YY=   156.9648   ZY=   -14.0039
   XZ=    -7.0165   YZ=   -15.7691   ZZ=    95.5258
   Eigenvalues:    90.5304   131.0139   161.7123
      3  N    Isotropic =   202.2362   Anisotropy =    87.0875
   XX=   249.6421   YX=    17.1316   ZX=   -31.0631
   XY=     3.0829   YY=   240.5137   ZY=     9.5509
   XZ=   -29.1142   YZ=    -1.3919   ZZ=   116.5528
   Eigenvalues:   109.7790   236.6351   260.2945
      4  C    Isotropic =   146.8896   Anisotropy =    40.0948
   XX=   154.1982   YX=    -5.2927   ZX=   -19.5161
   XY=   -12.8554   YY=   153.1685   ZY=    10.6259
   XZ=   -14.0460   YZ=    14.6096   ZZ=   133.3022
   Eigenvalues:   122.2991   144.7503   173.6195
      5  C    Isotropic =   164.8302   Anisotropy =    23.0571
   XX=   176.3321   YX=     0.0428   ZX=   -15.6584
   XY=     2.9410   YY=   178.1291   ZY=     1.7285
   XZ=    -5.3912   YZ=    -1.9280   ZZ=   140.0293
   Eigenvalues:   137.1966   177.0923   180.2016
      6  C    Isotropic =   136.7831   Anisotropy =    48.2300
   XX=   168.8966   YX=    -4.3318   ZX=     1.4422
   XY=     3.8075   YY=   121.2815   ZY=    -2.3758
   XZ=     1.3057   YZ=     4.4317   ZZ=   120.1713
   Eigenvalues:   119.5231   121.8899   168.9365
      7  C    Isotropic =   114.7429   Anisotropy =    57.1266
   XX=   150.0247   YX=    -9.0613   ZX=    11.4316
   XY=    -8.9409   YY=   111.4344   ZY=   -10.5844
   XZ=    -0.4523   YZ=    -8.5740   ZZ=    82.7695
   Eigenvalues:    79.7594   111.6419   152.8273
      8  C    Isotropic =   122.8940   Anisotropy =    30.5202
   XX=   113.2514   YX=     0.2620   ZX=     7.7526
   XY=    -3.7859   YY=   112.8604   ZY=    -1.0849
   XZ=     0.3835   YZ=    -2.2298   ZZ=   142.5702
   Eigenvalues:   111.2011   114.2401   143.2408
      9  H    Isotropic =    29.9055   Anisotropy =    11.5821
   XX=    33.0195   YX=     4.6607   ZX=     0.2458
   XY=     5.7162   YY=    31.7249   ZY=     0.6585
   XZ=     0.3282   YZ=     0.4237   ZZ=    24.9720
   Eigenvalues:    24.9252    27.1645    37.6269
     10  H    Isotropic =    29.4317   Anisotropy =     7.0309
   XX=    29.4159   YX=    -1.5756   ZX=    -0.5996
   XY=    -2.3161   YY=    26.3848   ZY=    -3.5689
   XZ=    -0.8324   YZ=    -3.5050   ZZ=    32.4942
   Eigenvalues:    23.9796    30.1965    34.1189
     11  H    Isotropic =    27.9701   Anisotropy =     9.2295
   XX=    26.6536   YX=     2.6337   ZX=     2.0234
   XY=     2.3483   YY=    28.0879   ZY=     4.4445
   XZ=     2.7117   YZ=     3.3313   ZZ=    29.1689
   Eigenvalues:    24.5417    25.2456    34.1231
     12  H    Isotropic =    28.7820   Anisotropy =    10.3917
   XX=    26.9999   YX=    -2.6826   ZX=    -0.0846
   XY=    -1.7396   YY=    34.8214   ZY=    -2.2577
   XZ=    -0.9383   YZ=    -1.8230   ZZ=    24.5249
   Eigenvalues:    23.8336    26.8027    35.7099
     13  H    Isotropic =    28.8734   Anisotropy =     7.4933
   XX=    29.7835   YX=    -0.4907   ZX=    -0.6184
   XY=    -0.3455   YY=    27.0746   ZY=     5.2446
   XZ=     0.9048   YZ=     5.3097   ZZ=    29.7621
   Eigenvalues:    22.9473    29.8040    33.8689
     14  H    Isotropic =    29.6283   Anisotropy =    11.0554
   XX=    32.8091   YX=    -1.8671   ZX=     4.7863
   XY=    -2.1814   YY=    27.6718   ZY=    -2.1361
   XZ=     5.2368   YZ=    -2.3384   ZZ=    28.4040
   Eigenvalues:    24.8477    27.0386    36.9985
     15  H    Isotropic =    29.6141   Anisotropy =    11.5483
   XX=    31.8521   YX=    -2.9740   ZX=    -5.1732
   XY=    -3.4437   YY=    28.2781   ZY=     2.6322
   XZ=    -4.8487   YZ=     2.1780   ZZ=    28.7122
   Eigenvalues:    25.0302    26.4991    37.3130
     16  H    Isotropic =    28.0087   Anisotropy =     7.4539
   XX=    28.1689   YX=     1.8561   ZX=    -1.8383
   XY=     1.5855   YY=    26.1426   ZY=    -3.1910
   XZ=    -1.7390   YZ=    -3.5685   ZZ=    29.7146
   Eigenvalues:    24.0166    27.0315    32.9779
     17  H    Isotropic =    26.8944   Anisotropy =     6.3494
   XX=    26.4212   YX=    -1.4946   ZX=     0.7643
   XY=    -1.8335   YY=    24.3775   ZY=     2.5345
   XZ=    -2.2396   YZ=     2.2146   ZZ=    29.8845
   Eigenvalues:    22.9715    26.5844    31.1273
     18  H    Isotropic =    27.7866   Anisotropy =     9.3595
   XX=    23.6180   YX=     1.1407   ZX=     0.6550
   XY=    -0.0081   YY=    31.8111   ZY=     2.8255
   XZ=     1.0980   YZ=     4.3328   ZZ=    27.9307
   Eigenvalues:    23.4436    25.8899    34.0263
     19  O    Isotropic =   306.4358   Anisotropy =    39.7637
   XX=   329.3473   YX=    -1.0853   ZX=     7.9612
   XY=     4.0217   YY=   306.5066   ZY=    33.7962
   XZ=    13.7888   YZ=    -1.2272   ZZ=   283.4537
   Eigenvalues:   273.5570   312.8056   332.9450
     20  H    Isotropic =    28.1887   Anisotropy =    17.4850
   XX=    39.5507   YX=    -0.5300   ZX=     1.2289
   XY=     0.0942   YY=    18.7498   ZY=    -4.0497
   XZ=     2.6060   YZ=    -2.7185   ZZ=    26.2655
   Eigenvalues:    17.4399    27.2808    39.8454
     21  O    Isotropic =   309.9057   Anisotropy =    41.2932
   XX=   313.1529   YX=     3.2410   ZX=     5.4284
   XY=     5.8946   YY=   336.4408   ZY=    -2.1965
   XZ=   -16.6835   YZ=    -1.1735   ZZ=   280.1234
   Eigenvalues:   279.1761   313.1066   337.4345
     22  H    Isotropic =    25.2464   Anisotropy =    27.2187
   XX=    24.5624   YX=     6.8923   ZX=     4.1818
   XY=     7.8614   YY=    38.8336   ZY=     5.7113
   XZ=     4.4495   YZ=     5.0721   ZZ=    12.3434
   Eigenvalues:    10.6108    21.7363    43.3922
     23  C    Isotropic =   130.3045   Anisotropy =    60.9429
   XX=   170.3175   YX=     3.5391   ZX=    -2.4444
   XY=     5.9484   YY=   112.6596   ZY=     4.7110
   XZ=    -5.7710   YZ=     2.9913   ZZ=   107.9365
   Eigenvalues:   105.2413   114.7391   170.9331
     24  H    Isotropic =    27.3532   Anisotropy =     5.9890
   XX=    30.9702   YX=    -1.7815   ZX=     0.4690
   XY=     0.1490   YY=    29.0091   ZY=     2.5126
   XZ=    -0.0032   YZ=     3.0329   ZZ=    22.0804
   Eigenvalues:    21.0830    29.6308    31.3459
     25  H    Isotropic =    27.1328   Anisotropy =     4.3437
   XX=    28.7507   YX=     2.9771   ZX=    -1.0336
   XY=     1.7111   YY=    25.7281   ZY=     0.6938
   XZ=     0.2717   YZ=     0.7827   ZZ=    26.9196
   Eigenvalues:    24.1970    27.1729    30.0286
     26  O    Isotropic =   312.9230   Anisotropy =    73.9976
   XX=   301.2059   YX=    13.8783   ZX=    10.5684
   XY=    23.3033   YY=   295.3796   ZY=     8.6914
   XZ=    43.2059   YZ=    19.8225   ZZ=   342.1835
   Eigenvalues:   278.3981   298.1162   362.2547
     27  H    Isotropic =    29.8236   Anisotropy =    20.7584
   XX=    31.6842   YX=     4.2415   ZX=     8.4249
   XY=     3.7983   YY=    22.4725   ZY=     5.4006
   XZ=     7.2551   YZ=     5.3158   ZZ=    35.3140
   Eigenvalues:    20.3504    25.4579    43.6625
 End of Minotr Frequency-dependent properties file   721 does not exist.
 End of Minotr Frequency-dependent properties file   722 does not exist.

 **********************************************************************

            Population analysis using the SCF density.

 **********************************************************************

 Orbital symmetries:
       Occupied  (A) (A) (A) (A) (A) (A) (A) (A) (A) (A) (A) (A)
                 (A) (A) (A) (A) (A) (A) (A) (A) (A) (A) (A) (A)
                 (A) (A) (A) (A) (A) (A) (A) (A) (A) (A) (A) (A)
                 (A) (A) (A) (A) (A) (A) (A) (A) (A) (A) (A)
       Virtual   (A) (A) (A) (A) (A) (A) (A) (A) (A) (A) (A) (A)
                 (A) (A) (A) (A) (A) (A) (A) (A) (A) (A) (A) (A)
                 (A) (A) (A) (A) (A) (A) (A) (A) (A) (A) (A) (A)
                 (A) (A) (A) (A) (A) (A) (A) (A) (A) (A) (A) (A)
                 (A) (A) (A) (A) (A) (A) (A) (A) (A) (A) (A) (A)
                 (A) (A) (A) (A) (A) (A) (A) (A) (A) (A) (A) (A)
                 (A) (A) (A) (A) (A) (A) (A) (A) (A) (A) (A) (A)
                 (A) (A) (A) (A) (A) (A) (A) (A) (A) (A) (A) (A)
                 (A) (A) (A) (A) (A) (A) (A) (A) (A) (A) (A) (A)
                 (A) (A) (A) (A) (A) (A) (A) (A) (A) (A) (A) (A)
                 (A) (A) (A) (A) (A) (A) (A) (A) (A) (A) (A) (A)
                 (A) (A) (A) (A) (A) (A) (A) (A) (A) (A) (A) (A)
                 (A) (A) (A) (A) (A) (A) (A) (A) (A) (A) (A) (A)
                 (A) (A) (A) (A) (A) (A) (A) (A) (A) (A) (A) (A)
                 (A) (A) (A) (A) (A) (A) (A) (A) (A) (A) (A) (A)
                 (A) (A) (A) (A) (A) (A) (A) (A) (A) (A) (A) (A)
                 (A) (A) (A) (A) (A) (A) (A) (A) (A) (A) (A) (A)
                 (A) (A) (A) (A) (A) (A) (A) (A) (A) (A) (A) (A)
                 (A) (A) (A) (A) (A) (A) (A) (A) (A) (A) (A) (A)
                 (A) (A) (A) (A) (A) (A) (A) (A) (A) (A) (A) (A)
                 (A) (A) (A) (A) (A) (A) (A) (A) (A) (A) (A) (A)
                 (A) (A) (A) (A)
 The electronic state is 1-A.
 Alpha  occ. eigenvalues --  -19.27593 -19.25408 -19.24886 -14.41092 -10.30628
 Alpha  occ. eigenvalues --  -10.30316 -10.29766 -10.28724 -10.27652 -10.26942
 Alpha  occ. eigenvalues --  -10.24552 -10.24341  -1.08293  -1.06590  -1.04013
 Alpha  occ. eigenvalues --   -0.96162  -0.82817  -0.79277  -0.75207  -0.71505
 Alpha  occ. eigenvalues --   -0.67428  -0.61047  -0.60064  -0.57938  -0.55257
 Alpha  occ. eigenvalues --   -0.54423  -0.52006  -0.50359  -0.49841  -0.48170
 Alpha  occ. eigenvalues --   -0.46216  -0.44442  -0.43305  -0.41868  -0.40456
 Alpha  occ. eigenvalues --   -0.39595  -0.38644  -0.37595  -0.36818  -0.35769
 Alpha  occ. eigenvalues --   -0.34902  -0.34640  -0.33687  -0.31593  -0.29632
 Alpha  occ. eigenvalues --   -0.28650  -0.22371
 Alpha virt. eigenvalues --    0.00119   0.01128   0.02085   0.02587   0.03789
 Alpha virt. eigenvalues --    0.04415   0.04664   0.05085   0.05563   0.07274
 Alpha virt. eigenvalues --    0.07914   0.08684   0.09029   0.09313   0.09670
 Alpha virt. eigenvalues --    0.10388   0.11860   0.11936   0.12981   0.13185
 Alpha virt. eigenvalues --    0.13436   0.14005   0.14105   0.14562   0.15303
 Alpha virt. eigenvalues --    0.15932   0.16398   0.17150   0.17450   0.18292
 Alpha virt. eigenvalues --    0.18659   0.19561   0.19877   0.20416   0.20737
 Alpha virt. eigenvalues --    0.21253   0.22304   0.22441   0.22855   0.22928
 Alpha virt. eigenvalues --    0.24357   0.24547   0.24774   0.25777   0.26309
 Alpha virt. eigenvalues --    0.26863   0.27645   0.27793   0.28585   0.28716
 Alpha virt. eigenvalues --    0.28983   0.29826   0.30500   0.31110   0.31971
 Alpha virt. eigenvalues --    0.32304   0.33320   0.33612   0.34580   0.34645
 Alpha virt. eigenvalues --    0.34783   0.35976   0.36279   0.37220   0.37988
 Alpha virt. eigenvalues --    0.38675   0.39719   0.40015   0.40701   0.41376
 Alpha virt. eigenvalues --    0.42773   0.44293   0.45414   0.47591   0.48567
 Alpha virt. eigenvalues --    0.49865   0.64148   0.66168   0.67624   0.68608
 Alpha virt. eigenvalues --    0.69048   0.69709   0.71522   0.72186   0.74632
 Alpha virt. eigenvalues --    0.75232   0.76311   0.77885   0.78446   0.79141
 Alpha virt. eigenvalues --    0.82514   0.83338   0.83932   0.88261   0.89421
 Alpha virt. eigenvalues --    0.91109   0.91158   0.93905   0.96094   0.97522
 Alpha virt. eigenvalues --    0.99016   0.99994   1.01250   1.02210   1.04887
 Alpha virt. eigenvalues --    1.05696   1.07400   1.08787   1.09384   1.11507
 Alpha virt. eigenvalues --    1.12936   1.14359   1.14891   1.15601   1.16434
 Alpha virt. eigenvalues --    1.18312   1.19876   1.22042   1.22972   1.24419
 Alpha virt. eigenvalues --    1.26872   1.27505   1.29091   1.31091   1.33792
 Alpha virt. eigenvalues --    1.35178   1.36851   1.38375   1.39208   1.40651
 Alpha virt. eigenvalues --    1.42520   1.45117   1.47023   1.50347   1.52554
 Alpha virt. eigenvalues --    1.53745   1.55144   1.57985   1.59583   1.61130
 Alpha virt. eigenvalues --    1.64046   1.65686   1.66988   1.69087   1.69443
 Alpha virt. eigenvalues --    1.73242   1.73528   1.74902   1.77608   1.80519
 Alpha virt. eigenvalues --    1.82151   1.82408   1.84485   1.85426   1.87073
 Alpha virt. eigenvalues --    1.89198   1.90861   1.91696   1.94304   1.94897
 Alpha virt. eigenvalues --    1.97921   1.98042   2.00228   2.02908   2.03510
 Alpha virt. eigenvalues --    2.05355   2.07063   2.08206   2.09270   2.11387
 Alpha virt. eigenvalues --    2.12424   2.14230   2.15706   2.18345   2.19540
 Alpha virt. eigenvalues --    2.21276   2.24725   2.25819   2.27091   2.28632
 Alpha virt. eigenvalues --    2.32300   2.33351   2.35302   2.35983   2.39475
 Alpha virt. eigenvalues --    2.42463   2.43863   2.45048   2.46430   2.48530
 Alpha virt. eigenvalues --    2.50020   2.52265   2.52765   2.54094   2.54745
 Alpha virt. eigenvalues --    2.56907   2.58626   2.60829   2.63604   2.64064
 Alpha virt. eigenvalues --    2.65590   2.67153   2.68395   2.69675   2.70789
 Alpha virt. eigenvalues --    2.73072   2.73487   2.74731   2.76065   2.77425
 Alpha virt. eigenvalues --    2.78009   2.81088   2.82156   2.82927   2.85990
 Alpha virt. eigenvalues --    2.88612   2.89038   2.90259   2.91726   2.93195
 Alpha virt. eigenvalues --    2.96707   2.97435   3.00027   3.03641   3.06024
 Alpha virt. eigenvalues --    3.07266   3.10424   3.12093   3.17257   3.32492
 Alpha virt. eigenvalues --    3.36208   3.37025   3.37868   3.43150   3.45717
 Alpha virt. eigenvalues --    3.48348   3.49939   3.51872   3.53839   3.55161
 Alpha virt. eigenvalues --    3.56518   3.58239   3.61168   3.66567   4.30898
 Alpha virt. eigenvalues --    4.35634   4.43952   4.46716   4.50001   4.53605
 Alpha virt. eigenvalues --    4.63212   4.67840   4.77892   4.82138   4.91433
 Alpha virt. eigenvalues --    5.00816
          Condensed to atoms (all electrons):
              1          2          3          4          5          6
     1  C    6.101630  -0.977841   0.181480  -0.112723   0.036641   0.029203
     2  C   -0.977841  10.561137  -0.590465  -0.487885   0.378484  -0.916942
     3  N    0.181480  -0.590465   7.430116   0.261869  -0.246941  -0.198798
     4  C   -0.112723  -0.487885   0.261869   5.630386  -0.018824  -0.129475
     5  C    0.036641   0.378484  -0.246941  -0.018824   5.773061   0.210270
     6  C    0.029203  -0.916942  -0.198798  -0.129475   0.210270   8.780939
     7  C   -0.154110   1.158933  -0.260066  -0.004536  -0.134564  -1.064279
     8  C    0.339898  -2.489013   0.299805   0.297696  -0.192398  -0.070749
     9  H    0.378417  -0.066718   0.015967   0.029302  -0.033324  -0.000336
    10  H    0.510417  -0.217426   0.026305   0.021769  -0.072528   0.012916
    11  H    0.094234   0.057215   0.010428   0.035425  -0.043074   0.023786
    12  H    0.037578  -0.003367  -0.046019   0.402485  -0.036468  -0.025686
    13  H   -0.019757   0.036489  -0.089633   0.382755  -0.004426   0.034835
    14  H   -0.025237  -0.049437   0.018028  -0.031603   0.400221   0.002465
    15  H   -0.066849   0.047581   0.003379  -0.019261   0.378401  -0.002966
    16  H    0.007221  -0.047847  -0.000201   0.019351  -0.010154   0.209213
    17  H    0.008913  -0.039045   0.017586  -0.001660   0.007044   0.077051
    18  H    0.015876  -0.129055   0.018594   0.000251  -0.000849   0.062151
    19  O    0.111205  -0.428492   0.059715   0.013497  -0.038524   0.144241
    20  H   -0.018503   0.095193  -0.006158  -0.006121   0.008520  -0.003273
    21  O   -0.004980   0.055058   0.015638  -0.011859   0.012461  -0.002932
    22  H    0.001554  -0.009736   0.004541   0.000996  -0.000992  -0.094489
    23  C    0.080058  -0.120695   0.151480  -0.040501  -0.037968  -0.394375
    24  H   -0.003516   0.033891  -0.019797  -0.004401   0.007287  -0.053749
    25  H    0.006203  -0.026763   0.022239  -0.001749  -0.009789  -0.108778
    26  O    0.000590   0.030079   0.027364   0.000108  -0.000568  -0.221528
    27  H   -0.000500  -0.002394  -0.002838   0.002309   0.000250   0.059020
              7          8          9         10         11         12
     1  C   -0.154110   0.339898   0.378417   0.510417   0.094234   0.037578
     2  C    1.158933  -2.489013  -0.066718  -0.217426   0.057215  -0.003367
     3  N   -0.260066   0.299805   0.015967   0.026305   0.010428  -0.046019
     4  C   -0.004536   0.297696   0.029302   0.021769   0.035425   0.402485
     5  C   -0.134564  -0.192398  -0.033324  -0.072528  -0.043074  -0.036468
     6  C   -1.064279  -0.070749  -0.000336   0.012916   0.023786  -0.025686
     7  C    7.012974  -0.619801  -0.002325  -0.011241  -0.059839  -0.004248
     8  C   -0.619801   7.526365   0.017062   0.056027   0.128514  -0.001407
     9  H   -0.002325   0.017062   0.520975  -0.024817  -0.004390  -0.000099
    10  H   -0.011241   0.056027  -0.024817   0.508724   0.003858  -0.000050
    11  H   -0.059839   0.128514  -0.004390   0.003858   0.572152   0.000212
    12  H   -0.004248  -0.001407  -0.000099  -0.000050   0.000212   0.550482
    13  H    0.010176  -0.013793  -0.000167   0.001152  -0.000549  -0.046541
    14  H   -0.001139   0.014829  -0.005070   0.004037   0.000773  -0.006025
    15  H    0.003468  -0.001497   0.000435  -0.005358  -0.000130   0.000502
    16  H   -0.017474   0.066198   0.000004   0.000004   0.000633   0.001307
    17  H    0.213348  -0.002047   0.000005  -0.000010   0.000693   0.000006
    18  H   -0.014225   0.367956   0.000372   0.000096  -0.001063   0.000005
    19  O   -0.160521   0.423367   0.000293   0.001679   0.008001   0.000306
    20  H   -0.050981  -0.055537  -0.000003   0.000010  -0.000259  -0.000002
    21  O    0.175272  -0.195091   0.000042  -0.000204  -0.000469   0.000060
    22  H    0.041807   0.029779   0.000000   0.000001   0.000001   0.000000
    23  C   -0.123314   0.037697   0.002095  -0.002679   0.010083   0.012557
    24  H    0.034132  -0.035525   0.000000  -0.000002  -0.000008  -0.000800
    25  H   -0.011832   0.041807   0.000002  -0.000047  -0.000005   0.000258
    26  O    0.097008  -0.047356  -0.000001   0.000006   0.000081  -0.000012
    27  H   -0.018889   0.006593   0.000000   0.000000   0.000000  -0.000002
             13         14         15         16         17         18
     1  C   -0.019757  -0.025237  -0.066849   0.007221   0.008913   0.015876
     2  C    0.036489  -0.049437   0.047581  -0.047847  -0.039045  -0.129055
     3  N   -0.089633   0.018028   0.003379  -0.000201   0.017586   0.018594
     4  C    0.382755  -0.031603  -0.019261   0.019351  -0.001660   0.000251
     5  C   -0.004426   0.400221   0.378401  -0.010154   0.007044  -0.000849
     6  C    0.034835   0.002465  -0.002966   0.209213   0.077051   0.062151
     7  C    0.010176  -0.001139   0.003468  -0.017474   0.213348  -0.014225
     8  C   -0.013793   0.014829  -0.001497   0.066198  -0.002047   0.367956
     9  H   -0.000167  -0.005070   0.000435   0.000004   0.000005   0.000372
    10  H    0.001152   0.004037  -0.005358   0.000004  -0.000010   0.000096
    11  H   -0.000549   0.000773  -0.000130   0.000633   0.000693  -0.001063
    12  H   -0.046541  -0.006025   0.000502   0.001307   0.000006   0.000005
    13  H    0.589935   0.004133  -0.004336  -0.000815  -0.000015  -0.000017
    14  H    0.004133   0.521625  -0.024900   0.000008  -0.000001  -0.000001
    15  H   -0.004336  -0.024900   0.517799   0.000000   0.000000   0.000001
    16  H   -0.000815   0.000008   0.000000   0.569273  -0.007986  -0.000117
    17  H   -0.000015  -0.000001   0.000000  -0.007986   0.566298  -0.003349
    18  H   -0.000017  -0.000001   0.000001  -0.000117  -0.003349   0.575959
    19  O   -0.001150   0.000053   0.000114  -0.000694   0.006182  -0.047248
    20  H    0.000072   0.000000  -0.000001  -0.000034   0.000887  -0.000427
    21  O   -0.000061  -0.000007  -0.000012   0.003416  -0.034288  -0.000825
    22  H   -0.000003   0.000000   0.000000   0.000530  -0.000330  -0.000186
    23  C   -0.028909  -0.000077  -0.001476   0.024296   0.017242  -0.000670
    24  H   -0.000829  -0.000005   0.000008  -0.006452  -0.000094   0.000006
    25  H   -0.001148  -0.000001   0.000002   0.005052  -0.000178  -0.000062
    26  O    0.000144   0.000006  -0.000002   0.011602  -0.001902  -0.000141
    27  H    0.000030   0.000000   0.000000  -0.000097  -0.000016   0.000000
             19         20         21         22         23         24
     1  C    0.111205  -0.018503  -0.004980   0.001554   0.080058  -0.003516
     2  C   -0.428492   0.095193   0.055058  -0.009736  -0.120695   0.033891
     3  N    0.059715  -0.006158   0.015638   0.004541   0.151480  -0.019797
     4  C    0.013497  -0.006121  -0.011859   0.000996  -0.040501  -0.004401
     5  C   -0.038524   0.008520   0.012461  -0.000992  -0.037968   0.007287
     6  C    0.144241  -0.003273  -0.002932  -0.094489  -0.394375  -0.053749
     7  C   -0.160521  -0.050981   0.175272   0.041807  -0.123314   0.034132
     8  C    0.423367  -0.055537  -0.195091   0.029779   0.037697  -0.035525
     9  H    0.000293  -0.000003   0.000042   0.000000   0.002095   0.000000
    10  H    0.001679   0.000010  -0.000204   0.000001  -0.002679  -0.000002
    11  H    0.008001  -0.000259  -0.000469   0.000001   0.010083  -0.000008
    12  H    0.000306  -0.000002   0.000060   0.000000   0.012557  -0.000800
    13  H   -0.001150   0.000072  -0.000061  -0.000003  -0.028909  -0.000829
    14  H    0.000053   0.000000  -0.000007   0.000000  -0.000077  -0.000005
    15  H    0.000114  -0.000001  -0.000012   0.000000  -0.001476   0.000008
    16  H   -0.000694  -0.000034   0.003416   0.000530   0.024296  -0.006452
    17  H    0.006182   0.000887  -0.034288  -0.000330   0.017242  -0.000094
    18  H   -0.047248  -0.000427  -0.000825  -0.000186  -0.000670   0.000006
    19  O    8.278477   0.238594  -0.014463  -0.000041  -0.006959   0.000211
    20  H    0.238594   0.358761   0.042412  -0.003633   0.008965   0.000041
    21  O   -0.014463   0.042412   8.367124   0.236983   0.023998  -0.002282
    22  H   -0.000041  -0.003633   0.236983   0.322289   0.005438   0.000559
    23  C   -0.006959   0.008965   0.023998   0.005438   5.472951   0.415434
    24  H    0.000211   0.000041  -0.002282   0.000559   0.415434   0.544492
    25  H   -0.002548  -0.000811  -0.000140  -0.000363   0.454473  -0.041106
    26  O   -0.004284   0.000485  -0.038205   0.039017   0.166745  -0.043239
    27  H    0.000089  -0.000025  -0.000665  -0.002960  -0.039276  -0.002647
             25         26         27
     1  C    0.006203   0.000590  -0.000500
     2  C   -0.026763   0.030079  -0.002394
     3  N    0.022239   0.027364  -0.002838
     4  C   -0.001749   0.000108   0.002309
     5  C   -0.009789  -0.000568   0.000250
     6  C   -0.108778  -0.221528   0.059020
     7  C   -0.011832   0.097008  -0.018889
     8  C    0.041807  -0.047356   0.006593
     9  H    0.000002  -0.000001   0.000000
    10  H   -0.000047   0.000006   0.000000
    11  H   -0.000005   0.000081   0.000000
    12  H    0.000258  -0.000012  -0.000002
    13  H   -0.001148   0.000144   0.000030
    14  H   -0.000001   0.000006   0.000000
    15  H    0.000002  -0.000002   0.000000
    16  H    0.005052   0.011602  -0.000097
    17  H   -0.000178  -0.001902  -0.000016
    18  H   -0.000062  -0.000141   0.000000
    19  O   -0.002548  -0.004284   0.000089
    20  H   -0.000811   0.000485  -0.000025
    21  O   -0.000140  -0.038205  -0.000665
    22  H   -0.000363   0.039017  -0.002960
    23  C    0.454473   0.166745  -0.039276
    24  H   -0.041106  -0.043239  -0.002647
    25  H    0.536835  -0.052326  -0.004881
    26  O   -0.052326   8.410179   0.248977
    27  H   -0.004881   0.248977   0.344710
 Mulliken atomic charges:
              1
     1  C   -0.557099
     2  C    0.149062
     3  N   -0.103619
     4  C   -0.227602
     5  C   -0.331247
     6  C   -0.357734
     7  C   -0.033734
     8  C    0.070621
     9  H    0.172281
    10  H    0.187362
    11  H    0.163694
    12  H    0.164968
    13  H    0.152429
    14  H    0.177327
    15  H    0.175099
    16  H    0.173764
    17  H    0.175664
    18  H    0.156967
    19  O   -0.581102
    20  H    0.391829
    21  O   -0.625983
    22  H    0.429236
    23  C   -0.086615
    24  H    0.178391
    25  H    0.195657
    26  O   -0.622826
    27  H    0.413211
 Sum of Mulliken atomic charges =   0.00000
 Mulliken charges with hydrogens summed into heavy atoms:
              1
     1  C   -0.197457
     2  C    0.312756
     3  N   -0.103619
     4  C    0.089795
     5  C    0.021179
     6  C   -0.183971
     7  C    0.141929
     8  C    0.227588
    19  O   -0.189273
    21  O   -0.196747
    23  C    0.287433
    26  O   -0.209614
 Sum of Mulliken charges with hydrogens summed into heavy atoms =   0.00000
 Electronic spatial extent (au):  <R**2>=           1958.7899
 Charge=              0.0000 electrons
 Dipole moment (field-independent basis, Debye):
    X=             -0.2059    Y=              2.6901    Z=              1.4600  Tot=              3.0677
 Quadrupole moment (field-independent basis, Debye-Ang):
   XX=            -70.9368   YY=            -73.5354   ZZ=            -72.9917
   XY=              5.0930   XZ=              6.9454   YZ=              7.8375
 Traceless Quadrupole moment (field-independent basis, Debye-Ang):
   XX=              1.5511   YY=             -1.0474   ZZ=             -0.5037
   XY=              5.0930   XZ=              6.9454   YZ=              7.8375
 Octapole moment (field-independent basis, Debye-Ang**2):
  XXX=             11.7823  YYY=              9.6359  ZZZ=              8.0739  XYY=              0.9063
  XXY=             14.7887  XXZ=             27.3085  XZZ=             20.7416  YZZ=              4.5763
  YYZ=              2.7744  XYZ=              3.8656
 Hexadecapole moment (field-independent basis, Debye-Ang**3):
 XXXX=          -1443.7346 YYYY=           -726.3177 ZZZZ=           -297.9885 XXXY=             58.0100
 XXXZ=             83.3601 YYYX=             20.1256 YYYZ=             19.7358 ZZZX=             15.8675
 ZZZY=             15.7498 XXYY=           -380.4639 XXZZ=           -266.4545 YYZZ=           -171.3857
 XXYZ=             27.9698 YYXZ=             28.2050 ZZXY=             11.5147
 N-N= 8.186820897698D+02 E-N=-3.023346584803D+03  KE= 5.886615272233D+02
 1\1\GINC-COMPUTE-3-1\SP\RmPW1PW91\6-31+G(d,p)\C8H15N1O3\MAMICHETTI.IQU
 IR\17-May-2024\0\\# mpw1pw91/6-31+G** nmr scrf=(pcm,solvent=water)\\co
 mment\\0,1\C,0,-2.469104,-0.664645,0.358242\C,0,-1.258059,-0.782287,-0
 .579518\N,0,-0.768286,0.61862,-0.799004\C,0,-1.566852,1.529457,0.04459
 7\C,0,-2.905502,0.8,0.183653\C,0,0.707657,0.655211,-0.731468\C,0,1.111
 36,-0.849299,-0.81134\C,0,-0.044898,-1.592362,-0.119983\H,0,-3.25693,-
 1.382713,0.111926\H,0,-2.163735,-0.837935,1.394704\H,0,-1.574285,-1.20
 3113,-1.544461\H,0,-1.669341,2.51549,-0.42447\H,0,-1.137443,1.68606,1.
 045223\H,0,-3.501521,0.91908,-0.729067\H,0,-3.496452,1.175567,1.024834
 \H,0,1.112234,1.176826,-1.610339\H,0,1.139153,-1.149218,-1.867094\H,0,
 -0.107688,-2.639318,-0.446763\O,0,0.139803,-1.539628,1.296497\H,0,1.11
 1308,-1.564401,1.407688\O,0,2.350251,-1.188364,-0.18872\H,0,2.805189,-
 0.340518,0.019829\C,0,1.299112,1.381501,0.485655\H,0,0.917322,2.406965
 ,0.544613\H,0,1.058873,0.863273,1.418695\O,0,2.729994,1.418151,0.28416
 7\H,0,3.138655,1.656886,1.133123\\Version=AM64L-G09RevC.01\State=1-A\H
 F=-594.1932581\RMSD=8.125e-09\Dipole=-0.0810139,1.0583846,0.5744107\Qu
 adrupole=1.153227,-0.7787336,-0.3744933,3.7865453,5.1637001,5.8269546\
 PG=C01 [X(C8H15N1O3)]\\@


 LIFE IS A CONTINUAL STRUGGLE AGAINST THE TENDENCY TO PRODUCE ENTROPY.
 Job cpu time:  0 days  0 hours  9 minutes  9.9 seconds.
 File lengths (MBytes):  RWF=    112 Int=      0 D2E=      0 Chk=      7 Scr=      1
 Normal termination of Gaussian 09 at Fri May 17 12:53:58 2024.
