 Entering Gaussian System, Link 0=g09
 Input=/home/mamichetti.iquir/Linux/04_Cardona_A1A3_R__S_R_S_014_OptB.gjc
 Output=/home/mamichetti.iquir/Linux/04_Cardona_A1A3_R__S_R_S_014_OptB.log
 Initial command:
 /opt/ohpc/pub/apps/software/Gaussian/09/AMD64.SSE4a-enabled/g09/l1.exe /local/mamichetti.iquir/Gau-410098.inp -scrdir=/local/mamichetti.iquir/
 Entering Link 1 = /opt/ohpc/pub/apps/software/Gaussian/09/AMD64.SSE4a-enabled/g09/l1.exe PID=    410099.
  
 Copyright (c) 1988,1990,1992,1993,1995,1998,2003,2009,2011,
            Gaussian, Inc.  All Rights Reserved.
  
 This is part of the Gaussian(R) 09 program.  It is based on
 the Gaussian(R) 03 system (copyright 2003, Gaussian, Inc.),
 the Gaussian(R) 98 system (copyright 1998, Gaussian, Inc.),
 the Gaussian(R) 94 system (copyright 1995, Gaussian, Inc.),
 the Gaussian 92(TM) system (copyright 1992, Gaussian, Inc.),
 the Gaussian 90(TM) system (copyright 1990, Gaussian, Inc.),
 the Gaussian 88(TM) system (copyright 1988, Gaussian, Inc.),
 the Gaussian 86(TM) system (copyright 1986, Carnegie Mellon
 University), and the Gaussian 82(TM) system (copyright 1983,
 Carnegie Mellon University). Gaussian is a federally registered
 trademark of Gaussian, Inc.
  
 This software contains proprietary and confidential information,
 including trade secrets, belonging to Gaussian, Inc.
  
 This software is provided under written license and may be
 used, copied, transmitted, or stored only in accord with that
 written license.
  
 The following legend is applicable only to US Government
 contracts under FAR:
  
                    RESTRICTED RIGHTS LEGEND
  
 Use, reproduction and disclosure by the US Government is
 subject to restrictions as set forth in subparagraphs (a)
 and (c) of the Commercial Computer Software - Restricted
 Rights clause in FAR 52.227-19.
  
 Gaussian, Inc.
 340 Quinnipiac St., Bldg. 40, Wallingford CT 06492
  
  
 ---------------------------------------------------------------
 Warning -- This program may not be used in any manner that
 competes with the business of Gaussian, Inc. or will provide
 assistance to any competitor of Gaussian, Inc.  The licensee
 of this program is prohibited from giving any competitor of
 Gaussian, Inc. access to this program.  By using this program,
 the user acknowledges that Gaussian, Inc. is engaged in the
 business of creating and licensing software in the field of
 computational chemistry and represents and warrants to the
 licensee that it is not a competitor of Gaussian, Inc. and that
 it will not use this program in any manner prohibited above.
 ---------------------------------------------------------------
  

 Cite this work as:
 Gaussian 09, Revision C.01,
 M. J. Frisch, G. W. Trucks, H. B. Schlegel, G. E. Scuseria, 
 M. A. Robb, J. R. Cheeseman, G. Scalmani, V. Barone, B. Mennucci, 
 G. A. Petersson, H. Nakatsuji, M. Caricato, X. Li, H. P. Hratchian, 
 A. F. Izmaylov, J. Bloino, G. Zheng, J. L. Sonnenberg, M. Hada, 
 M. Ehara, K. Toyota, R. Fukuda, J. Hasegawa, M. Ishida, T. Nakajima, 
 Y. Honda, O. Kitao, H. Nakai, T. Vreven, J. A. Montgomery, Jr., 
 J. E. Peralta, F. Ogliaro, M. Bearpark, J. J. Heyd, E. Brothers, 
 K. N. Kudin, V. N. Staroverov, T. Keith, R. Kobayashi, J. Normand, 
 K. Raghavachari, A. Rendell, J. C. Burant, S. S. Iyengar, J. Tomasi, 
 M. Cossi, N. Rega, J. M. Millam, M. Klene, J. E. Knox, J. B. Cross, 
 V. Bakken, C. Adamo, J. Jaramillo, R. Gomperts, R. E. Stratmann, 
 O. Yazyev, A. J. Austin, R. Cammi, C. Pomelli, J. W. Ochterski, 
 R. L. Martin, K. Morokuma, V. G. Zakrzewski, G. A. Voth, 
 P. Salvador, J. J. Dannenberg, S. Dapprich, A. D. Daniels, 
 O. Farkas, J. B. Foresman, J. V. Ortiz, J. Cioslowski, 
 and D. J. Fox, Gaussian, Inc., Wallingford CT, 2010.
 
 ******************************************
 Gaussian 09:  AM64L-G09RevC.01 23-Sep-2011
                17-May-2024 
 ******************************************
 %nprocshared=4
 Will use up to    4 processors via shared memory.
 ------------------------------------------------
 # mpw1pw91/6-31+G** nmr scrf=(pcm,solvent=water)
 ------------------------------------------------
 1/38=1/1;
 2/12=2,17=6,18=5,40=1/2;
 3/5=1,6=6,7=111,11=2,16=1,25=1,30=1,70=2201,72=1,74=-7/1,2,8,3;
 4//1;
 5/5=2,38=5,53=1/2;
 8/6=1,10=90,11=11/1;
 10/13=100,45=16/2;
 6/7=2,8=2,9=2,10=2,28=1/1;
 99/9=1/99;
 -------
 comment
 -------
 Charge =  0 Multiplicity = 1
 Symbolic Z-Matrix:
 6                    -1.87459   1.48679  -0.36944 
 6                    -0.96534   0.47292  -1.07502 
 7                     0.42128   0.79808  -0.62085 
 6                     0.3146    1.65744   0.59608 
 6                    -1.17205   1.71962   0.9748 
 6                     1.10851  -0.51155  -0.50918 
 6                     0.06314  -1.5178   -0.01364 
 6                    -1.21588  -1.04029  -0.7498 
 1                    -1.89724   2.41531  -0.95234 
 1                    -2.90188   1.1284   -0.27179 
 1                    -1.03318   0.58713  -2.16238 
 1                     0.67972   2.66372   0.34958 
 1                     0.93198   1.28984   1.41799 
 1                    -1.44407   2.67148   1.4423 
 1                    -1.42009   0.91479   1.67427 
 1                     1.3511   -0.82087  -1.53728 
 1                     0.32814  -2.54836  -0.28716 
 1                    -1.33113  -1.59903  -1.68329 
 8                    -2.38196  -1.23515   0.0603 
 1                    -2.64578  -2.16649  -0.03324 
 8                    -0.12612  -1.43266   1.4002 
 1                    -1.09904  -1.44221   1.51342 
 6                     2.42734  -0.51724   0.25417 
 1                     2.28634  -0.27206   1.31334 
 1                     2.84335  -1.52874   0.20796 
 8                     3.41114   0.33975  -0.33605 
 1                     3.06395   1.24566  -0.28887 
 
                          Input orientation:                          
 ---------------------------------------------------------------------
 Center     Atomic      Atomic             Coordinates (Angstroms)
 Number     Number       Type             X           Y           Z
 ---------------------------------------------------------------------
      1          6           0       -1.874590    1.486792   -0.369436
      2          6           0       -0.965336    0.472921   -1.075018
      3          7           0        0.421276    0.798077   -0.620854
      4          6           0        0.314598    1.657439    0.596081
      5          6           0       -1.172047    1.719622    0.974803
      6          6           0        1.108514   -0.511550   -0.509183
      7          6           0        0.063137   -1.517796   -0.013642
      8          6           0       -1.215877   -1.040290   -0.749796
      9          1           0       -1.897244    2.415306   -0.952336
     10          1           0       -2.901881    1.128400   -0.271788
     11          1           0       -1.033177    0.587128   -2.162376
     12          1           0        0.679715    2.663718    0.349577
     13          1           0        0.931981    1.289837    1.417986
     14          1           0       -1.444074    2.671481    1.442301
     15          1           0       -1.420092    0.914791    1.674268
     16          1           0        1.351095   -0.820871   -1.537279
     17          1           0        0.328135   -2.548361   -0.287156
     18          1           0       -1.331133   -1.599025   -1.683292
     19          8           0       -2.381959   -1.235149    0.060298
     20          1           0       -2.645778   -2.166485   -0.033241
     21          8           0       -0.126117   -1.432664    1.400204
     22          1           0       -1.099038   -1.442208    1.513424
     23          6           0        2.427339   -0.517239    0.254165
     24          1           0        2.286344   -0.272064    1.313339
     25          1           0        2.843346   -1.528738    0.207961
     26          8           0        3.411137    0.339749   -0.336050
     27          1           0        3.063952    1.245658   -0.288874
 ---------------------------------------------------------------------
                    Distance matrix (angstroms):
                    1          2          3          4          5
     1  C    0.000000
     2  C    1.533794   0.000000
     3  N    2.410091   1.494886   0.000000
     4  C    2.398726   2.415344   1.493591   0.000000
     5  C    1.534521   2.408061   2.435989   1.535386   0.000000
     6  C    3.593301   2.364362   1.483202   2.560552   3.518707
     7  C    3.592899   2.479361   2.420793   3.243010   3.603273
     8  C    2.639076   1.567912   2.465054   3.381047   3.254731
     9  H    1.096551   2.157861   2.846198   2.804319   2.173419
    10  H    1.092386   2.196597   3.357727   3.373250   2.212659
    11  H    2.175317   1.095442   2.129841   3.251330   3.338221
    12  H    2.902862   3.087921   2.118760   1.098486   2.170541
    13  H    3.333243   3.237628   2.158591   1.091705   2.192729
    14  H    2.207085   3.376352   3.353473   2.199386   1.094801
    15  H    2.170364   2.821458   2.944799   2.173284   1.094774
    16  H    4.134514   2.693220   2.079757   3.430389   4.373889
    17  H    4.597959   3.379636   3.364324   4.297563   4.696676
    18  H    3.397621   2.190152   3.153698   4.302154   4.254903
    19  O    2.801974   2.492642   3.529320   3.990683   3.321277
    20  H    3.748892   3.297825   4.305896   4.876707   4.276665
    21  O    3.835623   3.234543   3.059497   3.223287   3.348409
    22  H    3.567308   3.222674   3.447517   3.528129   3.208210
    23  C    4.786608   3.775896   2.553430   3.051197   4.298656
    24  H    4.820651   4.102764   2.892193   2.850478   4.005233
    25  H    5.629008   4.489848   3.459397   4.086187   5.221424
    26  O    5.408857   4.440419   3.038165   3.491952   4.962657
    27  H    4.945082   4.177356   2.700792   2.917474   4.445808
                    6          7          8          9         10
     6  C    0.000000
     7  C    1.533266   0.000000
     8  C    2.395883   1.551068   0.000000
     9  H    4.218703   4.493721   3.527949   0.000000
    10  H    4.339247   3.982502   2.788246   1.768776   0.000000
    11  H    2.920099   3.201510   2.162695   2.356490   2.712813
    12  H    3.317177   4.242305   4.303669   2.897827   3.946027
    13  H    2.643887   3.269136   3.839540   3.858707   4.192839
    14  H    4.522796   4.684175   4.316782   2.450566   2.728443
    15  H    3.632596   3.311569   3.120918   3.062396   2.455293
    16  H    1.100685   2.113294   2.693997   4.622413   4.846538
    17  H    2.192461   1.098680   2.207326   5.480216   4.894059
    18  H    2.917707   2.176768   1.094022   4.119421   3.449412
    19  O    3.609890   2.462489   1.433168   3.819188   2.442737
    20  H    4.130380   2.785570   1.956114   4.732636   3.313421
    21  O    2.453268   1.428994   2.442137   4.845432   4.130311
    22  H    3.135339   1.920493   2.301598   4.647313   3.611821
    23  C    1.523821   2.581140   3.815042   5.362600   5.602262
    24  H    2.183168   2.873217   4.136695   5.464215   5.602821
    25  H    2.135090   2.789048   4.199187   6.274947   6.348084
    26  O    2.461048   3.842333   4.846128   5.732945   6.362413
    27  H    2.638191   4.088682   4.873904   5.140207   5.967010
                   11         12         13         14         15
    11  H    0.000000
    12  H    3.681865   0.000000
    13  H    4.144229   1.758603   0.000000
    14  H    4.184144   2.388427   2.748667   0.000000
    15  H    3.870000   3.036897   2.395535   1.772101   0.000000
    16  H    2.838655   4.019121   3.655726   5.374699   4.583234
    17  H    3.898835   5.262585   4.243101   5.777413   4.347057
    18  H    2.257779   5.132937   4.804699   5.293327   4.195282
    19  O    3.174931   4.965752   4.381902   4.248684   2.855228
    20  H    3.836155   5.876761   5.181948   5.198772   3.729900
    21  O    4.194555   4.305058   2.920942   4.310776   2.694444
    22  H    4.199291   4.623541   3.405615   4.128746   2.384196
    23  C    4.362851   3.630672   2.618415   5.154361   4.343976
    24  H    4.882420   3.482658   2.069972   4.753641   3.908524
    25  H    5.012267   4.719962   3.614117   6.127594   5.128137
    26  O    4.811298   3.651244   3.182063   5.672088   5.264297
    27  H    4.553036   2.846594   2.731414   5.035100   4.906124
                   16         17         18         19         20
    16  H    0.000000
    17  H    2.365053   0.000000
    18  H    2.796639   2.367193   0.000000
    19  O    4.081614   3.031478   2.068030   0.000000
    20  H    4.477477   3.009063   2.184713   0.972490   0.000000
    21  O    3.344436   2.073236   3.314768   2.631194   2.990309
    22  H    3.961818   2.549997   3.208964   1.949445   2.304160
    23  C    2.111816   2.970714   4.364643   4.866449   5.342203
    24  H    3.049902   3.402601   4.881267   4.928559   5.452333
    25  H    2.402863   2.758815   4.583454   5.235629   5.531309
    26  O    2.652124   4.224745   5.297455   6.016424   6.561945
    27  H    2.960226   4.677529   5.417877   5.994520   6.656507
                   21         22         23         24         25
    21  O    0.000000
    22  H    0.979533   0.000000
    23  C    2.944749   3.857024   0.000000
    24  H    2.678527   3.587490   1.096285   0.000000
    25  H    3.201310   4.153807   1.094681   1.763899   0.000000
    26  O    4.320670   5.190145   1.432006   2.088051   2.027209
    27  H    4.494767   5.272892   1.951403   2.339923   2.827151
                   26         27
    26  O    0.000000
    27  H    0.971305   0.000000
 Stoichiometry    C8H15NO3
 Framework group  C1[X(C8H15NO3)]
 Deg. of freedom    75
 Full point group                 C1      NOp   1
 Largest Abelian subgroup         C1      NOp   1
 Largest concise Abelian subgroup C1      NOp   1
                         Standard orientation:                         
 ---------------------------------------------------------------------
 Center     Atomic      Atomic             Coordinates (Angstroms)
 Number     Number       Type             X           Y           Z
 ---------------------------------------------------------------------
      1          6           0       -1.874590    1.486792   -0.369436
      2          6           0       -0.965336    0.472921   -1.075018
      3          7           0        0.421276    0.798077   -0.620854
      4          6           0        0.314598    1.657439    0.596081
      5          6           0       -1.172048    1.719622    0.974803
      6          6           0        1.108514   -0.511550   -0.509183
      7          6           0        0.063137   -1.517796   -0.013642
      8          6           0       -1.215877   -1.040290   -0.749796
      9          1           0       -1.897245    2.415306   -0.952336
     10          1           0       -2.901881    1.128399   -0.271788
     11          1           0       -1.033177    0.587128   -2.162376
     12          1           0        0.679714    2.663718    0.349577
     13          1           0        0.931981    1.289837    1.417986
     14          1           0       -1.444075    2.671481    1.442301
     15          1           0       -1.420092    0.914791    1.674268
     16          1           0        1.351095   -0.820870   -1.537279
     17          1           0        0.328136   -2.548361   -0.287156
     18          1           0       -1.331133   -1.599025   -1.683292
     19          8           0       -2.381959   -1.235150    0.060298
     20          1           0       -2.645777   -2.166486   -0.033241
     21          8           0       -0.126117   -1.432664    1.400204
     22          1           0       -1.099038   -1.442208    1.513424
     23          6           0        2.427339   -0.517238    0.254165
     24          1           0        2.286344   -0.272063    1.313339
     25          1           0        2.843346   -1.528737    0.207961
     26          8           0        3.411137    0.339750   -0.336050
     27          1           0        3.063952    1.245659   -0.288874
 ---------------------------------------------------------------------
 Rotational constants (GHZ):      1.4030706      0.8285704      0.6604372
 Standard basis: 6-31+G(d,p) (6D, 7F)
 There are   303 symmetry adapted basis functions of A   symmetry.
 Integral buffers will be    131072 words long.
 Raffenetti 2 integral format.
 Two-electron integral symmetry is turned on.
   303 basis functions,   489 primitive gaussians,   303 cartesian basis functions
    47 alpha electrons       47 beta electrons
       nuclear repulsion energy       819.1910176531 Hartrees.
 NAtoms=   27 NActive=   27 NUniq=   27 SFac= 1.00D+00 NAtFMM=   60 NAOKFM=F Big=F
 ------------------------------------------------------------------------------
 Polarizable Continuum Model (PCM)
 =================================
 Model                : PCM.
 Atomic radii         : UFF (Universal Force Field).
 Polarization charges : Total charges.
 Charge compensation  : None.
 Solution method      : Matrix inversion.
 Cavity type          : Scaled VdW (van der Waals Surface) (Alpha=1.100).
 Cavity algorithm     : GePol (No added spheres)
                        Default sphere list used, NSphG=   27.
                        Lebedev-Laikov grids with approx.  5.0 points / Ang**2.
                        Smoothing algorithm: Karplus/York (Gamma=1.0000).
                        Polarization charges: spherical gaussians, with
                                              point-specific exponents (IZeta= 3).
                        Self-potential: point-specific (ISelfS= 7).
                        Self-field    : sphere-specific E.n sum rule (ISelfD= 2).
 Solvent              : Water, Eps=  78.355300 Eps(inf)=   1.777849
 ------------------------------------------------------------------------------
 One-electron integrals computed using PRISM.
 NBasis=   303 RedAO= T  NBF=   303
 NBsUse=   303 1.00D-06 NBFU=   303
 Harris functional with IExCor=  908 diagonalized for initial guess.
 ExpMin= 4.38D-02 ExpMax= 5.48D+03 ExpMxC= 8.25D+02 IAcc=2 IRadAn=         4 AccDes= 0.00D+00
 HarFok:  IExCor=  908 AccDes= 0.00D+00 IRadAn=         4 IDoV= 1
 ScaDFX=  1.000000  1.000000  1.000000  1.000000
 FoFCou: FMM=F IPFlag=           0 FMFlag=      100000 FMFlg1=           0
         NFxFlg=           0 DoJE=T BraDBF=F KetDBF=T FulRan=T
         Omega=  0.000000  0.000000  1.000000  0.000000  0.000000 ICntrl=     500 IOpCl=  0
         NMat0=    1 NMatS0=    1 NMatT0=    0 NMatD0=    1 NMtDS0=    0 NMtDT0=    0
         I1Cent=           4 NGrid=           0.
 Petite list used in FoFCou.
 Initial guess orbital symmetries:
       Occupied  (A) (A) (A) (A) (A) (A) (A) (A) (A) (A) (A) (A)
                 (A) (A) (A) (A) (A) (A) (A) (A) (A) (A) (A) (A)
                 (A) (A) (A) (A) (A) (A) (A) (A) (A) (A) (A) (A)
                 (A) (A) (A) (A) (A) (A) (A) (A) (A) (A) (A)
       Virtual   (A) (A) (A) (A) (A) (A) (A) (A) (A) (A) (A) (A)
                 (A) (A) (A) (A) (A) (A) (A) (A) (A) (A) (A) (A)
                 (A) (A) (A) (A) (A) (A) (A) (A) (A) (A) (A) (A)
                 (A) (A) (A) (A) (A) (A) (A) (A) (A) (A) (A) (A)
                 (A) (A) (A) (A) (A) (A) (A) (A) (A) (A) (A) (A)
                 (A) (A) (A) (A) (A) (A) (A) (A) (A) (A) (A) (A)
                 (A) (A) (A) (A) (A) (A) (A) (A) (A) (A) (A) (A)
                 (A) (A) (A) (A) (A) (A) (A) (A) (A) (A) (A) (A)
                 (A) (A) (A) (A) (A) (A) (A) (A) (A) (A) (A) (A)
                 (A) (A) (A) (A) (A) (A) (A) (A) (A) (A) (A) (A)
                 (A) (A) (A) (A) (A) (A) (A) (A) (A) (A) (A) (A)
                 (A) (A) (A) (A) (A) (A) (A) (A) (A) (A) (A) (A)
                 (A) (A) (A) (A) (A) (A) (A) (A) (A) (A) (A) (A)
                 (A) (A) (A) (A) (A) (A) (A) (A) (A) (A) (A) (A)
                 (A) (A) (A) (A) (A) (A) (A) (A) (A) (A) (A) (A)
                 (A) (A) (A) (A) (A) (A) (A) (A) (A) (A) (A) (A)
                 (A) (A) (A) (A) (A) (A) (A) (A) (A) (A) (A) (A)
                 (A) (A) (A) (A) (A) (A) (A) (A) (A) (A) (A) (A)
                 (A) (A) (A) (A) (A) (A) (A) (A) (A) (A) (A) (A)
                 (A) (A) (A) (A) (A) (A) (A) (A) (A) (A) (A) (A)
                 (A) (A) (A) (A) (A) (A) (A) (A) (A) (A) (A) (A)
                 (A) (A) (A) (A)
 The electronic state of the initial guess is 1-A.
 Requested convergence on RMS density matrix=1.00D-08 within 128 cycles.
 Requested convergence on MAX density matrix=1.00D-06.
 Requested convergence on             energy=1.00D-06.
 No special actions if energy rises.
 Error on total polarization charges =  0.01423
 SCF Done:  E(RmPW1PW91) =  -594.189526387     A.U. after   13 cycles
             Convg  =    0.4907D-08             -V/T =  2.0094
 Range of M.O.s used for correlation:     1   303
 NBasis=   303 NAE=    47 NBE=    47 NFC=     0 NFV=     0
 NROrb=    303 NOA=    47 NOB=    47 NVA=   256 NVB=   256

 **** Warning!!: The largest alpha MO coefficient is  0.94516670D+02

 NEqPCM:  Using equilibrium solvation (IEInf=0, Eps=  78.3553, EpsInf=   1.7778)
          Differentiating once with respect to magnetic field using GIAOs.
          Electric field/nuclear overlap derivatives assumed to be zero.
 FoFCou: FMM=F IPFlag=           0 FMFlag=    10101102 FMFlg1=           0
         NFxFlg=    40000000 DoJE=F BraDBF=F KetDBF=T FulRan=T
         Omega=  0.000000  0.000000  1.000000  0.000000  0.000000 ICntrl=    6100 IOpCl=  0
         NMat0=    1 NMatS0=    1 NMatT0=    0 NMatD0=    1 NMtDS0=    0 NMtDT0=    0
         I1Cent=           7 NGrid=        1776.
 Symmetry not used in FoFCou.
          There are     3 degrees of freedom in the 1st order CPHF.  IDoFFX=0.
      3 vectors produced by pass  0 Test12= 4.01D-13 3.33D-08 XBig12= 2.94D+01 7.93D-01.
 AX will form     3 AO Fock derivatives at one time.
      3 vectors produced by pass  1 Test12= 4.01D-13 3.33D-08 XBig12= 7.19D-02 3.58D-02.
      3 vectors produced by pass  2 Test12= 4.01D-13 3.33D-08 XBig12= 1.35D-04 2.46D-03.
      3 vectors produced by pass  3 Test12= 4.01D-13 3.33D-08 XBig12= 4.71D-07 1.41D-04.
      3 vectors produced by pass  4 Test12= 4.01D-13 3.33D-08 XBig12= 1.61D-09 6.66D-06.
      3 vectors produced by pass  5 Test12= 4.01D-13 3.33D-08 XBig12= 6.19D-12 4.82D-07.
      2 vectors produced by pass  6 Test12= 4.01D-13 3.33D-08 XBig12= 2.59D-14 3.58D-08.
 Inverted reduced A of dimension    20 with in-core refinement.
 Calculating GIAO nuclear magnetic shielding tensors.
 SCF GIAO Magnetic shielding tensor (ppm):
      1  C    Isotropic =   167.5624   Anisotropy =    24.6528
   XX=   170.8621   YX=    -5.2153   ZX=     5.5733
   XY=   -13.6069   YY=   158.7908   ZY=    15.2616
   XZ=    10.8316   YZ=    17.2625   ZZ=   173.0344
   Eigenvalues:   142.7135   175.9762   183.9976
      2  C    Isotropic =   126.9805   Anisotropy =    56.0722
   XX=   160.5286   YX=     8.0679   ZX=    10.4066
   XY=     9.6750   YY=   123.4309   ZY=    13.2541
   XZ=     8.5312   YZ=     2.8319   ZZ=    96.9819
   Eigenvalues:    94.0063   122.5732   164.3620
      3  N    Isotropic =   196.3219   Anisotropy =    94.6955
   XX=   243.6432   YX=   -33.1953   ZX=    30.7133
   XY=   -15.4319   YY=   169.8572   ZY=    20.7209
   XZ=    36.7281   YZ=    32.8182   ZZ=   175.4653
   Eigenvalues:   130.9468   198.5666   259.4522
      4  C    Isotropic =   149.0329   Anisotropy =    49.9572
   XX=   146.3677   YX=     0.3410   ZX=    -5.8387
   XY=     6.4028   YY=   143.0632   ZY=    29.9734
   XZ=   -12.2618   YZ=    30.7958   ZZ=   157.6678
   Eigenvalues:   116.7842   147.9768   182.3377
      5  C    Isotropic =   167.8068   Anisotropy =    18.7516
   XX=   178.3799   YX=    -1.4864   ZX=     2.3311
   XY=    -0.6332   YY=   153.7622   ZY=    10.9955
   XZ=    -0.5858   YZ=    19.9090   ZZ=   171.2785
   Eigenvalues:   144.7041   178.4085   180.3079
      6  C    Isotropic =   127.5965   Anisotropy =    27.8042
   XX=   142.4456   YX=     3.4338   ZX=     7.4803
   XY=   -10.9741   YY=   140.0261   ZY=    -7.8111
   XZ=    -7.3302   YZ=   -12.3466   ZZ=   100.3177
   Eigenvalues:    97.8913   138.7655   146.1326
      7  C    Isotropic =   121.6005   Anisotropy =    25.6213
   XX=   113.3949   YX=     7.8932   ZX=   -10.2673
   XY=     5.3218   YY=   115.3060   ZY=    -1.5934
   XZ=     0.1894   YZ=    -7.4575   ZZ=   136.1007
   Eigenvalues:   107.6456   118.4746   138.6814
      8  C    Isotropic =   119.3927   Anisotropy =    43.8567
   XX=   143.1732   YX=     3.4965   ZX=   -12.3023
   XY=     3.6097   YY=   113.6305   ZY=   -19.4616
   XZ=   -11.5756   YZ=   -17.5617   ZZ=   101.3743
   Eigenvalues:    86.9301   122.6175   148.6304
      9  H    Isotropic =    29.7205   Anisotropy =    12.2766
   XX=    26.2562   YX=    -3.7098   ZX=     2.0820
   XY=    -4.4242   YY=    33.4905   ZY=    -4.1951
   XZ=     2.1384   YZ=    -4.1860   ZZ=    29.4149
   Eigenvalues:    24.4159    26.8408    37.9049
     10  H    Isotropic =    29.3857   Anisotropy =     9.0229
   XX=    35.2914   YX=     0.0095   ZX=     0.8382
   XY=    -0.0233   YY=    28.2565   ZY=     0.1594
   XZ=     1.3362   YZ=     0.0491   ZZ=    24.6091
   Eigenvalues:    24.4967    28.2594    35.4010
     11  H    Isotropic =    27.9146   Anisotropy =     9.6421
   XX=    24.5938   YX=     0.6279   ZX=     1.9571
   XY=    -0.0062   YY=    25.3063   ZY=    -0.9091
   XZ=     1.9850   YZ=    -1.1207   ZZ=    33.8438
   Eigenvalues:    23.9832    25.4179    34.3427
     12  H    Isotropic =    28.8559   Anisotropy =    12.0580
   XX=    27.3117   YX=     3.7303   ZX=    -1.5588
   XY=     4.5148   YY=    34.8596   ZY=     1.8670
   XZ=    -1.2852   YZ=     2.9412   ZZ=    24.3965
   Eigenvalues:    22.4935    27.1796    36.8945
     13  H    Isotropic =    28.1394   Anisotropy =     6.6389
   XX=    28.7401   YX=    -1.3764   ZX=     2.7734
   XY=    -1.0179   YY=    26.4339   ZY=     3.1160
   XZ=     3.8685   YZ=     2.1388   ZZ=    29.2442
   Eigenvalues:    23.2962    28.5566    32.5654
     14  H    Isotropic =    29.9892   Anisotropy =    12.4207
   XX=    27.4281   YX=    -2.6712   ZX=    -1.1436
   XY=    -2.9549   YY=    32.9112   ZY=     5.5041
   XZ=    -1.9774   YZ=     6.1693   ZZ=    29.6284
   Eigenvalues:    25.0714    26.6266    38.2697
     15  H    Isotropic =    29.8082   Anisotropy =     6.7043
   XX=    27.4058   YX=     0.2239   ZX=    -2.1143
   XY=     0.6007   YY=    29.7377   ZY=    -2.5422
   XZ=    -2.4639   YZ=    -1.9042   ZZ=    32.2811
   Eigenvalues:    26.4262    28.7207    34.2777
     16  H    Isotropic =    28.4807   Anisotropy =     8.9175
   XX=    28.7966   YX=    -2.3850   ZX=    -2.2749
   XY=    -2.6710   YY=    27.5820   ZY=     3.6011
   XZ=    -4.3068   YZ=     2.3036   ZZ=    29.0636
   Eigenvalues:    25.2775    25.7389    34.4257
     17  H    Isotropic =    27.8607   Anisotropy =     8.8637
   XX=    24.5138   YX=    -1.5167   ZX=    -0.3467
   XY=    -1.7822   YY=    32.0405   ZY=     2.3384
   XZ=    -1.8152   YZ=     3.4396   ZZ=    27.0278
   Eigenvalues:    24.0517    25.7605    33.7698
     18  H    Isotropic =    27.3118   Anisotropy =     7.2712
   XX=    25.3482   YX=     1.7837   ZX=    -1.3866
   XY=     1.9556   YY=    27.1013   ZY=     3.4918
   XZ=     1.2904   YZ=     3.5054   ZZ=    29.4860
   Eigenvalues:    23.3298    26.4464    32.1593
     19  O    Isotropic =   310.6927   Anisotropy =    93.7344
   XX=   286.7118   YX=    11.9427   ZX=     0.8107
   XY=    42.0580   YY=   364.4101   ZY=   -11.3644
   XZ=     5.9932   YZ=    -1.9725   ZZ=   280.9561
   Eigenvalues:   274.0808   284.8150   373.1823
     20  H    Isotropic =    30.0970   Anisotropy =    23.7203
   XX=    28.6791   YX=     8.9185   ZX=    -1.6903
   XY=     9.9419   YY=    40.7474   ZY=     1.4954
   XZ=    -1.4814   YZ=     0.7210   ZZ=    20.8645
   Eigenvalues:    19.8534    24.5270    45.9105
     21  O    Isotropic =   317.0114   Anisotropy =    37.1507
   XX=   341.4674   YX=     4.9253   ZX=     1.0008
   XY=    -4.6312   YY=   312.2530   ZY=    23.5829
   XZ=    -8.3061   YZ=    -6.5007   ZZ=   297.3137
   Eigenvalues:   293.1987   316.0569   341.7785
     22  H    Isotropic =    28.3646   Anisotropy =    17.4270
   XX=    39.8662   YX=     0.5604   ZX=    -0.8504
   XY=     0.0215   YY=    18.9076   ZY=    -3.4443
   XZ=    -1.5109   YZ=    -2.3615   ZZ=    26.3201
   Eigenvalues:    17.9055    27.2058    39.9826
     23  C    Isotropic =   132.8090   Anisotropy =    61.2014
   XX=   146.2808   YX=    25.4688   ZX=    -9.8025
   XY=    27.4107   YY=   131.5981   ZY=   -19.9973
   XZ=   -10.2103   YZ=   -17.6228   ZZ=   120.5481
   Eigenvalues:   103.9755   120.8416   173.6099
     24  H    Isotropic =    27.1393   Anisotropy =     4.2234
   XX=    29.0617   YX=     1.4555   ZX=    -0.8731
   XY=     1.5808   YY=    23.5435   ZY=    -3.0138
   XZ=     0.5618   YZ=    -0.5909   ZZ=    28.8127
   Eigenvalues:    22.6746    28.7884    29.9549
     25  H    Isotropic =    27.6494   Anisotropy =     6.2857
   XX=    29.6897   YX=     0.1575   ZX=     0.1976
   XY=    -2.6085   YY=    30.5452   ZY=    -1.9874
   XZ=    -0.0593   YZ=    -2.5988   ZZ=    22.7133
   Eigenvalues:    22.0827    29.0256    31.8399
     26  O    Isotropic =   313.3632   Anisotropy =    33.4587
   XX=   311.1002   YX=   -20.1555   ZX=     3.5651
   XY=     3.1611   YY=   332.5053   ZY=    -3.4803
   XZ=    -5.9978   YZ=    -3.2937   ZZ=   296.4840
   Eigenvalues:   295.8687   308.5519   335.6690
     27  H    Isotropic =    30.1544   Anisotropy =    14.9447
   XX=    30.3919   YX=    -1.8233   ZX=    -2.5204
   XY=    -2.1217   YY=    39.7137   ZY=    -0.5212
   XZ=    -1.9927   YZ=    -0.9303   ZZ=    20.3576
   Eigenvalues:    19.8092    30.5365    40.1175
 End of Minotr Frequency-dependent properties file   721 does not exist.
 End of Minotr Frequency-dependent properties file   722 does not exist.

 **********************************************************************

            Population analysis using the SCF density.

 **********************************************************************

 Orbital symmetries:
       Occupied  (A) (A) (A) (A) (A) (A) (A) (A) (A) (A) (A) (A)
                 (A) (A) (A) (A) (A) (A) (A) (A) (A) (A) (A) (A)
                 (A) (A) (A) (A) (A) (A) (A) (A) (A) (A) (A) (A)
                 (A) (A) (A) (A) (A) (A) (A) (A) (A) (A) (A)
       Virtual   (A) (A) (A) (A) (A) (A) (A) (A) (A) (A) (A) (A)
                 (A) (A) (A) (A) (A) (A) (A) (A) (A) (A) (A) (A)
                 (A) (A) (A) (A) (A) (A) (A) (A) (A) (A) (A) (A)
                 (A) (A) (A) (A) (A) (A) (A) (A) (A) (A) (A) (A)
                 (A) (A) (A) (A) (A) (A) (A) (A) (A) (A) (A) (A)
                 (A) (A) (A) (A) (A) (A) (A) (A) (A) (A) (A) (A)
                 (A) (A) (A) (A) (A) (A) (A) (A) (A) (A) (A) (A)
                 (A) (A) (A) (A) (A) (A) (A) (A) (A) (A) (A) (A)
                 (A) (A) (A) (A) (A) (A) (A) (A) (A) (A) (A) (A)
                 (A) (A) (A) (A) (A) (A) (A) (A) (A) (A) (A) (A)
                 (A) (A) (A) (A) (A) (A) (A) (A) (A) (A) (A) (A)
                 (A) (A) (A) (A) (A) (A) (A) (A) (A) (A) (A) (A)
                 (A) (A) (A) (A) (A) (A) (A) (A) (A) (A) (A) (A)
                 (A) (A) (A) (A) (A) (A) (A) (A) (A) (A) (A) (A)
                 (A) (A) (A) (A) (A) (A) (A) (A) (A) (A) (A) (A)
                 (A) (A) (A) (A) (A) (A) (A) (A) (A) (A) (A) (A)
                 (A) (A) (A) (A) (A) (A) (A) (A) (A) (A) (A) (A)
                 (A) (A) (A) (A) (A) (A) (A) (A) (A) (A) (A) (A)
                 (A) (A) (A) (A) (A) (A) (A) (A) (A) (A) (A) (A)
                 (A) (A) (A) (A) (A) (A) (A) (A) (A) (A) (A) (A)
                 (A) (A) (A) (A) (A) (A) (A) (A) (A) (A) (A) (A)
                 (A) (A) (A) (A)
 The electronic state is 1-A.
 Alpha  occ. eigenvalues --  -19.27288 -19.25599 -19.24839 -14.41061 -10.30835
 Alpha  occ. eigenvalues --  -10.29988 -10.29777 -10.27982 -10.27874 -10.26619
 Alpha  occ. eigenvalues --  -10.24366 -10.24110  -1.08410  -1.05725  -1.04543
 Alpha  occ. eigenvalues --   -0.95933  -0.82517  -0.78618  -0.75508  -0.71671
 Alpha  occ. eigenvalues --   -0.66836  -0.62033  -0.59272  -0.57713  -0.55714
 Alpha  occ. eigenvalues --   -0.53361  -0.51851  -0.50906  -0.48914  -0.47732
 Alpha  occ. eigenvalues --   -0.46545  -0.44162  -0.43753  -0.41916  -0.39902
 Alpha  occ. eigenvalues --   -0.39140  -0.38830  -0.36720  -0.36264  -0.35182
 Alpha  occ. eigenvalues --   -0.34703  -0.34656  -0.33138  -0.31905  -0.29330
 Alpha  occ. eigenvalues --   -0.29182  -0.22865
 Alpha virt. eigenvalues --   -0.00165   0.01276   0.01904   0.02307   0.03718
 Alpha virt. eigenvalues --    0.04250   0.04611   0.05023   0.05291   0.07281
 Alpha virt. eigenvalues --    0.07849   0.08410   0.08632   0.08968   0.09704
 Alpha virt. eigenvalues --    0.10712   0.11182   0.11961   0.12096   0.12735
 Alpha virt. eigenvalues --    0.13085   0.14029   0.14808   0.15231   0.15486
 Alpha virt. eigenvalues --    0.15842   0.16265   0.17221   0.17496   0.18315
 Alpha virt. eigenvalues --    0.19217   0.19637   0.20176   0.20268   0.20948
 Alpha virt. eigenvalues --    0.21243   0.21747   0.22295   0.23126   0.23164
 Alpha virt. eigenvalues --    0.23952   0.24281   0.24898   0.25452   0.25962
 Alpha virt. eigenvalues --    0.26329   0.26806   0.27884   0.28138   0.28763
 Alpha virt. eigenvalues --    0.28922   0.29992   0.30577   0.30696   0.31719
 Alpha virt. eigenvalues --    0.32055   0.32656   0.34117   0.34484   0.35240
 Alpha virt. eigenvalues --    0.35356   0.36439   0.37061   0.38307   0.38929
 Alpha virt. eigenvalues --    0.39260   0.40657   0.40919   0.41335   0.41870
 Alpha virt. eigenvalues --    0.43494   0.44247   0.44959   0.45520   0.49060
 Alpha virt. eigenvalues --    0.50372   0.64189   0.66366   0.66978   0.69073
 Alpha virt. eigenvalues --    0.70370   0.70795   0.71589   0.74014   0.75247
 Alpha virt. eigenvalues --    0.77195   0.78301   0.79836   0.80642   0.82275
 Alpha virt. eigenvalues --    0.82878   0.85138   0.86483   0.87830   0.88489
 Alpha virt. eigenvalues --    0.88866   0.90832   0.93956   0.95893   0.96817
 Alpha virt. eigenvalues --    0.97642   1.00919   1.02344   1.03717   1.04970
 Alpha virt. eigenvalues --    1.05590   1.07394   1.08807   1.09435   1.10182
 Alpha virt. eigenvalues --    1.10673   1.13566   1.14062   1.14842   1.16979
 Alpha virt. eigenvalues --    1.17516   1.18545   1.20370   1.22691   1.24794
 Alpha virt. eigenvalues --    1.26416   1.29228   1.31655   1.32222   1.32945
 Alpha virt. eigenvalues --    1.33562   1.37258   1.38758   1.40079   1.40654
 Alpha virt. eigenvalues --    1.42497   1.46243   1.47792   1.49970   1.52708
 Alpha virt. eigenvalues --    1.55750   1.56673   1.59363   1.61147   1.62227
 Alpha virt. eigenvalues --    1.64097   1.64833   1.65313   1.69227   1.70657
 Alpha virt. eigenvalues --    1.72521   1.72777   1.76724   1.78772   1.79237
 Alpha virt. eigenvalues --    1.80884   1.82250   1.83937   1.85483   1.86231
 Alpha virt. eigenvalues --    1.87147   1.89455   1.90934   1.92576   1.95039
 Alpha virt. eigenvalues --    1.97986   1.98733   2.00617   2.02858   2.04829
 Alpha virt. eigenvalues --    2.04967   2.07158   2.08454   2.09956   2.11249
 Alpha virt. eigenvalues --    2.12970   2.14635   2.17739   2.18218   2.18954
 Alpha virt. eigenvalues --    2.21045   2.22893   2.26468   2.28434   2.30828
 Alpha virt. eigenvalues --    2.33126   2.36177   2.37840   2.38437   2.39542
 Alpha virt. eigenvalues --    2.41984   2.42996   2.44799   2.46240   2.48309
 Alpha virt. eigenvalues --    2.50470   2.52105   2.53616   2.54207   2.55486
 Alpha virt. eigenvalues --    2.55824   2.57271   2.60349   2.61632   2.62108
 Alpha virt. eigenvalues --    2.64670   2.65195   2.67649   2.68663   2.69368
 Alpha virt. eigenvalues --    2.71416   2.73353   2.75281   2.76523   2.77567
 Alpha virt. eigenvalues --    2.80237   2.82015   2.83192   2.85035   2.85358
 Alpha virt. eigenvalues --    2.86084   2.87367   2.91145   2.92518   2.95137
 Alpha virt. eigenvalues --    2.95491   2.97528   3.01031   3.04372   3.04951
 Alpha virt. eigenvalues --    3.06242   3.08229   3.12800   3.16533   3.33564
 Alpha virt. eigenvalues --    3.35951   3.37255   3.40449   3.42261   3.43856
 Alpha virt. eigenvalues --    3.46144   3.51557   3.53782   3.54387   3.55692
 Alpha virt. eigenvalues --    3.56332   3.59483   3.60831   3.62284   4.29936
 Alpha virt. eigenvalues --    4.32815   4.39211   4.45258   4.56136   4.58846
 Alpha virt. eigenvalues --    4.62180   4.69126   4.77983   4.82772   4.93668
 Alpha virt. eigenvalues --    5.01636
          Condensed to atoms (all electrons):
              1          2          3          4          5          6
     1  C    6.028454  -0.297220  -0.047476  -0.034047   0.038915   0.310194
     2  C   -0.297220   7.986466  -0.332935  -0.001046  -0.237707  -1.202175
     3  N   -0.047476  -0.332935   7.629135   0.153647  -0.052605  -0.574288
     4  C   -0.034047  -0.001046   0.153647   5.725267   0.006650  -0.298959
     5  C    0.038915  -0.237707  -0.052605   0.006650   5.649235   0.054205
     6  C    0.310194  -1.202175  -0.574288  -0.298959   0.054205  11.439852
     7  C   -0.101428   1.091978  -0.005205   0.156851  -0.156202  -3.330866
     8  C   -0.111020  -0.940065   0.132000  -0.044326   0.230684   0.826062
     9  H    0.379738  -0.042458   0.007127  -0.002900  -0.028970   0.005035
    10  H    0.425944  -0.102638   0.011562   0.030977  -0.043891   0.003906
    11  H    0.000746   0.221897  -0.013573  -0.010635   0.030322   0.001965
    12  H   -0.008342  -0.038023  -0.032999   0.390981  -0.015339  -0.008825
    13  H    0.044216   0.017874  -0.065903   0.396375  -0.046953   0.049324
    14  H   -0.000707   0.002374   0.015114  -0.012118   0.334327  -0.007315
    15  H   -0.083221   0.010827   0.017470  -0.072717   0.453161  -0.014252
    16  H    0.002223   0.002064  -0.002342   0.018653  -0.002162   0.159881
    17  H   -0.007141   0.013070   0.037555   0.000321   0.004003  -0.152796
    18  H    0.011196  -0.010332   0.017931   0.004769  -0.007113  -0.057384
    19  O    0.025243  -0.261259   0.041137  -0.003136  -0.005631   0.091941
    20  H   -0.003634   0.033456  -0.003013  -0.000529  -0.000336   0.008562
    21  O   -0.039739   0.080212   0.099484   0.027027   0.015361  -0.461620
    22  H    0.006072  -0.003842  -0.007301  -0.003861  -0.006000   0.067370
    23  C   -0.059392  -0.009741   0.135969  -0.141032   0.050344  -0.549959
    24  H   -0.000544   0.022393   0.017076   0.000716  -0.007010  -0.233510
    25  H   -0.000886  -0.006412   0.012397   0.000717   0.002284  -0.119689
    26  O   -0.005850   0.042087   0.017437  -0.011858   0.002250  -0.178977
    27  H   -0.002163   0.003434   0.013575  -0.008655   0.008152  -0.042917
              7          8          9         10         11         12
     1  C   -0.101428  -0.111020   0.379738   0.425944   0.000746  -0.008342
     2  C    1.091978  -0.940065  -0.042458  -0.102638   0.221897  -0.038023
     3  N   -0.005205   0.132000   0.007127   0.011562  -0.013573  -0.032999
     4  C    0.156851  -0.044326  -0.002900   0.030977  -0.010635   0.390981
     5  C   -0.156202   0.230684  -0.028970  -0.043891   0.030322  -0.015339
     6  C   -3.330866   0.826062   0.005035   0.003906   0.001965  -0.008825
     7  C    8.528681  -1.130114  -0.009929  -0.008631   0.006249  -0.008285
     8  C   -1.130114   6.736486   0.021450   0.021152   0.030992   0.015589
     9  H   -0.009929   0.021450   0.526577  -0.024415  -0.006759   0.001214
    10  H   -0.008631   0.021152  -0.024415   0.505270   0.001380  -0.000079
    11  H    0.006249   0.030992  -0.006759   0.001380   0.562693   0.000423
    12  H   -0.008285   0.015589   0.001214  -0.000079   0.000423   0.566235
    13  H    0.012494  -0.024514  -0.000113  -0.000129  -0.000230  -0.038696
    14  H    0.004983  -0.001454  -0.005196   0.000499  -0.000091  -0.004256
    15  H    0.003147   0.011152   0.004150  -0.005220  -0.000038   0.004217
    16  H    0.068917  -0.020770   0.000005   0.000000   0.002424   0.000139
    17  H    0.411921   0.035566   0.000002  -0.000006  -0.000046   0.000009
    18  H    0.067520   0.285671  -0.000054   0.000024  -0.008239   0.000003
    19  O   -0.126368   0.259691   0.000019  -0.001336   0.009355   0.000272
    20  H   -0.061902   0.040227  -0.000001  -0.000075  -0.000220   0.000000
    21  O    0.458173  -0.087081   0.000215   0.000223  -0.000217   0.001268
    22  H   -0.037883  -0.055578  -0.000002  -0.000014  -0.000063  -0.000015
    23  C    0.000780  -0.105916  -0.000355  -0.000364   0.005012   0.016034
    24  H    0.088102  -0.026833   0.000000   0.000000   0.000002   0.000256
    25  H    0.010191   0.009381   0.000000   0.000000   0.000003  -0.000010
    26  O    0.052281  -0.025962   0.000007   0.000002  -0.000194  -0.000463
    27  H    0.000988  -0.000862  -0.000001   0.000000  -0.000005  -0.000614
             13         14         15         16         17         18
     1  C    0.044216  -0.000707  -0.083221   0.002223  -0.007141   0.011196
     2  C    0.017874   0.002374   0.010827   0.002064   0.013070  -0.010332
     3  N   -0.065903   0.015114   0.017470  -0.002342   0.037555   0.017931
     4  C    0.396375  -0.012118  -0.072717   0.018653   0.000321   0.004769
     5  C   -0.046953   0.334327   0.453161  -0.002162   0.004003  -0.007113
     6  C    0.049324  -0.007315  -0.014252   0.159881  -0.152796  -0.057384
     7  C    0.012494   0.004983   0.003147   0.068917   0.411921   0.067520
     8  C   -0.024514  -0.001454   0.011152  -0.020770   0.035566   0.285671
     9  H   -0.000113  -0.005196   0.004150   0.000005   0.000002  -0.000054
    10  H   -0.000129   0.000499  -0.005220   0.000000  -0.000006   0.000024
    11  H   -0.000230  -0.000091  -0.000038   0.002424  -0.000046  -0.008239
    12  H   -0.038696  -0.004256   0.004217   0.000139   0.000009   0.000003
    13  H    0.548272   0.001378  -0.007207  -0.000161  -0.000101   0.000011
    14  H    0.001378   0.524564  -0.024177   0.000005   0.000000   0.000004
    15  H   -0.007207  -0.024177   0.517621   0.000012   0.000036   0.000019
    16  H   -0.000161   0.000005   0.000012   0.562945   0.000157   0.000937
    17  H   -0.000101   0.000000   0.000036   0.000157   0.572479  -0.004135
    18  H    0.000011   0.000004   0.000019   0.000937  -0.004135   0.544397
    19  O    0.000237   0.000461   0.001584  -0.000572  -0.007662  -0.031611
    20  H   -0.000001  -0.000001   0.000048   0.000001   0.001516  -0.009328
    21  O   -0.005560   0.000364   0.002432   0.011318  -0.052307   0.003718
    22  H    0.000257   0.000015   0.000178  -0.000264   0.002004   0.001332
    23  C   -0.038528   0.001821   0.004029   0.022635  -0.015892   0.011809
    24  H    0.002781   0.000006   0.000046   0.005234   0.000121   0.000001
    25  H   -0.000009   0.000000  -0.000002  -0.005123   0.001832   0.000009
    26  O    0.000350  -0.000010   0.000019   0.002642  -0.000407   0.000064
    27  H   -0.000536   0.000000  -0.000002  -0.001051   0.000001   0.000000
             19         20         21         22         23         24
     1  C    0.025243  -0.003634  -0.039739   0.006072  -0.059392  -0.000544
     2  C   -0.261259   0.033456   0.080212  -0.003842  -0.009741   0.022393
     3  N    0.041137  -0.003013   0.099484  -0.007301   0.135969   0.017076
     4  C   -0.003136  -0.000529   0.027027  -0.003861  -0.141032   0.000716
     5  C   -0.005631  -0.000336   0.015361  -0.006000   0.050344  -0.007010
     6  C    0.091941   0.008562  -0.461620   0.067370  -0.549959  -0.233510
     7  C   -0.126368  -0.061902   0.458173  -0.037883   0.000780   0.088102
     8  C    0.259691   0.040227  -0.087081  -0.055578  -0.105916  -0.026833
     9  H    0.000019  -0.000001   0.000215  -0.000002  -0.000355   0.000000
    10  H   -0.001336  -0.000075   0.000223  -0.000014  -0.000364   0.000000
    11  H    0.009355  -0.000220  -0.000217  -0.000063   0.005012   0.000002
    12  H    0.000272   0.000000   0.001268  -0.000015   0.016034   0.000256
    13  H    0.000237  -0.000001  -0.005560   0.000257  -0.038528   0.002781
    14  H    0.000461  -0.000001   0.000364   0.000015   0.001821   0.000006
    15  H    0.001584   0.000048   0.002432   0.000178   0.004029   0.000046
    16  H   -0.000572   0.000001   0.011318  -0.000264   0.022635   0.005234
    17  H   -0.007662   0.001516  -0.052307   0.002004  -0.015892   0.000121
    18  H   -0.031611  -0.009328   0.003718   0.001332   0.011809   0.000001
    19  O    8.391529   0.237154  -0.029183   0.048420  -0.000592  -0.000121
    20  H    0.237154   0.347109   0.002204  -0.004189  -0.001426   0.000000
    21  O   -0.029183   0.002204   8.296827   0.244544   0.016425   0.010097
    22  H    0.048420  -0.004189   0.244544   0.353708   0.000745  -0.000084
    23  C   -0.000592  -0.001426   0.016425   0.000745   5.744919   0.474851
    24  H   -0.000121   0.000000   0.010097  -0.000084   0.474851   0.574327
    25  H    0.000024   0.000000  -0.000607  -0.000024   0.475851  -0.033912
    26  O   -0.000012   0.000000   0.000882  -0.000022   0.253789  -0.046399
    27  H    0.000001   0.000000  -0.000361   0.000000   0.030244  -0.007150
             25         26         27
     1  C   -0.000886  -0.005850  -0.002163
     2  C   -0.006412   0.042087   0.003434
     3  N    0.012397   0.017437   0.013575
     4  C    0.000717  -0.011858  -0.008655
     5  C    0.002284   0.002250   0.008152
     6  C   -0.119689  -0.178977  -0.042917
     7  C    0.010191   0.052281   0.000988
     8  C    0.009381  -0.025962  -0.000862
     9  H    0.000000   0.000007  -0.000001
    10  H    0.000000   0.000002   0.000000
    11  H    0.000003  -0.000194  -0.000005
    12  H   -0.000010  -0.000463  -0.000614
    13  H   -0.000009   0.000350  -0.000536
    14  H    0.000000  -0.000010   0.000000
    15  H   -0.000002   0.000019  -0.000002
    16  H   -0.005123   0.002642  -0.001051
    17  H    0.001832  -0.000407   0.000001
    18  H    0.000009   0.000064   0.000000
    19  O    0.000024  -0.000012   0.000001
    20  H    0.000000   0.000000   0.000000
    21  O   -0.000607   0.000882  -0.000361
    22  H   -0.000024  -0.000022   0.000000
    23  C    0.475851   0.253789   0.030244
    24  H   -0.033912  -0.046399  -0.007150
    25  H    0.531400  -0.056242   0.006098
    26  O   -0.056242   8.245666   0.252496
    27  H    0.006098   0.252496   0.367601
 Mulliken atomic charges:
              1
     1  C   -0.470131
     2  C   -0.042278
     3  N   -0.220974
     4  C   -0.267130
     5  C   -0.269973
     6  C    0.215238
     7  C    0.013557
     8  C   -0.081609
     9  H    0.175613
    10  H    0.185857
    11  H    0.166850
    12  H    0.159305
    13  H    0.155070
    14  H    0.169411
    15  H    0.176689
    16  H    0.172253
    17  H    0.159900
    18  H    0.178784
    19  O   -0.639587
    20  H    0.414381
    21  O   -0.594100
    22  H    0.394498
    23  C   -0.322058
    24  H    0.159554
    25  H    0.172729
    26  O   -0.543575
    27  H    0.381727
 Sum of Mulliken atomic charges =   0.00000
 Mulliken charges with hydrogens summed into heavy atoms:
              1
     1  C   -0.108661
     2  C    0.124572
     3  N   -0.220974
     4  C    0.047246
     5  C    0.076127
     6  C    0.387491
     7  C    0.173457
     8  C    0.097175
    19  O   -0.225206
    21  O   -0.199602
    23  C    0.010224
    26  O   -0.161848
 Sum of Mulliken charges with hydrogens summed into heavy atoms =   0.00000
 Electronic spatial extent (au):  <R**2>=           1926.7769
 Charge=              0.0000 electrons
 Dipole moment (field-independent basis, Debye):
    X=             -4.0514    Y=             -1.6554    Z=             -0.8812  Tot=              4.4643
 Quadrupole moment (field-independent basis, Debye-Ang):
   XX=            -83.3828   YY=            -62.9491   ZZ=            -75.3572
   XY=              5.4734   XZ=              3.9584   YZ=              5.7709
 Traceless Quadrupole moment (field-independent basis, Debye-Ang):
   XX=             -9.4864   YY=             10.9473   ZZ=             -1.4608
   XY=              5.4734   XZ=              3.9584   YZ=              5.7709
 Octapole moment (field-independent basis, Debye-Ang**2):
  XXX=            -57.2783  YYY=            -19.7792  ZZZ=             -1.9410  XYY=            -11.0126
  XXY=            -16.0994  XXZ=             11.4520  XZZ=             -8.3543  YZZ=             -2.1512
  YYZ=             -4.3950  XYZ=              2.5640
 Hexadecapole moment (field-independent basis, Debye-Ang**3):
 XXXX=          -1591.8519 YYYY=           -709.0358 ZZZZ=           -363.3139 XXXY=             57.0698
 XXXZ=             32.8065 YYYX=             72.2545 YYYZ=             10.0126 ZZZX=             -1.2338
 ZZZY=              5.6315 XXYY=           -269.3902 XXZZ=           -285.6290 YYZZ=           -196.5856
 XXYZ=             -4.1924 YYXZ=             -3.8759 ZZXY=             11.8115
 N-N= 8.191910176531D+02 E-N=-3.024334327067D+03  KE= 5.886519446817D+02
 1\1\GINC-COMPUTE-3-1\SP\RmPW1PW91\6-31+G(d,p)\C8H15N1O3\MAMICHETTI.IQU
 IR\17-May-2024\0\\# mpw1pw91/6-31+G** nmr scrf=(pcm,solvent=water)\\co
 mment\\0,1\C,0,-1.87459,1.486792,-0.369436\C,0,-0.965336,0.472921,-1.0
 75018\N,0,0.421276,0.798077,-0.620854\C,0,0.314598,1.657439,0.596081\C
 ,0,-1.172047,1.719622,0.974803\C,0,1.108514,-0.51155,-0.509183\C,0,0.0
 63137,-1.517796,-0.013642\C,0,-1.215877,-1.04029,-0.749796\H,0,-1.8972
 44,2.415306,-0.952336\H,0,-2.901881,1.1284,-0.271788\H,0,-1.033177,0.5
 87128,-2.162376\H,0,0.679715,2.663718,0.349577\H,0,0.931981,1.289837,1
 .417986\H,0,-1.444074,2.671481,1.442301\H,0,-1.420092,0.914791,1.67426
 8\H,0,1.351095,-0.820871,-1.537279\H,0,0.328135,-2.548361,-0.287156\H,
 0,-1.331133,-1.599025,-1.683292\O,0,-2.381959,-1.235149,0.060298\H,0,-
 2.645778,-2.166485,-0.033241\O,0,-0.126117,-1.432664,1.400204\H,0,-1.0
 99038,-1.442208,1.513424\C,0,2.427339,-0.517239,0.254165\H,0,2.286344,
 -0.272064,1.313339\H,0,2.843346,-1.528738,0.207961\O,0,3.411137,0.3397
 49,-0.33605\H,0,3.063952,1.245658,-0.288874\\Version=AM64L-G09RevC.01\
 State=1-A\HF=-594.1895264\RMSD=4.907e-09\Dipole=-1.5939317,-0.6512791,
 -0.3466746\Quadrupole=-7.0529394,8.1390267,-1.0860873,4.0693698,2.9429
 776,4.2905486\PG=C01 [X(C8H15N1O3)]\\@


 IT IS BETTER TO THINK YOU ARE HALF DRY THAN TO KNOW YOU
 ARE ALL WET.  -- SNOOPY
 Job cpu time:  0 days  0 hours  9 minutes 28.5 seconds.
 File lengths (MBytes):  RWF=    110 Int=      0 D2E=      0 Chk=      7 Scr=      1
 Normal termination of Gaussian 09 at Fri May 17 13:09:36 2024.
