 Entering Gaussian System, Link 0=g09
 Input=/home/mamichetti.iquir/Linux/04_Cardona_A1A3_R__S_R_S_025_OptB.gjc
 Output=/home/mamichetti.iquir/Linux/04_Cardona_A1A3_R__S_R_S_025_OptB.log
 Initial command:
 /opt/ohpc/pub/apps/software/Gaussian/09/AMD64.SSE4a-enabled/g09/l1.exe /local/mamichetti.iquir/Gau-409001.inp -scrdir=/local/mamichetti.iquir/
 Entering Link 1 = /opt/ohpc/pub/apps/software/Gaussian/09/AMD64.SSE4a-enabled/g09/l1.exe PID=    409002.
  
 Copyright (c) 1988,1990,1992,1993,1995,1998,2003,2009,2011,
            Gaussian, Inc.  All Rights Reserved.
  
 This is part of the Gaussian(R) 09 program.  It is based on
 the Gaussian(R) 03 system (copyright 2003, Gaussian, Inc.),
 the Gaussian(R) 98 system (copyright 1998, Gaussian, Inc.),
 the Gaussian(R) 94 system (copyright 1995, Gaussian, Inc.),
 the Gaussian 92(TM) system (copyright 1992, Gaussian, Inc.),
 the Gaussian 90(TM) system (copyright 1990, Gaussian, Inc.),
 the Gaussian 88(TM) system (copyright 1988, Gaussian, Inc.),
 the Gaussian 86(TM) system (copyright 1986, Carnegie Mellon
 University), and the Gaussian 82(TM) system (copyright 1983,
 Carnegie Mellon University). Gaussian is a federally registered
 trademark of Gaussian, Inc.
  
 This software contains proprietary and confidential information,
 including trade secrets, belonging to Gaussian, Inc.
  
 This software is provided under written license and may be
 used, copied, transmitted, or stored only in accord with that
 written license.
  
 The following legend is applicable only to US Government
 contracts under FAR:
  
                    RESTRICTED RIGHTS LEGEND
  
 Use, reproduction and disclosure by the US Government is
 subject to restrictions as set forth in subparagraphs (a)
 and (c) of the Commercial Computer Software - Restricted
 Rights clause in FAR 52.227-19.
  
 Gaussian, Inc.
 340 Quinnipiac St., Bldg. 40, Wallingford CT 06492
  
  
 ---------------------------------------------------------------
 Warning -- This program may not be used in any manner that
 competes with the business of Gaussian, Inc. or will provide
 assistance to any competitor of Gaussian, Inc.  The licensee
 of this program is prohibited from giving any competitor of
 Gaussian, Inc. access to this program.  By using this program,
 the user acknowledges that Gaussian, Inc. is engaged in the
 business of creating and licensing software in the field of
 computational chemistry and represents and warrants to the
 licensee that it is not a competitor of Gaussian, Inc. and that
 it will not use this program in any manner prohibited above.
 ---------------------------------------------------------------
  

 Cite this work as:
 Gaussian 09, Revision C.01,
 M. J. Frisch, G. W. Trucks, H. B. Schlegel, G. E. Scuseria, 
 M. A. Robb, J. R. Cheeseman, G. Scalmani, V. Barone, B. Mennucci, 
 G. A. Petersson, H. Nakatsuji, M. Caricato, X. Li, H. P. Hratchian, 
 A. F. Izmaylov, J. Bloino, G. Zheng, J. L. Sonnenberg, M. Hada, 
 M. Ehara, K. Toyota, R. Fukuda, J. Hasegawa, M. Ishida, T. Nakajima, 
 Y. Honda, O. Kitao, H. Nakai, T. Vreven, J. A. Montgomery, Jr., 
 J. E. Peralta, F. Ogliaro, M. Bearpark, J. J. Heyd, E. Brothers, 
 K. N. Kudin, V. N. Staroverov, T. Keith, R. Kobayashi, J. Normand, 
 K. Raghavachari, A. Rendell, J. C. Burant, S. S. Iyengar, J. Tomasi, 
 M. Cossi, N. Rega, J. M. Millam, M. Klene, J. E. Knox, J. B. Cross, 
 V. Bakken, C. Adamo, J. Jaramillo, R. Gomperts, R. E. Stratmann, 
 O. Yazyev, A. J. Austin, R. Cammi, C. Pomelli, J. W. Ochterski, 
 R. L. Martin, K. Morokuma, V. G. Zakrzewski, G. A. Voth, 
 P. Salvador, J. J. Dannenberg, S. Dapprich, A. D. Daniels, 
 O. Farkas, J. B. Foresman, J. V. Ortiz, J. Cioslowski, 
 and D. J. Fox, Gaussian, Inc., Wallingford CT, 2010.
 
 ******************************************
 Gaussian 09:  AM64L-G09RevC.01 23-Sep-2011
                17-May-2024 
 ******************************************
 %nprocshared=4
 Will use up to    4 processors via shared memory.
 ------------------------------------------------
 # mpw1pw91/6-31+G** nmr scrf=(pcm,solvent=water)
 ------------------------------------------------
 1/38=1/1;
 2/12=2,17=6,18=5,40=1/2;
 3/5=1,6=6,7=111,11=2,16=1,25=1,30=1,70=2201,72=1,74=-7/1,2,8,3;
 4//1;
 5/5=2,38=5,53=1/2;
 8/6=1,10=90,11=11/1;
 10/13=100,45=16/2;
 6/7=2,8=2,9=2,10=2,28=1/1;
 99/9=1/99;
 -------
 comment
 -------
 Charge =  0 Multiplicity = 1
 Symbolic Z-Matrix:
 6                    -1.91778  -1.07989   0.59482 
 6                    -0.82272  -1.08882  -0.47568 
 7                    -0.76907   0.3136   -1.00837 
 6                    -1.89355   1.08843  -0.45108 
 6                    -2.8617    0.02017   0.0813 
 6                     0.60309   0.83981  -0.9302 
 6                     1.44791  -0.46921  -0.92801 
 6                     0.61884  -1.46405  -0.08661 
 1                    -2.40627  -2.05325   0.70508 
 1                    -1.50027  -0.79647   1.56696 
 1                    -1.12742  -1.76542  -1.28703 
 1                    -2.35826   1.7214   -1.21803 
 1                    -1.58319   1.74841   0.3686 
 1                    -3.48502  -0.36794  -0.73358 
 1                    -3.52829   0.41503   0.85448 
 1                     0.84417   1.40748  -1.84171 
 1                     1.49478  -0.83483  -1.95913 
 1                     0.84683  -2.4995   -0.35054 
 8                     0.95073  -1.34681   1.29819 
 1                     0.7839   -0.40689   1.55785 
 8                     2.78469  -0.33407  -0.47253 
 1                     2.74226  -0.49217   0.49007 
 6                     0.93235   1.8266    0.19516 
 1                     2.00684   2.03468   0.15408 
 1                     0.40128   2.77073   0.02248 
 8                     0.57628   1.31903   1.49616 
 1                     1.11983   1.78014   2.15631 
 
                          Input orientation:                          
 ---------------------------------------------------------------------
 Center     Atomic      Atomic             Coordinates (Angstroms)
 Number     Number       Type             X           Y           Z
 ---------------------------------------------------------------------
      1          6           0       -1.917783   -1.079890    0.594820
      2          6           0       -0.822720   -1.088816   -0.475680
      3          7           0       -0.769071    0.313601   -1.008370
      4          6           0       -1.893549    1.088429   -0.451081
      5          6           0       -2.861698    0.020169    0.081298
      6          6           0        0.603093    0.839810   -0.930195
      7          6           0        1.447914   -0.469211   -0.928011
      8          6           0        0.618844   -1.464053   -0.086609
      9          1           0       -2.406273   -2.053246    0.705078
     10          1           0       -1.500267   -0.796466    1.566958
     11          1           0       -1.127420   -1.765415   -1.287034
     12          1           0       -2.358260    1.721399   -1.218032
     13          1           0       -1.583186    1.748406    0.368597
     14          1           0       -3.485019   -0.367943   -0.733583
     15          1           0       -3.528287    0.415025    0.854480
     16          1           0        0.844170    1.407479   -1.841709
     17          1           0        1.494782   -0.834831   -1.959128
     18          1           0        0.846828   -2.499504   -0.350540
     19          8           0        0.950725   -1.346810    1.298186
     20          1           0        0.783904   -0.406889    1.557851
     21          8           0        2.784694   -0.334069   -0.472533
     22          1           0        2.742262   -0.492168    0.490069
     23          6           0        0.932350    1.826598    0.195159
     24          1           0        2.006838    2.034679    0.154078
     25          1           0        0.401281    2.770727    0.022482
     26          8           0        0.576281    1.319027    1.496160
     27          1           0        1.119833    1.780135    2.156314
 ---------------------------------------------------------------------
                    Distance matrix (angstroms):
                    1          2          3          4          5
     1  C    0.000000
     2  C    1.531409   0.000000
     3  N    2.414865   1.501136   0.000000
     4  C    2.407510   2.426453   1.474917   0.000000
     5  C    1.537794   2.386944   2.377513   1.536854   0.000000
     6  C    3.516495   2.441132   1.471680   2.554326   3.701311
     7  C    3.744310   2.396725   2.352504   3.717402   4.453196
     8  C    2.654506   1.539573   2.436392   3.600017   3.787516
     9  H    1.094624   2.198171   3.349373   3.386696   2.212592
    10  H    1.095309   2.171844   2.898139   2.789262   2.174298
    11  H    2.153136   1.099511   2.127998   3.070863   2.840486
    12  H    3.365661   3.287290   2.133395   1.097643   2.199066
    13  H    2.856990   3.056295   2.148834   1.097163   2.168856
    14  H    2.174339   2.770200   2.813607   2.175685   1.096901
    15  H    2.212672   3.369118   3.330731   2.197801   1.094560
    16  H    4.444329   3.297885   2.119804   3.087190   4.399550
    17  H    4.269462   2.763321   2.710695   4.177789   4.886029
    18  H    3.248397   2.189313   3.310201   4.515865   4.504265
    19  O    2.965520   2.521561   3.321877   4.132822   4.228950
    20  H    2.946094   2.679835   3.084855   3.666134   3.956387
    21  O    4.879424   3.685524   3.651827   4.889777   5.684537
    22  H    4.698128   3.741358   3.901800   4.987464   5.642158
    23  C    4.090313   3.468420   2.575359   2.991358   4.203683
    24  H    5.029656   4.261363   3.466852   4.058895   5.269363
    25  H    4.531322   4.079512   2.910300   2.884551   4.268028
    26  O    3.575971   3.412194   3.015547   3.153567   3.938092
    27  H    4.454786   4.351067   3.966599   4.044433   4.822423
                    6          7          8          9         10
     6  C    0.000000
     7  C    1.557968   0.000000
     8  C    2.453502   1.544353   0.000000
     9  H    4.483322   4.475590   3.182020   0.000000
    10  H    3.652026   3.876047   2.769583   1.772902   0.000000
    11  H    3.147889   2.905407   2.140392   2.384706   3.036964
    12  H    3.103169   4.401119   4.504483   4.236579   3.851229
    13  H    2.700412   3.973234   3.921230   3.904260   2.814128
    14  H    4.267316   4.937802   4.296711   2.464485   3.068446
    15  H    4.520377   5.359265   4.649223   2.715437   2.467428
    16  H    1.100556   2.172859   3.372958   5.387775   4.687512
    17  H    2.158294   1.095024   2.160906   4.878602   4.626562
    18  H    3.398003   2.194736   1.092609   3.449078   3.476491
    19  O    3.141311   2.444040   1.428828   3.481417   2.526357
    20  H    2.788785   2.573772   1.961910   3.689843   2.317173
    21  O    2.519291   1.418698   2.473198   5.593610   4.768042
    22  H    2.892639   1.920108   2.405415   5.384293   4.387635
    23  C    1.532509   2.607308   3.317539   5.143891   3.831439
    24  H    2.138658   2.784381   3.771682   6.040719   4.723494
    25  H    2.162582   3.534979   4.241768   5.623079   4.327373
    26  O    2.473371   3.135944   3.201953   4.570959   2.965194
    27  H    3.267686   3.831482   3.975733   5.406877   3.721712
                   11         12         13         14         15
    11  H    0.000000
    12  H    3.698324   0.000000
    13  H    3.910981   1.766030   0.000000
    14  H    2.795981   2.422731   3.051344   0.000000
    15  H    3.886459   2.714937   2.407780   1.771117   0.000000
    16  H    3.776518   3.277663   3.300567   4.808528   5.231900
    17  H    2.862454   4.682891   4.643846   5.149598   5.891498
    18  H    2.305117   5.370396   4.946399   4.843054   5.393346
    19  O    3.343244   5.166686   4.106727   4.976152   4.833476
    20  H    3.686750   4.701950   3.415075   4.845192   4.445814
    21  O    4.244620   5.588443   4.911474   6.275237   6.494292
    22  H    4.444513   5.816598   4.872825   6.347581   6.346304
    23  C    4.397966   3.582777   2.522720   5.019135   4.724884
    24  H    5.132357   4.586383   3.607803   6.059788   5.809600
    25  H    4.962695   3.202348   2.258992   5.052347   4.656507
    26  O    4.490273   4.017496   2.473674   4.930698   4.251641
    27  H    5.429338   4.846317   3.240872   5.845546   5.016305
                   16         17         18         19         20
    16  H    0.000000
    17  H    2.337742   0.000000
    18  H    4.181879   2.403859   0.000000
    19  O    4.178086   3.341888   2.014397   0.000000
    20  H    3.853903   3.613533   2.832835   0.989296   0.000000
    21  O    2.945041   2.030911   2.908490   2.743088   2.851477
    22  H    3.556487   2.769872   2.885947   2.143145   2.232173
    23  C    2.081410   3.469940   4.361222   3.359691   2.620578
    24  H    2.393396   3.600268   4.707343   3.722744   3.070407
    25  H    2.351553   4.257061   5.302169   4.345506   3.549789
    26  O    3.349770   4.173939   4.250256   2.699276   1.739454
    27  H    4.024804   4.890347   4.967309   3.246963   2.292178
                   21         22         23         24         25
    21  O    0.000000
    22  H    0.976421   0.000000
    23  C    2.923264   2.956253   0.000000
    24  H    2.570733   2.653054   1.095221   0.000000
    25  H    3.945308   4.042934   1.096919   1.771129   0.000000
    26  O    3.389036   2.997352   1.441186   2.088022   2.076002
    27  H    3.761975   3.251463   1.970644   2.204659   2.459843
                   26         27
    26  O    0.000000
    27  H    0.971531   0.000000
 Stoichiometry    C8H15NO3
 Framework group  C1[X(C8H15NO3)]
 Deg. of freedom    75
 Full point group                 C1      NOp   1
 Largest Abelian subgroup         C1      NOp   1
 Largest concise Abelian subgroup C1      NOp   1
                         Standard orientation:                         
 ---------------------------------------------------------------------
 Center     Atomic      Atomic             Coordinates (Angstroms)
 Number     Number       Type             X           Y           Z
 ---------------------------------------------------------------------
      1          6           0       -1.917783   -1.079890    0.594820
      2          6           0       -0.822720   -1.088816   -0.475680
      3          7           0       -0.769071    0.313601   -1.008370
      4          6           0       -1.893549    1.088429   -0.451081
      5          6           0       -2.861698    0.020169    0.081298
      6          6           0        0.603093    0.839810   -0.930195
      7          6           0        1.447914   -0.469211   -0.928011
      8          6           0        0.618844   -1.464053   -0.086609
      9          1           0       -2.406273   -2.053246    0.705078
     10          1           0       -1.500267   -0.796466    1.566958
     11          1           0       -1.127420   -1.765415   -1.287034
     12          1           0       -2.358260    1.721399   -1.218032
     13          1           0       -1.583186    1.748406    0.368597
     14          1           0       -3.485019   -0.367943   -0.733583
     15          1           0       -3.528287    0.415025    0.854480
     16          1           0        0.844170    1.407479   -1.841709
     17          1           0        1.494782   -0.834831   -1.959128
     18          1           0        0.846828   -2.499504   -0.350540
     19          8           0        0.950725   -1.346810    1.298186
     20          1           0        0.783904   -0.406889    1.557851
     21          8           0        2.784694   -0.334069   -0.472533
     22          1           0        2.742262   -0.492168    0.490069
     23          6           0        0.932350    1.826598    0.195159
     24          1           0        2.006838    2.034679    0.154078
     25          1           0        0.401281    2.770727    0.022482
     26          8           0        0.576281    1.319027    1.496160
     27          1           0        1.119833    1.780135    2.156314
 ---------------------------------------------------------------------
 Rotational constants (GHZ):      1.4366195      0.8662726      0.7566535
 Standard basis: 6-31+G(d,p) (6D, 7F)
 There are   303 symmetry adapted basis functions of A   symmetry.
 Integral buffers will be    131072 words long.
 Raffenetti 2 integral format.
 Two-electron integral symmetry is turned on.
   303 basis functions,   489 primitive gaussians,   303 cartesian basis functions
    47 alpha electrons       47 beta electrons
       nuclear repulsion energy       830.8374323769 Hartrees.
 NAtoms=   27 NActive=   27 NUniq=   27 SFac= 1.00D+00 NAtFMM=   60 NAOKFM=F Big=F
 ------------------------------------------------------------------------------
 Polarizable Continuum Model (PCM)
 =================================
 Model                : PCM.
 Atomic radii         : UFF (Universal Force Field).
 Polarization charges : Total charges.
 Charge compensation  : None.
 Solution method      : Matrix inversion.
 Cavity type          : Scaled VdW (van der Waals Surface) (Alpha=1.100).
 Cavity algorithm     : GePol (No added spheres)
                        Default sphere list used, NSphG=   27.
                        Lebedev-Laikov grids with approx.  5.0 points / Ang**2.
                        Smoothing algorithm: Karplus/York (Gamma=1.0000).
                        Polarization charges: spherical gaussians, with
                                              point-specific exponents (IZeta= 3).
                        Self-potential: point-specific (ISelfS= 7).
                        Self-field    : sphere-specific E.n sum rule (ISelfD= 2).
 Solvent              : Water, Eps=  78.355300 Eps(inf)=   1.777849
 ------------------------------------------------------------------------------
 One-electron integrals computed using PRISM.
 NBasis=   303 RedAO= T  NBF=   303
 NBsUse=   303 1.00D-06 NBFU=   303
 Harris functional with IExCor=  908 diagonalized for initial guess.
 ExpMin= 4.38D-02 ExpMax= 5.48D+03 ExpMxC= 8.25D+02 IAcc=2 IRadAn=         4 AccDes= 0.00D+00
 HarFok:  IExCor=  908 AccDes= 0.00D+00 IRadAn=         4 IDoV= 1
 ScaDFX=  1.000000  1.000000  1.000000  1.000000
 FoFCou: FMM=F IPFlag=           0 FMFlag=      100000 FMFlg1=           0
         NFxFlg=           0 DoJE=T BraDBF=F KetDBF=T FulRan=T
         Omega=  0.000000  0.000000  1.000000  0.000000  0.000000 ICntrl=     500 IOpCl=  0
         NMat0=    1 NMatS0=    1 NMatT0=    0 NMatD0=    1 NMtDS0=    0 NMtDT0=    0
         I1Cent=           4 NGrid=           0.
 Petite list used in FoFCou.
 Initial guess orbital symmetries:
       Occupied  (A) (A) (A) (A) (A) (A) (A) (A) (A) (A) (A) (A)
                 (A) (A) (A) (A) (A) (A) (A) (A) (A) (A) (A) (A)
                 (A) (A) (A) (A) (A) (A) (A) (A) (A) (A) (A) (A)
                 (A) (A) (A) (A) (A) (A) (A) (A) (A) (A) (A)
       Virtual   (A) (A) (A) (A) (A) (A) (A) (A) (A) (A) (A) (A)
                 (A) (A) (A) (A) (A) (A) (A) (A) (A) (A) (A) (A)
                 (A) (A) (A) (A) (A) (A) (A) (A) (A) (A) (A) (A)
                 (A) (A) (A) (A) (A) (A) (A) (A) (A) (A) (A) (A)
                 (A) (A) (A) (A) (A) (A) (A) (A) (A) (A) (A) (A)
                 (A) (A) (A) (A) (A) (A) (A) (A) (A) (A) (A) (A)
                 (A) (A) (A) (A) (A) (A) (A) (A) (A) (A) (A) (A)
                 (A) (A) (A) (A) (A) (A) (A) (A) (A) (A) (A) (A)
                 (A) (A) (A) (A) (A) (A) (A) (A) (A) (A) (A) (A)
                 (A) (A) (A) (A) (A) (A) (A) (A) (A) (A) (A) (A)
                 (A) (A) (A) (A) (A) (A) (A) (A) (A) (A) (A) (A)
                 (A) (A) (A) (A) (A) (A) (A) (A) (A) (A) (A) (A)
                 (A) (A) (A) (A) (A) (A) (A) (A) (A) (A) (A) (A)
                 (A) (A) (A) (A) (A) (A) (A) (A) (A) (A) (A) (A)
                 (A) (A) (A) (A) (A) (A) (A) (A) (A) (A) (A) (A)
                 (A) (A) (A) (A) (A) (A) (A) (A) (A) (A) (A) (A)
                 (A) (A) (A) (A) (A) (A) (A) (A) (A) (A) (A) (A)
                 (A) (A) (A) (A) (A) (A) (A) (A) (A) (A) (A) (A)
                 (A) (A) (A) (A) (A) (A) (A) (A) (A) (A) (A) (A)
                 (A) (A) (A) (A) (A) (A) (A) (A) (A) (A) (A) (A)
                 (A) (A) (A) (A) (A) (A) (A) (A) (A) (A) (A) (A)
                 (A) (A) (A) (A)
 The electronic state of the initial guess is 1-A.
 Requested convergence on RMS density matrix=1.00D-08 within 128 cycles.
 Requested convergence on MAX density matrix=1.00D-06.
 Requested convergence on             energy=1.00D-06.
 No special actions if energy rises.
 Error on total polarization charges =  0.01408
 SCF Done:  E(RmPW1PW91) =  -594.197118177     A.U. after   13 cycles
             Convg  =    0.7661D-08             -V/T =  2.0094
 Range of M.O.s used for correlation:     1   303
 NBasis=   303 NAE=    47 NBE=    47 NFC=     0 NFV=     0
 NROrb=    303 NOA=    47 NOB=    47 NVA=   256 NVB=   256

 **** Warning!!: The largest alpha MO coefficient is  0.61479084D+02

 NEqPCM:  Using equilibrium solvation (IEInf=0, Eps=  78.3553, EpsInf=   1.7778)
          Differentiating once with respect to magnetic field using GIAOs.
          Electric field/nuclear overlap derivatives assumed to be zero.
 FoFCou: FMM=F IPFlag=           0 FMFlag=    10101102 FMFlg1=           0
         NFxFlg=    40000000 DoJE=F BraDBF=F KetDBF=T FulRan=T
         Omega=  0.000000  0.000000  1.000000  0.000000  0.000000 ICntrl=    6100 IOpCl=  0
         NMat0=    1 NMatS0=    1 NMatT0=    0 NMatD0=    1 NMtDS0=    0 NMtDT0=    0
         I1Cent=           7 NGrid=        1760.
 Symmetry not used in FoFCou.
          There are     3 degrees of freedom in the 1st order CPHF.  IDoFFX=0.
      3 vectors produced by pass  0 Test12= 4.01D-13 3.33D-08 XBig12= 2.76D+01 9.91D-01.
 AX will form     3 AO Fock derivatives at one time.
      3 vectors produced by pass  1 Test12= 4.01D-13 3.33D-08 XBig12= 6.38D-02 3.50D-02.
      3 vectors produced by pass  2 Test12= 4.01D-13 3.33D-08 XBig12= 9.04D-05 1.99D-03.
      3 vectors produced by pass  3 Test12= 4.01D-13 3.33D-08 XBig12= 4.00D-07 1.38D-04.
      3 vectors produced by pass  4 Test12= 4.01D-13 3.33D-08 XBig12= 1.42D-09 8.06D-06.
      3 vectors produced by pass  5 Test12= 4.01D-13 3.33D-08 XBig12= 4.57D-12 4.00D-07.
 Inverted reduced A of dimension    18 with in-core refinement.
 Calculating GIAO nuclear magnetic shielding tensors.
 SCF GIAO Magnetic shielding tensor (ppm):
      1  C    Isotropic =   169.3556   Anisotropy =    16.2558
   XX=   172.9818   YX=   -10.7298   ZX=    -7.4498
   XY=    -2.6666   YY=   173.2800   ZY=    -6.8705
   XZ=    -9.0681   YZ=   -13.4403   ZZ=   161.8050
   Eigenvalues:   150.8639   177.0101   180.1928
      2  C    Isotropic =   127.9831   Anisotropy =    45.7744
   XX=   129.9812   YX=    -8.4682   ZX=    -6.9660
   XY=    -8.2265   YY=   143.3462   ZY=   -25.9829
   XZ=   -10.0341   YZ=   -27.0063   ZZ=   110.6218
   Eigenvalues:    92.3246   133.1253   158.4993
      3  N    Isotropic =   209.2910   Anisotropy =    76.2055
   XX=   248.2625   YX=     0.8410   ZX=   -30.5880
   XY=    -5.4410   YY=   248.8626   ZY=   -27.2245
   XZ=   -22.1407   YZ=   -38.2133   ZZ=   130.7478
   Eigenvalues:   117.0909   250.6874   260.0946
      4  C    Isotropic =   148.1261   Anisotropy =    47.3885
   XX=   164.2146   YX=   -13.7014   ZX=   -20.5176
   XY=   -18.9528   YY=   148.1556   ZY=    -1.1921
   XZ=   -15.1343   YZ=     3.1964   ZZ=   132.0081
   Eigenvalues:   122.5268   142.1331   179.7184
      5  C    Isotropic =   165.7692   Anisotropy =    23.8632
   XX=   176.2571   YX=    -6.1891   ZX=   -13.6615
   XY=    -3.4231   YY=   175.1488   ZY=   -13.9819
   XZ=    -3.3819   YZ=   -15.3779   ZZ=   145.9017
   Eigenvalues:   137.3760   178.2537   181.6780
      6  C    Isotropic =   131.0197   Anisotropy =    36.7987
   XX=   154.3320   YX=     6.2935   ZX=     5.3705
   XY=     4.1779   YY=   117.9998   ZY=     1.5865
   XZ=     1.0406   YZ=    10.8228   ZZ=   120.7274
   Eigenvalues:   112.9003   124.6066   155.5522
      7  C    Isotropic =   118.1675   Anisotropy =    54.9492
   XX=   154.3913   YX=     1.6610   ZX=     9.5260
   XY=    -1.2339   YY=   117.0725   ZY=    -7.2234
   XZ=     1.2673   YZ=    -7.6250   ZZ=    83.0389
   Eigenvalues:    81.1026   118.5997   154.8003
      8  C    Isotropic =   124.4732   Anisotropy =    30.7653
   XX=   127.4217   YX=     5.3236   ZX=     8.8126
   XY=     2.9266   YY=   103.0809   ZY=     4.7911
   XZ=     2.3288   YZ=    -0.4078   ZZ=   142.9171
   Eigenvalues:   102.3605   126.0756   144.9834
      9  H    Isotropic =    30.0077   Anisotropy =    11.8181
   XX=    29.7447   YX=     3.6969   ZX=    -1.2729
   XY=     4.7944   YY=    34.5815   ZY=    -2.8324
   XZ=    -1.5790   YZ=    -2.8987   ZZ=    25.6969
   Eigenvalues:    24.8435    27.2932    37.8864
     10  H    Isotropic =    29.8486   Anisotropy =     5.9449
   XX=    30.7938   YX=     0.2047   ZX=     1.1968
   XY=    -0.2368   YY=    25.3550   ZY=    -0.3468
   XZ=     0.9216   YZ=    -0.8513   ZZ=    33.3969
   Eigenvalues:    25.3099    30.4239    33.8119
     11  H    Isotropic =    27.9455   Anisotropy =     9.6264
   XX=    25.4039   YX=     2.1488   ZX=     0.9489
   XY=     1.7067   YY=    31.2239   ZY=     4.4006
   XZ=     1.5065   YZ=     3.7963   ZZ=    27.2087
   Eigenvalues:    24.6500    24.8234    34.3631
     12  H    Isotropic =    28.6836   Anisotropy =    11.3776
   XX=    29.1080   YX=    -4.4668   ZX=     2.5883
   XY=    -4.1852   YY=    29.6441   ZY=    -4.4712
   XZ=     2.0657   YZ=    -4.1970   ZZ=    27.2989
   Eigenvalues:    23.7626    26.0197    36.2687
     13  H    Isotropic =    28.4899   Anisotropy =     7.3363
   XX=    29.4952   YX=    -1.0298   ZX=    -0.6753
   XY=    -0.9011   YY=    30.3103   ZY=     4.2579
   XZ=     0.1235   YZ=     4.9402   ZZ=    25.6641
   Eigenvalues:    22.8236    29.2653    33.3807
     14  H    Isotropic =    29.5855   Anisotropy =    11.4359
   XX=    33.8434   YX=     2.0550   ZX=     4.9057
   XY=     2.1724   YY=    26.8366   ZY=     0.3093
   XZ=     5.3410   YZ=     0.2062   ZZ=    28.0764
   Eigenvalues:    24.6914    26.8556    37.2094
     15  H    Isotropic =    29.4770   Anisotropy =    11.6135
   XX=    33.3733   YX=    -2.5979   ZX=    -5.1916
   XY=    -2.8902   YY=    26.9460   ZY=     1.5350
   XZ=    -4.6798   YZ=     1.0270   ZZ=    28.1117
   Eigenvalues:    25.0586    26.1530    37.2193
     16  H    Isotropic =    28.3428   Anisotropy =     8.9990
   XX=    26.5234   YX=     1.4703   ZX=    -2.5370
   XY=     1.9601   YY=    26.3798   ZY=    -3.7886
   XZ=    -1.1172   YZ=    -2.7798   ZZ=    32.1251
   Eigenvalues:    24.4449    26.2413    34.3421
     17  H    Isotropic =    27.1036   Anisotropy =     7.1959
   XX=    27.1465   YX=    -1.4195   ZX=    -0.0459
   XY=    -1.6609   YY=    24.0857   ZY=     3.1078
   XZ=    -2.8106   YZ=     2.3523   ZZ=    30.0785
   Eigenvalues:    22.8116    26.5983    31.9008
     18  H    Isotropic =    27.7612   Anisotropy =     9.0277
   XX=    24.4265   YX=    -1.2487   ZX=     0.2825
   XY=    -2.1076   YY=    31.7144   ZY=     2.8744
   XZ=     0.2934   YZ=     4.0677   ZZ=    27.1425
   Eigenvalues:    23.5913    25.9125    33.7796
     19  O    Isotropic =   306.5769   Anisotropy =    82.4886
   XX=   295.0706   YX=   -25.0994   ZX=   -17.1477
   XY=   -11.6119   YY=   352.6166   ZY=    37.6188
   XZ=    -0.6780   YZ=    -5.4847   ZZ=   272.0436
   Eigenvalues:   267.7365   290.4250   361.5693
     20  H    Isotropic =    26.2957   Anisotropy =    26.8546
   XX=    15.5854   YX=    -3.9376   ZX=     0.2958
   XY=    -3.6421   YY=    42.1948   ZY=     6.8604
   XZ=     0.9173   YZ=     5.0755   ZZ=    21.1069
   Eigenvalues:    14.6672    20.0212    44.1988
     21  O    Isotropic =   304.2349   Anisotropy =    27.1757
   XX=   310.9995   YX=    -4.2888   ZX=    -9.4357
   XY=   -30.2427   YY=   294.7544   ZY=   -21.7138
   XZ=   -11.0126   YZ=   -15.1439   ZZ=   306.9506
   Eigenvalues:   271.3520   319.0005   322.3520
     22  H    Isotropic =    28.6705   Anisotropy =    13.5786
   XX=    28.7442   YX=     0.4744   ZX=     0.3770
   XY=     2.4535   YY=    20.3036   ZY=    -3.7005
   XZ=     1.3737   YZ=    -3.3899   ZZ=    36.9638
   Eigenvalues:    19.3057    28.9829    37.7229
     23  C    Isotropic =   138.2650   Anisotropy =    71.1049
   XX=   112.3266   YX=     7.6832   ZX=   -13.9563
   XY=     8.4875   YY=   126.9454   ZY=   -16.9863
   XZ=   -16.5662   YZ=   -19.8019   ZZ=   175.5229
   Eigenvalues:   107.7911   121.3355   185.6682
     24  H    Isotropic =    27.7853   Anisotropy =     7.5997
   XX=    28.9043   YX=     3.3607   ZX=    -0.6761
   XY=     4.2910   YY=    28.1817   ZY=    -0.4903
   XZ=    -3.2511   YZ=    -0.3476   ZZ=    26.2697
   Eigenvalues:    24.1252    26.3788    32.8518
     25  H    Isotropic =    27.4696   Anisotropy =     8.0738
   XX=    23.8091   YX=     0.7047   ZX=    -0.5621
   XY=    -0.9103   YY=    32.2633   ZY=    -1.1643
   XZ=     1.0168   YZ=    -2.7422   ZZ=    26.3363
   Eigenvalues:    23.7881    25.7685    32.8521
     26  O    Isotropic =   307.2322   Anisotropy =    78.0097
   XX=   286.7040   YX=     9.0108   ZX=    22.4535
   XY=    13.9166   YY=   308.7964   ZY=    42.0615
   XZ=    18.5059   YZ=    24.2847   ZZ=   326.1962
   Eigenvalues:   277.4173   285.0406   359.2386
     27  H    Isotropic =    29.6735   Anisotropy =    22.2091
   XX=    25.6972   YX=     5.8988   ZX=     6.6734
   XY=     6.4632   YY=    26.7845   ZY=     5.9178
   XZ=     7.6546   YZ=     7.4300   ZZ=    36.5388
   Eigenvalues:    19.9687    24.5722    44.4796
 End of Minotr Frequency-dependent properties file   721 does not exist.
 End of Minotr Frequency-dependent properties file   722 does not exist.

 **********************************************************************

            Population analysis using the SCF density.

 **********************************************************************

 Orbital symmetries:
       Occupied  (A) (A) (A) (A) (A) (A) (A) (A) (A) (A) (A) (A)
                 (A) (A) (A) (A) (A) (A) (A) (A) (A) (A) (A) (A)
                 (A) (A) (A) (A) (A) (A) (A) (A) (A) (A) (A) (A)
                 (A) (A) (A) (A) (A) (A) (A) (A) (A) (A) (A)
       Virtual   (A) (A) (A) (A) (A) (A) (A) (A) (A) (A) (A) (A)
                 (A) (A) (A) (A) (A) (A) (A) (A) (A) (A) (A) (A)
                 (A) (A) (A) (A) (A) (A) (A) (A) (A) (A) (A) (A)
                 (A) (A) (A) (A) (A) (A) (A) (A) (A) (A) (A) (A)
                 (A) (A) (A) (A) (A) (A) (A) (A) (A) (A) (A) (A)
                 (A) (A) (A) (A) (A) (A) (A) (A) (A) (A) (A) (A)
                 (A) (A) (A) (A) (A) (A) (A) (A) (A) (A) (A) (A)
                 (A) (A) (A) (A) (A) (A) (A) (A) (A) (A) (A) (A)
                 (A) (A) (A) (A) (A) (A) (A) (A) (A) (A) (A) (A)
                 (A) (A) (A) (A) (A) (A) (A) (A) (A) (A) (A) (A)
                 (A) (A) (A) (A) (A) (A) (A) (A) (A) (A) (A) (A)
                 (A) (A) (A) (A) (A) (A) (A) (A) (A) (A) (A) (A)
                 (A) (A) (A) (A) (A) (A) (A) (A) (A) (A) (A) (A)
                 (A) (A) (A) (A) (A) (A) (A) (A) (A) (A) (A) (A)
                 (A) (A) (A) (A) (A) (A) (A) (A) (A) (A) (A) (A)
                 (A) (A) (A) (A) (A) (A) (A) (A) (A) (A) (A) (A)
                 (A) (A) (A) (A) (A) (A) (A) (A) (A) (A) (A) (A)
                 (A) (A) (A) (A) (A) (A) (A) (A) (A) (A) (A) (A)
                 (A) (A) (A) (A) (A) (A) (A) (A) (A) (A) (A) (A)
                 (A) (A) (A) (A) (A) (A) (A) (A) (A) (A) (A) (A)
                 (A) (A) (A) (A) (A) (A) (A) (A) (A) (A) (A) (A)
                 (A) (A) (A) (A)
 The electronic state is 1-A.
 Alpha  occ. eigenvalues --  -19.27492 -19.25646 -19.24751 -14.40819 -10.30367
 Alpha  occ. eigenvalues --  -10.30152 -10.30067 -10.28316 -10.27529 -10.26572
 Alpha  occ. eigenvalues --  -10.24490 -10.24311  -1.08146  -1.06658  -1.04124
 Alpha  occ. eigenvalues --   -0.95961  -0.82750  -0.78842  -0.75308  -0.71351
 Alpha  occ. eigenvalues --   -0.67858  -0.60883  -0.60076  -0.57381  -0.56877
 Alpha  occ. eigenvalues --   -0.53284  -0.51856  -0.50495  -0.48488  -0.47894
 Alpha  occ. eigenvalues --   -0.47074  -0.45155  -0.42186  -0.41144  -0.40928
 Alpha  occ. eigenvalues --   -0.40008  -0.39108  -0.37865  -0.36123  -0.35331
 Alpha  occ. eigenvalues --   -0.34806  -0.34007  -0.33631  -0.31606  -0.30090
 Alpha  occ. eigenvalues --   -0.28723  -0.22060
 Alpha virt. eigenvalues --   -0.00009   0.01430   0.02121   0.02394   0.04240
 Alpha virt. eigenvalues --    0.04479   0.04593   0.04857   0.05221   0.07205
 Alpha virt. eigenvalues --    0.08061   0.08372   0.08691   0.09036   0.10030
 Alpha virt. eigenvalues --    0.10929   0.11990   0.12323   0.12512   0.12783
 Alpha virt. eigenvalues --    0.13437   0.14440   0.14542   0.14784   0.15372
 Alpha virt. eigenvalues --    0.16289   0.16561   0.17131   0.17702   0.18224
 Alpha virt. eigenvalues --    0.18844   0.19138   0.20047   0.20237   0.20727
 Alpha virt. eigenvalues --    0.21310   0.21692   0.22074   0.22512   0.22962
 Alpha virt. eigenvalues --    0.24254   0.24552   0.24816   0.25659   0.25896
 Alpha virt. eigenvalues --    0.26450   0.26802   0.28613   0.28966   0.29187
 Alpha virt. eigenvalues --    0.29207   0.29849   0.30756   0.31020   0.31950
 Alpha virt. eigenvalues --    0.32634   0.33304   0.33957   0.34534   0.35760
 Alpha virt. eigenvalues --    0.36397   0.36584   0.37485   0.37651   0.38281
 Alpha virt. eigenvalues --    0.38961   0.39558   0.40340   0.41932   0.42859
 Alpha virt. eigenvalues --    0.44324   0.44456   0.45148   0.46390   0.47653
 Alpha virt. eigenvalues --    0.49689   0.65212   0.66476   0.67176   0.69097
 Alpha virt. eigenvalues --    0.69391   0.72271   0.72888   0.73862   0.74204
 Alpha virt. eigenvalues --    0.75390   0.77122   0.78317   0.78501   0.81287
 Alpha virt. eigenvalues --    0.83077   0.83834   0.84405   0.87884   0.88493
 Alpha virt. eigenvalues --    0.90924   0.92815   0.94189   0.95872   0.97746
 Alpha virt. eigenvalues --    0.98302   0.99259   1.02103   1.03210   1.04675
 Alpha virt. eigenvalues --    1.06371   1.06827   1.08546   1.10272   1.11377
 Alpha virt. eigenvalues --    1.12397   1.13017   1.13985   1.15504   1.16766
 Alpha virt. eigenvalues --    1.20416   1.22068   1.22538   1.25113   1.26211
 Alpha virt. eigenvalues --    1.26442   1.28545   1.30225   1.32107   1.35128
 Alpha virt. eigenvalues --    1.35351   1.36668   1.37506   1.39944   1.40743
 Alpha virt. eigenvalues --    1.43640   1.45526   1.48281   1.51708   1.52835
 Alpha virt. eigenvalues --    1.54904   1.55043   1.58673   1.61059   1.63187
 Alpha virt. eigenvalues --    1.63904   1.65175   1.68822   1.70080   1.71693
 Alpha virt. eigenvalues --    1.72887   1.74797   1.77238   1.78127   1.79373
 Alpha virt. eigenvalues --    1.82323   1.82730   1.84595   1.86575   1.87241
 Alpha virt. eigenvalues --    1.88487   1.91565   1.92099   1.93968   1.95871
 Alpha virt. eigenvalues --    1.98721   2.00176   2.01180   2.02031   2.03462
 Alpha virt. eigenvalues --    2.05853   2.08043   2.09253   2.10328   2.11164
 Alpha virt. eigenvalues --    2.12098   2.14563   2.15957   2.18440   2.20420
 Alpha virt. eigenvalues --    2.22927   2.23807   2.26071   2.28734   2.29808
 Alpha virt. eigenvalues --    2.30630   2.33042   2.35184   2.38502   2.39549
 Alpha virt. eigenvalues --    2.41614   2.42168   2.45518   2.49040   2.49855
 Alpha virt. eigenvalues --    2.50356   2.52211   2.53234   2.54658   2.55440
 Alpha virt. eigenvalues --    2.57068   2.59096   2.60194   2.62249   2.62644
 Alpha virt. eigenvalues --    2.64874   2.66800   2.68967   2.69061   2.70897
 Alpha virt. eigenvalues --    2.71685   2.72146   2.73252   2.74605   2.78064
 Alpha virt. eigenvalues --    2.79125   2.80968   2.81497   2.82823   2.84440
 Alpha virt. eigenvalues --    2.85371   2.87567   2.89447   2.92657   2.94773
 Alpha virt. eigenvalues --    2.95680   2.98854   2.99616   3.02013   3.04104
 Alpha virt. eigenvalues --    3.05507   3.08592   3.12698   3.17362   3.32591
 Alpha virt. eigenvalues --    3.36361   3.37511   3.38543   3.45100   3.47261
 Alpha virt. eigenvalues --    3.48400   3.50003   3.52072   3.53121   3.56635
 Alpha virt. eigenvalues --    3.57119   3.58787   3.61393   3.71398   4.30327
 Alpha virt. eigenvalues --    4.33570   4.45495   4.52197   4.52528   4.57094
 Alpha virt. eigenvalues --    4.58012   4.68264   4.79549   4.80267   4.92119
 Alpha virt. eigenvalues --    5.03481
          Condensed to atoms (all electrons):
              1          2          3          4          5          6
     1  C    5.841741  -0.588215   0.102417  -0.222694   0.156948  -0.026316
     2  C   -0.588215   9.332849  -0.557974  -0.253267   0.214268  -0.240635
     3  N    0.102417  -0.557974   7.642732   0.153005  -0.187334  -0.501671
     4  C   -0.222694  -0.253267   0.153005   5.462368   0.179734  -0.062147
     5  C    0.156948   0.214268  -0.187334   0.179734   5.582105   0.146055
     6  C   -0.026316  -0.240635  -0.501671  -0.062147   0.146055   9.122983
     7  C   -0.069822   0.787275  -0.068021  -0.006453  -0.073838  -1.692088
     8  C    0.153641  -1.868303   0.152483   0.127712  -0.100896   0.066247
     9  H    0.374246  -0.058824   0.017970   0.022703  -0.018165  -0.007660
    10  H    0.481399  -0.192946   0.033588   0.020338  -0.071287   0.013105
    11  H    0.042488   0.120275   0.020807   0.023354  -0.027170  -0.016209
    12  H    0.029758   0.002028  -0.037078   0.410950  -0.045955  -0.054149
    13  H    0.011546   0.006737  -0.095766   0.408020  -0.034853   0.076032
    14  H   -0.019125  -0.046319   0.018219  -0.033936   0.393459   0.005234
    15  H   -0.067281   0.045044   0.003815  -0.027386   0.388388  -0.002860
    16  H    0.004251  -0.018492  -0.001190   0.015197  -0.006629   0.180418
    17  H    0.009651  -0.041461   0.020817   0.000801   0.002304  -0.013017
    18  H    0.006036  -0.066639   0.017861   0.000263   0.000983   0.031917
    19  O    0.006767  -0.098286   0.046600   0.005448  -0.000823   0.100864
    20  H   -0.002154  -0.092026   0.010653   0.000541   0.000616   0.066620
    21  O   -0.000449   0.036157   0.003394  -0.007123   0.001708  -0.200470
    22  H    0.003031   0.007260   0.001421   0.000059   0.000863  -0.003454
    23  C    0.078254  -0.263097   0.285024  -0.053928  -0.029856  -0.547133
    24  H    0.001031  -0.001804   0.027884  -0.004565  -0.000728  -0.177466
    25  H   -0.002536   0.015658  -0.025107   0.008724   0.001309  -0.043856
    26  O    0.009951  -0.002105   0.061915   0.021987  -0.005603  -0.418142
    27  H    0.000598   0.001450   0.000106  -0.001186  -0.001354   0.033599
              7          8          9         10         11         12
     1  C   -0.069822   0.153641   0.374246   0.481399   0.042488   0.029758
     2  C    0.787275  -1.868303  -0.058824  -0.192946   0.120275   0.002028
     3  N   -0.068021   0.152483   0.017970   0.033588   0.020807  -0.037078
     4  C   -0.006453   0.127712   0.022703   0.020338   0.023354   0.410950
     5  C   -0.073838  -0.100896  -0.018165  -0.071287  -0.027170  -0.045955
     6  C   -1.692088   0.066247  -0.007660   0.013105  -0.016209  -0.054149
     7  C    7.572329  -0.692105   0.002810  -0.008787  -0.017948   0.002246
     8  C   -0.692105   7.189448   0.002741   0.041120   0.097520  -0.000368
     9  H    0.002810   0.002741   0.521419  -0.023903  -0.003384  -0.000075
    10  H   -0.008787   0.041120  -0.023903   0.522816   0.004285  -0.000060
    11  H   -0.017948   0.097520  -0.003384   0.004285   0.575376   0.000461
    12  H    0.002246  -0.000368  -0.000075  -0.000060   0.000461   0.564944
    13  H   -0.011959   0.000160  -0.000192   0.000907  -0.000524  -0.046947
    14  H   -0.001087   0.008905  -0.004824   0.004123   0.001061  -0.006894
    15  H    0.002405   0.000582   0.000280  -0.004871  -0.000071   0.001401
    16  H    0.062741   0.025421   0.000005   0.000006   0.000442   0.001579
    17  H    0.353891  -0.023415   0.000003  -0.000015   0.000103   0.000010
    18  H   -0.047856   0.401226   0.000313   0.000076  -0.003252   0.000004
    19  O   -0.157975   0.184082  -0.000290   0.010409   0.008238   0.000090
    20  H   -0.065125   0.078147   0.000144   0.000686   0.000033   0.000006
    21  O    0.398125  -0.090476   0.000019  -0.000218  -0.000798   0.000038
    22  H    0.023341  -0.073974   0.000001  -0.000015  -0.000012   0.000000
    23  C   -0.109540   0.093393   0.002492   0.001156   0.011501   0.020901
    24  H   -0.008517   0.005236   0.000000   0.000006   0.000006   0.000014
    25  H    0.050163  -0.020074   0.000000   0.000000  -0.000003  -0.000335
    26  O    0.220515  -0.034075   0.000396  -0.001587   0.000734   0.001237
    27  H   -0.008086  -0.002213  -0.000001   0.000045   0.000000  -0.000003
             13         14         15         16         17         18
     1  C    0.011546  -0.019125  -0.067281   0.004251   0.009651   0.006036
     2  C    0.006737  -0.046319   0.045044  -0.018492  -0.041461  -0.066639
     3  N   -0.095766   0.018219   0.003815  -0.001190   0.020817   0.017861
     4  C    0.408020  -0.033936  -0.027386   0.015197   0.000801   0.000263
     5  C   -0.034853   0.393459   0.388388  -0.006629   0.002304   0.000983
     6  C    0.076032   0.005234  -0.002860   0.180418  -0.013017   0.031917
     7  C   -0.011959  -0.001087   0.002405   0.062741   0.353891  -0.047856
     8  C    0.000160   0.008905   0.000582   0.025421  -0.023415   0.401226
     9  H   -0.000192  -0.004824   0.000280   0.000005   0.000003   0.000313
    10  H    0.000907   0.004123  -0.004871   0.000006  -0.000015   0.000076
    11  H   -0.000524   0.001061  -0.000071   0.000442   0.000103  -0.003252
    12  H   -0.046947  -0.006894   0.001401   0.001579   0.000010   0.000004
    13  H    0.570210   0.003944  -0.005303  -0.001378  -0.000018  -0.000004
    14  H    0.003944   0.525730  -0.025181   0.000003  -0.000001   0.000001
    15  H   -0.005303  -0.025181   0.517561   0.000002   0.000000   0.000002
    16  H   -0.001378   0.000003   0.000002   0.573463  -0.008657  -0.000106
    17  H   -0.000018  -0.000001   0.000000  -0.008657   0.536329  -0.004613
    18  H   -0.000004   0.000001   0.000002  -0.000106  -0.004613   0.542218
    19  O   -0.000543   0.000164   0.000092  -0.000264   0.011623  -0.052249
    20  H   -0.000004  -0.000003   0.000005  -0.000143  -0.000322   0.006260
    21  O   -0.000031  -0.000009  -0.000007   0.002975  -0.056729   0.000264
    22  H   -0.000003   0.000000   0.000000  -0.000114   0.006344  -0.000224
    23  C   -0.030046   0.000644  -0.001634  -0.010517   0.021108   0.001452
    24  H    0.000003   0.000000   0.000000   0.001485   0.000047  -0.000009
    25  H    0.000534  -0.000002   0.000007  -0.003596  -0.000109   0.000002
    26  O   -0.010264  -0.000107   0.000348   0.014756  -0.000378  -0.000522
    27  H    0.000035   0.000000   0.000001  -0.000220   0.000005   0.000003
             19         20         21         22         23         24
     1  C    0.006767  -0.002154  -0.000449   0.003031   0.078254   0.001031
     2  C   -0.098286  -0.092026   0.036157   0.007260  -0.263097  -0.001804
     3  N    0.046600   0.010653   0.003394   0.001421   0.285024   0.027884
     4  C    0.005448   0.000541  -0.007123   0.000059  -0.053928  -0.004565
     5  C   -0.000823   0.000616   0.001708   0.000863  -0.029856  -0.000728
     6  C    0.100864   0.066620  -0.200470  -0.003454  -0.547133  -0.177466
     7  C   -0.157975  -0.065125   0.398125   0.023341  -0.109540  -0.008517
     8  C    0.184082   0.078147  -0.090476  -0.073974   0.093393   0.005236
     9  H   -0.000290   0.000144   0.000019   0.000001   0.002492   0.000000
    10  H    0.010409   0.000686  -0.000218  -0.000015   0.001156   0.000006
    11  H    0.008238   0.000033  -0.000798  -0.000012   0.011501   0.000006
    12  H    0.000090   0.000006   0.000038   0.000000   0.020901   0.000014
    13  H   -0.000543  -0.000004  -0.000031  -0.000003  -0.030046   0.000003
    14  H    0.000164  -0.000003  -0.000009   0.000000   0.000644   0.000000
    15  H    0.000092   0.000005  -0.000007   0.000000  -0.001634   0.000000
    16  H   -0.000264  -0.000143   0.002975  -0.000114  -0.010517   0.001485
    17  H    0.011623  -0.000322  -0.056729   0.006344   0.021108   0.000047
    18  H   -0.052249   0.006260   0.000264  -0.000224   0.001452  -0.000009
    19  O    8.383216   0.234322  -0.025881   0.047792  -0.010279  -0.000883
    20  H    0.234322   0.320360  -0.003180  -0.005092  -0.005939   0.000484
    21  O   -0.025881  -0.003180   8.202609   0.238595   0.009409   0.005246
    22  H    0.047792  -0.005092   0.238595   0.361040   0.010418  -0.000256
    23  C   -0.010279  -0.005939   0.009409   0.010418   5.669100   0.530683
    24  H   -0.000883   0.000484   0.005246  -0.000256   0.530683   0.532840
    25  H   -0.001035   0.000235  -0.001009  -0.000001   0.376249  -0.037705
    26  O   -0.040360   0.018815  -0.002718   0.002917   0.102116  -0.051043
    27  H    0.001332  -0.002056  -0.000308  -0.000178  -0.003682  -0.006514
             25         26         27
     1  C   -0.002536   0.009951   0.000598
     2  C    0.015658  -0.002105   0.001450
     3  N   -0.025107   0.061915   0.000106
     4  C    0.008724   0.021987  -0.001186
     5  C    0.001309  -0.005603  -0.001354
     6  C   -0.043856  -0.418142   0.033599
     7  C    0.050163   0.220515  -0.008086
     8  C   -0.020074  -0.034075  -0.002213
     9  H    0.000000   0.000396  -0.000001
    10  H    0.000000  -0.001587   0.000045
    11  H   -0.000003   0.000734   0.000000
    12  H   -0.000335   0.001237  -0.000003
    13  H    0.000534  -0.010264   0.000035
    14  H   -0.000002  -0.000107   0.000000
    15  H    0.000007   0.000348   0.000001
    16  H   -0.003596   0.014756  -0.000220
    17  H   -0.000109  -0.000378   0.000005
    18  H    0.000002  -0.000522   0.000003
    19  O   -0.001035  -0.040360   0.001332
    20  H    0.000235   0.018815  -0.002056
    21  O   -0.001009  -0.002718  -0.000308
    22  H   -0.000001   0.002917  -0.000178
    23  C    0.376249   0.102116  -0.003682
    24  H   -0.037705  -0.051043  -0.006514
    25  H    0.552725  -0.036325  -0.002068
    26  O   -0.036325   8.627491   0.219348
    27  H   -0.002068   0.219348   0.337321
 Mulliken atomic charges:
              1
     1  C   -0.315161
     2  C   -0.178607
     3  N   -0.146569
     4  C   -0.188522
     5  C   -0.464247
     6  C    0.164196
     7  C   -0.436637
     8  C    0.277834
     9  H    0.171775
    10  H    0.169624
    11  H    0.162686
    12  H    0.156194
    13  H    0.159708
    14  H    0.176000
    15  H    0.174661
    16  H    0.168563
    17  H    0.185698
    18  H    0.166592
    19  O   -0.652172
    20  H    0.438116
    21  O   -0.509132
    22  H    0.380243
    23  C   -0.148250
    24  H    0.184525
    25  H    0.168156
    26  O   -0.699297
    27  H    0.434024
 Sum of Mulliken atomic charges =   0.00000
 Mulliken charges with hydrogens summed into heavy atoms:
              1
     1  C    0.026238
     2  C   -0.015921
     3  N   -0.146569
     4  C    0.127380
     5  C   -0.113586
     6  C    0.332759
     7  C   -0.250939
     8  C    0.444426
    19  O   -0.214056
    21  O   -0.128890
    23  C    0.204431
    26  O   -0.265273
 Sum of Mulliken charges with hydrogens summed into heavy atoms =   0.00000
 Electronic spatial extent (au):  <R**2>=           1806.9300
 Charge=              0.0000 electrons
 Dipole moment (field-independent basis, Debye):
    X=             -1.2274    Y=              3.2197    Z=              1.1006  Tot=              3.6173
 Quadrupole moment (field-independent basis, Debye-Ang):
   XX=            -77.6595   YY=            -68.0588   ZZ=            -72.9466
   XY=              6.4098   XZ=              3.7979   YZ=              7.3087
 Traceless Quadrupole moment (field-independent basis, Debye-Ang):
   XX=             -4.7712   YY=              4.8295   ZZ=             -0.0583
   XY=              6.4098   XZ=              3.7979   YZ=              7.3087
 Octapole moment (field-independent basis, Debye-Ang**2):
  XXX=            -19.5226  YYY=             15.5502  ZZZ=             19.1998  XYY=              7.6171
  XXY=              9.9949  XXZ=             21.1449  XZZ=             14.9808  YZZ=             14.4352
  YYZ=             -0.3664  XYZ=              8.9195
 Hexadecapole moment (field-independent basis, Debye-Ang**3):
 XXXX=          -1347.0865 YYYY=           -632.5665 ZZZZ=           -392.7231 XXXY=             17.3410
 XXXZ=             61.6393 YYYX=             20.4341 YYYZ=             35.6310 ZZZX=             11.8517
 ZZZY=             42.1149 XXYY=           -312.7520 XXZZ=           -269.8725 YYZZ=           -172.5177
 XXYZ=             12.0334 YYXZ=              8.9651 ZZXY=             20.3977
 N-N= 8.308374323769D+02 E-N=-3.047720807181D+03  KE= 5.886647002469D+02
 1\1\GINC-COMPUTE-3-1\SP\RmPW1PW91\6-31+G(d,p)\C8H15N1O3\MAMICHETTI.IQU
 IR\17-May-2024\0\\# mpw1pw91/6-31+G** nmr scrf=(pcm,solvent=water)\\co
 mment\\0,1\C,0,-1.917783,-1.07989,0.59482\C,0,-0.82272,-1.088816,-0.47
 568\N,0,-0.769071,0.313601,-1.00837\C,0,-1.893549,1.088429,-0.451081\C
 ,0,-2.861698,0.020169,0.081298\C,0,0.603093,0.83981,-0.930195\C,0,1.44
 7914,-0.469211,-0.928011\C,0,0.618844,-1.464053,-0.086609\H,0,-2.40627
 3,-2.053246,0.705078\H,0,-1.500267,-0.796466,1.566958\H,0,-1.12742,-1.
 765415,-1.287034\H,0,-2.35826,1.721399,-1.218032\H,0,-1.583186,1.74840
 6,0.368597\H,0,-3.485019,-0.367943,-0.733583\H,0,-3.528287,0.415025,0.
 85448\H,0,0.84417,1.407479,-1.841709\H,0,1.494782,-0.834831,-1.959128\
 H,0,0.846828,-2.499504,-0.35054\O,0,0.950725,-1.34681,1.298186\H,0,0.7
 83904,-0.406889,1.557851\O,0,2.784694,-0.334069,-0.472533\H,0,2.742262
 ,-0.492168,0.490069\C,0,0.93235,1.826598,0.195159\H,0,2.006838,2.03467
 9,0.154078\H,0,0.401281,2.770727,0.022482\O,0,0.576281,1.319027,1.4961
 6\H,0,1.119833,1.780135,2.156314\\Version=AM64L-G09RevC.01\State=1-A\H
 F=-594.1971182\RMSD=7.661e-09\Dipole=-0.4829072,1.2667389,0.4330078\Qu
 adrupole=-3.5472797,3.5906218,-0.0433421,4.7655649,2.8236126,5.4338283
 \PG=C01 [X(C8H15N1O3)]\\@


 ... FOR AFTERWARDS A MAN FINDS PLEASURE IN HIS PAINS,
 WHEN HE HAS SUFFERED LONG AND WANDERED FAR.

                                    -- HOMER
 Job cpu time:  0 days  0 hours  9 minutes 13.2 seconds.
 File lengths (MBytes):  RWF=    109 Int=      0 D2E=      0 Chk=      7 Scr=      1
 Normal termination of Gaussian 09 at Fri May 17 12:59:11 2024.
