 Entering Gaussian System, Link 0=g09
 Input=/home/mamichetti.iquir/Linux/04_Cardona_A1A3_R__S_R_S_032_OptB.gjc
 Output=/home/mamichetti.iquir/Linux/04_Cardona_A1A3_R__S_R_S_032_OptB.log
 Initial command:
 /opt/ohpc/pub/apps/software/Gaussian/09/AMD64.SSE4a-enabled/g09/l1.exe /local/mamichetti.iquir/Gau-409985.inp -scrdir=/local/mamichetti.iquir/
 Entering Link 1 = /opt/ohpc/pub/apps/software/Gaussian/09/AMD64.SSE4a-enabled/g09/l1.exe PID=    409986.
  
 Copyright (c) 1988,1990,1992,1993,1995,1998,2003,2009,2011,
            Gaussian, Inc.  All Rights Reserved.
  
 This is part of the Gaussian(R) 09 program.  It is based on
 the Gaussian(R) 03 system (copyright 2003, Gaussian, Inc.),
 the Gaussian(R) 98 system (copyright 1998, Gaussian, Inc.),
 the Gaussian(R) 94 system (copyright 1995, Gaussian, Inc.),
 the Gaussian 92(TM) system (copyright 1992, Gaussian, Inc.),
 the Gaussian 90(TM) system (copyright 1990, Gaussian, Inc.),
 the Gaussian 88(TM) system (copyright 1988, Gaussian, Inc.),
 the Gaussian 86(TM) system (copyright 1986, Carnegie Mellon
 University), and the Gaussian 82(TM) system (copyright 1983,
 Carnegie Mellon University). Gaussian is a federally registered
 trademark of Gaussian, Inc.
  
 This software contains proprietary and confidential information,
 including trade secrets, belonging to Gaussian, Inc.
  
 This software is provided under written license and may be
 used, copied, transmitted, or stored only in accord with that
 written license.
  
 The following legend is applicable only to US Government
 contracts under FAR:
  
                    RESTRICTED RIGHTS LEGEND
  
 Use, reproduction and disclosure by the US Government is
 subject to restrictions as set forth in subparagraphs (a)
 and (c) of the Commercial Computer Software - Restricted
 Rights clause in FAR 52.227-19.
  
 Gaussian, Inc.
 340 Quinnipiac St., Bldg. 40, Wallingford CT 06492
  
  
 ---------------------------------------------------------------
 Warning -- This program may not be used in any manner that
 competes with the business of Gaussian, Inc. or will provide
 assistance to any competitor of Gaussian, Inc.  The licensee
 of this program is prohibited from giving any competitor of
 Gaussian, Inc. access to this program.  By using this program,
 the user acknowledges that Gaussian, Inc. is engaged in the
 business of creating and licensing software in the field of
 computational chemistry and represents and warrants to the
 licensee that it is not a competitor of Gaussian, Inc. and that
 it will not use this program in any manner prohibited above.
 ---------------------------------------------------------------
  

 Cite this work as:
 Gaussian 09, Revision C.01,
 M. J. Frisch, G. W. Trucks, H. B. Schlegel, G. E. Scuseria, 
 M. A. Robb, J. R. Cheeseman, G. Scalmani, V. Barone, B. Mennucci, 
 G. A. Petersson, H. Nakatsuji, M. Caricato, X. Li, H. P. Hratchian, 
 A. F. Izmaylov, J. Bloino, G. Zheng, J. L. Sonnenberg, M. Hada, 
 M. Ehara, K. Toyota, R. Fukuda, J. Hasegawa, M. Ishida, T. Nakajima, 
 Y. Honda, O. Kitao, H. Nakai, T. Vreven, J. A. Montgomery, Jr., 
 J. E. Peralta, F. Ogliaro, M. Bearpark, J. J. Heyd, E. Brothers, 
 K. N. Kudin, V. N. Staroverov, T. Keith, R. Kobayashi, J. Normand, 
 K. Raghavachari, A. Rendell, J. C. Burant, S. S. Iyengar, J. Tomasi, 
 M. Cossi, N. Rega, J. M. Millam, M. Klene, J. E. Knox, J. B. Cross, 
 V. Bakken, C. Adamo, J. Jaramillo, R. Gomperts, R. E. Stratmann, 
 O. Yazyev, A. J. Austin, R. Cammi, C. Pomelli, J. W. Ochterski, 
 R. L. Martin, K. Morokuma, V. G. Zakrzewski, G. A. Voth, 
 P. Salvador, J. J. Dannenberg, S. Dapprich, A. D. Daniels, 
 O. Farkas, J. B. Foresman, J. V. Ortiz, J. Cioslowski, 
 and D. J. Fox, Gaussian, Inc., Wallingford CT, 2010.
 
 ******************************************
 Gaussian 09:  AM64L-G09RevC.01 23-Sep-2011
                17-May-2024 
 ******************************************
 %nprocshared=4
 Will use up to    4 processors via shared memory.
 ------------------------------------------------
 # mpw1pw91/6-31+G** nmr scrf=(pcm,solvent=water)
 ------------------------------------------------
 1/38=1/1;
 2/12=2,17=6,18=5,40=1/2;
 3/5=1,6=6,7=111,11=2,16=1,25=1,30=1,70=2201,72=1,74=-7/1,2,8,3;
 4//1;
 5/5=2,38=5,53=1/2;
 8/6=1,10=90,11=11/1;
 10/13=100,45=16/2;
 6/7=2,8=2,9=2,10=2,28=1/1;
 99/9=1/99;
 -------
 comment
 -------
 Charge =  0 Multiplicity = 1
 Symbolic Z-Matrix:
 6                     2.39459  -0.73566  -0.34756 
 6                     1.18578  -0.13335  -1.07209 
 7                     0.03427  -1.0293   -0.73859 
 6                     0.42555  -1.84638   0.45175 
 6                     1.78492  -1.32156   0.93302 
 6                    -1.12822  -0.12395  -0.60665 
 6                    -0.61164   1.18058   0.01592 
 6                     0.77248   1.32432  -0.65245 
 1                     2.82483  -1.53347  -0.96454 
 1                     3.18398  -0.00239  -0.15849 
 1                     1.34579  -0.12987  -2.15617 
 1                     0.51933  -2.89566   0.14159 
 1                    -0.33146  -1.81655   1.23764 
 1                     2.40073  -2.10782   1.38166 
 1                     1.64653  -0.53021   1.67617 
 1                    -1.43941   0.13567  -1.62989 
 1                    -1.26117   2.03356  -0.21864 
 1                     0.66968   1.93856  -1.55474 
 8                     1.63904   1.98603   0.27063 
 1                     2.48959   2.1453   -0.16979 
 8                    -0.49256   1.04705   1.43466 
 1                     0.30041   1.55567   1.68445 
 6                    -2.35443  -0.73387   0.0594 
 1                    -2.54658  -1.72853  -0.36756 
 1                    -2.21042  -0.85064   1.13879 
 8                    -3.45327   0.15149  -0.19517 
 1                    -4.19155  -0.14582   0.3606 
 
                          Input orientation:                          
 ---------------------------------------------------------------------
 Center     Atomic      Atomic             Coordinates (Angstroms)
 Number     Number       Type             X           Y           Z
 ---------------------------------------------------------------------
      1          6           0        2.394587   -0.735659   -0.347555
      2          6           0        1.185781   -0.133349   -1.072090
      3          7           0        0.034267   -1.029299   -0.738588
      4          6           0        0.425554   -1.846384    0.451753
      5          6           0        1.784916   -1.321564    0.933017
      6          6           0       -1.128222   -0.123953   -0.606651
      7          6           0       -0.611635    1.180583    0.015922
      8          6           0        0.772479    1.324319   -0.652446
      9          1           0        2.824826   -1.533470   -0.964536
     10          1           0        3.183981   -0.002386   -0.158492
     11          1           0        1.345790   -0.129874   -2.156169
     12          1           0        0.519328   -2.895662    0.141585
     13          1           0       -0.331458   -1.816546    1.237643
     14          1           0        2.400727   -2.107822    1.381655
     15          1           0        1.646528   -0.530213    1.676173
     16          1           0       -1.439414    0.135668   -1.629888
     17          1           0       -1.261172    2.033559   -0.218640
     18          1           0        0.669677    1.938559   -1.554739
     19          8           0        1.639038    1.986034    0.270627
     20          1           0        2.489588    2.145304   -0.169787
     21          8           0       -0.492559    1.047045    1.434661
     22          1           0        0.300411    1.555668    1.684451
     23          6           0       -2.354429   -0.733869    0.059402
     24          1           0       -2.546583   -1.728530   -0.367563
     25          1           0       -2.210415   -0.850635    1.138787
     26          8           0       -3.453269    0.151489   -0.195172
     27          1           0       -4.191546   -0.145823    0.360602
 ---------------------------------------------------------------------
                    Distance matrix (angstroms):
                    1          2          3          4          5
     1  C    0.000000
     2  C    1.532625   0.000000
     3  N    2.410444   1.496641   0.000000
     4  C    2.397852   2.415477   1.495876   0.000000
     5  C    1.534551   2.406506   2.438125   1.534574   0.000000
     6  C    3.584899   2.360367   1.479337   2.549747   3.505884
     7  C    3.583500   2.478082   2.422819   3.229278   3.584028
     8  C    2.639641   1.572169   2.468176   3.375347   3.246447
     9  H    1.096482   2.158327   2.844725   2.803622   2.174172
    10  H    1.093882   2.201049   3.363296   3.373670   2.211110
    11  H    2.176703   1.095829   2.130398   3.254919   3.340064
    12  H    2.901976   3.089909   2.119740   1.098172   2.169300
    13  H    3.333540   3.235743   2.158472   1.091595   2.194731
    14  H    2.207495   3.375722   3.355410   2.198721   1.094852
    15  H    2.167320   2.814736   2.946106   2.173083   1.094380
    16  H    4.135596   2.697250   2.079255   3.426349   4.369017
    17  H    4.588002   3.378083   3.365948   4.283507   4.675662
    18  H    3.403535   2.189090   3.142933   4.290851   4.249834
    19  O    2.891473   2.549532   3.561746   4.024025   3.376425
    20  H    2.888005   2.776026   4.053423   4.536532   3.705660
    21  O    3.832746   3.239438   3.051518   3.190763   3.323981
    22  H    3.710094   3.351892   3.553028   3.620658   3.323684
    23  C    4.766421   3.764835   2.535732   3.019923   4.271155
    24  H    5.039976   4.119648   2.699513   3.085250   4.540816
    25  H    4.840297   4.115413   2.931732   2.900321   4.028248
    26  O    5.916728   4.729789   3.721890   4.410814   5.557093
    27  H    6.650304   5.564927   4.454912   4.921161   6.117853
                    6          7          8          9         10
     6  C    0.000000
     7  C    1.535016   0.000000
     8  C    2.390032   1.543745   0.000000
     9  H    4.212055   4.487387   3.532207   0.000000
    10  H    4.337133   3.979515   2.796333   1.767178   0.000000
    11  H    2.919208   3.204183   2.168996   2.361698   2.717704
    12  H    3.310083   4.232097   4.301489   2.897308   3.944803
    13  H    2.626999   3.248674   3.828335   3.858996   4.195078
    14  H    4.510275   4.664028   4.309101   2.452418   2.723674
    15  H    3.616016   3.283680   3.102534   3.060760   2.451195
    16  H    1.100571   2.117960   2.694579   4.627360   4.853849
    17  H    2.196153   1.097491   2.197031   5.474983   4.889588
    18  H    2.895733   2.164085   1.096354   4.128921   3.469654
    19  O    3.588787   2.403987   1.428585   3.913902   2.554370
    20  H    4.292893   3.253115   1.963527   3.778543   2.257184
    21  O    2.437675   1.429976   2.456261   4.839447   4.142027
    22  H    3.179822   1.938171   2.395299   4.788797   3.760179
    23  C    1.522895   2.589276   3.810567   5.339709   5.590754
    24  H    2.154896   3.514829   4.518542   5.408000   5.988543
    25  H    2.178477   2.818292   4.103242   5.499444   5.612661
    26  O    2.377189   3.029600   4.409260   6.545646   6.639135
    27  H    3.212477   3.833265   5.275332   7.273997   7.395163
                   11         12         13         14         15
    11  H    0.000000
    12  H    3.689485   0.000000
    13  H    4.144392   1.757746   0.000000
    14  H    4.188242   2.387075   2.751439   0.000000
    15  H    3.864914   3.036592   2.399873   1.773248   0.000000
    16  H    2.846901   4.020416   3.641626   5.371156   4.571266
    17  H    3.902654   5.253300   4.220004   5.755127   4.314854
    18  H    2.257712   5.125409   4.785445   5.290760   4.181850
    19  O    3.233017   5.010126   4.390625   4.309781   2.882207
    20  H    3.229616   5.421274   5.063143   4.528129   3.358081
    21  O    4.202229   4.270937   2.874878   4.281016   2.668663
    22  H    4.322526   4.716217   3.459873   4.233695   2.482539
    23  C    4.354904   3.597024   2.579313   5.123242   4.320079
    24  H    4.572240   3.319825   2.737008   5.261131   4.816119
    25  H    4.901309   3.553596   2.115003   4.785617   3.907360
    26  O    5.191882   5.017974   3.958766   6.469941   5.474904
    27  H    6.082473   5.459113   4.296603   6.953420   5.996798
                   16         17         18         19         20
    16  H    0.000000
    17  H    2.371789   0.000000
    18  H    2.775667   2.349971   0.000000
    19  O    4.063579   2.941574   2.067335   0.000000
    20  H    4.648396   3.752742   2.296282   0.970962   0.000000
    21  O    3.334457   2.073012   3.328979   2.603917   3.560004
    22  H    4.003528   2.507723   3.282577   1.994000   2.928885
    23  C    2.108802   2.988507   4.346555   4.836349   5.639740
    24  H    2.508889   3.978413   5.020085   5.632468   6.356786
    25  H    3.038552   3.325995   4.830074   4.859905   5.725211
    26  O    2.472705   2.889295   4.694755   5.432689   6.268452
    27  H    3.408155   3.697610   5.625359   6.208753   7.082946
                   21         22         23         24         25
    21  O    0.000000
    22  H    0.974625   0.000000
    23  C    2.920540   3.864057   0.000000
    24  H    3.894977   4.806464   1.099351   0.000000
    25  H    2.576773   3.520269   1.095192   1.775612   0.000000
    26  O    3.496309   4.426603   1.433916   2.094342   2.080477
    27  H    4.032250   4.982502   1.952311   2.396057   2.242144
                   26         27
    26  O    0.000000
    27  H    0.970738   0.000000
 Stoichiometry    C8H15NO3
 Framework group  C1[X(C8H15NO3)]
 Deg. of freedom    75
 Full point group                 C1      NOp   1
 Largest Abelian subgroup         C1      NOp   1
 Largest concise Abelian subgroup C1      NOp   1
                         Standard orientation:                         
 ---------------------------------------------------------------------
 Center     Atomic      Atomic             Coordinates (Angstroms)
 Number     Number       Type             X           Y           Z
 ---------------------------------------------------------------------
      1          6           0        2.394587   -0.735659   -0.347555
      2          6           0        1.185781   -0.133349   -1.072090
      3          7           0        0.034267   -1.029299   -0.738588
      4          6           0        0.425554   -1.846384    0.451753
      5          6           0        1.784916   -1.321564    0.933017
      6          6           0       -1.128222   -0.123953   -0.606651
      7          6           0       -0.611635    1.180583    0.015922
      8          6           0        0.772479    1.324319   -0.652446
      9          1           0        2.824826   -1.533470   -0.964536
     10          1           0        3.183981   -0.002386   -0.158492
     11          1           0        1.345790   -0.129874   -2.156169
     12          1           0        0.519328   -2.895662    0.141585
     13          1           0       -0.331458   -1.816546    1.237643
     14          1           0        2.400727   -2.107822    1.381655
     15          1           0        1.646528   -0.530213    1.676173
     16          1           0       -1.439414    0.135668   -1.629888
     17          1           0       -1.261172    2.033559   -0.218640
     18          1           0        0.669677    1.938559   -1.554739
     19          8           0        1.639038    1.986034    0.270627
     20          1           0        2.489588    2.145304   -0.169787
     21          8           0       -0.492559    1.047045    1.434661
     22          1           0        0.300411    1.555668    1.684451
     23          6           0       -2.354429   -0.733869    0.059402
     24          1           0       -2.546583   -1.728530   -0.367563
     25          1           0       -2.210415   -0.850635    1.138787
     26          8           0       -3.453269    0.151489   -0.195172
     27          1           0       -4.191546   -0.145823    0.360602
 ---------------------------------------------------------------------
 Rotational constants (GHZ):      1.4518087      0.8059253      0.6542181
 Standard basis: 6-31+G(d,p) (6D, 7F)
 There are   303 symmetry adapted basis functions of A   symmetry.
 Integral buffers will be    131072 words long.
 Raffenetti 2 integral format.
 Two-electron integral symmetry is turned on.
   303 basis functions,   489 primitive gaussians,   303 cartesian basis functions
    47 alpha electrons       47 beta electrons
       nuclear repulsion energy       818.2849820820 Hartrees.
 NAtoms=   27 NActive=   27 NUniq=   27 SFac= 1.00D+00 NAtFMM=   60 NAOKFM=F Big=F
 ------------------------------------------------------------------------------
 Polarizable Continuum Model (PCM)
 =================================
 Model                : PCM.
 Atomic radii         : UFF (Universal Force Field).
 Polarization charges : Total charges.
 Charge compensation  : None.
 Solution method      : Matrix inversion.
 Cavity type          : Scaled VdW (van der Waals Surface) (Alpha=1.100).
 Cavity algorithm     : GePol (No added spheres)
                        Default sphere list used, NSphG=   27.
                        Lebedev-Laikov grids with approx.  5.0 points / Ang**2.
                        Smoothing algorithm: Karplus/York (Gamma=1.0000).
                        Polarization charges: spherical gaussians, with
                                              point-specific exponents (IZeta= 3).
                        Self-potential: point-specific (ISelfS= 7).
                        Self-field    : sphere-specific E.n sum rule (ISelfD= 2).
 Solvent              : Water, Eps=  78.355300 Eps(inf)=   1.777849
 ------------------------------------------------------------------------------
 One-electron integrals computed using PRISM.
 NBasis=   303 RedAO= T  NBF=   303
 NBsUse=   303 1.00D-06 NBFU=   303
 Harris functional with IExCor=  908 diagonalized for initial guess.
 ExpMin= 4.38D-02 ExpMax= 5.48D+03 ExpMxC= 8.25D+02 IAcc=2 IRadAn=         4 AccDes= 0.00D+00
 HarFok:  IExCor=  908 AccDes= 0.00D+00 IRadAn=         4 IDoV= 1
 ScaDFX=  1.000000  1.000000  1.000000  1.000000
 FoFCou: FMM=F IPFlag=           0 FMFlag=      100000 FMFlg1=           0
         NFxFlg=           0 DoJE=T BraDBF=F KetDBF=T FulRan=T
         Omega=  0.000000  0.000000  1.000000  0.000000  0.000000 ICntrl=     500 IOpCl=  0
         NMat0=    1 NMatS0=    1 NMatT0=    0 NMatD0=    1 NMtDS0=    0 NMtDT0=    0
         I1Cent=           4 NGrid=           0.
 Petite list used in FoFCou.
 Initial guess orbital symmetries:
       Occupied  (A) (A) (A) (A) (A) (A) (A) (A) (A) (A) (A) (A)
                 (A) (A) (A) (A) (A) (A) (A) (A) (A) (A) (A) (A)
                 (A) (A) (A) (A) (A) (A) (A) (A) (A) (A) (A) (A)
                 (A) (A) (A) (A) (A) (A) (A) (A) (A) (A) (A)
       Virtual   (A) (A) (A) (A) (A) (A) (A) (A) (A) (A) (A) (A)
                 (A) (A) (A) (A) (A) (A) (A) (A) (A) (A) (A) (A)
                 (A) (A) (A) (A) (A) (A) (A) (A) (A) (A) (A) (A)
                 (A) (A) (A) (A) (A) (A) (A) (A) (A) (A) (A) (A)
                 (A) (A) (A) (A) (A) (A) (A) (A) (A) (A) (A) (A)
                 (A) (A) (A) (A) (A) (A) (A) (A) (A) (A) (A) (A)
                 (A) (A) (A) (A) (A) (A) (A) (A) (A) (A) (A) (A)
                 (A) (A) (A) (A) (A) (A) (A) (A) (A) (A) (A) (A)
                 (A) (A) (A) (A) (A) (A) (A) (A) (A) (A) (A) (A)
                 (A) (A) (A) (A) (A) (A) (A) (A) (A) (A) (A) (A)
                 (A) (A) (A) (A) (A) (A) (A) (A) (A) (A) (A) (A)
                 (A) (A) (A) (A) (A) (A) (A) (A) (A) (A) (A) (A)
                 (A) (A) (A) (A) (A) (A) (A) (A) (A) (A) (A) (A)
                 (A) (A) (A) (A) (A) (A) (A) (A) (A) (A) (A) (A)
                 (A) (A) (A) (A) (A) (A) (A) (A) (A) (A) (A) (A)
                 (A) (A) (A) (A) (A) (A) (A) (A) (A) (A) (A) (A)
                 (A) (A) (A) (A) (A) (A) (A) (A) (A) (A) (A) (A)
                 (A) (A) (A) (A) (A) (A) (A) (A) (A) (A) (A) (A)
                 (A) (A) (A) (A) (A) (A) (A) (A) (A) (A) (A) (A)
                 (A) (A) (A) (A) (A) (A) (A) (A) (A) (A) (A) (A)
                 (A) (A) (A) (A) (A) (A) (A) (A) (A) (A) (A) (A)
                 (A) (A) (A) (A)
 The electronic state of the initial guess is 1-A.
 Requested convergence on RMS density matrix=1.00D-08 within 128 cycles.
 Requested convergence on MAX density matrix=1.00D-06.
 Requested convergence on             energy=1.00D-06.
 No special actions if energy rises.
 Error on total polarization charges =  0.01419
 SCF Done:  E(RmPW1PW91) =  -594.187873560     A.U. after   13 cycles
             Convg  =    0.7107D-08             -V/T =  2.0094
 Range of M.O.s used for correlation:     1   303
 NBasis=   303 NAE=    47 NBE=    47 NFC=     0 NFV=     0
 NROrb=    303 NOA=    47 NOB=    47 NVA=   256 NVB=   256

 **** Warning!!: The largest alpha MO coefficient is  0.87710112D+02

 NEqPCM:  Using equilibrium solvation (IEInf=0, Eps=  78.3553, EpsInf=   1.7778)
          Differentiating once with respect to magnetic field using GIAOs.
          Electric field/nuclear overlap derivatives assumed to be zero.
 FoFCou: FMM=F IPFlag=           0 FMFlag=    10101102 FMFlg1=           0
         NFxFlg=    40000000 DoJE=F BraDBF=F KetDBF=T FulRan=T
         Omega=  0.000000  0.000000  1.000000  0.000000  0.000000 ICntrl=    6100 IOpCl=  0
         NMat0=    1 NMatS0=    1 NMatT0=    0 NMatD0=    1 NMtDS0=    0 NMtDT0=    0
         I1Cent=           7 NGrid=        1789.
 Symmetry not used in FoFCou.
          There are     3 degrees of freedom in the 1st order CPHF.  IDoFFX=0.
      3 vectors produced by pass  0 Test12= 4.01D-13 3.33D-08 XBig12= 3.28D+01 9.61D-01.
 AX will form     3 AO Fock derivatives at one time.
      3 vectors produced by pass  1 Test12= 4.01D-13 3.33D-08 XBig12= 9.16D-02 5.54D-02.
      3 vectors produced by pass  2 Test12= 4.01D-13 3.33D-08 XBig12= 2.13D-04 3.22D-03.
      3 vectors produced by pass  3 Test12= 4.01D-13 3.33D-08 XBig12= 1.00D-06 2.17D-04.
      3 vectors produced by pass  4 Test12= 4.01D-13 3.33D-08 XBig12= 3.60D-09 1.51D-05.
      3 vectors produced by pass  5 Test12= 4.01D-13 3.33D-08 XBig12= 1.36D-11 1.03D-06.
      1 vectors produced by pass  6 Test12= 4.01D-13 3.33D-08 XBig12= 4.95D-14 5.82D-08.
 Inverted reduced A of dimension    19 with in-core refinement.
 Calculating GIAO nuclear magnetic shielding tensors.
 SCF GIAO Magnetic shielding tensor (ppm):
      1  C    Isotropic =   167.5964   Anisotropy =    23.3713
   XX=   175.0013   YX=     4.2280   ZX=     1.1585
   XY=    -4.5664   YY=   156.8745   ZY=   -16.0935
   XZ=    -3.9010   YZ=   -19.5432   ZZ=   170.9134
   Eigenvalues:   144.7153   174.8966   183.1772
      2  C    Isotropic =   126.3775   Anisotropy =    50.6646
   XX=   144.6276   YX=    17.5908   ZX=     0.3420
   XY=    19.6718   YY=   136.5994   ZY=   -12.1822
   XZ=    -2.9056   YZ=    -1.9927   ZZ=    97.9056
   Eigenvalues:    96.5483   122.4303   160.1539
      3  N    Isotropic =   189.4935   Anisotropy =    98.3291
   XX=   248.1011   YX=     7.8493   ZX=   -16.0545
   XY=    23.3858   YY=   166.8458   ZY=   -21.7345
   XZ=   -13.3423   YZ=   -34.4257   ZZ=   153.5335
   Eigenvalues:   131.3003   182.1340   255.0462
      4  C    Isotropic =   146.1876   Anisotropy =    52.7335
   XX=   139.9429   YX=    -2.0047   ZX=    15.7637
   XY=     3.6246   YY=   144.2805   ZY=   -27.3803
   XZ=    22.4471   YZ=   -25.2816   ZZ=   154.3394
   Eigenvalues:   114.9498   142.2698   181.3433
      5  C    Isotropic =   167.7438   Anisotropy =    19.2869
   XX=   175.6957   YX=     7.9507   ZX=     4.0094
   XY=     9.0524   YY=   158.0358   ZY=   -12.1868
   XZ=     9.6239   YZ=   -18.5857   ZZ=   169.5001
   Eigenvalues:   143.6580   178.9718   180.6018
      6  C    Isotropic =   128.9112   Anisotropy =    44.6805
   XX=   152.4732   YX=   -14.1086   ZX=   -11.6954
   XY=    -9.2112   YY=   133.8815   ZY=     3.6162
   XZ=     5.4734   YZ=    10.7263   ZZ=   100.3788
   Eigenvalues:    98.8983   129.1370   158.6982
      7  C    Isotropic =   122.9674   Anisotropy =    32.1141
   XX=   111.1839   YX=     4.3792   ZX=     7.8787
   XY=     3.0935   YY=   114.1785   ZY=     4.6489
   XZ=    -6.2521   YZ=     5.0326   ZZ=   143.5399
   Eigenvalues:   108.5283   115.9972   144.3768
      8  C    Isotropic =   119.3296   Anisotropy =    43.0181
   XX=   132.2091   YX=     9.7039   ZX=    11.1372
   XY=     8.6232   YY=   125.9415   ZY=    20.7463
   XZ=     9.3972   YZ=    20.0761   ZZ=    99.8380
   Eigenvalues:    88.1406   121.8398   148.0083
      9  H    Isotropic =    29.7914   Anisotropy =    12.4521
   XX=    30.8703   YX=    -4.8796   ZX=    -3.9024
   XY=    -5.7440   YY=    28.9965   ZY=     2.7742
   XZ=    -4.0615   YZ=     2.8862   ZZ=    29.5076
   Eigenvalues:    24.4856    26.7959    38.0928
     10  H    Isotropic =    29.8132   Anisotropy =     9.1251
   XX=    34.6690   YX=     2.6877   ZX=    -0.1175
   XY=     2.7844   YY=    29.6887   ZY=    -0.1996
   XZ=    -0.7256   YZ=    -0.0857   ZZ=    25.0818
   Eigenvalues:    25.0631    28.4798    35.8966
     11  H    Isotropic =    28.0929   Anisotropy =     9.4258
   XX=    25.0758   YX=     0.5111   ZX=    -2.4784
   XY=    -0.2092   YY=    25.4910   ZY=    -0.3936
   XZ=    -2.4407   YZ=    -0.2403   ZZ=    33.7121
   Eigenvalues:    24.4205    25.4815    34.3768
     12  H    Isotropic =    28.8897   Anisotropy =    11.9685
   XX=    25.2673   YX=    -0.7333   ZX=     1.9364
   XY=     0.1977   YY=    36.7994   ZY=    -0.2368
   XZ=     2.4394   YZ=    -1.3915   ZZ=    24.6024
   Eigenvalues:    22.7078    27.0926    36.8687
     13  H    Isotropic =    28.6112   Anisotropy =     6.3864
   XX=    30.0552   YX=    -0.2677   ZX=    -1.1209
   XY=    -0.2960   YY=    27.4185   ZY=    -4.6438
   XZ=    -2.9943   YZ=    -3.8402   ZZ=    28.3600
   Eigenvalues:    23.2424    29.7224    32.8688
     14  H    Isotropic =    30.0482   Anisotropy =    12.4662
   XX=    30.2156   YX=    -3.7855   ZX=     3.1332
   XY=    -4.1887   YY=    30.5584   ZY=    -4.7247
   XZ=     4.0077   YZ=    -4.9569   ZZ=    29.3705
   Eigenvalues:    25.0869    26.6986    38.3590
     15  H    Isotropic =    29.6713   Anisotropy =     6.6263
   XX=    27.3961   YX=    -0.9596   ZX=     0.3596
   XY=    -0.9902   YY=    28.9549   ZY=     2.9775
   XZ=     1.0605   YZ=     2.4224   ZZ=    32.6630
   Eigenvalues:    26.2674    28.6577    34.0888
     16  H    Isotropic =    28.5761   Anisotropy =     8.2936
   XX=    30.3075   YX=    -0.7780   ZX=     3.2683
   XY=    -1.8104   YY=    24.9842   ZY=    -1.2137
   XZ=     3.9472   YZ=     0.7794   ZZ=    30.4368
   Eigenvalues:    24.5905    27.0327    34.1052
     17  H    Isotropic =    27.3451   Anisotropy =     8.0888
   XX=    27.1624   YX=    -3.6039   ZX=     0.9366
   XY=    -3.2258   YY=    28.8656   ZY=    -1.8277
   XZ=     2.4661   YZ=    -2.7390   ZZ=    26.0074
   Eigenvalues:    24.4833    24.8145    32.7377
     18  H    Isotropic =    27.3290   Anisotropy =     7.4394
   XX=    23.9907   YX=    -0.0164   ZX=     2.5213
   XY=     0.9856   YY=    28.8254   ZY=    -2.6506
   XZ=     0.3331   YZ=    -3.7980   ZZ=    29.1709
   Eigenvalues:    23.2343    26.4641    32.2886
     19  O    Isotropic =   308.4870   Anisotropy =    57.1284
   XX=   327.8657   YX=     3.3757   ZX=   -15.1803
   XY=     9.8524   YY=   303.2203   ZY=    -4.0427
   XZ=   -44.5783   YZ=    -1.9191   ZZ=   294.3750
   Eigenvalues:   276.8454   302.0430   346.5726
     20  H    Isotropic =    29.7839   Anisotropy =    20.1952
   XX=    38.8104   YX=     6.5098   ZX=    -5.7269
   XY=     7.1220   YY=    25.9864   ZY=     0.7926
   XZ=    -5.7753   YZ=    -0.5951   ZZ=    24.5549
   Eigenvalues:    20.7689    25.3353    43.2474
     21  O    Isotropic =   323.4569   Anisotropy =    35.6515
   XX=   334.0337   YX=    15.4804   ZX=    22.5882
   XY=     8.3327   YY=   330.0672   ZY=   -16.0025
   XZ=     8.5760   YZ=    11.9169   ZZ=   306.2697
   Eigenvalues:   297.7692   325.3769   347.2246
     22  H    Isotropic =    28.8497   Anisotropy =    17.4118
   XX=    33.8802   YX=     9.2806   ZX=     1.2224
   XY=     8.6693   YY=    24.0452   ZY=     4.8462
   XZ=     2.2517   YZ=     4.1812   ZZ=    28.6236
   Eigenvalues:    17.8397    28.2518    40.4575
     23  C    Isotropic =   135.1018   Anisotropy =    68.2001
   XX=   159.8982   YX=   -29.3217   ZX=     8.1703
   XY=   -28.1193   YY=   136.7608   ZY=    -5.9520
   XZ=     7.7855   YZ=    -4.6564   ZZ=   108.6463
   Eigenvalues:   107.3698   117.3671   180.5685
     24  H    Isotropic =    27.5485   Anisotropy =     5.4730
   XX=    29.6393   YX=    -0.9251   ZX=    -0.0752
   XY=     1.1329   YY=    30.9221   ZY=     1.9187
   XZ=     1.3975   YZ=     1.0711   ZZ=    22.0842
   Eigenvalues:    21.7867    29.6617    31.1972
     25  H    Isotropic =    27.1764   Anisotropy =     4.6254
   XX=    29.8987   YX=    -0.5600   ZX=     1.3881
   XY=    -1.0340   YY=    24.7309   ZY=    -2.9681
   XZ=    -0.6502   YZ=    -2.1125   ZZ=    26.8995
   Eigenvalues:    23.0217    28.2474    30.2600
     26  O    Isotropic =   316.0862   Anisotropy =    93.6662
   XX=   359.0523   YX=     4.2467   ZX=   -28.3297
   XY=    21.6771   YY=   283.9435   ZY=   -13.1101
   XZ=   -39.1477   YZ=   -13.3896   ZZ=   305.2628
   Eigenvalues:   277.4075   292.3208   378.5304
     27  H    Isotropic =    30.2203   Anisotropy =    21.3093
   XX=    39.8674   YX=     2.4360   ZX=    -9.1233
   XY=     0.2539   YY=    24.2355   ZY=    -3.5351
   XZ=    -7.8687   YZ=    -4.1479   ZZ=    26.5580
   Eigenvalues:    20.1957    26.0387    44.4265
 End of Minotr Frequency-dependent properties file   721 does not exist.
 End of Minotr Frequency-dependent properties file   722 does not exist.

 **********************************************************************

            Population analysis using the SCF density.

 **********************************************************************

 Orbital symmetries:
       Occupied  (A) (A) (A) (A) (A) (A) (A) (A) (A) (A) (A) (A)
                 (A) (A) (A) (A) (A) (A) (A) (A) (A) (A) (A) (A)
                 (A) (A) (A) (A) (A) (A) (A) (A) (A) (A) (A) (A)
                 (A) (A) (A) (A) (A) (A) (A) (A) (A) (A) (A)
       Virtual   (A) (A) (A) (A) (A) (A) (A) (A) (A) (A) (A) (A)
                 (A) (A) (A) (A) (A) (A) (A) (A) (A) (A) (A) (A)
                 (A) (A) (A) (A) (A) (A) (A) (A) (A) (A) (A) (A)
                 (A) (A) (A) (A) (A) (A) (A) (A) (A) (A) (A) (A)
                 (A) (A) (A) (A) (A) (A) (A) (A) (A) (A) (A) (A)
                 (A) (A) (A) (A) (A) (A) (A) (A) (A) (A) (A) (A)
                 (A) (A) (A) (A) (A) (A) (A) (A) (A) (A) (A) (A)
                 (A) (A) (A) (A) (A) (A) (A) (A) (A) (A) (A) (A)
                 (A) (A) (A) (A) (A) (A) (A) (A) (A) (A) (A) (A)
                 (A) (A) (A) (A) (A) (A) (A) (A) (A) (A) (A) (A)
                 (A) (A) (A) (A) (A) (A) (A) (A) (A) (A) (A) (A)
                 (A) (A) (A) (A) (A) (A) (A) (A) (A) (A) (A) (A)
                 (A) (A) (A) (A) (A) (A) (A) (A) (A) (A) (A) (A)
                 (A) (A) (A) (A) (A) (A) (A) (A) (A) (A) (A) (A)
                 (A) (A) (A) (A) (A) (A) (A) (A) (A) (A) (A) (A)
                 (A) (A) (A) (A) (A) (A) (A) (A) (A) (A) (A) (A)
                 (A) (A) (A) (A) (A) (A) (A) (A) (A) (A) (A) (A)
                 (A) (A) (A) (A) (A) (A) (A) (A) (A) (A) (A) (A)
                 (A) (A) (A) (A) (A) (A) (A) (A) (A) (A) (A) (A)
                 (A) (A) (A) (A) (A) (A) (A) (A) (A) (A) (A) (A)
                 (A) (A) (A) (A) (A) (A) (A) (A) (A) (A) (A) (A)
                 (A) (A) (A) (A)
 The electronic state is 1-A.
 Alpha  occ. eigenvalues --  -19.26767 -19.25638 -19.24854 -14.41045 -10.30550
 Alpha  occ. eigenvalues --  -10.29833 -10.29724 -10.27949 -10.27586 -10.26450
 Alpha  occ. eigenvalues --  -10.24577 -10.23988  -1.07986  -1.05772  -1.04496
 Alpha  occ. eigenvalues --   -0.95918  -0.82478  -0.78518  -0.75220  -0.71940
 Alpha  occ. eigenvalues --   -0.66500  -0.61780  -0.59363  -0.57642  -0.55333
 Alpha  occ. eigenvalues --   -0.53341  -0.51858  -0.50845  -0.48469  -0.47896
 Alpha  occ. eigenvalues --   -0.46992  -0.44032  -0.43404  -0.40863  -0.40210
 Alpha  occ. eigenvalues --   -0.39610  -0.38545  -0.36798  -0.35983  -0.35333
 Alpha  occ. eigenvalues --   -0.34966  -0.34079  -0.32859  -0.31381  -0.29891
 Alpha  occ. eigenvalues --   -0.28578  -0.22710
 Alpha virt. eigenvalues --   -0.00163   0.01255   0.01949   0.02230   0.03526
 Alpha virt. eigenvalues --    0.04043   0.04926   0.05218   0.05312   0.06949
 Alpha virt. eigenvalues --    0.07773   0.08383   0.08689   0.09111   0.10068
 Alpha virt. eigenvalues --    0.10503   0.11130   0.11590   0.12664   0.12882
 Alpha virt. eigenvalues --    0.13390   0.14497   0.14592   0.14973   0.15537
 Alpha virt. eigenvalues --    0.15967   0.17240   0.17562   0.17660   0.17986
 Alpha virt. eigenvalues --    0.19257   0.19615   0.20092   0.20240   0.21146
 Alpha virt. eigenvalues --    0.21562   0.21885   0.22398   0.22667   0.23028
 Alpha virt. eigenvalues --    0.24083   0.24224   0.24850   0.25198   0.25584
 Alpha virt. eigenvalues --    0.26472   0.26731   0.27644   0.28185   0.29299
 Alpha virt. eigenvalues --    0.29810   0.30186   0.30652   0.31315   0.31632
 Alpha virt. eigenvalues --    0.32416   0.32944   0.33846   0.34147   0.35859
 Alpha virt. eigenvalues --    0.36384   0.37640   0.38063   0.39134   0.39430
 Alpha virt. eigenvalues --    0.39698   0.40363   0.41628   0.42063   0.42520
 Alpha virt. eigenvalues --    0.42707   0.44042   0.44795   0.46017   0.46816
 Alpha virt. eigenvalues --    0.50131   0.66324   0.66522   0.67259   0.69162
 Alpha virt. eigenvalues --    0.69605   0.70071   0.72594   0.73266   0.74189
 Alpha virt. eigenvalues --    0.76445   0.77679   0.78416   0.81327   0.82367
 Alpha virt. eigenvalues --    0.84045   0.84904   0.87050   0.87324   0.87882
 Alpha virt. eigenvalues --    0.89987   0.91749   0.93932   0.95259   0.96932
 Alpha virt. eigenvalues --    0.98519   0.99834   1.02787   1.03959   1.05187
 Alpha virt. eigenvalues --    1.06146   1.07370   1.07762   1.08647   1.08934
 Alpha virt. eigenvalues --    1.10252   1.13221   1.13498   1.16367   1.16996
 Alpha virt. eigenvalues --    1.18098   1.19734   1.20241   1.23538   1.26094
 Alpha virt. eigenvalues --    1.27253   1.28743   1.30969   1.32684   1.33020
 Alpha virt. eigenvalues --    1.34435   1.36197   1.37505   1.39083   1.40399
 Alpha virt. eigenvalues --    1.42120   1.47212   1.49360   1.50490   1.52864
 Alpha virt. eigenvalues --    1.54801   1.57781   1.59158   1.60768   1.61743
 Alpha virt. eigenvalues --    1.63136   1.64674   1.67308   1.68796   1.69420
 Alpha virt. eigenvalues --    1.71473   1.74475   1.76059   1.78330   1.80112
 Alpha virt. eigenvalues --    1.81528   1.83671   1.85050   1.86533   1.87130
 Alpha virt. eigenvalues --    1.88270   1.89258   1.91105   1.93574   1.95299
 Alpha virt. eigenvalues --    1.96594   1.98883   2.00376   2.02902   2.03858
 Alpha virt. eigenvalues --    2.04563   2.06349   2.07300   2.09745   2.11135
 Alpha virt. eigenvalues --    2.12001   2.15432   2.16607   2.18838   2.19739
 Alpha virt. eigenvalues --    2.21060   2.23110   2.25765   2.28540   2.30023
 Alpha virt. eigenvalues --    2.31851   2.34928   2.36904   2.39314   2.41257
 Alpha virt. eigenvalues --    2.43453   2.43917   2.44113   2.46554   2.49222
 Alpha virt. eigenvalues --    2.49862   2.51242   2.53322   2.54906   2.56165
 Alpha virt. eigenvalues --    2.57224   2.60272   2.62152   2.63675   2.64094
 Alpha virt. eigenvalues --    2.65471   2.66219   2.67084   2.67644   2.69606
 Alpha virt. eigenvalues --    2.70077   2.71636   2.73508   2.75091   2.76601
 Alpha virt. eigenvalues --    2.78419   2.80195   2.82552   2.83125   2.84157
 Alpha virt. eigenvalues --    2.87799   2.88782   2.89880   2.91827   2.94956
 Alpha virt. eigenvalues --    2.96955   2.98503   3.00165   3.03240   3.04023
 Alpha virt. eigenvalues --    3.06158   3.10308   3.13527   3.16162   3.33558
 Alpha virt. eigenvalues --    3.36168   3.37301   3.40700   3.42086   3.44954
 Alpha virt. eigenvalues --    3.46013   3.51264   3.53645   3.54385   3.56158
 Alpha virt. eigenvalues --    3.56358   3.57485   3.60212   3.62167   4.30107
 Alpha virt. eigenvalues --    4.38562   4.41315   4.45418   4.55738   4.57398
 Alpha virt. eigenvalues --    4.61519   4.70293   4.77804   4.81877   4.93303
 Alpha virt. eigenvalues --    5.03838
          Condensed to atoms (all electrons):
              1          2          3          4          5          6
     1  C    6.068452  -0.349803  -0.035496  -0.005111   0.088059   0.146922
     2  C   -0.349803   7.987734  -0.382310  -0.195234   0.024211  -0.111090
     3  N   -0.035496  -0.382310   7.589240   0.235147  -0.168486  -0.809950
     4  C   -0.005111  -0.195234   0.235147   5.760083  -0.013865  -0.578285
     5  C    0.088059   0.024211  -0.168486  -0.013865   5.615339   0.251942
     6  C    0.146922  -0.111090  -0.809950  -0.578285   0.251942  12.627486
     7  C    0.103799   0.316310   0.012642   0.337667  -0.298761  -2.324561
     8  C   -0.130593  -0.766716   0.174646  -0.027321   0.117861  -0.061848
     9  H    0.393389  -0.058703   0.009256  -0.003248  -0.031406   0.003445
    10  H    0.400968  -0.089712   0.012109   0.037251  -0.048289   0.004199
    11  H   -0.002483   0.220466  -0.010424   0.001890   0.016028   0.002304
    12  H   -0.007351  -0.030509  -0.029432   0.395057  -0.026906  -0.012173
    13  H    0.044584   0.007278  -0.070902   0.386040  -0.038772   0.063347
    14  H   -0.000904   0.004235   0.015572  -0.014122   0.333612  -0.007601
    15  H   -0.078113   0.003197   0.018566  -0.077613   0.456539  -0.007206
    16  H   -0.002841  -0.025618   0.015182   0.021224  -0.004038   0.076699
    17  H   -0.009237   0.015554   0.035787  -0.002070   0.003856  -0.210228
    18  H    0.015902  -0.039599   0.021796   0.004335  -0.008541  -0.062690
    19  O    0.065449  -0.214815   0.055086   0.012858  -0.044565   0.015080
    20  H    0.007680  -0.056948   0.000759   0.001949  -0.005515   0.004350
    21  O   -0.044775   0.048744   0.125858   0.022145   0.007580  -0.614462
    22  H    0.003184   0.003289  -0.013952  -0.011104   0.003106   0.121340
    23  C   -0.137561  -0.399545   0.305481  -0.078256   0.041835  -2.060926
    24  H   -0.004098  -0.003564  -0.006362  -0.003797   0.006732  -0.071264
    25  H    0.001547   0.009369   0.015530   0.008954  -0.009501  -0.144219
    26  O   -0.002940   0.007554   0.024170   0.005764   0.002153   0.007805
    27  H   -0.000029  -0.001836  -0.001208  -0.000607   0.000283   0.019491
              7          8          9         10         11         12
     1  C    0.103799  -0.130593   0.393389   0.400968  -0.002483  -0.007351
     2  C    0.316310  -0.766716  -0.058703  -0.089712   0.220466  -0.030509
     3  N    0.012642   0.174646   0.009256   0.012109  -0.010424  -0.029432
     4  C    0.337667  -0.027321  -0.003248   0.037251   0.001890   0.395057
     5  C   -0.298761   0.117861  -0.031406  -0.048289   0.016028  -0.026906
     6  C   -2.324561  -0.061848   0.003445   0.004199   0.002304  -0.012173
     7  C    7.460224  -0.421027  -0.008645  -0.013750   0.002306  -0.009936
     8  C   -0.421027   6.269835   0.026503   0.026665   0.031720   0.012348
     9  H   -0.008645   0.026503   0.522341  -0.024577  -0.006235   0.001222
    10  H   -0.013750   0.026665  -0.024577   0.533394   0.001582  -0.000086
    11  H    0.002306   0.031720  -0.006235   0.001582   0.564188   0.000399
    12  H   -0.009936   0.012348   0.001222  -0.000086   0.000399   0.567914
    13  H    0.001874  -0.019126  -0.000115  -0.000145  -0.000213  -0.037057
    14  H    0.004044  -0.001368  -0.005087   0.000464  -0.000092  -0.004235
    15  H    0.002998   0.007100   0.004103  -0.005177  -0.000023   0.004291
    16  H    0.036328   0.001743   0.000006   0.000000   0.002565   0.000119
    17  H    0.447047   0.010511   0.000003  -0.000005  -0.000054   0.000009
    18  H    0.051058   0.328296  -0.000051   0.000123  -0.006728   0.000004
    19  O   -0.097241   0.269996   0.000586   0.002577   0.005932   0.000290
    20  H    0.003297   0.046656  -0.000090   0.002785   0.000622   0.000000
    21  O    0.418460  -0.030982   0.000204   0.000000  -0.000084   0.001224
    22  H   -0.079620  -0.023743  -0.000001  -0.000035  -0.000054  -0.000013
    23  C   -0.130648   0.253406  -0.000710  -0.000151   0.010681   0.020038
    24  H   -0.012378   0.005580  -0.000001   0.000000  -0.000012  -0.000458
    25  H    0.040079  -0.007406   0.000000   0.000000   0.000000   0.000186
    26  O    0.010896   0.032125  -0.000001  -0.000002   0.000070  -0.000047
    27  H   -0.014329  -0.001397   0.000000   0.000000   0.000000   0.000000
             13         14         15         16         17         18
     1  C    0.044584  -0.000904  -0.078113  -0.002841  -0.009237   0.015902
     2  C    0.007278   0.004235   0.003197  -0.025618   0.015554  -0.039599
     3  N   -0.070902   0.015572   0.018566   0.015182   0.035787   0.021796
     4  C    0.386040  -0.014122  -0.077613   0.021224  -0.002070   0.004335
     5  C   -0.038772   0.333612   0.456539  -0.004038   0.003856  -0.008541
     6  C    0.063347  -0.007601  -0.007206   0.076699  -0.210228  -0.062690
     7  C    0.001874   0.004044   0.002998   0.036328   0.447047   0.051058
     8  C   -0.019126  -0.001368   0.007100   0.001743   0.010511   0.328296
     9  H   -0.000115  -0.005087   0.004103   0.000006   0.000003  -0.000051
    10  H   -0.000145   0.000464  -0.005177   0.000000  -0.000005   0.000123
    11  H   -0.000213  -0.000092  -0.000023   0.002565  -0.000054  -0.006728
    12  H   -0.037057  -0.004235   0.004291   0.000119   0.000009   0.000004
    13  H    0.547958   0.001482  -0.007225  -0.000160  -0.000091   0.000012
    14  H    0.001482   0.526698  -0.024258   0.000005   0.000000   0.000004
    15  H   -0.007225  -0.024258   0.513397   0.000011   0.000037   0.000021
    16  H   -0.000160   0.000005   0.000011   0.561824   0.001191   0.001128
    17  H   -0.000091   0.000000   0.000037   0.001191   0.571449  -0.004942
    18  H    0.000012   0.000004   0.000021   0.001128  -0.004942   0.557983
    19  O    0.000225   0.000523   0.003328  -0.000090   0.001264  -0.043740
    20  H   -0.000001  -0.000001  -0.000161   0.000009  -0.000074  -0.004738
    21  O   -0.004174   0.000491   0.001853   0.011957  -0.046777   0.005273
    22  H    0.000181  -0.000001  -0.000128  -0.000318   0.000147   0.000559
    23  C   -0.029025   0.002334   0.004060   0.123395   0.021251   0.011691
    24  H   -0.000313  -0.000001  -0.000004  -0.006503  -0.000045   0.000003
    25  H    0.000609   0.000002   0.000050   0.004994   0.000368  -0.000003
    26  O    0.000182   0.000000  -0.000024   0.007433   0.005376   0.000037
    27  H    0.000005   0.000000   0.000000   0.000115  -0.000018   0.000000
             19         20         21         22         23         24
     1  C    0.065449   0.007680  -0.044775   0.003184  -0.137561  -0.004098
     2  C   -0.214815  -0.056948   0.048744   0.003289  -0.399545  -0.003564
     3  N    0.055086   0.000759   0.125858  -0.013952   0.305481  -0.006362
     4  C    0.012858   0.001949   0.022145  -0.011104  -0.078256  -0.003797
     5  C   -0.044565  -0.005515   0.007580   0.003106   0.041835   0.006732
     6  C    0.015080   0.004350  -0.614462   0.121340  -2.060926  -0.071264
     7  C   -0.097241   0.003297   0.418460  -0.079620  -0.130648  -0.012378
     8  C    0.269996   0.046656  -0.030982  -0.023743   0.253406   0.005580
     9  H    0.000586  -0.000090   0.000204  -0.000001  -0.000710  -0.000001
    10  H    0.002577   0.002785   0.000000  -0.000035  -0.000151   0.000000
    11  H    0.005932   0.000622  -0.000084  -0.000054   0.010681  -0.000012
    12  H    0.000290   0.000000   0.001224  -0.000013   0.020038  -0.000458
    13  H    0.000225  -0.000001  -0.004174   0.000181  -0.029025  -0.000313
    14  H    0.000523  -0.000001   0.000491  -0.000001   0.002334  -0.000001
    15  H    0.003328  -0.000161   0.001853  -0.000128   0.004060  -0.000004
    16  H   -0.000090   0.000009   0.011957  -0.000318   0.123395  -0.006503
    17  H    0.001264  -0.000074  -0.046777   0.000147   0.021251  -0.000045
    18  H   -0.043740  -0.004738   0.005273   0.000559   0.011691   0.000003
    19  O    8.346635   0.247063  -0.017221   0.025170  -0.007624   0.000016
    20  H    0.247063   0.342687   0.001971  -0.000234   0.002391   0.000000
    21  O   -0.017221   0.001971   8.324502   0.246353   0.128065  -0.000521
    22  H    0.025170  -0.000234   0.246353   0.347374  -0.018984  -0.000005
    23  C   -0.007624   0.002391   0.128065  -0.018984   7.124187   0.463194
    24  H    0.000016   0.000000  -0.000521  -0.000005   0.463194   0.566176
    25  H   -0.000010   0.000000   0.008106  -0.000183   0.438882  -0.048252
    26  O   -0.000083   0.000003   0.014219  -0.000583  -0.028348  -0.048271
    27  H   -0.000003   0.000000  -0.000103   0.000001   0.014206  -0.002773
             25         26         27
     1  C    0.001547  -0.002940  -0.000029
     2  C    0.009369   0.007554  -0.001836
     3  N    0.015530   0.024170  -0.001208
     4  C    0.008954   0.005764  -0.000607
     5  C   -0.009501   0.002153   0.000283
     6  C   -0.144219   0.007805   0.019491
     7  C    0.040079   0.010896  -0.014329
     8  C   -0.007406   0.032125  -0.001397
     9  H    0.000000  -0.000001   0.000000
    10  H    0.000000  -0.000002   0.000000
    11  H    0.000000   0.000070   0.000000
    12  H    0.000186  -0.000047   0.000000
    13  H    0.000609   0.000182   0.000005
    14  H    0.000002   0.000000   0.000000
    15  H    0.000050  -0.000024   0.000000
    16  H    0.004994   0.007433   0.000115
    17  H    0.000368   0.005376  -0.000018
    18  H   -0.000003   0.000037   0.000000
    19  O   -0.000010  -0.000083  -0.000003
    20  H    0.000000   0.000003   0.000000
    21  O    0.008106   0.014219  -0.000103
    22  H   -0.000183  -0.000583   0.000001
    23  C    0.438882  -0.028348   0.014206
    24  H   -0.048252  -0.048271  -0.002773
    25  H    0.564831  -0.043016  -0.006537
    26  O   -0.043016   8.353321   0.226696
    27  H   -0.006537   0.226696   0.380051
 Mulliken atomic charges:
              1
     1  C   -0.528600
     2  C    0.078060
     3  N   -0.138305
     4  C   -0.219731
     5  C   -0.270491
     6  C   -0.267906
     7  C    0.161868
     8  C   -0.123463
     9  H    0.177815
    10  H    0.159812
    11  H    0.165649
    12  H    0.155103
    13  H    0.153542
    14  H    0.168203
    15  H    0.180382
    16  H    0.173638
    17  H    0.159691
    18  H    0.172806
    19  O   -0.626687
    20  H    0.405541
    21  O   -0.607906
    22  H    0.398254
    23  C   -0.073321
    24  H    0.166922
    25  H    0.165618
    26  O   -0.574488
    27  H    0.387994
 Sum of Mulliken atomic charges =   0.00000
 Mulliken charges with hydrogens summed into heavy atoms:
              1
     1  C   -0.190974
     2  C    0.243710
     3  N   -0.138305
     4  C    0.088914
     5  C    0.078094
     6  C   -0.094267
     7  C    0.321559
     8  C    0.049343
    19  O   -0.221146
    21  O   -0.209652
    23  C    0.259219
    26  O   -0.186494
 Sum of Mulliken charges with hydrogens summed into heavy atoms =   0.00000
 Electronic spatial extent (au):  <R**2>=           1941.9058
 Charge=              0.0000 electrons
 Dipole moment (field-independent basis, Debye):
    X=              2.6523    Y=             -0.2528    Z=             -0.5735  Tot=              2.7253
 Quadrupole moment (field-independent basis, Debye-Ang):
   XX=            -62.6018   YY=            -72.5129   ZZ=            -74.9841
   XY=              8.1183   XZ=             -6.0779   YZ=             -6.4768
 Traceless Quadrupole moment (field-independent basis, Debye-Ang):
   XX=              7.4311   YY=             -2.4800   ZZ=             -4.9512
   XY=              8.1183   XZ=             -6.0779   YZ=             -6.4768
 Octapole moment (field-independent basis, Debye-Ang**2):
  XXX=            -14.4404  YYY=             10.6733  ZZZ=              2.8672  XYY=              6.4506
  XXY=             -4.9344  XXZ=             16.5924  XZZ=              3.7112  YZZ=              8.3482
  YYZ=              0.6200  XYZ=             -0.6155
 Hexadecapole moment (field-independent basis, Debye-Ang**3):
 XXXX=          -1158.7371 YYYY=           -730.3721 ZZZZ=           -355.5952 XXXY=            117.3488
 XXXZ=           -106.5739 YYYX=             20.1057 YYYZ=            -11.8558 ZZZX=              1.3670
 ZZZY=              0.1596 XXYY=           -322.1214 XXZZ=           -296.0596 YYZZ=           -180.7437
 XXYZ=            -11.7168 YYXZ=             -6.6750 ZZXY=             12.2136
 N-N= 8.182849820820D+02 E-N=-3.023045631048D+03  KE= 5.886542650368D+02
 1\1\GINC-COMPUTE-3-1\SP\RmPW1PW91\6-31+G(d,p)\C8H15N1O3\MAMICHETTI.IQU
 IR\17-May-2024\0\\# mpw1pw91/6-31+G** nmr scrf=(pcm,solvent=water)\\co
 mment\\0,1\C,0,2.394587,-0.735659,-0.347555\C,0,1.185781,-0.133349,-1.
 07209\N,0,0.034267,-1.029299,-0.738588\C,0,0.425554,-1.846384,0.451753
 \C,0,1.784916,-1.321564,0.933017\C,0,-1.128222,-0.123953,-0.606651\C,0
 ,-0.611635,1.180583,0.015922\C,0,0.772479,1.324319,-0.652446\H,0,2.824
 826,-1.53347,-0.964536\H,0,3.183981,-0.002386,-0.158492\H,0,1.34579,-0
 .129874,-2.156169\H,0,0.519328,-2.895662,0.141585\H,0,-0.331458,-1.816
 546,1.237643\H,0,2.400727,-2.107822,1.381655\H,0,1.646528,-0.530213,1.
 676173\H,0,-1.439414,0.135668,-1.629888\H,0,-1.261172,2.033559,-0.2186
 4\H,0,0.669677,1.938559,-1.554739\O,0,1.639038,1.986034,0.270627\H,0,2
 .489588,2.145304,-0.169787\O,0,-0.492559,1.047045,1.434661\H,0,0.30041
 1,1.555668,1.684451\C,0,-2.354429,-0.733869,0.059402\H,0,-2.546583,-1.
 72853,-0.367563\H,0,-2.210415,-0.850635,1.138787\O,0,-3.453269,0.15148
 9,-0.195172\H,0,-4.191546,-0.145823,0.360602\\Version=AM64L-G09RevC.01
 \State=1-A\HF=-594.1878736\RMSD=7.107e-09\Dipole=1.0434867,-0.0994436,
 -0.2256305\Quadrupole=5.5248536,-1.8437945,-3.681059,6.0357673,-4.5187
 767,-4.8153219\PG=C01 [X(C8H15N1O3)]\\@


 Everywhere is walking distance if you have the time.
                                    -- Steven Wright
 Job cpu time:  0 days  0 hours  9 minutes  5.0 seconds.
 File lengths (MBytes):  RWF=    110 Int=      0 D2E=      0 Chk=      7 Scr=      1
 Normal termination of Gaussian 09 at Fri May 17 13:08:01 2024.
