 Entering Gaussian System, Link 0=g09
 Input=/home/fbruno.iquir/MPW_A_SMD/2_MMFF_001_NMR_MPW_A_SMD.gjc
 Output=/home/fbruno.iquir/MPW_A_SMD/2_MMFF_001_NMR_MPW_A_SMD.log
 Initial command:
 /share/apps/Gaussian09/EM64T.SSE4.2-enabled/g09/l1.exe /tmp/Gau-3883.inp -scrdir=/tmp/
 Entering Link 1 = /share/apps/Gaussian09/EM64T.SSE4.2-enabled/g09/l1.exe PID=      3884.
  
 Copyright (c) 1988,1990,1992,1993,1995,1998,2003,2009,2011,
            Gaussian, Inc.  All Rights Reserved.
  
 This is part of the Gaussian(R) 09 program.  It is based on
 the Gaussian(R) 03 system (copyright 2003, Gaussian, Inc.),
 the Gaussian(R) 98 system (copyright 1998, Gaussian, Inc.),
 the Gaussian(R) 94 system (copyright 1995, Gaussian, Inc.),
 the Gaussian 92(TM) system (copyright 1992, Gaussian, Inc.),
 the Gaussian 90(TM) system (copyright 1990, Gaussian, Inc.),
 the Gaussian 88(TM) system (copyright 1988, Gaussian, Inc.),
 the Gaussian 86(TM) system (copyright 1986, Carnegie Mellon
 University), and the Gaussian 82(TM) system (copyright 1983,
 Carnegie Mellon University). Gaussian is a federally registered
 trademark of Gaussian, Inc.
  
 This software contains proprietary and confidential information,
 including trade secrets, belonging to Gaussian, Inc.
  
 This software is provided under written license and may be
 used, copied, transmitted, or stored only in accord with that
 written license.
  
 The following legend is applicable only to US Government
 contracts under FAR:
  
                    RESTRICTED RIGHTS LEGEND
  
 Use, reproduction and disclosure by the US Government is
 subject to restrictions as set forth in subparagraphs (a)
 and (c) of the Commercial Computer Software - Restricted
 Rights clause in FAR 52.227-19.
  
 Gaussian, Inc.
 340 Quinnipiac St., Bldg. 40, Wallingford CT 06492
  
  
 ---------------------------------------------------------------
 Warning -- This program may not be used in any manner that
 competes with the business of Gaussian, Inc. or will provide
 assistance to any competitor of Gaussian, Inc.  The licensee
 of this program is prohibited from giving any competitor of
 Gaussian, Inc. access to this program.  By using this program,
 the user acknowledges that Gaussian, Inc. is engaged in the
 business of creating and licensing software in the field of
 computational chemistry and represents and warrants to the
 licensee that it is not a competitor of Gaussian, Inc. and that
 it will not use this program in any manner prohibited above.
 ---------------------------------------------------------------
  

 Cite this work as:
 Gaussian 09, Revision C.01,
 M. J. Frisch, G. W. Trucks, H. B. Schlegel, G. E. Scuseria, 
 M. A. Robb, J. R. Cheeseman, G. Scalmani, V. Barone, B. Mennucci, 
 G. A. Petersson, H. Nakatsuji, M. Caricato, X. Li, H. P. Hratchian, 
 A. F. Izmaylov, J. Bloino, G. Zheng, J. L. Sonnenberg, M. Hada, 
 M. Ehara, K. Toyota, R. Fukuda, J. Hasegawa, M. Ishida, T. Nakajima, 
 Y. Honda, O. Kitao, H. Nakai, T. Vreven, J. A. Montgomery, Jr., 
 J. E. Peralta, F. Ogliaro, M. Bearpark, J. J. Heyd, E. Brothers, 
 K. N. Kudin, V. N. Staroverov, T. Keith, R. Kobayashi, J. Normand, 
 K. Raghavachari, A. Rendell, J. C. Burant, S. S. Iyengar, J. Tomasi, 
 M. Cossi, N. Rega, J. M. Millam, M. Klene, J. E. Knox, J. B. Cross, 
 V. Bakken, C. Adamo, J. Jaramillo, R. Gomperts, R. E. Stratmann, 
 O. Yazyev, A. J. Austin, R. Cammi, C. Pomelli, J. W. Ochterski, 
 R. L. Martin, K. Morokuma, V. G. Zakrzewski, G. A. Voth, 
 P. Salvador, J. J. Dannenberg, S. Dapprich, A. D. Daniels, 
 O. Farkas, J. B. Foresman, J. V. Ortiz, J. Cioslowski, 
 and D. J. Fox, Gaussian, Inc., Wallingford CT, 2010.
 
 ******************************************
 Gaussian 09:  EM64L-G09RevC.01 23-Sep-2011
                16-Oct-2021 
 ******************************************
 %nprocshared=4
 Will use up to    4 processors via shared memory.
 -----------------------------------------------------------------
 # mPW1PW91/6-31g** scrf=(pcm,solvent=chloroform,smd,dovacuum) nmr
 -----------------------------------------------------------------
 1/38=1/1;
 2/12=2,17=6,18=5,40=1/2;
 3/5=1,6=6,7=101,11=2,16=1,25=1,30=1,70=32101,72=7,74=-7/1,2,8,3;
 4//1;
 5/5=2,38=5,53=7/2;
 8/6=1,10=90,11=11/1;
 10/13=100,45=16/2;
 6/7=2,8=2,9=2,10=2,28=1/1;
 99/9=1/99;
 -------
 comment
 -------
 Charge =  0 Multiplicity = 1
 Symbolic Z-Matrix:
 1                     2.02723   3.05048  -1.59725 
 6                     1.73602   3.06276  -0.5514 
 6                     1.02988   3.10918   2.18217 
 6                     1.22319   1.9311    0.0702 
 6                     1.89232   4.22744   0.20252 
 6                     1.54339   4.24995   1.56009 
 6                     0.87737   1.95927   1.42705 
 1                     2.29519   5.12385  -0.26334 
 1                     1.67302   5.16302   2.13638 
 1                     0.76131   3.14256   3.23269 
 6                     1.00946   0.55789  -0.51472 
 6                     0.21024  -0.14007   0.63198 
 1                     0.66271  -1.10864   0.88314 
 7                     0.33708   0.72336   1.81624 
 6                    -1.30377  -0.30217   0.43659 
 1                    -1.78155   0.6742    0.62529 
 6                    -1.678    -0.64991  -1.01079 
 1                    -2.77078  -0.68528  -1.10746 
 6                    -1.16179   0.50673  -1.88107 
 1                    -1.49739   1.47503  -1.48901 
 1                    -1.5705    0.43835  -2.89773 
 6                     0.36476   0.44564  -1.91014 
 1                     0.72909   1.24837  -2.56292 
 7                     0.8754   -0.83063  -2.47764 
 6                     1.98784  -1.3063   -1.64239 
 1                     2.83363  -1.61925  -2.26279 
 1                     1.7043   -2.15983  -1.01467 
 6                     2.35815  -0.13271  -0.75317 
 1                     3.05406   0.52808  -1.28715 
 1                     2.85289  -0.45496   0.16976 
 6                    -0.36908   0.46367   2.97668 
 8                    -0.36833   1.16982   3.98321 
 6                    -1.81196  -1.20926   1.57939 
 1                    -2.90278  -1.11516   1.65951 
 6                    -1.18673  -0.82363   2.94452 
 1                    -0.54064  -1.62346   3.32778 
 1                    -2.00269  -0.70706   3.66916 
 8                    -1.49842  -2.59759   1.40013 
 6                    -1.09313  -1.95808  -1.506 
 6                    -1.35155  -3.12517  -0.89071 
 6                    -2.19054  -3.23642   0.33625 
 1                    -3.20302  -2.84097   0.19763 
 1                    -2.29056  -4.29435   0.60072 
 1                    -0.89937  -4.04553  -1.25126 
 6                    -0.15194  -1.85711  -2.6841 
 1                     0.31907  -2.82173  -2.91296 
 1                    -0.7331   -1.60546  -3.58044 
 
                          Input orientation:                          
 ---------------------------------------------------------------------
 Center     Atomic      Atomic             Coordinates (Angstroms)
 Number     Number       Type             X           Y           Z
 ---------------------------------------------------------------------
      1          1           0        2.027235    3.050477   -1.597246
      2          6           0        1.736020    3.062757   -0.551403
      3          6           0        1.029878    3.109183    2.182170
      4          6           0        1.223191    1.931097    0.070202
      5          6           0        1.892318    4.227436    0.202524
      6          6           0        1.543392    4.249949    1.560094
      7          6           0        0.877374    1.959266    1.427050
      8          1           0        2.295188    5.123847   -0.263340
      9          1           0        1.673019    5.163016    2.136379
     10          1           0        0.761307    3.142560    3.232687
     11          6           0        1.009464    0.557890   -0.514717
     12          6           0        0.210239   -0.140074    0.631978
     13          1           0        0.662708   -1.108638    0.883136
     14          7           0        0.337082    0.723364    1.816240
     15          6           0       -1.303766   -0.302175    0.436587
     16          1           0       -1.781546    0.674205    0.625294
     17          6           0       -1.678005   -0.649909   -1.010791
     18          1           0       -2.770780   -0.685283   -1.107457
     19          6           0       -1.161787    0.506734   -1.881075
     20          1           0       -1.497395    1.475032   -1.489011
     21          1           0       -1.570504    0.438350   -2.897726
     22          6           0        0.364760    0.445635   -1.910136
     23          1           0        0.729093    1.248373   -2.562916
     24          7           0        0.875398   -0.830633   -2.477642
     25          6           0        1.987844   -1.306296   -1.642389
     26          1           0        2.833634   -1.619253   -2.262789
     27          1           0        1.704296   -2.159835   -1.014669
     28          6           0        2.358155   -0.132706   -0.753166
     29          1           0        3.054058    0.528081   -1.287146
     30          1           0        2.852885   -0.454960    0.169762
     31          6           0       -0.369079    0.463672    2.976681
     32          8           0       -0.368326    1.169818    3.983206
     33          6           0       -1.811963   -1.209258    1.579391
     34          1           0       -2.902776   -1.115162    1.659511
     35          6           0       -1.186730   -0.823632    2.944524
     36          1           0       -0.540643   -1.623456    3.327782
     37          1           0       -2.002685   -0.707064    3.669163
     38          8           0       -1.498420   -2.597594    1.400130
     39          6           0       -1.093128   -1.958083   -1.505998
     40          6           0       -1.351549   -3.125170   -0.890707
     41          6           0       -2.190536   -3.236417    0.336246
     42          1           0       -3.203020   -2.840965    0.197630
     43          1           0       -2.290558   -4.294351    0.600720
     44          1           0       -0.899365   -4.045531   -1.251261
     45          6           0       -0.151940   -1.857107   -2.684100
     46          1           0        0.319065   -2.821730   -2.912964
     47          1           0       -0.733102   -1.605459   -3.580438
 ---------------------------------------------------------------------
                    Distance matrix (angstroms):
                    1          2          3          4          5
     1  H    0.000000
     2  C    1.085699   0.000000
     3  C    3.909239   2.823688   0.000000
     4  C    2.163303   1.389259   2.426038   0.000000
     5  C    2.154671   1.396178   2.431726   2.395499   0.000000
     6  C    3.411983   2.430010   1.397148   2.774776   1.401875
     7  C    3.414569   2.422652   1.384114   1.400507   2.770229
     8  H    2.479913   2.154934   3.411802   3.384387   1.087605
     9  H    4.304445   3.411632   2.152663   3.862219   2.159444
    10  H    4.993926   3.908423   1.084818   3.417936   3.411456
    11  C    2.901847   2.608369   3.712507   1.507816   3.841802
    12  C    4.295407   3.739856   3.692231   2.373060   4.699890
    13  H    5.031150   4.539872   4.428579   3.196091   5.518049
    14  N    4.463625   3.610473   2.511175   2.300533   4.159490
    15  C    5.145125   4.641033   4.486681   3.392234   5.548614
    16  H    5.009307   4.411696   4.032007   3.303989   5.128495
    17  C    5.269305   5.064631   5.626580   4.030766   6.165049
    18  H    6.100553   5.887975   6.297985   4.917737   6.898938
    19  C    4.089137   4.086388   5.299631   3.394762   5.245242
    20  H    3.862221   3.722224   4.747118   3.168711   4.682646
    21  H    4.632298   4.829684   6.300848   4.340694   5.996654
    22  C    3.105950   3.252051   4.927863   2.620160   4.593341
    23  H    2.421832   2.889996   5.105774   2.764699   4.227951
    24  N    4.143047   4.428267   6.104085   3.773542   5.813904
    25  C    4.357185   4.510242   5.919578   3.741440   5.833954
    26  H    4.785353   5.104392   6.735673   4.543276   6.414641
    27  H    5.252717   5.243194   6.199771   4.259593   6.504932
    28  C    3.309779   3.261709   4.570597   2.495068   4.487894
    29  H    2.740986   2.950105   4.774468   2.676364   4.153791
    30  H    4.011496   3.760558   4.480653   2.891208   4.780020
    31  C    5.775351   4.861487   3.096297   3.624400   5.193822
    32  O    6.357438   5.345481   2.993299   4.292326   5.362191
    33  C    6.555593   5.947989   5.204645   4.620783   6.721243
    34  H    7.229385   6.622807   5.795172   5.369283   7.325237
    35  C    6.779820   5.988989   4.578380   4.653813   6.520153
    36  H    7.259169   6.495527   5.116330   5.133983   7.065372
    37  H    7.621970   6.782525   5.096208   5.506241   7.178993
    38  O    7.301726   6.805120   6.290562   5.448386   7.714428
    39  C    5.901750   5.841589   6.617168   4.793272   7.077611
    40  C    7.074884   6.923774   7.347171   5.754865   8.110403
    41  C    7.813643   7.475651   7.351540   6.198993   8.508624
    42  H    8.079990   7.733635   7.567039   6.510005   8.713484
    43  H    8.798913   8.465681   8.266715   7.168269   9.501361
    44  H    7.683620   7.613331   8.167028   6.478549   8.851495
    45  C    5.478543   5.684879   7.052752   4.881358   7.037987
    46  H    6.255539   6.497070   7.851202   5.683845   7.865884
    47  H    5.764569   6.088009   7.651379   5.446236   7.431440
                    6          7          8          9         10
     6  C    0.000000
     7  C    2.389248   0.000000
     8  H    2.157267   3.857743   0.000000
     9  H    1.087474   3.376420   2.479370   0.000000
    10  H    2.153029   2.161939   4.301219   2.472924   0.000000
    11  C    4.268632   2.398283   4.750183   5.354980   4.559072
    12  C    4.680918   2.341888   5.732143   5.703132   4.224103
    13  H    5.472507   3.123134   6.543949   6.474952   4.858271
    14  N    3.735986   1.403866   5.246244   4.647336   2.835277
    15  C    5.485472   3.294314   6.548593   6.451267   4.893760
    16  H    4.971419   3.060073   6.099897   5.862322   4.399701
    17  C    6.402769   4.390994   7.048489   7.411082   6.191944
    18  H    7.077035   5.169758   7.753874   8.029473   6.779739
    19  C    5.759453   4.148701   5.990449   6.771782   6.066006
    20  H    5.122850   3.791758   5.403684   6.065988   5.493343
    21  H    6.640542   5.197017   6.620986   7.627918   7.094509
    22  C    5.282468   3.700090   5.322044   6.351339   5.820591
    23  H    5.164470   4.055513   4.770744   6.188603   6.097376
    24  N    6.523943   4.798975   6.509590   7.605867   6.957523
    25  C    6.428475   4.617196   6.583538   7.498680   6.712903
    26  H    7.122267   5.499788   7.053872   8.166938   7.561061
    27  H    6.909459   4.859299   7.346133   7.972091   6.858910
    28  C    5.022218   3.364878   5.279701   6.071537   5.400399
    29  H    4.923534   3.762061   4.769185   5.925404   5.702727
    30  H    5.077791   3.363317   5.623316   6.068057   5.167045
    31  C    4.472154   2.488334   6.270030   5.192312   2.918861
    32  O    4.360429   2.951089   6.384496   4.850102   2.393963
    33  C    6.407942   4.158760   7.769978   7.284313   5.319156
    34  H    6.968695   4.878082   8.345143   7.783368   5.833402
    35  C    5.925490   3.782562   7.601753   6.683653   4.428156
    36  H    6.478025   4.296447   8.152557   7.237123   4.941561
    37  H    6.449405   4.520081   8.242319   7.093524   4.759178
    38  O    7.494468   5.139076   8.762376   8.415887   6.435370
    39  C    7.408901   5.275536   7.948497   8.463364   7.204902
    40  C    8.293340   6.015944   9.040938   9.327663   7.794291
    41  C    8.454922   6.131644   9.506589   9.419024   7.602243
    42  H    8.640938   6.418981   9.689222   9.570696   7.792947
    43  H    9.414065   7.058778  10.510857  10.368702   8.458650
    44  H    9.093171   6.810855   9.760054  10.143501   8.633207
    45  C    7.627809   5.703135   7.783459   8.709169   7.799939
    46  H    8.456705   6.481154   8.605682   9.543858   8.575392
    47  H    8.117469   6.354199   8.090565   9.180614   8.437749
                   11         12         13         14         15
    11  C    0.000000
    12  C    1.562312   0.000000
    13  H    2.202623   1.098146   0.000000
    14  N    2.431632   1.471085   2.081573   0.000000
    15  C    2.644942   1.535143   2.171821   2.376458   0.000000
    16  H    3.017099   2.151814   3.036344   2.430916   1.103268
    17  C    2.987868   2.554229   3.045707   3.733438   1.534888
    18  H    4.023315   3.494190   3.991307   4.493451   2.164019
    19  C    2.565907   2.935345   3.684979   3.995457   2.458872
    20  H    2.841609   3.165940   4.119282   3.854218   2.627525
    21  H    3.514151   3.995552   4.655678   5.093289   3.425956
    22  C    1.541246   2.613288   3.210437   3.736813   2.974946
    23  H    2.179564   3.521980   4.175547   4.427902   3.941286
    24  N    2.408120   3.254080   3.378958   4.598055   3.677058
    25  C    2.388317   3.113309   2.858904   4.336663   4.020584
    26  H    3.335162   4.177301   3.856228   5.325326   5.112671
    27  H    2.849346   3.003845   2.406572   4.265695   3.821712
    28  C    1.533867   2.555820   2.550386   3.379265   3.854075
    29  H    2.185841   3.495250   3.620433   4.129297   4.759328
    30  H    2.211917   2.701180   2.394384   3.229334   4.168007
    31  C    3.754879   2.489529   2.814191   1.383014   2.812869
    32  O    4.743845   3.644350   3.983067   2.322211   3.952254
    33  C    3.933007   2.475893   2.572720   2.899917   1.545013
    34  H    4.778283   3.420159   3.649037   3.728461   2.171019
    35  C    4.324143   2.786870   2.784056   2.447085   2.564246
    36  H    4.682510   3.167272   2.772974   2.926214   3.269120
    37  H    5.308295   3.800396   3.876535   3.309677   3.331962
    38  O    4.462420   3.090142   2.674835   3.817195   2.497049
    39  C    3.425441   3.094328   3.084230   4.502546   2.561257
    40  C    4.390977   3.697100   3.357104   4.999025   3.119823
    41  C    5.035961   3.929188   3.601046   4.925353   3.066954
    42  H    5.459366   4.374221   4.291238   5.277942   3.179580
    43  H    5.973155   4.849018   4.353194   5.793051   4.115601
    44  H    5.037619   4.475534   3.952349   5.803509   4.126147
    45  C    3.447795   3.751766   3.734840   5.210665   3.671949
    46  H    4.201198   4.446317   4.178893   5.910447   4.494578
    47  H    4.137060   4.558694   4.703043   5.974349   4.261538
                   16         17         18         19         20
    16  H    0.000000
    17  C    2.107314   0.000000
    18  H    2.414378   1.097613   0.000000
    19  C    2.587283   1.536781   2.146684   0.000000
    20  H    2.278674   2.185564   2.536545   1.097246   0.000000
    21  H    3.537208   2.180914   2.430696   1.097865   1.750581
    22  C    3.329756   2.486347   3.428539   1.528045   2.169015
    23  H    4.098495   3.436086   4.255174   2.142513   2.482316
    24  N    4.353401   2.950284   3.897839   2.508897   3.453061
    25  C    4.824217   3.777328   4.828697   3.642008   4.461636
    26  H    5.907695   4.781424   5.797978   4.541906   5.378768
    27  H    4.782505   3.704032   4.712666   4.009449   4.867041
    28  C    4.437159   4.077310   5.170768   3.751140   4.241646
    29  H    5.202099   4.884306   5.952586   4.257529   4.653298
    30  H    4.791708   4.686222   5.771477   4.609596   5.039974
    31  C    2.751073   4.342037   4.875289   4.922198   4.715756
    32  O    3.676736   5.474182   5.926890   5.954750   5.595812
    33  C    2.111554   2.653274   2.900522   3.916909   4.088944
    34  H    2.351296   2.974398   2.803271   4.265834   4.312470
    35  C    2.824207   3.989492   4.352804   5.005687   5.003659
    36  H    3.757995   4.589619   5.052229   5.661777   5.806677
    37  H    3.349917   4.691552   4.838031   5.743306   5.623489
    38  O    3.374196   3.104556   3.400562   4.529512   4.993338
    39  C    3.456193   1.516124   2.143216   2.494137   3.456877
    40  C    4.113199   2.499582   2.830944   3.769292   4.641239
    41  C    3.942561   2.960950   2.988184   4.470572   5.099977
    42  H    3.815745   2.930305   2.556765   4.437875   4.937788
    43  H    4.994621   4.031644   4.021672   5.521217   6.187234
    44  H    5.155154   3.492042   3.848914   4.603112   5.557948
    45  C    4.473840   2.566352   3.273729   2.693025   3.787036
    46  H    5.399389   3.510464   4.167902   3.786343   4.877432
    47  H    4.897376   2.899828   3.333841   2.744625   3.801005
                   21         22         23         24         25
    21  H    0.000000
    22  C    2.172702   0.000000
    23  H    2.460972   1.096927   0.000000
    24  N    2.787333   1.487170   2.085892   0.000000
    25  C    4.157103   2.403196   2.993019   1.470183   0.000000
    26  H    4.902378   3.237818   3.569657   2.121974   1.094623
    27  H    4.584844   3.063445   3.868330   2.143394   1.096795
    28  C    4.512163   2.376275   2.799361   2.378968   1.518276
    29  H    4.897815   2.761745   2.748067   2.830184   2.151267
    30  H    5.456543   3.365682   3.857379   3.325708   2.181046
    31  C    5.996059   4.941642   5.701655   5.742263   5.479387
    32  O    7.023354   5.982752   6.637937   6.876860   6.582552
    33  C    4.776766   4.433237   5.445698   4.881063   4.982751
    34  H    4.995674   5.084806   6.050261   5.609954   5.904002
    35  C    5.989305   5.252226   6.188334   5.801061   5.599166
    36  H    6.638420   5.704093   6.675325   6.027992   5.585377
    37  H    6.680030   6.169448   7.079913   6.788361   6.670531
    38  O    5.262482   4.867293   5.954747   4.877937   4.803999
    39  C    2.812061   2.840180   3.836525   2.467859   3.152112
    40  C    4.095698   4.090917   5.123791   3.569672   3.876193
    41  C    4.934261   5.013310   6.086273   4.806840   5.009912
    42  H    4.795858   5.288996   6.309106   5.275605   5.717163
    43  H    5.929255   5.985196   7.060359   5.612212   5.680205
    44  H    4.823533   4.711974   5.691901   3.871610   3.999045
    45  C    2.706859   2.483671   3.230312   1.466866   2.442791
    46  H    3.768134   3.418103   4.105655   2.112695   2.587609
    47  H    2.311816   2.863948   3.364183   2.098521   3.353965
                   26         27         28         29         30
    26  H    0.000000
    27  H    1.767890   0.000000
    28  C    2.171374   2.145965   0.000000
    29  H    2.368862   3.020098   1.098206   0.000000
    30  H    2.696897   2.372495   1.095628   1.769017   0.000000
    31  C    6.484442   5.206971   4.658887   5.468294   4.370782
    32  O    7.552742   6.353039   5.618138   6.316735   5.249614
    33  C    6.042517   4.471780   4.897924   5.908768   4.931209
    34  H    6.967420   5.428416   5.870572   6.845941   5.981877
    35  C    6.626647   5.081209   5.168800   6.141534   4.914643
    36  H    6.529950   4.917757   5.222978   6.232861   4.780639
    37  H    7.707797   6.147401   6.237292   7.187575   5.990487
    38  O    5.756806   4.034883   5.058213   6.141364   5.003853
    39  C    4.013352   2.847401   3.976193   4.840253   4.542969
    40  C    4.654692   3.207091   4.768193   5.736966   5.092336
    41  C    5.883238   4.260718   5.613415   6.656772   5.761972
    42  H    6.632303   5.100526   6.258223   7.259894   6.509054
    43  H    6.450827   4.808794   6.384577   7.442097   6.432857
    44  H    4.565665   3.223489   5.115636   6.045558   5.384319
    45  C    3.024521   2.514807   3.605917   4.233087   4.374873
    46  H    2.862121   2.441412   4.006677   4.620033   4.639509
    47  H    3.802368   3.582097   4.440534   4.914648   5.314787
                   31         32         33         34         35
    31  C    0.000000
    32  O    1.229526   0.000000
    33  C    2.614006   3.677284   0.000000
    34  H    3.263015   4.128453   1.097792   0.000000
    35  C    1.525365   2.392172   1.550230   2.163576   0.000000
    36  H    2.123396   2.874309   2.201064   2.936181   1.097285
    37  H    2.125753   2.508474   2.157712   2.239510   1.097485
    38  O    3.623848   4.705612   1.434545   2.058421   2.372603
    39  C    5.146218   6.359281   3.255317   3.742432   4.593788
    40  C    5.366723   6.570287   3.159759   3.598618   4.475850
    41  C    4.896965   6.002972   2.407925   2.599624   3.692191
    42  H    5.164782   6.201004   2.550837   2.281587   3.959859
    43  H    5.654737   6.707706   3.271795   3.406332   4.331021
    44  H    6.203999   7.408205   4.109728   4.590568   5.297907
    45  C    6.121895   7.325439   4.620902   5.194664   5.815520
    46  H    6.779036   7.997632   5.227102   5.848091   6.369457
    47  H    6.885465   8.064982   5.286279   5.692534   6.587273
                   36         37         38         39         40
    36  H    0.000000
    37  H    1.758943   0.000000
    38  O    2.362652   2.996147   0.000000
    39  C    4.876745   5.401355   3.003134   0.000000
    40  C    4.550644   5.202271   2.355385   1.344417   0.000000
    41  C    3.777973   4.188228   1.420904   2.496459   1.490532
    42  H    4.285841   4.248044   2.100213   2.851926   2.166378
    43  H    4.199136   4.729359   2.036056   3.366043   2.114964
    44  H    5.192568   6.047582   3.079815   2.111841   1.086984
    45  C    6.028964   6.716532   4.363744   1.511275   2.502659
    46  H    6.412633   7.292923   4.685751   2.172493   2.640559
    47  H    6.910924   7.414558   5.135767   2.134775   3.150659
                   41         42         43         44         45
    41  C    0.000000
    42  H    1.095774   0.000000
    43  H    1.095068   1.762782   0.000000
    44  H    2.200446   2.976087   2.329627   0.000000
    45  C    3.896262   4.310619   4.615613   2.720454   0.000000
    46  H    4.126430   4.699069   4.617869   2.396564   1.097598
    47  H    4.486040   4.679826   5.209404   3.377375   1.097497
                   46         47
    46  H    0.000000
    47  H    1.741234   0.000000
 Stoichiometry    C21H22N2O2
 Framework group  C1[X(C21H22N2O2)]
 Deg. of freedom   135
 Full point group                 C1      NOp   1
 Largest Abelian subgroup         C1      NOp   1
 Largest concise Abelian subgroup C1      NOp   1
                         Standard orientation:                         
 ---------------------------------------------------------------------
 Center     Atomic      Atomic             Coordinates (Angstroms)
 Number     Number       Type             X           Y           Z
 ---------------------------------------------------------------------
      1          1           0        2.734233   -2.893875   -0.395055
      2          6           0        2.969933   -1.837315   -0.312172
      3          6           0        3.620166    0.898702   -0.057972
      4          6           0        1.998104   -0.903447    0.024695
      5          6           0        4.276765   -1.395268   -0.526877
      6          6           0        4.599925   -0.037162   -0.398933
      7          6           0        2.327116    0.451886    0.152140
      8          1           0        5.053885   -2.109891   -0.788188
      9          1           0        5.622441    0.293168   -0.566089
     10          1           0        3.884489    1.946771    0.034307
     11          6           0        0.544697   -1.140656    0.348498
     12          6           0        0.002114    0.323444    0.401754
     13          1           0       -0.566709    0.490467    1.326129
     14          7           0        1.179186    1.204713    0.445988
     15          6           0       -0.802754    0.819867   -0.807550
     16          1           0       -0.093881    1.055254   -1.619518
     17          6           0       -1.721726   -0.263067   -1.389466
     18          1           0       -2.218194    0.123343   -2.288888
     19          6           0       -0.808203   -1.423906   -1.813287
     20          1           0        0.016587   -1.066690   -2.442626
     21          1           0       -1.360874   -2.146922   -2.427378
     22          6           0       -0.262948   -2.094620   -0.553223
     23          1           0        0.357566   -2.946416   -0.857616
     24          7           0       -1.339450   -2.639980    0.315916
     25          6           0       -1.032627   -2.303450    1.713788
     26          1           0       -1.166920   -3.175208    2.362019
     27          1           0       -1.672751   -1.501446    2.101075
     28          6           0        0.411074   -1.833476    1.710443
     29          1           0        1.080452   -2.701132    1.782297
     30          1           0        0.632377   -1.175903    2.558395
     31          6           0        1.053970    2.579501    0.362277
     32          8           0        1.988047    3.378230    0.326696
     33          6           0       -1.410207    2.185394   -0.415887
     34          1           0       -1.737216    2.710543   -1.322767
     35          6           0       -0.385729    3.082138    0.325401
     36          1           0       -0.689762    3.260443    1.364538
     37          1           0       -0.374012    4.061854   -0.169060
     38          8           0       -2.534624    2.086779    0.469483
     39          6           0       -2.772493   -0.771163   -0.421809
     40          6           0       -3.675582    0.053171    0.137083
     41          6           0       -3.704630    1.523270   -0.107156
     42          1           0       -3.813354    1.777161   -1.167551
     43          1           0       -4.565490    1.951244    0.417184
     44          1           0       -4.402622   -0.332566    0.847121
     45          6           0       -2.695680   -2.239947   -0.074353
     46          1           0       -3.410259   -2.509940    0.713812
     47          1           0       -3.003241   -2.826841   -0.949260
 ---------------------------------------------------------------------
 Rotational constants (GHZ):      0.3768218      0.2440625      0.1703033
 Standard basis: 6-31G(d,p) (6D, 7F)
 There are   485 symmetry adapted basis functions of A   symmetry.
 Integral buffers will be    131072 words long.
 Raffenetti 2 integral format.
 Two-electron integral symmetry is turned on.
   485 basis functions,   854 primitive gaussians,   485 cartesian basis functions
    89 alpha electrons       89 beta electrons
       nuclear repulsion energy      2387.8590973017 Hartrees.
 NAtoms=   47 NActive=   47 NUniq=   47 SFac= 1.00D+00 NAtFMM=   60 NAOKFM=F Big=F
 ------------------------------------------------------------------------------
 Polarizable Continuum Model (PCM)
 =================================
 Model                : C-PCM.
 Atomic radii         : SMD-Coulomb.
 Polarization charges : Total charges.
 Charge compensation  : None.
 Solution method      : Matrix inversion.
 Cavity type          : VdW (van der Waals Surface) (Alpha=1.000).
 Cavity algorithm     : GePol (No added spheres)
                        Default sphere list used, NSphG=   47.
                        Lebedev-Laikov grids with approx.  5.0 points / Ang**2.
                        Smoothing algorithm: Karplus/York (Gamma=1.0000).
                        Polarization charges: spherical gaussians, with
                                              point-specific exponents (IZeta= 3).
                        Self-potential: point-specific (ISelfS= 7).
                        Self-field    : sphere-specific E.n sum rule (ISelfD= 2).
 Solvent              : Chloroform, Eps=   4.711300 Eps(inf)=   2.090627
 ------------------------------------------------------------------------------
 ------------------------------------------------------------------------------
 Atomic radii for non-electrostatic terms: SMD-CDS.
 ------------------------------------------------------------------------------
 Nuclear repulsion after PCM non-electrostatic terms =     2387.8471412710 Hartrees.
 One-electron integrals computed using PRISM.
 NBasis=   485 RedAO= T  NBF=   485
 NBsUse=   485 1.00D-06 NBFU=   485
 Harris functional with IExCor=  908 diagonalized for initial guess.
 ExpMin= 1.61D-01 ExpMax= 5.48D+03 ExpMxC= 8.25D+02 IAcc=1 IRadAn=         1 AccDes= 0.00D+00
 HarFok:  IExCor=  908 AccDes= 0.00D+00 IRadAn=         1 IDoV= 1
 ScaDFX=  1.000000  1.000000  1.000000  1.000000
 FoFCou: FMM=F IPFlag=           0 FMFlag=      100000 FMFlg1=           0
         NFxFlg=           0 DoJE=T BraDBF=F KetDBF=T FulRan=T
         Omega=  0.000000  0.000000  1.000000  0.000000  0.000000 ICntrl=     500 IOpCl=  0
         NMat0=    1 NMatS0=    1 NMatT0=    0 NMatD0=    1 NMtDS0=    0 NMtDT0=    0
         I1Cent=           4 NGrid=           0.
 Petite list used in FoFCou.
 Initial guess orbital symmetries:
       Occupied  (A) (A) (A) (A) (A) (A) (A) (A) (A) (A) (A) (A)
                 (A) (A) (A) (A) (A) (A) (A) (A) (A) (A) (A) (A)
                 (A) (A) (A) (A) (A) (A) (A) (A) (A) (A) (A) (A)
                 (A) (A) (A) (A) (A) (A) (A) (A) (A) (A) (A) (A)
                 (A) (A) (A) (A) (A) (A) (A) (A) (A) (A) (A) (A)
                 (A) (A) (A) (A) (A) (A) (A) (A) (A) (A) (A) (A)
                 (A) (A) (A) (A) (A) (A) (A) (A) (A) (A) (A) (A)
                 (A) (A) (A) (A) (A)
       Virtual   (A) (A) (A) (A) (A) (A) (A) (A) (A) (A) (A) (A)
                 (A) (A) (A) (A) (A) (A) (A) (A) (A) (A) (A) (A)
                 (A) (A) (A) (A) (A) (A) (A) (A) (A) (A) (A) (A)
                 (A) (A) (A) (A) (A) (A) (A) (A) (A) (A) (A) (A)
                 (A) (A) (A) (A) (A) (A) (A) (A) (A) (A) (A) (A)
                 (A) (A) (A) (A) (A) (A) (A) (A) (A) (A) (A) (A)
                 (A) (A) (A) (A) (A) (A) (A) (A) (A) (A) (A) (A)
                 (A) (A) (A) (A) (A) (A) (A) (A) (A) (A) (A) (A)
                 (A) (A) (A) (A) (A) (A) (A) (A) (A) (A) (A) (A)
                 (A) (A) (A) (A) (A) (A) (A) (A) (A) (A) (A) (A)
                 (A) (A) (A) (A) (A) (A) (A) (A) (A) (A) (A) (A)
                 (A) (A) (A) (A) (A) (A) (A) (A) (A) (A) (A) (A)
                 (A) (A) (A) (A) (A) (A) (A) (A) (A) (A) (A) (A)
                 (A) (A) (A) (A) (A) (A) (A) (A) (A) (A) (A) (A)
                 (A) (A) (A) (A) (A) (A) (A) (A) (A) (A) (A) (A)
                 (A) (A) (A) (A) (A) (A) (A) (A) (A) (A) (A) (A)
                 (A) (A) (A) (A) (A) (A) (A) (A) (A) (A) (A) (A)
                 (A) (A) (A) (A) (A) (A) (A) (A) (A) (A) (A) (A)
                 (A) (A) (A) (A) (A) (A) (A) (A) (A) (A) (A) (A)
                 (A) (A) (A) (A) (A) (A) (A) (A) (A) (A) (A) (A)
                 (A) (A) (A) (A) (A) (A) (A) (A) (A) (A) (A) (A)
                 (A) (A) (A) (A) (A) (A) (A) (A) (A) (A) (A) (A)
                 (A) (A) (A) (A) (A) (A) (A) (A) (A) (A) (A) (A)
                 (A) (A) (A) (A) (A) (A) (A) (A) (A) (A) (A) (A)
                 (A) (A) (A) (A) (A) (A) (A) (A) (A) (A) (A) (A)
                 (A) (A) (A) (A) (A) (A) (A) (A) (A) (A) (A) (A)
                 (A) (A) (A) (A) (A) (A) (A) (A) (A) (A) (A) (A)
                 (A) (A) (A) (A) (A) (A) (A) (A) (A) (A) (A) (A)
                 (A) (A) (A) (A) (A) (A) (A) (A) (A) (A) (A) (A)
                 (A) (A) (A) (A) (A) (A) (A) (A) (A) (A) (A) (A)
                 (A) (A) (A) (A) (A) (A) (A) (A) (A) (A) (A) (A)
                 (A) (A) (A) (A) (A) (A) (A) (A) (A) (A) (A) (A)
                 (A) (A) (A) (A) (A) (A) (A) (A) (A) (A) (A) (A)
 The electronic state of the initial guess is 1-A.
 Requested convergence on RMS density matrix=1.00D-08 within 128 cycles.
 Requested convergence on MAX density matrix=1.00D-06.
 Requested convergence on             energy=1.00D-06.
 No special actions if energy rises.
 Error on total polarization charges =  0.03696
 SCF Done:  E(RmPW1PW91) =  -1073.24668934     A.U. after   13 cycles
             Convg  =    0.5104D-08             -V/T =  2.0092
 SMD-CDS (non-electrostatic) energy       (kcal/mol) =      -7.50
 (included in total energy above)
 Range of M.O.s used for correlation:     1   485
 NBasis=   485 NAE=    89 NBE=    89 NFC=     0 NFV=     0
 NROrb=    485 NOA=    89 NOB=    89 NVA=   396 NVB=   396
 NEqPCM:  Using equilibrium solvation (IEInf=0, Eps=   4.7113, EpsInf=   2.0906)
          Differentiating once with respect to magnetic field using GIAOs.
          Electric field/nuclear overlap derivatives assumed to be zero.
 FoFCou: FMM=F IPFlag=           0 FMFlag=    10101102 FMFlg1=           0
         NFxFlg=    40000000 DoJE=F BraDBF=F KetDBF=T FulRan=T
         Omega=  0.000000  0.000000  1.000000  0.000000  0.000000 ICntrl=    6100 IOpCl=  0
         NMat0=    1 NMatS0=    1 NMatT0=    0 NMatD0=    1 NMtDS0=    0 NMtDT0=    0
         I1Cent=           7 NGrid=        3048.
 Symmetry not used in FoFCou.
          There are     3 degrees of freedom in the 1st order CPHF.  IDoFFX=0.
      3 vectors produced by pass  0 Test12= 1.17D-12 3.33D-08 XBig12= 8.58D+01 1.97D+00.
 AX will form     3 AO Fock derivatives at one time.
      3 vectors produced by pass  1 Test12= 1.17D-12 3.33D-08 XBig12= 2.67D-01 2.05D-01.
      3 vectors produced by pass  2 Test12= 1.17D-12 3.33D-08 XBig12= 1.32D-03 9.45D-03.
      3 vectors produced by pass  3 Test12= 1.17D-12 3.33D-08 XBig12= 3.46D-06 4.33D-04.
      3 vectors produced by pass  4 Test12= 1.17D-12 3.33D-08 XBig12= 1.94D-08 3.55D-05.
      3 vectors produced by pass  5 Test12= 1.17D-12 3.33D-08 XBig12= 6.79D-11 2.33D-06.
      3 vectors produced by pass  6 Test12= 1.17D-12 3.33D-08 XBig12= 3.26D-13 1.01D-07.
 Inverted reduced A of dimension    21 with in-core refinement.
 Calculating GIAO nuclear magnetic shielding tensors.
 SCF GIAO Magnetic shielding tensor (ppm):
      1  H    Isotropic =    24.0418   Anisotropy =     9.8868
   XX=    29.3902   YX=    -2.8390   ZX=    -2.0160
   XY=    -1.9851   YY=    23.0584   ZY=     0.8403
   XZ=    -1.9362   YZ=     0.9996   ZZ=    19.6769
   Eigenvalues:    19.2302    22.2623    30.6330
      2  C    Isotropic =    76.3007   Anisotropy =   165.8687
   XX=    60.3575   YX=   -20.8256   ZX=    25.2505
   XY=   -20.9672   YY=   -10.0628   ZY=   -22.5520
   XZ=    24.6481   YZ=   -20.1457   ZZ=   178.6075
   Eigenvalues:   -16.8550    58.8774   186.8799
      3  C    Isotropic =    84.8137   Anisotropy =   151.8719
   XX=    58.1561   YX=   -16.2223   ZX=    25.4064
   XY=   -19.1238   YY=    15.5479   ZY=   -21.3875
   XZ=     9.7680   YZ=   -17.9548   ZZ=   180.7370
   Eigenvalues:     8.2074    60.1720   186.0616
      4  C    Isotropic =    64.7456   Anisotropy =   138.4465
   XX=    13.5348   YX=   -16.5520   ZX=    27.9817
   XY=   -20.5960   YY=    31.0547   ZY=   -17.0205
   XZ=    24.7622   YZ=   -11.6564   ZZ=   149.6471
   Eigenvalues:     0.1614    37.0320   157.0432
      5  C    Isotropic =    75.1139   Anisotropy =   165.4699
   XX=    26.3114   YX=    31.5316   ZX=    38.1795
   XY=    34.0385   YY=    26.8955   ZY=   -29.5731
   XZ=    41.9766   YZ=   -31.0017   ZZ=   172.1348
   Eigenvalues:   -19.1779    59.0924   185.4271
      6  C    Isotropic =    70.3164   Anisotropy =   170.3976
   XX=   -12.0336   YX=   -27.0365   ZX=    37.7403
   XY=   -27.2864   YY=    48.8475   ZY=   -14.1132
   XZ=    34.1369   YZ=   -16.8440   ZZ=   174.1351
   Eigenvalues:   -26.4933    53.5276   183.9147
      7  C    Isotropic =    58.7342   Anisotropy =   115.3952
   XX=    25.6663   YX=    34.7250   ZX=    26.6846
   XY=    44.9483   YY=    23.6866   ZY=   -22.6135
   XZ=    33.4939   YZ=   -14.2750   ZZ=   126.8497
   Eigenvalues:   -23.0275    63.5658   135.6644
      8  H    Isotropic =    24.3150   Anisotropy =     4.5060
   XX=    27.0084   YX=     0.5299   ZX=    -1.1539
   XY=     0.6927   YY=    25.3809   ZY=     0.5080
   XZ=    -0.9066   YZ=     0.4112   ZZ=    20.5557
   Eigenvalues:    20.3352    25.2909    27.3190
      9  H    Isotropic =    24.0748   Anisotropy =     3.9085
   XX=    25.6569   YX=    -0.5401   ZX=    -0.9604
   XY=    -0.4642   YY=    25.9599   ZY=     0.8961
   XZ=    -1.4735   YZ=     0.8720   ZZ=    20.6075
   Eigenvalues:    20.2299    25.3140    26.6805
     10  H    Isotropic =    23.4097   Anisotropy =     8.6159
   XX=    28.8382   YX=    -0.6279   ZX=    -1.6184
   XY=    -1.0472   YY=    24.6428   ZY=     1.1452
   XZ=    -0.6470   YZ=     1.5712   ZZ=    16.7481
   Eigenvalues:    16.4429    24.6327    29.1536
     11  C    Isotropic =   142.5028   Anisotropy =    24.8492
   XX=   152.8089   YX=     7.3649   ZX=    -1.4463
   XY=    14.6727   YY=   137.1577   ZY=     1.1289
   XZ=    -5.8450   YZ=    -2.2698   ZZ=   137.5418
   Eigenvalues:   131.2363   137.2031   159.0689
     12  C    Isotropic =   134.7495   Anisotropy =    33.2582
   XX=   142.2235   YX=     9.0969   ZX=    -1.8904
   XY=     4.7602   YY=   153.2948   ZY=     1.3356
   XZ=    10.8447   YZ=     2.6630   ZZ=   108.7300
   Eigenvalues:   108.1152   139.2116   156.9216
     13  H    Isotropic =    27.6004   Anisotropy =     3.1841
   XX=    27.0168   YX=    -1.0719   ZX=    -1.4987
   XY=    -0.4765   YY=    29.4444   ZY=     0.0373
   XZ=    -1.5954   YZ=    -0.1655   ZZ=    26.3402
   Eigenvalues:    25.0285    28.0497    29.7232
     14  N    Isotropic =   104.0706   Anisotropy =    77.4416
   XX=    32.8597   YX=   -33.1251   ZX=    10.0803
   XY=   -78.1050   YY=   130.0163   ZY=     4.4804
   XZ=     6.1740   YZ=     6.3000   ZZ=   149.3357
   Eigenvalues:     6.9431   149.5702   155.6983
     15  C    Isotropic =   147.9287   Anisotropy =    18.8804
   XX=   155.1181   YX=    15.2866   ZX=     8.9472
   XY=     4.8172   YY=   137.4874   ZY=    -9.3469
   XZ=   -10.4558   YZ=    -0.4552   ZZ=   151.1804
   Eigenvalues:   132.0202   151.2501   160.5156
     16  H    Isotropic =    30.4112   Anisotropy =     3.7014
   XX=    29.9457   YX=     0.4002   ZX=    -3.2384
   XY=     1.4897   YY=    30.2214   ZY=    -1.5085
   XZ=     0.6072   YZ=    -1.0354   ZZ=    31.0666
   Eigenvalues:    29.0512    29.3037    32.8788
     17  C    Isotropic =   162.8999   Anisotropy =    10.3253
   XX=   162.1297   YX=     8.2285   ZX=     1.7762
   XY=     5.4998   YY=   157.2477   ZY=    -0.4514
   XZ=    -2.5709   YZ=     4.5166   ZZ=   169.3224
   Eigenvalues:   152.1943   166.7220   169.7835
     18  H    Isotropic =    28.5604   Anisotropy =     9.3860
   XX=    27.4090   YX=    -2.8195   ZX=     3.5917
   XY=    -2.7588   YY=    26.8868   ZY=    -0.5041
   XZ=     4.6229   YZ=    -2.0422   ZZ=    31.3854
   Eigenvalues:    23.7117    27.1518    34.8177
     19  C    Isotropic =   167.7794   Anisotropy =    12.7143
   XX=   170.5837   YX=    -2.4326   ZX=    -7.8688
   XY=     1.8099   YY=   176.0435   ZY=     2.8826
   XZ=    -2.0832   YZ=     0.0120   ZZ=   156.7109
   Eigenvalues:   155.0322   172.0503   176.2556
     20  H    Isotropic =    30.2245   Anisotropy =     7.1446
   XX=    30.1817   YX=     0.7405   ZX=    -3.7210
   XY=     0.1376   YY=    26.7446   ZY=    -0.3411
   XZ=    -1.1583   YZ=     1.0437   ZZ=    33.7470
   Eigenvalues:    26.6130    29.0729    34.9875
     21  H    Isotropic =    29.3992   Anisotropy =    11.3717
   XX=    26.3400   YX=     1.8160   ZX=     2.2937
   XY=     1.8143   YY=    29.9961   ZY=     4.9919
   XZ=     2.5478   YZ=     5.2258   ZZ=    31.8614
   Eigenvalues:    25.4119    25.8053    36.9803
     22  C    Isotropic =   136.0711   Anisotropy =    37.9882
   XX=   147.6864   YX=    17.8731   ZX=   -14.4147
   XY=    18.4916   YY=   124.2802   ZY=     6.9745
   XZ=   -10.4692   YZ=    -0.8220   ZZ=   136.2467
   Eigenvalues:   111.1277   135.6890   161.3966
     23  H    Isotropic =    27.7051   Anisotropy =    10.1498
   XX=    29.5909   YX=    -3.9616   ZX=    -3.2681
   XY=    -3.1792   YY=    29.4646   ZY=     1.7424
   XZ=    -2.3302   YZ=     3.3475   ZZ=    24.0597
   Eigenvalues:    22.6813    25.9623    34.4716
     24  N    Isotropic =   221.5805   Anisotropy =    58.1715
   XX=   248.3679   YX=    25.2874   ZX=     0.3289
   XY=    41.1756   YY=   166.3966   ZY=   -15.7232
   XZ=     7.6863   YZ=   -14.7502   ZZ=   249.9769
   Eigenvalues:   152.0984   252.2816   260.3615
     25  C    Isotropic =   145.9843   Anisotropy =    55.2929
   XX=   142.9006   YX=    17.7306   ZX=    10.8461
   XY=     9.9357   YY=   118.2827   ZY=     8.6563
   XZ=    12.8288   YZ=     7.9272   ZZ=   176.7696
   Eigenvalues:   111.9506   143.1561   182.8462
     26  H    Isotropic =    28.6494   Anisotropy =    11.9050
   XX=    25.2454   YX=     2.0442   ZX=    -0.5614
   XY=     2.2159   YY=    29.0541   ZY=    -4.6996
   XZ=    -1.3491   YZ=    -6.7127   ZZ=    31.6485
   Eigenvalues:    23.6137    25.7483    36.5861
     27  H    Isotropic =    28.8350   Anisotropy =     6.3401
   XX=    28.9277   YX=    -0.6927   ZX=    -1.9667
   XY=    -1.9007   YY=    26.7664   ZY=     1.0706
   XZ=    -2.9185   YZ=     1.7586   ZZ=    30.8110
   Eigenvalues:    26.1335    27.3097    33.0618
     28  C    Isotropic =   151.6063   Anisotropy =    43.1846
   XX=   148.3534   YX=    12.9881   ZX=    -5.9714
   XY=     1.5831   YY=   141.8714   ZY=   -18.9775
   XZ=   -12.3377   YZ=   -20.9578   ZZ=   164.5940
   Eigenvalues:   130.0720   144.3507   180.3960
     29  H    Isotropic =    29.6622   Anisotropy =     9.8606
   XX=    31.1230   YX=    -3.5590   ZX=     1.5202
   XY=    -3.5255   YY=    30.8272   ZY=    -3.8348
   XZ=    -0.0236   YZ=    -5.4933   ZZ=    27.0363
   Eigenvalues:    23.6107    29.1400    36.2359
     30  H    Isotropic =    29.7609   Anisotropy =     7.5231
   XX=    27.3981   YX=     0.8408   ZX=     2.9745
   XY=     1.7103   YY=    27.7575   ZY=     0.3119
   XZ=     0.9795   YZ=     0.8065   ZZ=    34.1272
   Eigenvalues:    26.1073    28.3991    34.7763
     31  C    Isotropic =    31.5510   Anisotropy =   103.1008
   XX=    10.9099   YX=    30.4712   ZX=    -5.3035
   XY=    49.6885   YY=   -16.3296   ZY=     6.8899
   XZ=    -2.1134   YZ=     1.2313   ZZ=   100.0727
   Eigenvalues:   -45.2458    39.6140   100.2849
     32  O    Isotropic =   -56.1378   Anisotropy =   588.9676
   XX=  -212.7753   YX=   -89.9634   ZX=    -3.3397
   XY=   -88.1683   YY=  -291.3552   ZY=    45.6134
   XZ=   -15.0706   YZ=    -9.0970   ZZ=   335.7171
   Eigenvalues:  -349.5664  -155.3542   336.5073
     33  C    Isotropic =   116.6935   Anisotropy =    52.1736
   XX=   134.9730   YX=     7.9485   ZX=   -25.3359
   XY=     0.4851   YY=   101.2849   ZY=    -9.4423
   XZ=   -22.8514   YZ=    -0.3068   ZZ=   113.8227
   Eigenvalues:    97.1607   101.4440   151.4760
     34  H    Isotropic =    27.4060   Anisotropy =     6.6774
   XX=    25.9064   YX=     0.5752   ZX=    -1.1777
   XY=    -1.2416   YY=    29.5313   ZY=    -3.5129
   XZ=     1.7536   YZ=    -3.2914   ZZ=    26.7803
   Eigenvalues:    24.4841    25.8763    31.8576
     35  C    Isotropic =   152.7296   Anisotropy =    41.4355
   XX=   179.4034   YX=     5.1928   ZX=     2.0452
   XY=     6.3999   YY=   144.8748   ZY=     7.5438
   XZ=    -4.4418   YZ=     2.6642   ZZ=   133.9107
   Eigenvalues:   131.6752   146.1604   180.3533
     36  H    Isotropic =    28.9779   Anisotropy =     5.7629
   XX=    28.5740   YX=     0.2427   ZX=    -1.2501
   XY=     0.0928   YY=    29.1260   ZY=     3.5305
   XZ=    -1.1618   YZ=     3.4813   ZZ=    29.2338
   Eigenvalues:    25.3750    28.7389    32.8198
     37  H    Isotropic =    28.5362   Anisotropy =     8.6019
   XX=    27.6589   YX=     1.3223   ZX=     1.4120
   XY=     2.2821   YY=    33.5421   ZY=    -1.6161
   XZ=     1.7767   YZ=    -2.2534   ZZ=    24.4075
   Eigenvalues:    23.1577    28.1802    34.2708
     38  O    Isotropic =   285.2678   Anisotropy =    84.8512
   XX=   301.1795   YX=    22.4629   ZX=    39.0576
   XY=    25.0705   YY=   266.2692   ZY=     4.8953
   XZ=    43.7864   YZ=    -0.5784   ZZ=   288.3547
   Eigenvalues:   242.9407   271.0274   341.8353
     39  C    Isotropic =    55.0947   Anisotropy =   155.6349
   XX=    85.9450   YX=   -20.1409   ZX=    72.1984
   XY=   -13.5891   YY=    -9.4560   ZY=    53.3580
   XZ=    63.5594   YZ=    45.2031   ZZ=    88.7950
   Eigenvalues:   -45.5031    51.9358   158.8513
     40  C    Isotropic =    68.3613   Anisotropy =   128.7931
   XX=    90.9984   YX=   -36.2504   ZX=    67.4993
   XY=   -31.5705   YY=    35.6243   ZY=    55.8675
   XZ=    69.9940   YZ=    38.0336   ZZ=    78.4611
   Eigenvalues:   -32.8298    83.6903   154.2234
     41  C    Isotropic =   133.4082   Anisotropy =    67.9021
   XX=   159.4722   YX=    20.5264   ZX=    18.1532
   XY=    25.1077   YY=   123.5680   ZY=     9.2949
   XZ=    23.7377   YZ=     6.7223   ZZ=   117.1844
   Eigenvalues:   108.2729   113.2755   178.6763
     42  H    Isotropic =    27.7738   Anisotropy =     7.4094
   XX=    29.6436   YX=    -2.5746   ZX=     5.0614
   XY=    -0.8461   YY=    26.8681   ZY=     0.2709
   XZ=     2.4061   YZ=    -1.2737   ZZ=    26.8096
   Eigenvalues:    24.1036    26.5044    32.7133
     43  H    Isotropic =    27.7110   Anisotropy =    10.3890
   XX=    33.9866   YX=    -2.1788   ZX=    -2.9532
   XY=    -0.8652   YY=    26.3797   ZY=     0.8737
   XZ=    -0.9428   YZ=     0.6561   ZZ=    22.7666
   Eigenvalues:    22.3717    26.1242    34.6370
     44  H    Isotropic =    25.4182   Anisotropy =     5.6031
   XX=    27.6320   YX=    -0.7914   ZX=    -1.6352
   XY=    -2.5246   YY=    26.2405   ZY=     1.4254
   XZ=    -0.7314   YZ=     1.0852   ZZ=    22.3822
   Eigenvalues:    21.9204    25.1806    29.1536
     45  C    Isotropic =   144.0660   Anisotropy =    28.0798
   XX=   156.7210   YX=    -4.3390   ZX=    10.4150
   XY=   -12.8180   YY=   139.0450   ZY=    -4.4153
   XZ=     4.9032   YZ=    -1.7474   ZZ=   136.4321
   Eigenvalues:   133.8456   135.5665   162.7859
     46  H    Isotropic =    28.9251   Anisotropy =     8.8856
   XX=    33.4865   YX=     2.0773   ZX=    -2.3210
   XY=     2.1127   YY=    27.5090   ZY=    -1.7735
   XZ=    -1.6514   YZ=    -2.2029   ZZ=    25.7799
   Eigenvalues:    24.4399    27.4866    34.8489
     47  H    Isotropic =    28.0927   Anisotropy =    10.1128
   XX=    29.4622   YX=     4.2613   ZX=     4.0667
   XY=     2.3585   YY=    28.1524   ZY=     2.5353
   XZ=     2.9066   YZ=     3.6436   ZZ=    26.6636
   Eigenvalues:    23.9953    25.4483    34.8346
 End of Minotr Frequency-dependent properties file   721 does not exist.
 End of Minotr Frequency-dependent properties file   722 does not exist.

 **********************************************************************

            Population analysis using the SCF density.

 **********************************************************************

 Orbital symmetries:
       Occupied  (A) (A) (A) (A) (A) (A) (A) (A) (A) (A) (A) (A)
                 (A) (A) (A) (A) (A) (A) (A) (A) (A) (A) (A) (A)
                 (A) (A) (A) (A) (A) (A) (A) (A) (A) (A) (A) (A)
                 (A) (A) (A) (A) (A) (A) (A) (A) (A) (A) (A) (A)
                 (A) (A) (A) (A) (A) (A) (A) (A) (A) (A) (A) (A)
                 (A) (A) (A) (A) (A) (A) (A) (A) (A) (A) (A) (A)
                 (A) (A) (A) (A) (A) (A) (A) (A) (A) (A) (A) (A)
                 (A) (A) (A) (A) (A)
       Virtual   (A) (A) (A) (A) (A) (A) (A) (A) (A) (A) (A) (A)
                 (A) (A) (A) (A) (A) (A) (A) (A) (A) (A) (A) (A)
                 (A) (A) (A) (A) (A) (A) (A) (A) (A) (A) (A) (A)
                 (A) (A) (A) (A) (A) (A) (A) (A) (A) (A) (A) (A)
                 (A) (A) (A) (A) (A) (A) (A) (A) (A) (A) (A) (A)
                 (A) (A) (A) (A) (A) (A) (A) (A) (A) (A) (A) (A)
                 (A) (A) (A) (A) (A) (A) (A) (A) (A) (A) (A) (A)
                 (A) (A) (A) (A) (A) (A) (A) (A) (A) (A) (A) (A)
                 (A) (A) (A) (A) (A) (A) (A) (A) (A) (A) (A) (A)
                 (A) (A) (A) (A) (A) (A) (A) (A) (A) (A) (A) (A)
                 (A) (A) (A) (A) (A) (A) (A) (A) (A) (A) (A) (A)
                 (A) (A) (A) (A) (A) (A) (A) (A) (A) (A) (A) (A)
                 (A) (A) (A) (A) (A) (A) (A) (A) (A) (A) (A) (A)
                 (A) (A) (A) (A) (A) (A) (A) (A) (A) (A) (A) (A)
                 (A) (A) (A) (A) (A) (A) (A) (A) (A) (A) (A) (A)
                 (A) (A) (A) (A) (A) (A) (A) (A) (A) (A) (A) (A)
                 (A) (A) (A) (A) (A) (A) (A) (A) (A) (A) (A) (A)
                 (A) (A) (A) (A) (A) (A) (A) (A) (A) (A) (A) (A)
                 (A) (A) (A) (A) (A) (A) (A) (A) (A) (A) (A) (A)
                 (A) (A) (A) (A) (A) (A) (A) (A) (A) (A) (A) (A)
                 (A) (A) (A) (A) (A) (A) (A) (A) (A) (A) (A) (A)
                 (A) (A) (A) (A) (A) (A) (A) (A) (A) (A) (A) (A)
                 (A) (A) (A) (A) (A) (A) (A) (A) (A) (A) (A) (A)
                 (A) (A) (A) (A) (A) (A) (A) (A) (A) (A) (A) (A)
                 (A) (A) (A) (A) (A) (A) (A) (A) (A) (A) (A) (A)
                 (A) (A) (A) (A) (A) (A) (A) (A) (A) (A) (A) (A)
                 (A) (A) (A) (A) (A) (A) (A) (A) (A) (A) (A) (A)
                 (A) (A) (A) (A) (A) (A) (A) (A) (A) (A) (A) (A)
                 (A) (A) (A) (A) (A) (A) (A) (A) (A) (A) (A) (A)
                 (A) (A) (A) (A) (A) (A) (A) (A) (A) (A) (A) (A)
                 (A) (A) (A) (A) (A) (A) (A) (A) (A) (A) (A) (A)
                 (A) (A) (A) (A) (A) (A) (A) (A) (A) (A) (A) (A)
                 (A) (A) (A) (A) (A) (A) (A) (A) (A) (A) (A) (A)
 The electronic state is 1-A.
 Alpha  occ. eigenvalues --  -19.23734 -19.20892 -14.45299 -14.39728 -10.35238
 Alpha  occ. eigenvalues --  -10.30105 -10.28809 -10.28799 -10.28325 -10.27292
 Alpha  occ. eigenvalues --  -10.26724 -10.26396 -10.25626 -10.25432 -10.25414
 Alpha  occ. eigenvalues --  -10.25331 -10.24966 -10.24894 -10.24828 -10.24814
 Alpha  occ. eigenvalues --  -10.24479 -10.24450 -10.24120 -10.23838 -10.23343
 Alpha  occ. eigenvalues --   -1.06516  -1.05584  -0.99419  -0.95862  -0.87922
 Alpha  occ. eigenvalues --   -0.85405  -0.84191  -0.82306  -0.78660  -0.76865
 Alpha  occ. eigenvalues --   -0.76372  -0.75180  -0.73131  -0.71595  -0.67607
 Alpha  occ. eigenvalues --   -0.66131  -0.64400  -0.64107  -0.61698  -0.59517
 Alpha  occ. eigenvalues --   -0.58621  -0.56666  -0.56459  -0.52288  -0.52088
 Alpha  occ. eigenvalues --   -0.51589  -0.50374  -0.49400  -0.49268  -0.48185
 Alpha  occ. eigenvalues --   -0.47410  -0.47126  -0.46039  -0.45632  -0.45416
 Alpha  occ. eigenvalues --   -0.44631  -0.43957  -0.42079  -0.41839  -0.41186
 Alpha  occ. eigenvalues --   -0.40350  -0.40012  -0.39523  -0.39099  -0.38188
 Alpha  occ. eigenvalues --   -0.37651  -0.37333  -0.36989  -0.36529  -0.35991
 Alpha  occ. eigenvalues --   -0.35594  -0.34329  -0.33526  -0.33232  -0.32997
 Alpha  occ. eigenvalues --   -0.32096  -0.31427  -0.30244  -0.26822  -0.26255
 Alpha  occ. eigenvalues --   -0.25638  -0.24265  -0.21836  -0.20976
 Alpha virt. eigenvalues --   -0.00511   0.00191   0.01370   0.04926   0.09643
 Alpha virt. eigenvalues --    0.10613   0.11531   0.12179   0.12346   0.13070
 Alpha virt. eigenvalues --    0.13099   0.13728   0.14595   0.15192   0.15922
 Alpha virt. eigenvalues --    0.16244   0.17291   0.17481   0.18020   0.18831
 Alpha virt. eigenvalues --    0.19226   0.19612   0.19783   0.20159   0.20486
 Alpha virt. eigenvalues --    0.21078   0.21373   0.21609   0.22085   0.22790
 Alpha virt. eigenvalues --    0.23155   0.23318   0.24356   0.24638   0.25019
 Alpha virt. eigenvalues --    0.26328   0.26752   0.27261   0.27705   0.28023
 Alpha virt. eigenvalues --    0.28813   0.30339   0.30958   0.31763   0.33266
 Alpha virt. eigenvalues --    0.33613   0.33776   0.35955   0.36533   0.37507
 Alpha virt. eigenvalues --    0.37819   0.39103   0.40198   0.41727   0.43377
 Alpha virt. eigenvalues --    0.44149   0.49431   0.50585   0.51649   0.53088
 Alpha virt. eigenvalues --    0.53727   0.54083   0.54936   0.55973   0.56440
 Alpha virt. eigenvalues --    0.56751   0.57405   0.58050   0.58614   0.59098
 Alpha virt. eigenvalues --    0.59408   0.60263   0.60821   0.61018   0.61927
 Alpha virt. eigenvalues --    0.62209   0.62704   0.63114   0.64166   0.64333
 Alpha virt. eigenvalues --    0.64585   0.64799   0.66221   0.66672   0.67227
 Alpha virt. eigenvalues --    0.67616   0.68321   0.69721   0.70407   0.70913
 Alpha virt. eigenvalues --    0.71296   0.72084   0.73626   0.73941   0.75549
 Alpha virt. eigenvalues --    0.76180   0.76686   0.77503   0.79025   0.79606
 Alpha virt. eigenvalues --    0.80680   0.81709   0.81952   0.82373   0.82732
 Alpha virt. eigenvalues --    0.83624   0.84202   0.84364   0.84512   0.85389
 Alpha virt. eigenvalues --    0.85793   0.86196   0.86559   0.86938   0.87272
 Alpha virt. eigenvalues --    0.88508   0.88928   0.89951   0.90110   0.90677
 Alpha virt. eigenvalues --    0.91010   0.92323   0.92765   0.93258   0.94096
 Alpha virt. eigenvalues --    0.94754   0.95300   0.95885   0.96789   0.97191
 Alpha virt. eigenvalues --    0.97966   0.98201   0.98963   0.99167   1.00792
 Alpha virt. eigenvalues --    1.01238   1.02263   1.03152   1.05103   1.05463
 Alpha virt. eigenvalues --    1.06759   1.08373   1.09839   1.10920   1.11262
 Alpha virt. eigenvalues --    1.12786   1.14303   1.14845   1.15755   1.17647
 Alpha virt. eigenvalues --    1.18405   1.20538   1.20984   1.21512   1.22830
 Alpha virt. eigenvalues --    1.25557   1.26494   1.27188   1.28633   1.31199
 Alpha virt. eigenvalues --    1.32099   1.35109   1.35756   1.36382   1.38019
 Alpha virt. eigenvalues --    1.38955   1.39819   1.40634   1.41458   1.42326
 Alpha virt. eigenvalues --    1.44142   1.45067   1.45889   1.46037   1.48685
 Alpha virt. eigenvalues --    1.51436   1.53046   1.54555   1.56976   1.59361
 Alpha virt. eigenvalues --    1.60057   1.60657   1.63752   1.64551   1.65827
 Alpha virt. eigenvalues --    1.66372   1.67949   1.68750   1.70556   1.71336
 Alpha virt. eigenvalues --    1.72300   1.72984   1.73321   1.74174   1.76562
 Alpha virt. eigenvalues --    1.77212   1.78145   1.78249   1.79079   1.80374
 Alpha virt. eigenvalues --    1.81516   1.82212   1.83057   1.83464   1.83844
 Alpha virt. eigenvalues --    1.84989   1.85819   1.86417   1.86863   1.87569
 Alpha virt. eigenvalues --    1.89216   1.89267   1.89928   1.90156   1.90678
 Alpha virt. eigenvalues --    1.91750   1.92174   1.93766   1.93909   1.94443
 Alpha virt. eigenvalues --    1.96039   1.97384   1.98083   1.98539   1.99277
 Alpha virt. eigenvalues --    1.99562   2.00432   2.01319   2.01556   2.02458
 Alpha virt. eigenvalues --    2.03681   2.04243   2.04351   2.06102   2.06387
 Alpha virt. eigenvalues --    2.07080   2.08595   2.09638   2.11062   2.11327
 Alpha virt. eigenvalues --    2.12260   2.12472   2.13602   2.15047   2.15402
 Alpha virt. eigenvalues --    2.16053   2.17244   2.18213   2.18858   2.20462
 Alpha virt. eigenvalues --    2.22041   2.23072   2.23426   2.25093   2.25993
 Alpha virt. eigenvalues --    2.27116   2.27634   2.28781   2.29794   2.30075
 Alpha virt. eigenvalues --    2.31168   2.31929   2.32444   2.33865   2.34499
 Alpha virt. eigenvalues --    2.36231   2.38538   2.38908   2.39993   2.40641
 Alpha virt. eigenvalues --    2.40848   2.41246   2.41749   2.43224   2.44060
 Alpha virt. eigenvalues --    2.44481   2.44983   2.46061   2.46530   2.47252
 Alpha virt. eigenvalues --    2.49747   2.50490   2.50839   2.51860   2.52702
 Alpha virt. eigenvalues --    2.53330   2.54516   2.55197   2.56543   2.57453
 Alpha virt. eigenvalues --    2.58429   2.58644   2.59373   2.60517   2.60591
 Alpha virt. eigenvalues --    2.61622   2.62370   2.62883   2.64076   2.65132
 Alpha virt. eigenvalues --    2.66233   2.67027   2.68122   2.68570   2.69585
 Alpha virt. eigenvalues --    2.69781   2.70217   2.71508   2.72101   2.73565
 Alpha virt. eigenvalues --    2.73720   2.76400   2.77239   2.77465   2.79038
 Alpha virt. eigenvalues --    2.79428   2.79933   2.81094   2.81966   2.82564
 Alpha virt. eigenvalues --    2.84939   2.86118   2.86768   2.87803   2.88411
 Alpha virt. eigenvalues --    2.89487   2.90809   2.92060   2.92368   2.93611
 Alpha virt. eigenvalues --    2.94335   2.96809   2.97446   2.97880   2.99291
 Alpha virt. eigenvalues --    3.02070   3.02716   3.04808   3.05863   3.06831
 Alpha virt. eigenvalues --    3.07716   3.09624   3.11989   3.14354   3.17571
 Alpha virt. eigenvalues --    3.17890   3.24596   3.26900   3.27606   3.29490
 Alpha virt. eigenvalues --    3.30827   3.32713   3.34295   3.34799   3.36814
 Alpha virt. eigenvalues --    3.38573   3.41757   3.42850   3.44067   3.45263
 Alpha virt. eigenvalues --    3.47108   3.48419   3.50554   3.51593   3.52595
 Alpha virt. eigenvalues --    3.53161   3.53621   3.53812   3.54603   3.58864
 Alpha virt. eigenvalues --    3.88969   4.04305   4.15786   4.17205   4.20201
 Alpha virt. eigenvalues --    4.22038   4.24590   4.31294   4.34364   4.40290
 Alpha virt. eigenvalues --    4.45950   4.47373   4.50469   4.53712   4.54824
 Alpha virt. eigenvalues --    4.60536   4.63261   4.70402   4.71931   4.79898
 Alpha virt. eigenvalues --    4.83985   4.87314   4.92929   4.96391   5.03593
 Alpha virt. eigenvalues --    5.07329
          Condensed to atoms (all electrons):
              1          2          3          4          5          6
     1  H    0.536479   0.378483   0.000255  -0.035539  -0.037352   0.003890
     2  C    0.378483   4.977007  -0.052204   0.543636   0.501897  -0.039194
     3  C    0.000255  -0.052204   5.015394  -0.054189  -0.039522   0.494374
     4  C   -0.035539   0.543636  -0.054189   4.919443  -0.028156  -0.036974
     5  C   -0.037352   0.501897  -0.039522  -0.028156   4.923518   0.536813
     6  C    0.003890  -0.039194   0.494374  -0.036974   0.536813   4.917983
     7  C    0.004205  -0.034692   0.528399   0.515002  -0.042756  -0.024434
     8  H   -0.003985  -0.033691   0.003688   0.002813   0.379461  -0.036110
     9  H   -0.000145   0.003787  -0.032491   0.000853  -0.035751   0.380215
    10  H    0.000012   0.000222   0.364654   0.004374   0.003916  -0.035448
    11  C   -0.007171  -0.074816   0.010591   0.308042   0.006663  -0.000186
    12  C    0.000078   0.008572   0.004290  -0.031846  -0.000380  -0.000081
    13  H   -0.000002  -0.000177  -0.000147   0.003138   0.000005   0.000003
    14  N   -0.000093   0.009845  -0.083636  -0.045181  -0.000284   0.005727
    15  C   -0.000007  -0.000220  -0.000016  -0.003015   0.000009  -0.000005
    16  H    0.000000  -0.000062  -0.000127   0.001979  -0.000003  -0.000005
    17  C    0.000003   0.000033   0.000000  -0.000781   0.000001   0.000000
    18  H    0.000000  -0.000001   0.000000  -0.000010   0.000000   0.000000
    19  C   -0.000074  -0.000671   0.000014  -0.003044  -0.000015   0.000001
    20  H    0.000025   0.000906  -0.000012   0.004182  -0.000022  -0.000008
    21  H    0.000002  -0.000017   0.000000  -0.000062   0.000000   0.000000
    22  C    0.001031  -0.004247  -0.000152  -0.036904   0.000174   0.000007
    23  H    0.003713   0.004344  -0.000008  -0.005618  -0.000049   0.000004
    24  N   -0.000121   0.000214   0.000001   0.005524   0.000000   0.000000
    25  C   -0.000062   0.000365   0.000002   0.007415   0.000002   0.000000
    26  H    0.000006  -0.000008   0.000000  -0.000066   0.000000   0.000000
    27  H   -0.000001  -0.000009   0.000000  -0.000452   0.000000   0.000000
    28  C    0.000277  -0.007884  -0.000021  -0.063763   0.000052   0.000012
    29  H    0.001295   0.003703  -0.000023  -0.007069  -0.000168   0.000002
    30  H   -0.000014  -0.000364   0.000005  -0.001548   0.000010  -0.000010
    31  C    0.000001  -0.000086  -0.002724   0.006048   0.000009   0.000294
    32  O    0.000000  -0.000004  -0.003280   0.000469  -0.000001   0.000492
    33  C    0.000000   0.000006  -0.000044   0.000105   0.000000   0.000000
    34  H    0.000000   0.000000   0.000000  -0.000006   0.000000   0.000000
    35  C    0.000000   0.000000   0.000565  -0.000516   0.000000   0.000005
    36  H    0.000000   0.000000  -0.000009   0.000012   0.000000   0.000000
    37  H    0.000000   0.000000   0.000002   0.000003   0.000000   0.000000
    38  O    0.000000   0.000000   0.000000  -0.000006   0.000000   0.000000
    39  C    0.000000   0.000002   0.000000   0.000163   0.000000   0.000000
    40  C    0.000000   0.000000   0.000000   0.000000   0.000000   0.000000
    41  C    0.000000   0.000000   0.000000   0.000001   0.000000   0.000000
    42  H    0.000000   0.000000   0.000000   0.000000   0.000000   0.000000
    43  H    0.000000   0.000000   0.000000   0.000000   0.000000   0.000000
    44  H    0.000000   0.000000   0.000000   0.000000   0.000000   0.000000
    45  C    0.000001  -0.000004   0.000000  -0.000211   0.000000   0.000000
    46  H    0.000000   0.000000   0.000000   0.000003   0.000000   0.000000
    47  H    0.000000   0.000001   0.000000   0.000011   0.000000   0.000000
              7          8          9         10         11         12
     1  H    0.004205  -0.003985  -0.000145   0.000012  -0.007171   0.000078
     2  C   -0.034692  -0.033691   0.003787   0.000222  -0.074816   0.008572
     3  C    0.528399   0.003688  -0.032491   0.364654   0.010591   0.004290
     4  C    0.515002   0.002813   0.000853   0.004374   0.308042  -0.031846
     5  C   -0.042756   0.379461  -0.035751   0.003916   0.006663  -0.000380
     6  C   -0.024434  -0.036110   0.380215  -0.035448  -0.000186  -0.000081
     7  C    4.679234   0.000841   0.002488  -0.027492  -0.046516  -0.072263
     8  H    0.000841   0.544864  -0.004239  -0.000127  -0.000153   0.000003
     9  H    0.002488  -0.004239   0.536747  -0.004460   0.000006   0.000003
    10  H   -0.027492  -0.000127  -0.004460   0.515905  -0.000164  -0.000054
    11  C   -0.046516  -0.000153   0.000006  -0.000164   5.259484   0.315450
    12  C   -0.072263   0.000003   0.000003  -0.000054   0.315450   5.070006
    13  H    0.004104   0.000000   0.000000  -0.000002  -0.037032   0.387958
    14  N    0.207120   0.000003  -0.000091  -0.009098  -0.054281   0.241027
    15  C    0.004823   0.000000   0.000000   0.000010  -0.029685   0.310539
    16  H    0.002946   0.000000   0.000000   0.000005  -0.002474  -0.049433
    17  C   -0.000277   0.000000   0.000000   0.000000  -0.013989  -0.041289
    18  H    0.000004   0.000000   0.000000   0.000000   0.000158   0.005452
    19  C    0.000537   0.000000   0.000000   0.000000  -0.031309  -0.018738
    20  H    0.000023   0.000000   0.000000   0.000000  -0.007493  -0.000599
    21  H    0.000000   0.000000   0.000000   0.000000   0.005488   0.000142
    22  C    0.002802  -0.000001   0.000000   0.000001   0.351070  -0.037890
    23  H   -0.000104   0.000002   0.000000   0.000000  -0.051812   0.004831
    24  N   -0.000226   0.000000   0.000000   0.000000  -0.052690  -0.000870
    25  C   -0.000275   0.000000   0.000000   0.000000  -0.052902  -0.002445
    26  H    0.000001   0.000000   0.000000   0.000000   0.005022   0.000043
    27  H    0.000033   0.000000   0.000000   0.000000  -0.006589   0.001996
    28  C    0.001626   0.000001   0.000000   0.000003   0.366775  -0.050661
    29  H   -0.000001   0.000003   0.000000   0.000000  -0.037528   0.005018
    30  H    0.002301   0.000000   0.000000   0.000001  -0.027346  -0.007615
    31  C   -0.032634   0.000000  -0.000002   0.001818   0.002342  -0.024793
    32  O   -0.002315   0.000000  -0.000004   0.018603  -0.000102   0.002746
    33  C   -0.000925   0.000000   0.000000  -0.000012   0.003338  -0.032740
    34  H    0.000030   0.000000   0.000000   0.000000  -0.000102   0.005860
    35  C    0.006436   0.000000   0.000000   0.000279  -0.000036  -0.008695
    36  H   -0.000196   0.000000   0.000000  -0.000005   0.000004   0.000644
    37  H   -0.000066   0.000000   0.000000   0.000004   0.000004   0.000002
    38  O    0.000006   0.000000   0.000000   0.000000   0.000130  -0.005370
    39  C   -0.000016   0.000000   0.000000   0.000000  -0.003883  -0.006664
    40  C   -0.000001   0.000000   0.000000   0.000000  -0.000008  -0.000548
    41  C   -0.000001   0.000000   0.000000   0.000000  -0.000009  -0.000325
    42  H    0.000000   0.000000   0.000000   0.000000  -0.000001   0.000198
    43  H    0.000000   0.000000   0.000000   0.000000   0.000000  -0.000020
    44  H    0.000000   0.000000   0.000000   0.000000   0.000002  -0.000021
    45  C    0.000008   0.000000   0.000000   0.000000   0.001332   0.002399
    46  H    0.000000   0.000000   0.000000   0.000000  -0.000111  -0.000057
    47  H    0.000000   0.000000   0.000000   0.000000   0.000063   0.000017
             13         14         15         16         17         18
     1  H   -0.000002  -0.000093  -0.000007   0.000000   0.000003   0.000000
     2  C   -0.000177   0.009845  -0.000220  -0.000062   0.000033  -0.000001
     3  C   -0.000147  -0.083636  -0.000016  -0.000127   0.000000   0.000000
     4  C    0.003138  -0.045181  -0.003015   0.001979  -0.000781  -0.000010
     5  C    0.000005  -0.000284   0.000009  -0.000003   0.000001   0.000000
     6  C    0.000003   0.005727  -0.000005  -0.000005   0.000000   0.000000
     7  C    0.004104   0.207120   0.004823   0.002946  -0.000277   0.000004
     8  H    0.000000   0.000003   0.000000   0.000000   0.000000   0.000000
     9  H    0.000000  -0.000091   0.000000   0.000000   0.000000   0.000000
    10  H   -0.000002  -0.009098   0.000010   0.000005   0.000000   0.000000
    11  C   -0.037032  -0.054281  -0.029685  -0.002474  -0.013989   0.000158
    12  C    0.387958   0.241027   0.310539  -0.049433  -0.041289   0.005452
    13  H    0.551435  -0.037713  -0.049814   0.005633  -0.001738  -0.000076
    14  N   -0.037713   7.383284  -0.071886  -0.006891   0.005801  -0.000131
    15  C   -0.049814  -0.071886   5.202768   0.384498   0.341682  -0.033660
    16  H    0.005633  -0.006891   0.384498   0.588582  -0.040403  -0.004964
    17  C   -0.001738   0.005801   0.341682  -0.040403   5.114924   0.389441
    18  H   -0.000076  -0.000131  -0.033660  -0.004964   0.389441   0.564311
    19  C    0.000380   0.000433  -0.051509  -0.007626   0.343482  -0.036652
    20  H   -0.000010  -0.000292  -0.005483   0.005044  -0.034590  -0.001563
    21  H    0.000015   0.000006   0.005216   0.000228  -0.032528  -0.004170
    22  C    0.001602   0.001829  -0.015876  -0.000412  -0.030678   0.004758
    23  H   -0.000157  -0.000073   0.000074  -0.000062   0.005010  -0.000145
    24  N   -0.000143  -0.000059   0.000600   0.000074  -0.015418  -0.000040
    25  C   -0.000181  -0.000024   0.000111  -0.000014  -0.000207   0.000017
    26  H   -0.000141  -0.000003   0.000006   0.000000  -0.000032   0.000000
    27  H    0.003649   0.000075  -0.000559   0.000004   0.000194   0.000011
    28  C   -0.004998  -0.000109   0.004194  -0.000048   0.000052   0.000003
    29  H    0.000230  -0.000053  -0.000154   0.000002   0.000003   0.000000
    30  H    0.001039   0.000792   0.000259  -0.000001   0.000006   0.000000
    31  C   -0.003239   0.266470  -0.001529  -0.001112   0.000457  -0.000011
    32  O   -0.000043  -0.084922  -0.000582  -0.000244  -0.000003   0.000000
    33  C   -0.012408  -0.001907   0.331339  -0.036907  -0.031667  -0.003994
    34  H    0.000769  -0.000013  -0.057074  -0.001520  -0.004998   0.002850
    35  C    0.000219  -0.113553  -0.056219  -0.000114   0.004210  -0.000034
    36  H    0.001403  -0.000085  -0.000307   0.000005  -0.000094   0.000000
    37  H   -0.000024   0.004152   0.003181   0.000195  -0.000102  -0.000001
    38  O    0.012381   0.000302  -0.048790   0.003210  -0.004593  -0.000921
    39  C    0.003435   0.000048  -0.049049   0.006784   0.361608  -0.037054
    40  C    0.001162   0.000019  -0.003264  -0.000045  -0.063461  -0.008358
    41  C   -0.000639   0.000005  -0.003516  -0.000185  -0.003782   0.000855
    42  H    0.000104   0.000002  -0.002803   0.000091   0.001113   0.004008
    43  H    0.000029   0.000000  -0.000110   0.000013  -0.000094  -0.000049
    44  H    0.000068   0.000000  -0.000191   0.000006   0.005046  -0.000071
    45  C   -0.000663   0.000000   0.001428  -0.000201  -0.060187   0.003083
    46  H    0.000004   0.000000  -0.000092   0.000003   0.004666  -0.000101
    47  H    0.000005   0.000000  -0.000027   0.000008  -0.005379   0.000275
             19         20         21         22         23         24
     1  H   -0.000074   0.000025   0.000002   0.001031   0.003713  -0.000121
     2  C   -0.000671   0.000906  -0.000017  -0.004247   0.004344   0.000214
     3  C    0.000014  -0.000012   0.000000  -0.000152  -0.000008   0.000001
     4  C   -0.003044   0.004182  -0.000062  -0.036904  -0.005618   0.005524
     5  C   -0.000015  -0.000022   0.000000   0.000174  -0.000049   0.000000
     6  C    0.000001  -0.000008   0.000000   0.000007   0.000004   0.000000
     7  C    0.000537   0.000023   0.000000   0.002802  -0.000104  -0.000226
     8  H    0.000000   0.000000   0.000000  -0.000001   0.000002   0.000000
     9  H    0.000000   0.000000   0.000000   0.000000   0.000000   0.000000
    10  H    0.000000   0.000000   0.000000   0.000001   0.000000   0.000000
    11  C   -0.031309  -0.007493   0.005488   0.351070  -0.051812  -0.052690
    12  C   -0.018738  -0.000599   0.000142  -0.037890   0.004831  -0.000870
    13  H    0.000380  -0.000010   0.000015   0.001602  -0.000157  -0.000143
    14  N    0.000433  -0.000292   0.000006   0.001829  -0.000073  -0.000059
    15  C   -0.051509  -0.005483   0.005216  -0.015876   0.000074   0.000600
    16  H   -0.007626   0.005044   0.000228  -0.000412  -0.000062   0.000074
    17  C    0.343482  -0.034590  -0.032528  -0.030678   0.005010  -0.015418
    18  H   -0.036652  -0.001563  -0.004170   0.004758  -0.000145  -0.000040
    19  C    5.091213   0.384577   0.385729   0.349210  -0.044580  -0.049413
    20  H    0.384577   0.556386  -0.029995  -0.028939  -0.000820   0.004015
    21  H    0.385729  -0.029995   0.564215  -0.032329  -0.005587  -0.003503
    22  C    0.349210  -0.028939  -0.032329   4.929067   0.406977   0.290158
    23  H   -0.044580  -0.000820  -0.005587   0.406977   0.592874  -0.053630
    24  N   -0.049413   0.004015  -0.003503   0.290158  -0.053630   7.076027
    25  C    0.005041  -0.000170  -0.000099  -0.087544   0.003476   0.293786
    26  H   -0.000211   0.000005  -0.000007   0.004350   0.000371  -0.046462
    27  H    0.000197  -0.000002   0.000017   0.003086  -0.000469  -0.052662
    28  C    0.007277   0.000073  -0.000154  -0.082422  -0.004641  -0.064639
    29  H    0.000030  -0.000007   0.000003  -0.000373   0.000818  -0.000627
    30  H   -0.000179  -0.000001   0.000003   0.005662  -0.000091   0.003689
    31  C   -0.000010  -0.000017   0.000000  -0.000010   0.000002   0.000002
    32  O    0.000000   0.000000   0.000000   0.000000   0.000000   0.000000
    33  C    0.004447   0.000119  -0.000124   0.000096   0.000008   0.000032
    34  H   -0.000123  -0.000003   0.000000   0.000003   0.000000   0.000001
    35  C   -0.000177  -0.000001   0.000002  -0.000018   0.000000   0.000000
    36  H    0.000002   0.000000   0.000000   0.000001   0.000000   0.000000
    37  H    0.000002   0.000000   0.000000   0.000000   0.000000   0.000000
    38  O    0.000016   0.000001   0.000001  -0.000016   0.000000   0.000022
    39  C   -0.049015   0.004999  -0.004615  -0.012454   0.000080  -0.058792
    40  C    0.005832  -0.000134  -0.000226   0.000243   0.000014   0.002079
    41  C    0.000050  -0.000003   0.000011  -0.000002   0.000000  -0.000147
    42  H   -0.000078   0.000002  -0.000004   0.000002   0.000000  -0.000003
    43  H   -0.000002   0.000000   0.000000   0.000000   0.000000   0.000003
    44  H   -0.000164   0.000003  -0.000002   0.000008   0.000000   0.000206
    45  C   -0.009360   0.000067   0.002159  -0.048521   0.002895   0.292925
    46  H    0.000052   0.000002  -0.000004   0.004788  -0.000148  -0.030772
    47  H    0.000675   0.000076  -0.000585  -0.004779   0.000753  -0.045904
             25         26         27         28         29         30
     1  H   -0.000062   0.000006  -0.000001   0.000277   0.001295  -0.000014
     2  C    0.000365  -0.000008  -0.000009  -0.007884   0.003703  -0.000364
     3  C    0.000002   0.000000   0.000000  -0.000021  -0.000023   0.000005
     4  C    0.007415  -0.000066  -0.000452  -0.063763  -0.007069  -0.001548
     5  C    0.000002   0.000000   0.000000   0.000052  -0.000168   0.000010
     6  C    0.000000   0.000000   0.000000   0.000012   0.000002  -0.000010
     7  C   -0.000275   0.000001   0.000033   0.001626  -0.000001   0.002301
     8  H    0.000000   0.000000   0.000000   0.000001   0.000003   0.000000
     9  H    0.000000   0.000000   0.000000   0.000000   0.000000   0.000000
    10  H    0.000000   0.000000   0.000000   0.000003   0.000000   0.000001
    11  C   -0.052902   0.005022  -0.006589   0.366775  -0.037528  -0.027346
    12  C   -0.002445   0.000043   0.001996  -0.050661   0.005018  -0.007615
    13  H   -0.000181  -0.000141   0.003649  -0.004998   0.000230   0.001039
    14  N   -0.000024  -0.000003   0.000075  -0.000109  -0.000053   0.000792
    15  C    0.000111   0.000006  -0.000559   0.004194  -0.000154   0.000259
    16  H   -0.000014   0.000000   0.000004  -0.000048   0.000002  -0.000001
    17  C   -0.000207  -0.000032   0.000194   0.000052   0.000003   0.000006
    18  H    0.000017   0.000000   0.000011   0.000003   0.000000   0.000000
    19  C    0.005041  -0.000211   0.000197   0.007277   0.000030  -0.000179
    20  H   -0.000170   0.000005  -0.000002   0.000073  -0.000007  -0.000001
    21  H   -0.000099  -0.000007   0.000017  -0.000154   0.000003   0.000003
    22  C   -0.087544   0.004350   0.003086  -0.082422  -0.000373   0.005662
    23  H    0.003476   0.000371  -0.000469  -0.004641   0.000818  -0.000091
    24  N    0.293786  -0.046462  -0.052662  -0.064639  -0.000627   0.003689
    25  C    4.925598   0.399089   0.378475   0.326728  -0.034780  -0.029453
    26  H    0.399089   0.585152  -0.045342  -0.034528  -0.008828   0.002138
    27  H    0.378475  -0.045342   0.616191  -0.029154   0.005268  -0.006615
    28  C    0.326728  -0.034528  -0.029154   5.121416   0.388697   0.385701
    29  H   -0.034780  -0.008828   0.005268   0.388697   0.562835  -0.029050
    30  H   -0.029453   0.002138  -0.006615   0.385701  -0.029050   0.548743
    31  C    0.000011   0.000000  -0.000002  -0.000183   0.000004  -0.000063
    32  O    0.000000   0.000000   0.000000   0.000000   0.000000   0.000000
    33  C    0.000010   0.000000   0.000002  -0.000122   0.000002  -0.000013
    34  H    0.000000   0.000000  -0.000001   0.000001   0.000000   0.000000
    35  C   -0.000001   0.000000   0.000000   0.000012   0.000000   0.000005
    36  H    0.000000   0.000000   0.000000  -0.000003   0.000000  -0.000001
    37  H    0.000000   0.000000   0.000000   0.000000   0.000000   0.000000
    38  O   -0.000001   0.000000  -0.000066  -0.000008   0.000000  -0.000001
    39  C   -0.006100  -0.000227   0.008371  -0.000225  -0.000018   0.000026
    40  C   -0.000189   0.000049   0.002583  -0.000213  -0.000001   0.000001
    41  C   -0.000029  -0.000001   0.000027   0.000009   0.000000   0.000000
    42  H    0.000000   0.000000   0.000004   0.000000   0.000000   0.000000
    43  H    0.000001   0.000000  -0.000010   0.000000   0.000000   0.000000
    44  H   -0.000041   0.000006   0.000089  -0.000004   0.000000   0.000000
    45  C   -0.048076   0.000760  -0.005968   0.005302   0.000002  -0.000199
    46  H   -0.006846   0.001110  -0.000125   0.000290  -0.000008  -0.000003
    47  H    0.005794   0.000041   0.000012  -0.000473   0.000007   0.000003
             31         32         33         34         35         36
     1  H    0.000001   0.000000   0.000000   0.000000   0.000000   0.000000
     2  C   -0.000086  -0.000004   0.000006   0.000000   0.000000   0.000000
     3  C   -0.002724  -0.003280  -0.000044   0.000000   0.000565  -0.000009
     4  C    0.006048   0.000469   0.000105  -0.000006  -0.000516   0.000012
     5  C    0.000009  -0.000001   0.000000   0.000000   0.000000   0.000000
     6  C    0.000294   0.000492   0.000000   0.000000   0.000005   0.000000
     7  C   -0.032634  -0.002315  -0.000925   0.000030   0.006436  -0.000196
     8  H    0.000000   0.000000   0.000000   0.000000   0.000000   0.000000
     9  H   -0.000002  -0.000004   0.000000   0.000000   0.000000   0.000000
    10  H    0.001818   0.018603  -0.000012   0.000000   0.000279  -0.000005
    11  C    0.002342  -0.000102   0.003338  -0.000102  -0.000036   0.000004
    12  C   -0.024793   0.002746  -0.032740   0.005860  -0.008695   0.000644
    13  H   -0.003239  -0.000043  -0.012408   0.000769   0.000219   0.001403
    14  N    0.266470  -0.084922  -0.001907  -0.000013  -0.113553  -0.000085
    15  C   -0.001529  -0.000582   0.331339  -0.057074  -0.056219  -0.000307
    16  H   -0.001112  -0.000244  -0.036907  -0.001520  -0.000114   0.000005
    17  C    0.000457  -0.000003  -0.031667  -0.004998   0.004210  -0.000094
    18  H   -0.000011   0.000000  -0.003994   0.002850  -0.000034   0.000000
    19  C   -0.000010   0.000000   0.004447  -0.000123  -0.000177   0.000002
    20  H   -0.000017   0.000000   0.000119  -0.000003  -0.000001   0.000000
    21  H    0.000000   0.000000  -0.000124   0.000000   0.000002   0.000000
    22  C   -0.000010   0.000000   0.000096   0.000003  -0.000018   0.000001
    23  H    0.000002   0.000000   0.000008   0.000000   0.000000   0.000000
    24  N    0.000002   0.000000   0.000032   0.000001   0.000000   0.000000
    25  C    0.000011   0.000000   0.000010   0.000000  -0.000001   0.000000
    26  H    0.000000   0.000000   0.000000   0.000000   0.000000   0.000000
    27  H   -0.000002   0.000000   0.000002  -0.000001   0.000000   0.000000
    28  C   -0.000183   0.000000  -0.000122   0.000001   0.000012  -0.000003
    29  H    0.000004   0.000000   0.000002   0.000000   0.000000   0.000000
    30  H   -0.000063   0.000000  -0.000013   0.000000   0.000005  -0.000001
    31  C    4.366967   0.556166  -0.028694   0.000659   0.351226  -0.022989
    32  O    0.556166   8.140661   0.003236  -0.000062  -0.074320   0.000133
    33  C   -0.028694   0.003236   4.882543   0.396419   0.292030  -0.025663
    34  H    0.000659  -0.000062   0.396419   0.593365  -0.037603   0.003371
    35  C    0.351226  -0.074320   0.292030  -0.037603   5.291848   0.365080
    36  H   -0.022989   0.000133  -0.025663   0.003371   0.365080   0.497492
    37  H   -0.026967   0.002050  -0.028018  -0.007290   0.373859  -0.018564
    38  O    0.000535  -0.000012   0.192610  -0.037948  -0.039170   0.001648
    39  C   -0.000005   0.000000  -0.004792   0.000097  -0.000039  -0.000017
    40  C    0.000012   0.000000  -0.004778  -0.000527  -0.000514   0.000033
    41  C   -0.000044   0.000001  -0.024152  -0.010701   0.005243   0.000162
    42  H   -0.000013   0.000000  -0.009319   0.011762   0.000122   0.000084
    43  H   -0.000001   0.000000   0.003763   0.000258  -0.000215  -0.000054
    44  H    0.000000   0.000000  -0.000133   0.000006   0.000009   0.000001
    45  C    0.000000   0.000000   0.000006  -0.000003   0.000003   0.000000
    46  H    0.000000   0.000000  -0.000005   0.000000   0.000000   0.000000
    47  H    0.000000   0.000000  -0.000006   0.000000   0.000000   0.000000
             37         38         39         40         41         42
     1  H    0.000000   0.000000   0.000000   0.000000   0.000000   0.000000
     2  C    0.000000   0.000000   0.000002   0.000000   0.000000   0.000000
     3  C    0.000002   0.000000   0.000000   0.000000   0.000000   0.000000
     4  C    0.000003  -0.000006   0.000163   0.000000   0.000001   0.000000
     5  C    0.000000   0.000000   0.000000   0.000000   0.000000   0.000000
     6  C    0.000000   0.000000   0.000000   0.000000   0.000000   0.000000
     7  C   -0.000066   0.000006  -0.000016  -0.000001  -0.000001   0.000000
     8  H    0.000000   0.000000   0.000000   0.000000   0.000000   0.000000
     9  H    0.000000   0.000000   0.000000   0.000000   0.000000   0.000000
    10  H    0.000004   0.000000   0.000000   0.000000   0.000000   0.000000
    11  C    0.000004   0.000130  -0.003883  -0.000008  -0.000009  -0.000001
    12  C    0.000002  -0.005370  -0.006664  -0.000548  -0.000325   0.000198
    13  H   -0.000024   0.012381   0.003435   0.001162  -0.000639   0.000104
    14  N    0.004152   0.000302   0.000048   0.000019   0.000005   0.000002
    15  C    0.003181  -0.048790  -0.049049  -0.003264  -0.003516  -0.002803
    16  H    0.000195   0.003210   0.006784  -0.000045  -0.000185   0.000091
    17  C   -0.000102  -0.004593   0.361608  -0.063461  -0.003782   0.001113
    18  H   -0.000001  -0.000921  -0.037054  -0.008358   0.000855   0.004008
    19  C    0.000002   0.000016  -0.049015   0.005832   0.000050  -0.000078
    20  H    0.000000   0.000001   0.004999  -0.000134  -0.000003   0.000002
    21  H    0.000000   0.000001  -0.004615  -0.000226   0.000011  -0.000004
    22  C    0.000000  -0.000016  -0.012454   0.000243  -0.000002   0.000002
    23  H    0.000000   0.000000   0.000080   0.000014   0.000000   0.000000
    24  N    0.000000   0.000022  -0.058792   0.002079  -0.000147  -0.000003
    25  C    0.000000  -0.000001  -0.006100  -0.000189  -0.000029   0.000000
    26  H    0.000000   0.000000  -0.000227   0.000049  -0.000001   0.000000
    27  H    0.000000  -0.000066   0.008371   0.002583   0.000027   0.000004
    28  C    0.000000  -0.000008  -0.000225  -0.000213   0.000009   0.000000
    29  H    0.000000   0.000000  -0.000018  -0.000001   0.000000   0.000000
    30  H    0.000000  -0.000001   0.000026   0.000001   0.000000   0.000000
    31  C   -0.026967   0.000535  -0.000005   0.000012  -0.000044  -0.000013
    32  O    0.002050  -0.000012   0.000000   0.000000   0.000001   0.000000
    33  C   -0.028018   0.192610  -0.004792  -0.004778  -0.024152  -0.009319
    34  H   -0.007290  -0.037948   0.000097  -0.000527  -0.010701   0.011762
    35  C    0.373859  -0.039170  -0.000039  -0.000514   0.005243   0.000122
    36  H   -0.018564   0.001648  -0.000017   0.000033   0.000162   0.000084
    37  H    0.515926   0.001852   0.000000   0.000004  -0.000204   0.000011
    38  O    0.001852   8.361644  -0.003341  -0.068712   0.220700  -0.029977
    39  C    0.000000  -0.003341   4.910604   0.635764  -0.035709  -0.010191
    40  C    0.000004  -0.068712   0.635764   5.110718   0.334795  -0.042311
    41  C   -0.000204   0.220700  -0.035709   0.334795   4.833142   0.373210
    42  H    0.000011  -0.029977  -0.010191  -0.042311   0.373210   0.594315
    43  H    0.000010  -0.034689   0.005388  -0.043364   0.397299  -0.033914
    44  H    0.000000   0.002886  -0.034947   0.383248  -0.045663   0.004379
    45  C    0.000000  -0.000083   0.357223  -0.038895   0.004759  -0.000101
    46  H    0.000000   0.000006  -0.037928  -0.005541   0.000127  -0.000005
    47  H    0.000000  -0.000004  -0.050708   0.001270  -0.000265   0.000026
             43         44         45         46         47
     1  H    0.000000   0.000000   0.000001   0.000000   0.000000
     2  C    0.000000   0.000000  -0.000004   0.000000   0.000001
     3  C    0.000000   0.000000   0.000000   0.000000   0.000000
     4  C    0.000000   0.000000  -0.000211   0.000003   0.000011
     5  C    0.000000   0.000000   0.000000   0.000000   0.000000
     6  C    0.000000   0.000000   0.000000   0.000000   0.000000
     7  C    0.000000   0.000000   0.000008   0.000000   0.000000
     8  H    0.000000   0.000000   0.000000   0.000000   0.000000
     9  H    0.000000   0.000000   0.000000   0.000000   0.000000
    10  H    0.000000   0.000000   0.000000   0.000000   0.000000
    11  C    0.000000   0.000002   0.001332  -0.000111   0.000063
    12  C   -0.000020  -0.000021   0.002399  -0.000057   0.000017
    13  H    0.000029   0.000068  -0.000663   0.000004   0.000005
    14  N    0.000000   0.000000   0.000000   0.000000   0.000000
    15  C   -0.000110  -0.000191   0.001428  -0.000092  -0.000027
    16  H    0.000013   0.000006  -0.000201   0.000003   0.000008
    17  C   -0.000094   0.005046  -0.060187   0.004666  -0.005379
    18  H   -0.000049  -0.000071   0.003083  -0.000101   0.000275
    19  C   -0.000002  -0.000164  -0.009360   0.000052   0.000675
    20  H    0.000000   0.000003   0.000067   0.000002   0.000076
    21  H    0.000000  -0.000002   0.002159  -0.000004  -0.000585
    22  C    0.000000   0.000008  -0.048521   0.004788  -0.004779
    23  H    0.000000   0.000000   0.002895  -0.000148   0.000753
    24  N    0.000003   0.000206   0.292925  -0.030772  -0.045904
    25  C    0.000001  -0.000041  -0.048076  -0.006846   0.005794
    26  H    0.000000   0.000006   0.000760   0.001110   0.000041
    27  H   -0.000010   0.000089  -0.005968  -0.000125   0.000012
    28  C    0.000000  -0.000004   0.005302   0.000290  -0.000473
    29  H    0.000000   0.000000   0.000002  -0.000008   0.000007
    30  H    0.000000   0.000000  -0.000199  -0.000003   0.000003
    31  C   -0.000001   0.000000   0.000000   0.000000   0.000000
    32  O    0.000000   0.000000   0.000000   0.000000   0.000000
    33  C    0.003763  -0.000133   0.000006  -0.000005  -0.000006
    34  H    0.000258   0.000006  -0.000003   0.000000   0.000000
    35  C   -0.000215   0.000009   0.000003   0.000000   0.000000
    36  H   -0.000054   0.000001   0.000000   0.000000   0.000000
    37  H    0.000010   0.000000   0.000000   0.000000   0.000000
    38  O   -0.034689   0.002886  -0.000083   0.000006  -0.000004
    39  C    0.005388  -0.034947   0.357223  -0.037928  -0.050708
    40  C   -0.043364   0.383248  -0.038895  -0.005541   0.001270
    41  C    0.397299  -0.045663   0.004759   0.000127  -0.000265
    42  H   -0.033914   0.004379  -0.000101  -0.000005   0.000026
    43  H    0.566921  -0.006323  -0.000129  -0.000002   0.000003
    44  H   -0.006323   0.558776  -0.009217   0.005147   0.000264
    45  C   -0.000129  -0.009217   4.927663   0.393775   0.390450
    46  H   -0.000002   0.005147   0.393775   0.551423  -0.032561
    47  H    0.000003   0.000264   0.390450  -0.032561   0.591003
 Mulliken atomic charges:
              1
     1  H    0.154810
     2  C   -0.184672
     3  C   -0.153628
     4  C    0.031737
     5  C   -0.168073
     6  C   -0.167370
     7  C    0.322221
     8  H    0.146626
     9  H    0.153083
    10  H    0.167054
    11  C   -0.097576
    12  C    0.026122
    13  H    0.170580
    14  N   -0.616562
    15  C   -0.105296
    16  H    0.153542
    17  C   -0.191441
    18  H    0.156777
    19  C   -0.276246
    20  H    0.149660
    21  H    0.150774
    22  C    0.066640
    23  H    0.141746
    24  N   -0.493236
    25  C   -0.076481
    26  H    0.137705
    27  H    0.127740
    28  C   -0.264248
    29  H    0.150765
    30  H    0.152181
    31  C    0.592107
    32  O   -0.558665
    33  C    0.136314
    34  H    0.142524
    35  C   -0.359927
    36  H    0.197911
    37  H    0.179978
    38  O   -0.524244
    39  C    0.111197
    40  C   -0.196739
    41  C   -0.045018
    42  H    0.139286
    43  H    0.145291
    44  H    0.136626
    45  C   -0.164424
    46  H    0.152911
    47  H    0.149936
 Sum of Mulliken atomic charges =   0.00000
 Mulliken charges with hydrogens summed into heavy atoms:
              1
     2  C   -0.029862
     3  C    0.013426
     4  C    0.031737
     5  C   -0.021447
     6  C   -0.014286
     7  C    0.322221
    11  C   -0.097576
    12  C    0.196702
    14  N   -0.616562
    15  C    0.048246
    17  C   -0.034664
    19  C    0.024188
    22  C    0.208386
    24  N   -0.493236
    25  C    0.188965
    28  C    0.038698
    31  C    0.592107
    32  O   -0.558665
    33  C    0.278838
    35  C    0.017962
    38  O   -0.524244
    39  C    0.111197
    40  C   -0.060113
    41  C    0.239559
    45  C    0.138424
 Sum of Mulliken charges with hydrogens summed into heavy atoms =   0.00000
 Electronic spatial extent (au):  <R**2>=           6605.8670
 Charge=              0.0000 electrons
 Dipole moment (field-independent basis, Debye):
    X=             -3.8479    Y=             -2.9514    Z=             -1.8478  Tot=              5.1895
 Quadrupole moment (field-independent basis, Debye-Ang):
   XX=           -139.9426   YY=           -154.3353   ZZ=           -139.4254
   XY=            -12.6308   XZ=              0.1432   YZ=             -3.7202
 Traceless Quadrupole moment (field-independent basis, Debye-Ang):
   XX=              4.6252   YY=             -9.7675   ZZ=              5.1423
   XY=            -12.6308   XZ=              0.1432   YZ=             -3.7202
 Octapole moment (field-independent basis, Debye-Ang**2):
  XXX=            -19.8079  YYY=            -19.2701  ZZZ=              5.0763  XYY=            -27.3625
  XXY=            -19.7352  XXZ=            -13.5718  XZZ=            -19.7536  YZZ=              2.6556
  YYZ=            -12.3936  XYZ=              7.0070
 Hexadecapole moment (field-independent basis, Debye-Ang**3):
 XXXX=          -4574.2539 YYYY=          -3208.0824 ZZZZ=           -764.3901 XXXY=            -67.5528
 XXXZ=           -105.3694 YYYX=           -199.6783 YYYZ=            -20.0305 ZZZX=             16.6635
 ZZZY=             -0.0613 XXYY=          -1360.8090 XXZZ=           -992.5024 YYZZ=           -601.9532
 XXYZ=            -12.8484 YYXZ=             -4.4184 ZZXY=              9.8503
 N-N= 2.387847141271D+03 E-N=-7.268890781888D+03  KE= 1.063504253266D+03
 1\1\GINC-COMPUTE-8-9\SP\RmPW1PW91\6-31G(d,p)\C21H22N2O2\FBRUNO.IQUIR\1
 6-Oct-2021\0\\# mPW1PW91/6-31g** scrf=(pcm,solvent=chloroform,smd,dova
 cuum) nmr\\comment\\0,1\H,0,2.027234542,3.050476697,-1.597245534\C,0,1
 .736019971,3.062756802,-0.551403254\C,0,1.029878127,3.109182606,2.1821
 69741\C,0,1.223190761,1.93109713,0.070202176\C,0,1.89231816,4.22743617
 2,0.202523765\C,0,1.543392374,4.249948881,1.56009375\C,0,0.877374267,1
 .959266417,1.427050022\H,0,2.295187865,5.123846759,-0.26333954\H,0,1.6
 73019268,5.163016172,2.13637906\H,0,0.761307179,3.142559538,3.23268675
 3\C,0,1.009463543,0.557889508,-0.514716718\C,0,0.210239483,-0.14007405
 4,0.631977504\H,0,0.662707527,-1.108638406,0.883136372\N,0,0.337082482
 ,0.723364032,1.816239634\C,0,-1.303765533,-0.302174755,0.436587479\H,0
 ,-1.781545507,0.674204916,0.62529429\C,0,-1.678004848,-0.649908593,-1.
 010791479\H,0,-2.770780359,-0.685283392,-1.107456518\C,0,-1.161786873,
 0.506733639,-1.881074993\H,0,-1.497394802,1.47503236,-1.489011417\H,0,
 -1.570504467,0.438350186,-2.897726496\C,0,0.364759744,0.445635098,-1.9
 10135773\H,0,0.729092647,1.248373403,-2.562916364\N,0,0.875397885,-0.8
 30633077,-2.477641807\C,0,1.987843584,-1.306295925,-1.642389008\H,0,2.
 83363418,-1.619252972,-2.262788772\H,0,1.704296445,-2.159834873,-1.014
 668928\C,0,2.358154981,-0.132706378,-0.7531656\H,0,3.054057527,0.52808
 1274,-1.287146414\H,0,2.852885023,-0.454959689,0.169762032\C,0,-0.3690
 79278,0.463672219,2.976680761\O,0,-0.368325676,1.16981791,3.983205547\
 C,0,-1.811962519,-1.209258279,1.579390705\H,0,-2.902775878,-1.11516157
 ,1.659511277\C,0,-1.186730484,-0.82363166,2.944523922\H,0,-0.54064323,
 -1.623456176,3.327781974\H,0,-2.00268533,-0.707064454,3.669163181\O,0,
 -1.498420197,-2.597593655,1.400129743\C,0,-1.093127628,-1.958082929,-1
 .505998312\C,0,-1.351549178,-3.125169792,-0.890706573\C,0,-2.190535964
 ,-3.236417345,0.336245767\H,0,-3.20302042,-2.840965138,0.197630367\H,0
 ,-2.290557689,-4.29435083,0.600720025\H,0,-0.899365109,-4.045530939,-1
 .251260837\C,0,-0.151939741,-1.857107345,-2.684099645\H,0,0.319065457,
 -2.821730437,-2.91296356\H,0,-0.733102312,-1.605459059,-3.580438306\\V
 ersion=EM64L-G09RevC.01\State=1-A\HF=-1073.2466893\RMSD=5.104e-09\Dipo
 le=-0.6950756,-0.7751602,-1.7562858\Quadrupole=6.9189467,5.1140263,-12
 .032973,2.9575865,0.5677349,-4.1178308\PG=C01 [X(C21H22N2O2)]\\@


 I WISH TO HAVE NO CONNECTION WITH ANY SHIP THAT DOES NOT SAIL FAST,
 FOR I INTEND TO GO IN HARM'S WAY.
     -- JOHN PAUL JONES, USN 1747-1792
 Job cpu time:  0 days  2 hours 22 minutes 46.9 seconds.
 File lengths (MBytes):  RWF=    214 Int=      0 D2E=      0 Chk=     15 Scr=      1
 Normal termination of Gaussian 09 at Sat Oct 16 13:21:14 2021.
