 Entering Gaussian System, Link 0=g09
 Input=/home/fbruno.iquir/MPW_A_SMD/23_MMFF_001_NMR_MPW_A_SMD.gjc
 Output=/home/fbruno.iquir/MPW_A_SMD/23_MMFF_001_NMR_MPW_A_SMD.log
 Initial command:
 /share/apps/Gaussian09/EM64T.SSE4.2-enabled/g09/l1.exe /tmp/Gau-55424.inp -scrdir=/tmp/
 Entering Link 1 = /share/apps/Gaussian09/EM64T.SSE4.2-enabled/g09/l1.exe PID=     55425.
  
 Copyright (c) 1988,1990,1992,1993,1995,1998,2003,2009,2011,
            Gaussian, Inc.  All Rights Reserved.
  
 This is part of the Gaussian(R) 09 program.  It is based on
 the Gaussian(R) 03 system (copyright 2003, Gaussian, Inc.),
 the Gaussian(R) 98 system (copyright 1998, Gaussian, Inc.),
 the Gaussian(R) 94 system (copyright 1995, Gaussian, Inc.),
 the Gaussian 92(TM) system (copyright 1992, Gaussian, Inc.),
 the Gaussian 90(TM) system (copyright 1990, Gaussian, Inc.),
 the Gaussian 88(TM) system (copyright 1988, Gaussian, Inc.),
 the Gaussian 86(TM) system (copyright 1986, Carnegie Mellon
 University), and the Gaussian 82(TM) system (copyright 1983,
 Carnegie Mellon University). Gaussian is a federally registered
 trademark of Gaussian, Inc.
  
 This software contains proprietary and confidential information,
 including trade secrets, belonging to Gaussian, Inc.
  
 This software is provided under written license and may be
 used, copied, transmitted, or stored only in accord with that
 written license.
  
 The following legend is applicable only to US Government
 contracts under FAR:
  
                    RESTRICTED RIGHTS LEGEND
  
 Use, reproduction and disclosure by the US Government is
 subject to restrictions as set forth in subparagraphs (a)
 and (c) of the Commercial Computer Software - Restricted
 Rights clause in FAR 52.227-19.
  
 Gaussian, Inc.
 340 Quinnipiac St., Bldg. 40, Wallingford CT 06492
  
  
 ---------------------------------------------------------------
 Warning -- This program may not be used in any manner that
 competes with the business of Gaussian, Inc. or will provide
 assistance to any competitor of Gaussian, Inc.  The licensee
 of this program is prohibited from giving any competitor of
 Gaussian, Inc. access to this program.  By using this program,
 the user acknowledges that Gaussian, Inc. is engaged in the
 business of creating and licensing software in the field of
 computational chemistry and represents and warrants to the
 licensee that it is not a competitor of Gaussian, Inc. and that
 it will not use this program in any manner prohibited above.
 ---------------------------------------------------------------
  

 Cite this work as:
 Gaussian 09, Revision C.01,
 M. J. Frisch, G. W. Trucks, H. B. Schlegel, G. E. Scuseria, 
 M. A. Robb, J. R. Cheeseman, G. Scalmani, V. Barone, B. Mennucci, 
 G. A. Petersson, H. Nakatsuji, M. Caricato, X. Li, H. P. Hratchian, 
 A. F. Izmaylov, J. Bloino, G. Zheng, J. L. Sonnenberg, M. Hada, 
 M. Ehara, K. Toyota, R. Fukuda, J. Hasegawa, M. Ishida, T. Nakajima, 
 Y. Honda, O. Kitao, H. Nakai, T. Vreven, J. A. Montgomery, Jr., 
 J. E. Peralta, F. Ogliaro, M. Bearpark, J. J. Heyd, E. Brothers, 
 K. N. Kudin, V. N. Staroverov, T. Keith, R. Kobayashi, J. Normand, 
 K. Raghavachari, A. Rendell, J. C. Burant, S. S. Iyengar, J. Tomasi, 
 M. Cossi, N. Rega, J. M. Millam, M. Klene, J. E. Knox, J. B. Cross, 
 V. Bakken, C. Adamo, J. Jaramillo, R. Gomperts, R. E. Stratmann, 
 O. Yazyev, A. J. Austin, R. Cammi, C. Pomelli, J. W. Ochterski, 
 R. L. Martin, K. Morokuma, V. G. Zakrzewski, G. A. Voth, 
 P. Salvador, J. J. Dannenberg, S. Dapprich, A. D. Daniels, 
 O. Farkas, J. B. Foresman, J. V. Ortiz, J. Cioslowski, 
 and D. J. Fox, Gaussian, Inc., Wallingford CT, 2010.
 
 ******************************************
 Gaussian 09:  EM64L-G09RevC.01 23-Sep-2011
                16-Oct-2021 
 ******************************************
 %nprocshared=4
 Will use up to    4 processors via shared memory.
 -----------------------------------------------------------------
 # mPW1PW91/6-31g** scrf=(pcm,solvent=chloroform,smd,dovacuum) nmr
 -----------------------------------------------------------------
 1/38=1/1;
 2/12=2,17=6,18=5,40=1/2;
 3/5=1,6=6,7=101,11=2,16=1,25=1,30=1,70=32101,72=7,74=-7/1,2,8,3;
 4//1;
 5/5=2,38=5,53=7/2;
 8/6=1,10=90,11=11/1;
 10/13=100,45=16/2;
 6/7=2,8=2,9=2,10=2,28=1/1;
 99/9=1/99;
 -------
 comment
 -------
 Charge =  0 Multiplicity = 1
 Symbolic Z-Matrix:
 6                     1.30485   4.35795   0.74129 
 1                     1.93827   4.9814    1.36033 
 6                     0.54458   3.37639   1.24401 
 1                     0.56206   3.21781   2.32099 
 6                    -0.3837    2.4701    0.43615 
 6                     1.29813   4.65372  -0.70306 
 6                     0.43476   3.81575  -1.55978 
 6                    -0.32265   2.82776  -1.05098 
 6                    -1.13881   1.94419  -1.9513 
 1                    -1.07119   2.27013  -2.99649 
 1                    -2.2003    1.9866   -1.68654 
 6                    -0.09341   0.94918   0.65248 
 6                    -0.63033  -0.04482  -0.40443 
 1                    -1.66955  -0.28668  -0.14881 
 6                    -0.60963   0.52599  -1.83929 
 1                     0.41677   0.51151  -2.23197 
 1                    -1.2004   -0.12224  -2.49801 
 1                     0.47375   4.043    -2.61907 
 6                    -1.81748   2.79411   0.94133 
 1                    -1.88844   2.72338   2.03405 
 1                    -2.56165   2.09792   0.53849 
 1                    -2.12433   3.81046   0.6639 
 8                    -0.47252   0.57961   2.007 
 8                     1.98431   5.55121  -1.17414 
 6                     0.23296  -1.32659  -0.40582 
 1                     1.22871  -1.03016  -0.7812 
 6                     0.43863  -1.95636   0.98523 
 6                     1.34532  -1.02553   1.79164 
 1                     2.37481  -1.08295   1.41516 
 1                     1.39104  -1.34047   2.84108 
 6                     0.90324   0.41201   1.71638 
 1                     1.61569   1.07977   2.18039 
 6                    -0.21161  -2.49828  -1.28146 
 1                    -0.12852  -2.27624  -2.35017 
 1                    -1.25253  -2.77407  -1.07759 
 6                     0.77281  -3.61275  -0.88193 
 1                     1.69483  -3.52056  -1.46772 
 6                     1.10625  -3.25563   0.56214 
 8                     1.81034  -3.93993   1.29369 
 6                    -0.84271  -2.35889   1.73551 
 1                    -0.59666  -2.73479   2.73576 
 1                    -1.38116  -3.16749   1.22843 
 1                    -1.55124  -1.53753   1.85725 
 6                     0.18112  -5.00091  -1.01866 
 1                     0.91058  -5.76248  -0.72325 
 1                    -0.11699  -5.19699  -2.05339 
 1                    -0.69798  -5.1276   -0.37759 
 
                          Input orientation:                          
 ---------------------------------------------------------------------
 Center     Atomic      Atomic             Coordinates (Angstroms)
 Number     Number       Type             X           Y           Z
 ---------------------------------------------------------------------
      1          6           0        1.304846    4.357949    0.741287
      2          1           0        1.938273    4.981403    1.360331
      3          6           0        0.544579    3.376391    1.244009
      4          1           0        0.562057    3.217813    2.320988
      5          6           0       -0.383703    2.470099    0.436151
      6          6           0        1.298127    4.653723   -0.703064
      7          6           0        0.434763    3.815748   -1.559777
      8          6           0       -0.322654    2.827764   -1.050985
      9          6           0       -1.138813    1.944193   -1.951295
     10          1           0       -1.071186    2.270126   -2.996487
     11          1           0       -2.200300    1.986598   -1.686535
     12          6           0       -0.093406    0.949177    0.652484
     13          6           0       -0.630332   -0.044815   -0.404427
     14          1           0       -1.669549   -0.286677   -0.148814
     15          6           0       -0.609628    0.525991   -1.839288
     16          1           0        0.416766    0.511509   -2.231969
     17          1           0       -1.200403   -0.122239   -2.498013
     18          1           0        0.473753    4.043000   -2.619068
     19          6           0       -1.817482    2.794106    0.941326
     20          1           0       -1.888441    2.723375    2.034054
     21          1           0       -2.561651    2.097919    0.538491
     22          1           0       -2.124334    3.810465    0.663903
     23          8           0       -0.472524    0.579605    2.006995
     24          8           0        1.984310    5.551213   -1.174135
     25          6           0        0.232965   -1.326585   -0.405825
     26          1           0        1.228712   -1.030157   -0.781201
     27          6           0        0.438633   -1.956362    0.985234
     28          6           0        1.345318   -1.025531    1.791637
     29          1           0        2.374807   -1.082955    1.415159
     30          1           0        1.391045   -1.340473    2.841079
     31          6           0        0.903237    0.412010    1.716376
     32          1           0        1.615691    1.079769    2.180394
     33          6           0       -0.211610   -2.498283   -1.281465
     34          1           0       -0.128515   -2.276240   -2.350171
     35          1           0       -1.252534   -2.774068   -1.077595
     36          6           0        0.772808   -3.612747   -0.881928
     37          1           0        1.694826   -3.520564   -1.467723
     38          6           0        1.106247   -3.255630    0.562143
     39          8           0        1.810340   -3.939932    1.293687
     40          6           0       -0.842709   -2.358889    1.735506
     41          1           0       -0.596657   -2.734791    2.735756
     42          1           0       -1.381158   -3.167493    1.228427
     43          1           0       -1.551240   -1.537535    1.857249
     44          6           0        0.181120   -5.000912   -1.018658
     45          1           0        0.910576   -5.762482   -0.723255
     46          1           0       -0.116987   -5.196985   -2.053395
     47          1           0       -0.697981   -5.127603   -0.377594
 ---------------------------------------------------------------------
                    Distance matrix (angstroms):
                    1          2          3          4          5
     1  C    0.000000
     2  H    1.083115   0.000000
     3  C    1.339475   2.128844   0.000000
     4  H    2.084970   2.434561   1.088732   0.000000
     5  C    2.551135   3.542927   1.528302   2.237442   0.000000
     6  C    1.474340   2.185122   2.447551   3.427612   2.982379
     7  C    2.519112   3.485157   2.840124   3.928621   2.542516
     8  C    2.863995   3.945174   2.513977   3.507856   1.530760
     9  C    4.364366   5.446097   3.885224   4.771527   2.558646
    10  H    4.896478   5.948927   4.670795   5.642795   3.506512
    11  H    4.878902   5.948112   4.248996   5.020632   2.835418
    12  C    3.685475   4.570297   2.578429   2.891409   1.563418
    13  C    4.943877   5.913964   3.975225   4.415249   2.663117
    14  H    5.586758   6.560988   4.501154   4.833367   3.097643
    15  C    5.000848   6.048145   4.354732   5.091821   3.001370
    16  H    4.942069   5.932922   4.506253   5.298548   3.405245
    17  H    6.069715   7.126379   5.411849   6.122498   3.999567
    18  H    3.475902   4.342929   3.920809   5.009280   3.541697
    19  C    3.497793   4.366410   2.451531   2.783020   1.554318
    20  H    3.813157   4.494034   2.640111   2.516295   2.209452
    21  H    4.483154   5.407330   3.432333   3.766830   2.211888
    22  H    3.473471   4.284960   2.765508   3.211520   2.208675
    23  O    4.363135   5.060232   3.072240   2.851156   2.459554
    24  O    2.356776   2.598138   3.556697   4.436603   4.206397
    25  C    5.897349   6.768907   4.993700   5.309931   3.937513
    26  H    5.599595   6.420942   4.897671   5.302194   4.041488
    27  C    6.378116   7.107898   5.340079   5.345237   4.535557
    28  C    5.485138   6.051519   4.507550   4.347376   4.128715
    29  H    5.585907   6.080297   4.823359   4.754281   4.603480
    30  H    6.073596   6.515995   5.051331   4.662154   4.842919
    31  C    4.084425   4.698662   3.023132   2.890414   2.744252
    32  H    3.593622   3.999914   2.701587   2.387706   2.995492
    33  C    7.307468   8.218685   6.439071   6.800733   5.259718
    34  H    7.458157   8.409092   6.732267   7.244393   5.509668
    35  H    7.791932   8.733388   6.815249   7.123605   5.526987
    36  C    8.151681   8.957983   7.308882   7.547161   6.330550
    37  H    8.191629   8.963292   7.499636   7.813016   6.620654
    38  C    7.618276   8.317336   6.690599   6.730166   5.917752
    39  O    8.331597   8.922501   7.425174   7.338043   6.829179
    40  C    7.121543   7.858404   5.921113   5.780636   5.021765
    41  H    7.609244   8.237556   6.393300   6.078499   5.694244
    42  H    8.005261   8.800030   6.821372   6.763276   5.779710
    43  H    6.645249   7.410815   5.377285   5.224405   4.409511
    44  C    9.588976  10.411234   8.685101   8.879515   7.632267
    45  H   10.233448  10.992204   9.355377   9.488655   8.413962
    46  H   10.056273  10.930563   9.209415   9.508162   8.065553
    47  H    9.759043  10.590667   8.745940   8.860925   7.647615
                    6          7          8          9         10
     6  C    0.000000
     7  C    1.477010   0.000000
     8  C    2.466193   1.344865   0.000000
     9  C    3.852053   2.476317   1.502455   0.000000
    10  H    4.068780   2.592482   2.157832   1.096919   0.000000
    11  H    4.507745   3.210205   2.153378   1.094829   1.752501
    12  C    4.183006   3.659274   2.546261   2.977011   4.001993
    13  C    5.087672   4.168118   2.960475   2.570507   3.503153
    14  H    5.789805   4.821704   3.511093   2.916744   3.873567
    15  C    4.687079   3.462857   2.449884   1.517853   2.143398
    16  H    4.502476   3.371967   2.703055   2.133351   2.427184
    17  H    5.681049   4.365982   3.401008   2.138419   2.447159
    18  H    2.173395   1.084095   2.137744   2.729703   2.381672
    19  C    3.983618   3.517368   2.490973   3.090340   4.042015
    20  H    4.623016   4.416580   3.461221   4.129416   5.116608
    21  H    4.792857   4.041307   2.841164   2.871783   3.840210
    22  H    3.780598   3.390244   2.674433   3.360578   4.108554
    23  O    5.203659   4.900781   3.798410   4.239587   5.315176
    24  O    1.224027   2.358316   3.571334   4.834094   4.839685
    25  C    6.081695   5.274080   4.240703   3.868881   4.620462
    26  H    5.684841   4.971854   4.166902   3.977568   4.592264
    27  C    6.876213   6.308276   5.254865   5.130874   5.999738
    28  C    6.203200   5.958110   5.070554   5.385138   6.294997
    29  H    6.209314   6.050727   5.352745   5.730808   6.525384
    30  H    6.964192   6.846066   5.954756   6.336881   7.292200
    31  C    4.899159   4.747428   3.872591   4.468709   5.437096
    32  H    4.603077   4.782159   4.153850   5.040374   5.952844
    33  C    7.332465   6.353128   5.332187   4.587370   5.139834
    34  H    7.264479   6.168818   5.270335   4.357965   4.687835
    35  H    7.862457   6.819468   5.678548   4.799820   5.399901
    36  C    8.285076   7.467013   6.535197   5.973058   6.517658
    37  H    8.219552   7.444306   6.674216   6.174699   6.596971
    38  C    8.012205   7.413354   6.453806   6.196436   6.923802
    39  O    8.837437   8.377651   7.473209   7.338278   8.079208
    40  C    7.727000   7.114560   5.910698   5.674213   6.623575
    41  H    8.366949   7.900949   6.734724   6.644944   7.624499
    42  H    8.490032   7.735457   6.500711   6.024840   6.893017
    43  H    7.280506   6.654165   5.387307   5.176633   6.187689
    44  C    9.724160   8.836890   7.844934   7.130674   7.638591
    45  H   10.423432   9.626455   8.684502   8.068513   8.580079
    46  H   10.043027   9.043088   8.089729   7.214636   7.586677
    47  H    9.988229   9.091984   7.992633   7.258179   7.856480
                   11         12         13         14         15
    11  H    0.000000
    12  C    3.314552   0.000000
    13  C    2.869711   1.547052   0.000000
    14  H    2.795364   2.157230   1.097181   0.000000
    15  C    2.164935   2.579631   1.544368   2.154429   0.000000
    16  H    3.053264   2.961739   2.178490   3.054398   1.099042
    17  H    2.470928   3.506994   2.171193   2.401223   1.096876
    18  H    3.499852   4.538332   4.778480   5.426048   3.761798
    19  C    2.775657   2.541581   3.358549   3.271317   3.786168
    20  H    3.805638   2.877267   3.897680   3.724679   4.633210
    21  H    2.256925   2.724855   3.034864   2.637144   3.454734
    22  H    2.976041   3.508813   4.270428   4.201655   4.398644
    23  O    4.313584   1.454309   2.495949   2.613585   3.849099
    24  O    5.520869   5.369560   6.224495   6.962968   5.694190
    25  C    4.305599   2.530934   1.545386   2.183351   2.489341
    26  H    4.656025   2.778707   2.137499   3.058201   2.630711
    27  C    5.445113   2.972532   2.593811   2.918620   3.903697
    28  C    5.808788   2.695751   3.112507   3.660694   4.405979
    29  H    6.322521   3.286839   3.663262   4.408728   4.699679
    30  H    6.668317   3.498005   4.037079   4.406493   5.421459
    31  C    4.867348   1.553612   2.656751   3.253663   3.865811
    32  H    5.507927   2.296209   3.604249   4.252668   4.627802
    33  C    4.922715   3.954631   2.638944   2.880917   3.100938
    34  H    4.785864   4.406868   3.002831   3.343519   2.888766
    35  H    4.892138   4.266065   2.879082   2.687685   3.447303
    36  C    6.390573   4.890388   3.863540   4.191098   4.467305
    37  H    6.748979   5.260383   4.314833   4.849388   4.671528
    38  C    6.593236   4.373526   3.776148   4.126159   4.797057
    39  O    7.751820   5.285714   4.900245   5.247543   5.967934
    40  C    5.695321   3.560575   3.159012   2.920341   4.599566
    41  H    6.664822   4.262031   4.134956   3.932570   5.618176
    42  H    5.977680   4.351665   3.602925   3.206098   4.862917
    43  H    5.039762   3.124176   2.862073   2.367052   4.336953
    44  C    7.412322   6.186408   5.059509   5.138640   5.643170
    45  H    8.405575   6.924377   5.930241   6.080417   6.565169
    46  H    7.488568   6.715478   5.433919   5.490811   5.748130
    47  H    7.387973   6.193046   5.083308   4.942757   5.840161
                   16         17         18         19         20
    16  H    0.000000
    17  H    1.757172   0.000000
    18  H    3.553101   4.490732   0.000000
    19  C    4.502435   4.551364   4.414283   0.000000
    20  H    5.329661   5.395419   5.382649   1.097311   0.000000
    21  H    4.366133   4.000307   4.792410   1.095783   1.755310
    22  H    5.072117   5.130061   4.193092   1.097318   1.764858
    23  O    4.331777   4.617087   5.855852   2.801531   2.569300
    24  O    5.382827   6.639511   2.577658   5.150771   5.769519
    25  C    2.597533   2.807534   5.812819   4.795753   5.182234
    26  H    2.267315   3.110042   5.448361   5.183762   5.633055
    27  C    4.054782   4.264206   6.998898   5.259176   5.330594
    28  C    4.406145   5.069293   6.775246   5.031497   4.956840
    29  H    4.435965   5.386838   6.794440   5.729870   5.748605
    30  H    5.487702   6.058515   7.722461   5.567625   5.284049
    31  C    3.979445   4.740443   5.671386   3.698297   3.638241
    32  H    4.607525   5.591306   5.754962   4.032483   3.873216
    33  C    3.218254   2.846627   6.711727   5.960621   6.408599
    34  H    2.843035   2.410502   6.353568   6.276541   6.878584
    35  H    3.861885   3.008738   7.199210   5.949771   6.348907
    36  C    4.354177   4.323070   7.856052   7.147141   7.465363
    37  H    4.298269   4.581753   7.747523   7.616750   8.005561
    38  C    4.740652   4.950083   7.986874   6.729879   6.847129
    39  O    5.847018   6.165739   8.990179   7.657187   7.656944
    40  C    5.056315   4.801378   7.853634   5.304174   5.197316
    41  H    6.020281   5.880670   8.703929   5.939621   5.652670
    42  H    5.361150   4.815869   8.380639   5.984435   5.967302
    43  H    4.979290   4.592870   7.435078   4.435416   4.277887
    44  C    5.649286   5.281907   9.189085   8.282406   8.559599
    45  H    6.471709   6.278402   9.996619   9.133911   9.351311
    46  H    5.736173   5.208121   9.276114   8.701585   9.087210
    47  H    6.039946   5.459145   9.512997   8.108409   8.298861
                   21         22         23         24         25
    21  H    0.000000
    22  H    1.771945   0.000000
    23  O    2.970898   3.869215   0.000000
    24  O    5.960209   4.825924   6.393161   0.000000
    25  C    4.519827   5.752430   3.154834   7.138741   0.000000
    26  H    5.088546   6.063239   3.641371   6.636246   1.104668
    27  C    5.063445   6.318888   2.881897   7.963396   1.540767
    28  C    5.156620   6.057816   2.434624   7.242768   2.481291
    29  H    5.937602   6.689709   3.349876   7.132259   2.821848
    30  H    5.722609   6.605312   2.802728   7.998078   3.447278
    31  C    4.029287   4.671550   1.416074   5.994596   2.824130
    32  H    4.602462   4.872805   2.154268   5.602013   3.793547
    33  C    5.473573   6.873374   4.511700   8.344337   1.528812
    34  H    5.779082   7.079259   5.221024   8.192442   2.193854
    35  H    5.297337   6.866508   4.622796   8.932905   2.180181
    36  C    6.763720   8.117087   5.241426   9.248313   2.396798
    37  H    7.328699   8.536615   5.795037   9.081141   2.842219
    38  C    6.489570   7.770245   4.391941   9.019209   2.328260
    39  O    7.492681   8.714754   5.113364   9.808274   3.493713
    40  C    4.924504   6.391543   2.974137   8.889756   2.609219
    41  H    5.660765   7.033260   3.395840   9.518745   3.541306
    42  H    5.440049   7.040092   3.933513   9.649586   2.943656
    43  H    3.997071   5.509411   2.380826   8.481730   2.889531
    44  C    7.767941   9.262100   6.381536  10.706214   3.725444
    45  H    8.685290  10.137859   7.041967  11.373473   4.498566
    46  H    8.118490   9.620151   7.069807  10.986915   4.221013
    47  H    7.518021   9.110886   6.189452  11.039306   3.913463
                   26         27         28         29         30
    26  H    0.000000
    27  C    2.145315   0.000000
    28  C    2.575484   1.529318   0.000000
    29  H    2.477967   2.167129   1.097670   0.000000
    30  H    3.639171   2.174987   1.096634   1.751385   0.000000
    31  C    2.902356   2.521827   1.505863   2.119238   2.138717
    32  H    3.656855   3.468713   2.157898   2.416447   2.518838
    33  C    2.116644   2.419590   3.746595   3.995558   4.572132
    34  H    2.420011   3.398368   4.570671   4.676351   5.489426
    35  H    3.047238   2.789973   4.247201   4.715007   4.939606
    36  C    2.624455   2.518249   3.764227   3.773972   4.405250
    37  H    2.625014   3.168871   4.119560   3.836056   4.838477
    38  C    2.602364   1.520793   2.557763   2.656576   2.990399
    39  O    3.620807   2.431311   2.992980   2.914738   3.054083
    40  C    3.519962   1.538432   2.562900   3.476067   2.692419
    41  H    4.313554   2.177638   2.753943   3.647210   2.430263
    42  H    3.926606   2.199459   3.512674   4.299702   3.691037
    43  H    3.866134   2.212560   2.942194   3.976925   3.108664
    44  C    4.113482   3.653927   5.005674   5.107457   5.455301
    45  H    4.743360   4.198596   5.380742   5.349277   5.699955
    46  H    4.559807   4.477010   5.858638   5.930021   6.411140
    47  H    4.545779   3.634000   5.070269   5.386573   5.391312
                   31         32         33         34         35
    31  C    0.000000
    32  H    1.081113   0.000000
    33  C    4.324318   5.303390   0.000000
    34  H    4.982770   5.901785   1.094687   0.000000
    35  H    4.754441   5.804590   1.095967   1.769378   0.000000
    36  C    4.792375   5.666390   1.539720   2.180452   2.200835
    37  H    5.121546   5.871804   2.171231   2.377315   3.065352
    38  C    3.850331   4.655529   2.389395   3.311406   2.912815
    39  O    4.465523   5.101131   3.577434   4.450250   4.045171
    40  C    3.275145   4.250415   3.085422   4.148453   2.872955
    41  H    3.631966   4.444523   4.042556   5.127970   3.869543
    42  H    4.274271   5.284560   2.848727   3.894844   2.342876
    43  H    3.137678   4.121184   3.545303   4.502467   3.198680
    44  C    6.107502   7.019018   2.546852   3.048383   2.649088
    45  H    6.638990   7.466241   3.496555   3.985028   3.706105
    46  H    6.834680   7.766903   2.808527   2.935807   2.848188
    47  H    6.134812   7.101257   2.822563   3.513633   2.517271
                   36         37         38         39         40
    36  C    0.000000
    37  H    1.096253   0.000000
    38  C    1.524485   2.130016   0.000000
    39  O    2.432452   2.795460   1.224407   0.000000
    40  C    3.321598   4.248441   2.445272   3.119867   0.000000
    41  H    3.966596   4.851553   2.809938   3.053778   1.096515
    42  H    3.048183   4.105552   2.576604   3.284293   1.095854
    43  H    4.148589   5.052206   3.419267   4.170052   1.091540
    44  C    1.515187   2.164347   2.529981   3.021088   3.951447
    45  H    2.159981   2.489071   2.823976   2.863445   4.550160
    46  H    2.161916   2.536940   3.479396   4.061739   4.789283
    47  H    2.170797   3.081636   2.764530   3.239663   3.485960
                   41         42         43         44         45
    41  H    0.000000
    42  H    1.753486   0.000000
    43  H    1.765340   1.755308   0.000000
    44  C    4.453747   3.294166   4.823577   0.000000
    45  H    4.837708   3.974302   5.528988   1.095152   0.000000
    46  H    5.406334   4.060459   5.544528   1.094528   1.773399
    47  H    3.927946   2.624513   4.314066   1.095368   1.763522
                   46         47
    46  H    0.000000
    47  H    1.775014   0.000000
 Stoichiometry    C20H24O3
 Framework group  C1[X(C20H24O3)]
 Deg. of freedom   135
 Full point group                 C1      NOp   1
 Largest Abelian subgroup         C1      NOp   1
 Largest concise Abelian subgroup C1      NOp   1
                         Standard orientation:                         
 ---------------------------------------------------------------------
 Center     Atomic      Atomic             Coordinates (Angstroms)
 Number     Number       Type             X           Y           Z
 ---------------------------------------------------------------------
      1          6           0        4.001215   -1.153997   -0.863840
      2          1           0        4.580324   -1.937031   -1.337791
      3          6           0        2.988409   -1.411176   -0.025823
      4          1           0        2.756681   -2.452750    0.190426
      5          6           0        2.140306   -0.360843    0.690577
      6          6           0        4.394879    0.233655   -1.169007
      7          6           0        3.618203    1.312756   -0.525678
      8          6           0        2.598568    1.049472    0.310796
      9          6           0        1.779331    2.163713    0.897896
     10          1           0        2.175767    3.144516    0.607900
     11          1           0        1.804646    2.135760    1.992076
     12          6           0        0.607873   -0.533419    0.433401
     13          6           0       -0.311125    0.679448    0.712267
     14          1           0       -0.568812    0.674511    1.778747
     15          6           0        0.356255    2.033478    0.386260
     16          1           0        0.367563    2.191775   -0.701264
     17          1           0       -0.244908    2.847449    0.809572
     18          1           0        3.917180    2.320151   -0.792195
     19          6           0        2.430537   -0.560052    2.204507
     20          1           0        2.285467   -1.603446    2.511714
     21          1           0        1.764221    0.041649    2.832774
     22          1           0        3.463770   -0.290672    2.457428
     23          8           0        0.147106   -1.744144    1.094351
     24          8           0        5.321729    0.481877   -1.928994
     25          6           0       -1.590687    0.577274   -0.148255
     26          1           0       -1.270343    0.704670   -1.197751
     27          6           0       -2.314140   -0.779782   -0.053521
     28          6           0       -1.441436   -1.825608   -0.748824
     29          1           0       -1.474077   -1.680893   -1.836423
     30          1           0       -1.827311   -2.836120   -0.568343
     31          6           0       -0.001662   -1.751520   -0.313868
     32          1           0        0.632149   -2.403928   -0.898208
     33          6           0       -2.699440    1.605328    0.077662
     34          1           0       -2.405063    2.612570   -0.234018
     35          1           0       -2.987440    1.653398    1.134019
     36          6           0       -3.839572    1.075164   -0.811023
     37          1           0       -3.708561    1.437184   -1.837448
     38          6           0       -3.582181   -0.427429   -0.815578
     39          8           0       -4.315528   -1.248084   -1.352140
     40          6           0       -2.765631   -1.202434    1.355129
     41          1           0       -3.209172   -2.204886    1.328544
     42          1           0       -3.537196   -0.536829    1.758309
     43          1           0       -1.953782   -1.220558    2.084534
     44          6           0       -5.214568    1.430656   -0.283004
     45          1           0       -5.995263    1.034147   -0.940768
     46          1           0       -5.339263    2.516298   -0.221159
     47          1           0       -5.383821    1.007738    0.713152
 ---------------------------------------------------------------------
 Rotational constants (GHZ):      0.5875747      0.1579765      0.1479451
 Standard basis: 6-31G(d,p) (6D, 7F)
 There are   465 symmetry adapted basis functions of A   symmetry.
 Integral buffers will be    131072 words long.
 Raffenetti 2 integral format.
 Two-electron integral symmetry is turned on.
   465 basis functions,   812 primitive gaussians,   465 cartesian basis functions
    84 alpha electrons       84 beta electrons
       nuclear repulsion energy      2043.6059271492 Hartrees.
 NAtoms=   47 NActive=   47 NUniq=   47 SFac= 1.00D+00 NAtFMM=   60 NAOKFM=F Big=F
 ------------------------------------------------------------------------------
 Polarizable Continuum Model (PCM)
 =================================
 Model                : C-PCM.
 Atomic radii         : SMD-Coulomb.
 Polarization charges : Total charges.
 Charge compensation  : None.
 Solution method      : Matrix inversion.
 Cavity type          : VdW (van der Waals Surface) (Alpha=1.000).
 Cavity algorithm     : GePol (No added spheres)
                        Default sphere list used, NSphG=   47.
                        Lebedev-Laikov grids with approx.  5.0 points / Ang**2.
                        Smoothing algorithm: Karplus/York (Gamma=1.0000).
                        Polarization charges: spherical gaussians, with
                                              point-specific exponents (IZeta= 3).
                        Self-potential: point-specific (ISelfS= 7).
                        Self-field    : sphere-specific E.n sum rule (ISelfD= 2).
 Solvent              : Chloroform, Eps=   4.711300 Eps(inf)=   2.090627
 ------------------------------------------------------------------------------
 ------------------------------------------------------------------------------
 Atomic radii for non-electrostatic terms: SMD-CDS.
 ------------------------------------------------------------------------------
 Nuclear repulsion after PCM non-electrostatic terms =     2043.5965361951 Hartrees.
 One-electron integrals computed using PRISM.
 NBasis=   465 RedAO= T  NBF=   465
 NBsUse=   465 1.00D-06 NBFU=   465
 Harris functional with IExCor=  908 diagonalized for initial guess.
 ExpMin= 1.61D-01 ExpMax= 5.48D+03 ExpMxC= 8.25D+02 IAcc=1 IRadAn=         1 AccDes= 0.00D+00
 HarFok:  IExCor=  908 AccDes= 0.00D+00 IRadAn=         1 IDoV= 1
 ScaDFX=  1.000000  1.000000  1.000000  1.000000
 FoFCou: FMM=F IPFlag=           0 FMFlag=      100000 FMFlg1=           0
         NFxFlg=           0 DoJE=T BraDBF=F KetDBF=T FulRan=T
         Omega=  0.000000  0.000000  1.000000  0.000000  0.000000 ICntrl=     500 IOpCl=  0
         NMat0=    1 NMatS0=    1 NMatT0=    0 NMatD0=    1 NMtDS0=    0 NMtDT0=    0
         I1Cent=           4 NGrid=           0.
 Petite list used in FoFCou.
 Initial guess orbital symmetries:
       Occupied  (A) (A) (A) (A) (A) (A) (A) (A) (A) (A) (A) (A)
                 (A) (A) (A) (A) (A) (A) (A) (A) (A) (A) (A) (A)
                 (A) (A) (A) (A) (A) (A) (A) (A) (A) (A) (A) (A)
                 (A) (A) (A) (A) (A) (A) (A) (A) (A) (A) (A) (A)
                 (A) (A) (A) (A) (A) (A) (A) (A) (A) (A) (A) (A)
                 (A) (A) (A) (A) (A) (A) (A) (A) (A) (A) (A) (A)
                 (A) (A) (A) (A) (A) (A) (A) (A) (A) (A) (A) (A)
       Virtual   (A) (A) (A) (A) (A) (A) (A) (A) (A) (A) (A) (A)
                 (A) (A) (A) (A) (A) (A) (A) (A) (A) (A) (A) (A)
                 (A) (A) (A) (A) (A) (A) (A) (A) (A) (A) (A) (A)
                 (A) (A) (A) (A) (A) (A) (A) (A) (A) (A) (A) (A)
                 (A) (A) (A) (A) (A) (A) (A) (A) (A) (A) (A) (A)
                 (A) (A) (A) (A) (A) (A) (A) (A) (A) (A) (A) (A)
                 (A) (A) (A) (A) (A) (A) (A) (A) (A) (A) (A) (A)
                 (A) (A) (A) (A) (A) (A) (A) (A) (A) (A) (A) (A)
                 (A) (A) (A) (A) (A) (A) (A) (A) (A) (A) (A) (A)
                 (A) (A) (A) (A) (A) (A) (A) (A) (A) (A) (A) (A)
                 (A) (A) (A) (A) (A) (A) (A) (A) (A) (A) (A) (A)
                 (A) (A) (A) (A) (A) (A) (A) (A) (A) (A) (A) (A)
                 (A) (A) (A) (A) (A) (A) (A) (A) (A) (A) (A) (A)
                 (A) (A) (A) (A) (A) (A) (A) (A) (A) (A) (A) (A)
                 (A) (A) (A) (A) (A) (A) (A) (A) (A) (A) (A) (A)
                 (A) (A) (A) (A) (A) (A) (A) (A) (A) (A) (A) (A)
                 (A) (A) (A) (A) (A) (A) (A) (A) (A) (A) (A) (A)
                 (A) (A) (A) (A) (A) (A) (A) (A) (A) (A) (A) (A)
                 (A) (A) (A) (A) (A) (A) (A) (A) (A) (A) (A) (A)
                 (A) (A) (A) (A) (A) (A) (A) (A) (A) (A) (A) (A)
                 (A) (A) (A) (A) (A) (A) (A) (A) (A) (A) (A) (A)
                 (A) (A) (A) (A) (A) (A) (A) (A) (A) (A) (A) (A)
                 (A) (A) (A) (A) (A) (A) (A) (A) (A) (A) (A) (A)
                 (A) (A) (A) (A) (A) (A) (A) (A) (A) (A) (A) (A)
                 (A) (A) (A) (A) (A) (A) (A) (A) (A) (A) (A) (A)
                 (A) (A) (A) (A) (A) (A) (A) (A) (A) (A) (A) (A)
                 (A) (A) (A) (A) (A) (A) (A) (A) (A) (A) (A) (A)
                 (A) (A) (A) (A) (A) (A) (A) (A) (A) (A) (A) (A)
                 (A) (A) (A) (A) (A) (A) (A) (A) (A) (A) (A) (A)
                 (A) (A) (A) (A) (A) (A) (A) (A) (A) (A) (A) (A)
                 (A) (A) (A) (A) (A) (A) (A) (A) (A) (A) (A) (A)
                 (A) (A) (A) (A) (A) (A) (A) (A) (A)
 The electronic state of the initial guess is 1-A.
 Requested convergence on RMS density matrix=1.00D-08 within 128 cycles.
 Requested convergence on MAX density matrix=1.00D-06.
 Requested convergence on             energy=1.00D-06.
 No special actions if energy rises.
 Error on total polarization charges =  0.03425
 SCF Done:  E(RmPW1PW91) =  -1002.03646525     A.U. after   13 cycles
             Convg  =    0.4758D-08             -V/T =  2.0093
 SMD-CDS (non-electrostatic) energy       (kcal/mol) =      -5.89
 (included in total energy above)
 Range of M.O.s used for correlation:     1   465
 NBasis=   465 NAE=    84 NBE=    84 NFC=     0 NFV=     0
 NROrb=    465 NOA=    84 NOB=    84 NVA=   381 NVB=   381
 NEqPCM:  Using equilibrium solvation (IEInf=0, Eps=   4.7113, EpsInf=   2.0906)
          Differentiating once with respect to magnetic field using GIAOs.
          Electric field/nuclear overlap derivatives assumed to be zero.
 FoFCou: FMM=F IPFlag=           0 FMFlag=    10101102 FMFlg1=           0
         NFxFlg=    40000000 DoJE=F BraDBF=F KetDBF=T FulRan=T
         Omega=  0.000000  0.000000  1.000000  0.000000  0.000000 ICntrl=    6100 IOpCl=  0
         NMat0=    1 NMatS0=    1 NMatT0=    0 NMatD0=    1 NMtDS0=    0 NMtDT0=    0
         I1Cent=           7 NGrid=        3075.
 Symmetry not used in FoFCou.
          There are     3 degrees of freedom in the 1st order CPHF.  IDoFFX=0.
      3 vectors produced by pass  0 Test12= 1.07D-12 3.33D-08 XBig12= 7.11D+01 1.95D+00.
 AX will form     3 AO Fock derivatives at one time.
      3 vectors produced by pass  1 Test12= 1.07D-12 3.33D-08 XBig12= 2.09D-01 1.88D-01.
      3 vectors produced by pass  2 Test12= 1.07D-12 3.33D-08 XBig12= 3.08D-03 2.80D-02.
      3 vectors produced by pass  3 Test12= 1.07D-12 3.33D-08 XBig12= 1.63D-05 1.34D-03.
      3 vectors produced by pass  4 Test12= 1.07D-12 3.33D-08 XBig12= 4.77D-08 5.94D-05.
      3 vectors produced by pass  5 Test12= 1.07D-12 3.33D-08 XBig12= 1.80D-10 2.42D-06.
      3 vectors produced by pass  6 Test12= 1.07D-12 3.33D-08 XBig12= 7.18D-13 2.11D-07.
 Inverted reduced A of dimension    21 with in-core refinement.
 Calculating GIAO nuclear magnetic shielding tensors.
 SCF GIAO Magnetic shielding tensor (ppm):
      1  C    Isotropic =    70.4734   Anisotropy =   126.1982
   XX=   101.5126   YX=    24.3552   ZX=    43.8305
   XY=    25.6826   YY=    -7.3686   ZY=   -22.2266
   XZ=    45.1923   YZ=   -22.4626   ZZ=   117.2762
   Eigenvalues:   -20.6282    77.4428   154.6055
      2  H    Isotropic =    25.2727   Anisotropy =     5.4116
   XX=    27.1222   YX=     0.8398   ZX=    -2.4711
   XY=     0.7531   YY=    23.7370   ZY=    -0.7535
   XZ=    -2.2646   YZ=    -0.8454   ZZ=    24.9589
   Eigenvalues:    23.2301    23.7076    28.8804
      3  C    Isotropic =    44.7568   Anisotropy =   176.0892
   XX=    87.9013   YX=   -12.9045   ZX=    53.5397
   XY=     4.5940   YY=   -71.4060   ZY=     1.4338
   XZ=    61.2501   YZ=     7.6205   ZZ=   117.7752
   Eigenvalues:   -71.7289    43.8497   162.1496
      4  H    Isotropic =    24.6236   Anisotropy =     9.9971
   XX=    28.5574   YX=    -4.1373   ZX=    -1.8827
   XY=    -3.2863   YY=    22.0363   ZY=     2.0367
   XZ=    -2.2359   YZ=     2.7906   ZZ=    23.2771
   Eigenvalues:    19.7035    22.8790    31.2884
      5  C    Isotropic =   147.7604   Anisotropy =    37.8511
   XX=   154.5672   YX=     5.0414   ZX=    19.6880
   XY=    -2.9112   YY=   139.0375   ZY=     1.4618
   XZ=    21.2631   YZ=     4.9348   ZZ=   149.6763
   Eigenvalues:   131.1321   139.1546   172.9944
      6  C    Isotropic =    16.8961   Anisotropy =   158.5084
   XX=    42.9053   YX=     4.0400   ZX=    65.8419
   XY=     4.8629   YY=   -58.3948   ZY=    -6.2206
   XZ=    68.1882   YZ=    -4.6023   ZZ=    66.1779
   Eigenvalues:   -59.4366   -12.4434   122.5684
      7  C    Isotropic =    73.1648   Anisotropy =   102.5142
   XX=   107.1651   YX=    -4.7388   ZX=    29.6501
   XY=    -1.0831   YY=    -5.9357   ZY=     3.2159
   XZ=    26.8444   YZ=     3.8520   ZZ=   118.2649
   Eigenvalues:    -6.1651    84.1518   141.5075
      8  C    Isotropic =    31.2684   Anisotropy =   196.1897
   XX=    65.6187   YX=    30.0577   ZX=    79.2211
   XY=     4.1476   YY=   -68.4099   ZY=    -8.4328
   XZ=    79.6939   YZ=   -20.9282   ZZ=    96.5964
   Eigenvalues:   -75.1539     6.8975   162.0616
      9  C    Isotropic =   162.7758   Anisotropy =    15.0661
   XX=   167.3342   YX=    -2.5818   ZX=    -4.1264
   XY=    -7.2483   YY=   167.2009   ZY=     4.8004
   XZ=    -3.0060   YZ=    -2.1788   ZZ=   153.7922
   Eigenvalues:   152.9098   162.5976   172.8199
     10  H    Isotropic =    29.2619   Anisotropy =    10.1530
   XX=    29.9796   YX=     3.7830   ZX=    -0.8557
   XY=     4.0788   YY=    33.3073   ZY=    -0.9371
   XZ=    -0.9820   YZ=    -0.6500   ZZ=    24.4989
   Eigenvalues:    24.3453    27.4098    36.0306
     11  H    Isotropic =    28.9452   Anisotropy =     6.5292
   XX=    26.1314   YX=     1.0455   ZX=     2.2816
   XY=     0.3130   YY=    28.9794   ZY=     2.2831
   XZ=     1.2569   YZ=     1.7790   ZZ=    31.7249
   Eigenvalues:    25.6159    27.9217    33.2981
     12  C    Isotropic =   127.0357   Anisotropy =    82.0784
   XX=   169.3012   YX=   -30.9683   ZX=    -6.8635
   XY=   -27.7328   YY=   106.9542   ZY=   -12.9633
   XZ=   -23.0302   YZ=   -21.0608   ZZ=   104.8518
   Eigenvalues:    78.0076   121.3449   181.7547
     13  C    Isotropic =   158.4169   Anisotropy =    16.8503
   XX=   166.2253   YX=   -10.6385   ZX=    -1.7183
   XY=    -0.3431   YY=   160.8472   ZY=    -1.0549
   XZ=     0.4328   YZ=    -1.3379   ZZ=   148.1783
   Eigenvalues:   147.9834   157.6169   169.6505
     14  H    Isotropic =    29.1462   Anisotropy =     3.3463
   XX=    29.2219   YX=    -0.4156   ZX=    -2.5220
   XY=    -0.0823   YY=    27.9424   ZY=     0.6035
   XZ=    -0.3904   YZ=     0.3321   ZZ=    30.2744
   Eigenvalues:    27.8501    28.2115    31.3771
     15  C    Isotropic =   162.3380   Anisotropy =    21.5728
   XX=   169.7065   YX=     6.0035   ZX=     4.9919
   XY=    14.1394   YY=   161.9230   ZY=    -4.6947
   XZ=     6.5685   YZ=    -7.2026   ZZ=   155.3845
   Eigenvalues:   146.9915   163.3026   176.7199
     16  H    Isotropic =    30.2742   Anisotropy =     6.1255
   XX=    31.0814   YX=     1.5951   ZX=     1.1058
   XY=     1.8698   YY=    28.8071   ZY=    -4.1152
   XZ=     1.2383   YZ=    -4.5874   ZZ=    30.9342
   Eigenvalues:    24.7080    31.7568    34.3579
     17  H    Isotropic =    29.3391   Anisotropy =     8.2473
   XX=    31.8368   YX=    -2.2769   ZX=    -0.3378
   XY=    -1.6358   YY=    33.1895   ZY=     2.3738
   XZ=     0.8307   YZ=     2.1431   ZZ=    22.9909
   Eigenvalues:    22.4670    30.7129    34.8372
     18  H    Isotropic =    25.2850   Anisotropy =     6.8634
   XX=    27.9130   YX=     0.1372   ZX=    -3.0876
   XY=     0.1759   YY=    22.8145   ZY=     0.2538
   XZ=    -2.9844   YZ=     0.1133   ZZ=    25.1275
   Eigenvalues:    22.6962    23.2982    29.8606
     19  C    Isotropic =   172.0243   Anisotropy =    33.2678
   XX=   166.5402   YX=     2.1497   ZX=    10.3895
   XY=     3.0519   YY=   159.3499   ZY=    -3.0024
   XZ=    10.2223   YZ=    -3.9343   ZZ=   190.1828
   Eigenvalues:   156.8961   164.9740   194.2029
     20  H    Isotropic =    29.8492   Anisotropy =     8.9635
   XX=    27.6108   YX=    -0.1570   ZX=     3.5773
   XY=     0.1535   YY=    32.0081   ZY=    -3.9759
   XZ=     1.0345   YZ=    -4.9749   ZZ=    29.9286
   Eigenvalues:    25.0164    28.7063    35.8248
     21  H    Isotropic =    29.5915   Anisotropy =     6.4681
   XX=    27.6670   YX=    -1.7305   ZX=     0.8772
   XY=    -1.9932   YY=    27.7484   ZY=     0.9603
   XZ=    -1.5362   YZ=     2.2784   ZZ=    33.3592
   Eigenvalues:    25.7325    29.1386    33.9036
     22  H    Isotropic =    30.9771   Anisotropy =    11.4780
   XX=    34.5128   YX=     1.0173   ZX=     5.8570
   XY=     0.8797   YY=    26.7279   ZY=    -0.3161
   XZ=     4.7654   YZ=    -0.1331   ZZ=    31.6905
   Eigenvalues:    26.2694    28.0328    38.6291
     23  O    Isotropic =   270.1273   Anisotropy =   122.4897
   XX=   344.8544   YX=    -7.6769   ZX=    36.7584
   XY=    -0.9001   YY=   318.9039   ZY=    63.2700
   XZ=    22.4678   YZ=    70.9014   ZZ=   146.6236
   Eigenvalues:   119.7401   338.8547   351.7871
     24  O    Isotropic =  -198.6802   Anisotropy =   846.9153
   XX=  -263.7147   YX=   -74.6385   ZX=   515.9286
   XY=   -77.5422   YY=  -278.0507   ZY=    54.7479
   XZ=   512.6304   YZ=    49.8164   ZZ=   -54.2752
   Eigenvalues:  -703.7161  -258.2544   365.9300
     25  C    Isotropic =   145.0972   Anisotropy =    19.1892
   XX=   154.9946   YX=     7.8604   ZX=    12.5883
   XY=    -2.8668   YY=   141.3950   ZY=    -3.4462
   XZ=     0.5843   YZ=     7.2468   ZZ=   138.9021
   Eigenvalues:   136.3546   141.0471   157.8900
     26  H    Isotropic =    30.3273   Anisotropy =     2.4086
   XX=    30.9596   YX=    -0.7295   ZX=     0.7511
   XY=    -0.5969   YY=    28.8778   ZY=    -1.0414
   XZ=    -1.6034   YZ=    -2.0427   ZZ=    31.1447
   Eigenvalues:    27.8965    31.1524    31.9331
     27  C    Isotropic =   148.5599   Anisotropy =    21.8174
   XX=   161.0457   YX=    -7.4827   ZX=     1.6771
   XY=    -1.4831   YY=   141.2937   ZY=    -0.5146
   XZ=     6.7399   YZ=    -4.3597   ZZ=   143.3403
   Eigenvalues:   139.5414   143.0334   163.1048
     28  C    Isotropic =   159.4520   Anisotropy =    22.9474
   XX=   165.1265   YX=   -10.8420   ZX=    -8.8362
   XY=    -6.5484   YY=   162.8933   ZY=     3.1674
   XZ=    -4.3265   YZ=     2.7909   ZZ=   150.3361
   Eigenvalues:   147.8229   155.7828   174.7502
     29  H    Isotropic =    30.1348   Anisotropy =     8.0946
   XX=    28.8883   YX=    -0.0564   ZX=     1.5065
   XY=    -0.6015   YY=    27.0871   ZY=     2.2298
   XZ=     0.7093   YZ=     3.4409   ZZ=    34.4291
   Eigenvalues:    25.9616    28.9117    35.5312
     30  H    Isotropic =    29.5277   Anisotropy =     9.2652
   XX=    28.9997   YX=     2.3893   ZX=     0.4363
   XY=     2.3913   YY=    34.4506   ZY=     1.6229
   XZ=     0.6692   YZ=     2.0961   ZZ=    25.1328
   Eigenvalues:    24.7731    28.1055    35.7045
     31  C    Isotropic =   130.3891   Anisotropy =    58.0103
   XX=   158.5891   YX=   -18.0492   ZX=    -5.0072
   XY=   -26.8614   YY=   114.5600   ZY=   -24.4451
   XZ=     0.8482   YZ=   -20.3566   ZZ=   118.0182
   Eigenvalues:    88.9604   133.1442   169.0626
     32  H    Isotropic =    28.2313   Anisotropy =    11.3780
   XX=    32.9466   YX=    -5.0372   ZX=    -3.3850
   XY=    -2.1570   YY=    26.1152   ZY=     5.6429
   XZ=     0.5425   YZ=     4.8276   ZZ=    25.6320
   Eigenvalues:    20.4451    28.4322    35.8166
     33  C    Isotropic =   162.6264   Anisotropy =    35.3636
   XX=   182.8079   YX=   -10.3078   ZX=     6.2328
   XY=    -5.1403   YY=   149.4309   ZY=     6.2823
   XZ=    10.9458   YZ=     6.7777   ZZ=   155.6405
   Eigenvalues:   142.2174   159.4597   186.2022
     34  H    Isotropic =    29.5701   Anisotropy =     6.8104
   XX=    30.9377   YX=     0.1356   ZX=     1.2908
   XY=     0.7355   YY=    33.7506   ZY=    -1.6317
   XZ=     1.5310   YZ=    -2.1248   ZZ=    24.0220
   Eigenvalues:    23.3869    31.2131    34.1104
     35  H    Isotropic =    30.3541   Anisotropy =     6.1249
   XX=    31.2584   YX=    -2.6514   ZX=    -2.0493
   XY=    -2.1740   YY=    28.3983   ZY=     1.7929
   XZ=    -1.1140   YZ=     1.9531   ZZ=    31.4057
   Eigenvalues:    26.8290    29.7959    34.4374
     36  C    Isotropic =   152.8679   Anisotropy =    21.3138
   XX=   149.5677   YX=    -5.4134   ZX=     4.0745
   XY=    -6.5038   YY=   163.8588   ZY=     4.7100
   XZ=    -0.7946   YZ=     6.5822   ZZ=   145.1772
   Eigenvalues:   142.0126   149.5139   167.0771
     37  H    Isotropic =    29.5491   Anisotropy =     7.6664
   XX=    29.2671   YX=     0.0605   ZX=     1.0664
   XY=    -0.8362   YY=    26.0439   ZY=    -2.5988
   XZ=     1.6360   YZ=    -3.0243   ZZ=    33.3363
   Eigenvalues:    25.0846    28.9026    34.6600
     38  C    Isotropic =   -27.5132   Anisotropy =   167.0667
   XX=   -31.3819   YX=    19.2722   ZX=   -70.4731
   XY=    14.3950   YY=   -87.8277   ZY=   -11.0571
   XZ=   -72.9246   YZ=    -9.8553   ZZ=    36.6699
   Eigenvalues:   -93.9636   -72.4407    83.8645
     39  O    Isotropic =  -230.3335   Anisotropy =   932.8350
   XX=  -287.9795   YX=  -125.6333   ZX=  -427.9411
   XY=  -119.5699   YY=  -511.7574   ZY=  -179.7722
   XZ=  -432.0394   YZ=  -169.9059   ZZ=   108.7366
   Eigenvalues:  -739.2091  -343.3479   391.5565
     40  C    Isotropic =   177.9656   Anisotropy =    21.7020
   XX=   174.2922   YX=     5.8354   ZX=    -7.1854
   XY=     6.9563   YY=   171.6068   ZY=    -2.8235
   XZ=    -5.7485   YZ=    -5.1972   ZZ=   187.9978
   Eigenvalues:   166.3606   175.1025   192.4336
     41  H    Isotropic =    30.9390   Anisotropy =    10.8387
   XX=    30.3112   YX=     5.1943   ZX=    -1.9983
   XY=     3.8721   YY=    34.1771   ZY=    -1.6695
   XZ=    -1.9952   YZ=    -3.1782   ZZ=    28.3287
   Eigenvalues:    27.0116    27.6406    38.1648
     42  H    Isotropic =    30.7798   Anisotropy =     9.5408
   XX=    32.4497   YX=    -2.8315   ZX=    -5.9016
   XY=    -2.3961   YY=    29.3136   ZY=    -1.4169
   XZ=    -4.4817   YZ=     0.1967   ZZ=    30.5762
   Eigenvalues:    25.0886    30.1105    37.1404
     43  H    Isotropic =    29.8417   Anisotropy =     5.9795
   XX=    32.7093   YX=     0.7364   ZX=     0.2594
   XY=     0.2440   YY=    24.8623   ZY=    -2.3474
   XZ=     2.3513   YZ=    -2.3037   ZZ=    31.9536
   Eigenvalues:    24.0838    31.6133    33.8280
     44  C    Isotropic =   177.1273   Anisotropy =    27.6771
   XX=   193.0929   YX=    -5.3116   ZX=    -2.7312
   XY=    -7.1064   YY=   166.7311   ZY=     1.6875
   XZ=    -6.1379   YZ=     5.4771   ZZ=   171.5578
   Eigenvalues:   164.3366   171.4665   195.5787
     45  H    Isotropic =    30.2080   Anisotropy =    11.3018
   XX=    35.7597   YX=     1.2193   ZX=     4.9046
   XY=    -0.0599   YY=    26.7683   ZY=     1.5648
   XZ=     3.4911   YZ=     1.7105   ZZ=    28.0961
   Eigenvalues:    25.1684    27.7132    37.7426
     46  H    Isotropic =    30.5690   Anisotropy =    10.4363
   XX=    31.4513   YX=    -4.7559   ZX=    -0.1795
   XY=    -3.5865   YY=    34.6004   ZY=     0.5738
   XZ=    -0.0963   YZ=     0.9551   ZZ=    25.6552
   Eigenvalues:    25.5787    28.6017    37.5265
     47  H    Isotropic =    30.8539   Anisotropy =     7.5243
   XX=    32.7824   YX=    -1.0433   ZX=    -3.5046
   XY=    -0.5070   YY=    27.1510   ZY=    -2.1023
   XZ=    -2.6347   YZ=    -1.9849   ZZ=    32.6282
   Eigenvalues:    25.9756    30.7160    35.8701
 End of Minotr Frequency-dependent properties file   721 does not exist.
 End of Minotr Frequency-dependent properties file   722 does not exist.

 **********************************************************************

            Population analysis using the SCF density.

 **********************************************************************

 Orbital symmetries:
       Occupied  (A) (A) (A) (A) (A) (A) (A) (A) (A) (A) (A) (A)
                 (A) (A) (A) (A) (A) (A) (A) (A) (A) (A) (A) (A)
                 (A) (A) (A) (A) (A) (A) (A) (A) (A) (A) (A) (A)
                 (A) (A) (A) (A) (A) (A) (A) (A) (A) (A) (A) (A)
                 (A) (A) (A) (A) (A) (A) (A) (A) (A) (A) (A) (A)
                 (A) (A) (A) (A) (A) (A) (A) (A) (A) (A) (A) (A)
                 (A) (A) (A) (A) (A) (A) (A) (A) (A) (A) (A) (A)
       Virtual   (A) (A) (A) (A) (A) (A) (A) (A) (A) (A) (A) (A)
                 (A) (A) (A) (A) (A) (A) (A) (A) (A) (A) (A) (A)
                 (A) (A) (A) (A) (A) (A) (A) (A) (A) (A) (A) (A)
                 (A) (A) (A) (A) (A) (A) (A) (A) (A) (A) (A) (A)
                 (A) (A) (A) (A) (A) (A) (A) (A) (A) (A) (A) (A)
                 (A) (A) (A) (A) (A) (A) (A) (A) (A) (A) (A) (A)
                 (A) (A) (A) (A) (A) (A) (A) (A) (A) (A) (A) (A)
                 (A) (A) (A) (A) (A) (A) (A) (A) (A) (A) (A) (A)
                 (A) (A) (A) (A) (A) (A) (A) (A) (A) (A) (A) (A)
                 (A) (A) (A) (A) (A) (A) (A) (A) (A) (A) (A) (A)
                 (A) (A) (A) (A) (A) (A) (A) (A) (A) (A) (A) (A)
                 (A) (A) (A) (A) (A) (A) (A) (A) (A) (A) (A) (A)
                 (A) (A) (A) (A) (A) (A) (A) (A) (A) (A) (A) (A)
                 (A) (A) (A) (A) (A) (A) (A) (A) (A) (A) (A) (A)
                 (A) (A) (A) (A) (A) (A) (A) (A) (A) (A) (A) (A)
                 (A) (A) (A) (A) (A) (A) (A) (A) (A) (A) (A) (A)
                 (A) (A) (A) (A) (A) (A) (A) (A) (A) (A) (A) (A)
                 (A) (A) (A) (A) (A) (A) (A) (A) (A) (A) (A) (A)
                 (A) (A) (A) (A) (A) (A) (A) (A) (A) (A) (A) (A)
                 (A) (A) (A) (A) (A) (A) (A) (A) (A) (A) (A) (A)
                 (A) (A) (A) (A) (A) (A) (A) (A) (A) (A) (A) (A)
                 (A) (A) (A) (A) (A) (A) (A) (A) (A) (A) (A) (A)
                 (A) (A) (A) (A) (A) (A) (A) (A) (A) (A) (A) (A)
                 (A) (A) (A) (A) (A) (A) (A) (A) (A) (A) (A) (A)
                 (A) (A) (A) (A) (A) (A) (A) (A) (A) (A) (A) (A)
                 (A) (A) (A) (A) (A) (A) (A) (A) (A) (A) (A) (A)
                 (A) (A) (A) (A) (A) (A) (A) (A) (A) (A) (A) (A)
                 (A) (A) (A) (A) (A) (A) (A) (A) (A) (A) (A) (A)
                 (A) (A) (A) (A) (A) (A) (A) (A) (A) (A) (A) (A)
                 (A) (A) (A) (A) (A) (A) (A) (A) (A) (A) (A) (A)
                 (A) (A) (A) (A) (A) (A) (A) (A) (A) (A) (A) (A)
                 (A) (A) (A) (A) (A) (A) (A) (A) (A)
 The electronic state is 1-A.
 Alpha  occ. eigenvalues --  -19.25150 -19.22578 -19.21126 -10.32579 -10.32286
 Alpha  occ. eigenvalues --  -10.32186 -10.30625 -10.29049 -10.27695 -10.26934
 Alpha  occ. eigenvalues --  -10.25815 -10.25716 -10.25056 -10.24924 -10.24921
 Alpha  occ. eigenvalues --  -10.24600 -10.24511 -10.24466 -10.24394 -10.24355
 Alpha  occ. eigenvalues --  -10.23775 -10.23332 -10.23270  -1.10253  -1.05919
 Alpha  occ. eigenvalues --   -1.05147  -0.89245  -0.88425  -0.82984  -0.81244
 Alpha  occ. eigenvalues --   -0.79642  -0.78009  -0.75152  -0.73992  -0.71985
 Alpha  occ. eigenvalues --   -0.68864  -0.67109  -0.65385  -0.64206  -0.62367
 Alpha  occ. eigenvalues --   -0.61315  -0.60115  -0.57109  -0.55826  -0.53726
 Alpha  occ. eigenvalues --   -0.50890  -0.50587  -0.50046  -0.48586  -0.48345
 Alpha  occ. eigenvalues --   -0.46602  -0.46233  -0.45984  -0.44915  -0.44352
 Alpha  occ. eigenvalues --   -0.43829  -0.42599  -0.42323  -0.42166  -0.41881
 Alpha  occ. eigenvalues --   -0.41068  -0.40834  -0.40328  -0.39607  -0.39324
 Alpha  occ. eigenvalues --   -0.38575  -0.38150  -0.37685  -0.37550  -0.36997
 Alpha  occ. eigenvalues --   -0.36133  -0.35237  -0.34214  -0.33979  -0.33551
 Alpha  occ. eigenvalues --   -0.32950  -0.32002  -0.31579  -0.28935  -0.28334
 Alpha  occ. eigenvalues --   -0.27448  -0.26288  -0.24986  -0.24198
 Alpha virt. eigenvalues --   -0.04986  -0.00877   0.00804   0.07449   0.09985
 Alpha virt. eigenvalues --    0.10946   0.11229   0.12079   0.12430   0.13344
 Alpha virt. eigenvalues --    0.13792   0.14296   0.14787   0.15425   0.16255
 Alpha virt. eigenvalues --    0.16633   0.17212   0.17552   0.17879   0.18073
 Alpha virt. eigenvalues --    0.18312   0.18950   0.19156   0.19361   0.20164
 Alpha virt. eigenvalues --    0.20869   0.21022   0.21545   0.21967   0.22749
 Alpha virt. eigenvalues --    0.22909   0.23499   0.24091   0.24953   0.25421
 Alpha virt. eigenvalues --    0.25845   0.26214   0.26511   0.27594   0.27970
 Alpha virt. eigenvalues --    0.28363   0.28772   0.29115   0.30251   0.31376
 Alpha virt. eigenvalues --    0.33354   0.34420   0.35349   0.35549   0.37462
 Alpha virt. eigenvalues --    0.38204   0.40539   0.40948   0.46925   0.48643
 Alpha virt. eigenvalues --    0.50994   0.51719   0.52124   0.52738   0.52972
 Alpha virt. eigenvalues --    0.54261   0.55541   0.55670   0.56799   0.57307
 Alpha virt. eigenvalues --    0.57824   0.58572   0.58863   0.59468   0.60115
 Alpha virt. eigenvalues --    0.61163   0.61524   0.61951   0.63841   0.64672
 Alpha virt. eigenvalues --    0.64855   0.65554   0.65743   0.66651   0.67084
 Alpha virt. eigenvalues --    0.68301   0.69092   0.69616   0.69933   0.70678
 Alpha virt. eigenvalues --    0.72002   0.72787   0.73706   0.74222   0.75274
 Alpha virt. eigenvalues --    0.76154   0.76978   0.77455   0.78321   0.80654
 Alpha virt. eigenvalues --    0.80771   0.81888   0.82480   0.83306   0.83917
 Alpha virt. eigenvalues --    0.84462   0.85228   0.85559   0.86587   0.87085
 Alpha virt. eigenvalues --    0.87331   0.87545   0.88168   0.88620   0.89135
 Alpha virt. eigenvalues --    0.89391   0.90102   0.90384   0.90814   0.91099
 Alpha virt. eigenvalues --    0.91639   0.93025   0.93353   0.94117   0.94776
 Alpha virt. eigenvalues --    0.94906   0.95327   0.96095   0.96455   0.96753
 Alpha virt. eigenvalues --    0.97706   0.98128   0.98894   0.99199   0.99556
 Alpha virt. eigenvalues --    1.00806   1.02005   1.02189   1.03990   1.04427
 Alpha virt. eigenvalues --    1.05167   1.05839   1.07148   1.08936   1.10419
 Alpha virt. eigenvalues --    1.11522   1.11989   1.12717   1.14108   1.15927
 Alpha virt. eigenvalues --    1.18155   1.18671   1.19778   1.20349   1.22077
 Alpha virt. eigenvalues --    1.23183   1.26981   1.28002   1.31453   1.32428
 Alpha virt. eigenvalues --    1.33504   1.33784   1.36677   1.38017   1.39855
 Alpha virt. eigenvalues --    1.40835   1.41708   1.42913   1.45374   1.46439
 Alpha virt. eigenvalues --    1.47927   1.48296   1.49567   1.50533   1.52755
 Alpha virt. eigenvalues --    1.54509   1.56352   1.56799   1.58434   1.59221
 Alpha virt. eigenvalues --    1.61363   1.63622   1.64712   1.65616   1.67415
 Alpha virt. eigenvalues --    1.68943   1.69596   1.72088   1.73374   1.74499
 Alpha virt. eigenvalues --    1.76259   1.77087   1.78062   1.79687   1.80353
 Alpha virt. eigenvalues --    1.80479   1.80962   1.81743   1.82520   1.83593
 Alpha virt. eigenvalues --    1.83701   1.85157   1.86030   1.87146   1.87898
 Alpha virt. eigenvalues --    1.88477   1.88759   1.89766   1.90724   1.91234
 Alpha virt. eigenvalues --    1.91613   1.91924   1.92578   1.93159   1.93955
 Alpha virt. eigenvalues --    1.94703   1.95427   1.95793   1.96602   1.97240
 Alpha virt. eigenvalues --    1.98483   1.98968   1.99581   2.00382   2.02013
 Alpha virt. eigenvalues --    2.02866   2.03299   2.03530   2.05033   2.06226
 Alpha virt. eigenvalues --    2.06853   2.08206   2.08607   2.08863   2.09387
 Alpha virt. eigenvalues --    2.11212   2.11751   2.12556   2.13252   2.13824
 Alpha virt. eigenvalues --    2.14397   2.14963   2.15951   2.16535   2.17574
 Alpha virt. eigenvalues --    2.18823   2.19342   2.20224   2.21639   2.22120
 Alpha virt. eigenvalues --    2.22957   2.23811   2.25378   2.26201   2.26797
 Alpha virt. eigenvalues --    2.27662   2.29337   2.30432   2.31501   2.32025
 Alpha virt. eigenvalues --    2.32730   2.34396   2.34790   2.36268   2.37438
 Alpha virt. eigenvalues --    2.37701   2.39282   2.41504   2.41904   2.42161
 Alpha virt. eigenvalues --    2.44056   2.44821   2.46329   2.47532   2.47779
 Alpha virt. eigenvalues --    2.48571   2.49335   2.50544   2.51466   2.52130
 Alpha virt. eigenvalues --    2.54101   2.54885   2.55813   2.56906   2.58052
 Alpha virt. eigenvalues --    2.59611   2.60773   2.61421   2.62487   2.64316
 Alpha virt. eigenvalues --    2.64540   2.65390   2.67245   2.67484   2.68206
 Alpha virt. eigenvalues --    2.68737   2.70449   2.71666   2.72278   2.72957
 Alpha virt. eigenvalues --    2.73898   2.74806   2.75072   2.76564   2.78097
 Alpha virt. eigenvalues --    2.78831   2.79139   2.79838   2.81587   2.81931
 Alpha virt. eigenvalues --    2.82683   2.83198   2.85692   2.86498   2.87457
 Alpha virt. eigenvalues --    2.87827   2.89431   2.89946   2.90576   2.91071
 Alpha virt. eigenvalues --    2.91340   2.93422   2.94831   2.95119   2.95975
 Alpha virt. eigenvalues --    2.96795   2.99964   3.00256   3.02332   3.02711
 Alpha virt. eigenvalues --    3.03667   3.05145   3.08065   3.08755   3.10360
 Alpha virt. eigenvalues --    3.13256   3.15194   3.17404   3.23124   3.25151
 Alpha virt. eigenvalues --    3.26072   3.28053   3.30697   3.31282   3.33795
 Alpha virt. eigenvalues --    3.35003   3.35525   3.38880   3.40805   3.44862
 Alpha virt. eigenvalues --    3.48129   3.48653   3.48876   3.49445   3.50746
 Alpha virt. eigenvalues --    3.51194   3.52256   3.53306   3.54110   3.55504
 Alpha virt. eigenvalues --    3.56762   3.58028   3.69654   3.98500   4.08155
 Alpha virt. eigenvalues --    4.24295   4.25413   4.26065   4.33388   4.41140
 Alpha virt. eigenvalues --    4.42768   4.44284   4.49794   4.52655   4.56032
 Alpha virt. eigenvalues --    4.57542   4.61121   4.63890   4.69613   4.74380
 Alpha virt. eigenvalues --    4.75633   4.79522   4.84458   4.92040   4.92990
 Alpha virt. eigenvalues --    4.99754
          Condensed to atoms (all electrons):
              1          2          3          4          5          6
     1  C    5.128689   0.372234   0.514535  -0.021851  -0.040269   0.398786
     2  H    0.372234   0.534226  -0.035048  -0.005805   0.004076  -0.034648
     3  C    0.514535  -0.035048   5.036321   0.364735   0.373265  -0.015062
     4  H   -0.021851  -0.005805   0.364735   0.526449  -0.036152   0.002589
     5  C   -0.040269   0.004076   0.373265  -0.036152   5.120258  -0.024082
     6  C    0.398786  -0.034648  -0.015062   0.002589  -0.024082   4.418594
     7  C   -0.113069   0.005898  -0.006873   0.000149  -0.039546   0.390242
     8  C    0.000705  -0.000415  -0.049119   0.003933   0.356892  -0.015542
     9  C    0.000171   0.000008   0.004887  -0.000125  -0.061026   0.003610
    10  H    0.000007   0.000000  -0.000131   0.000002   0.004051   0.000262
    11  H   -0.000004   0.000000   0.000135   0.000002  -0.003258  -0.000138
    12  C    0.000061  -0.000082  -0.043808  -0.006758   0.334180   0.000116
    13  C    0.000017   0.000002   0.003406   0.000021  -0.046416  -0.000022
    14  H    0.000000   0.000000  -0.000058   0.000000  -0.000508   0.000000
    15  C    0.000007   0.000000  -0.000201  -0.000011  -0.009833  -0.000217
    16  H   -0.000001   0.000000  -0.000050   0.000001  -0.000200  -0.000070
    17  H    0.000000   0.000000   0.000008   0.000000   0.000131   0.000003
    18  H    0.006318  -0.000094  -0.000665   0.000013   0.004445  -0.035424
    19  C   -0.000788  -0.000142  -0.060436  -0.003523   0.339286   0.000534
    20  H    0.000202  -0.000010  -0.007332   0.003301  -0.026104  -0.000036
    21  H   -0.000049   0.000003   0.005283  -0.000031  -0.025956  -0.000009
    22  H    0.000966  -0.000012  -0.003060  -0.000108  -0.029918   0.000000
    23  O    0.000301   0.000002   0.000905   0.005105  -0.033968  -0.000004
    24  O   -0.069750   0.001365   0.006503  -0.000087   0.000218   0.498975
    25  C    0.000000   0.000000  -0.000073   0.000003   0.001941   0.000000
    26  H   -0.000001   0.000000   0.000002   0.000000   0.000071   0.000001
    27  C   -0.000001   0.000000  -0.000006  -0.000005   0.000407   0.000000
    28  C    0.000010   0.000000   0.000079   0.000182   0.001470   0.000000
    29  H    0.000000   0.000000   0.000013  -0.000008   0.000073   0.000000
    30  H    0.000000   0.000000  -0.000001   0.000001  -0.000090   0.000000
    31  C    0.000045  -0.000003  -0.003715   0.000299  -0.033387  -0.000012
    32  H    0.000113   0.000021   0.006673  -0.001633  -0.004354  -0.000012
    33  C    0.000000   0.000000   0.000001   0.000000  -0.000108   0.000000
    34  H    0.000000   0.000000   0.000000   0.000000   0.000001   0.000000
    35  H    0.000000   0.000000   0.000000   0.000000   0.000000   0.000000
    36  C    0.000000   0.000000   0.000000   0.000000   0.000002   0.000000
    37  H    0.000000   0.000000   0.000000   0.000000   0.000000   0.000000
    38  C    0.000000   0.000000   0.000000   0.000000   0.000002   0.000000
    39  O    0.000000   0.000000   0.000000   0.000000   0.000000   0.000000
    40  C    0.000000   0.000000   0.000001   0.000000  -0.000014   0.000000
    41  H    0.000000   0.000000   0.000000   0.000000   0.000001   0.000000
    42  H    0.000000   0.000000   0.000000   0.000000   0.000000   0.000000
    43  H    0.000000   0.000000  -0.000002  -0.000001  -0.000047   0.000000
    44  C    0.000000   0.000000   0.000000   0.000000   0.000000   0.000000
    45  H    0.000000   0.000000   0.000000   0.000000   0.000000   0.000000
    46  H    0.000000   0.000000   0.000000   0.000000   0.000000   0.000000
    47  H    0.000000   0.000000   0.000000   0.000000   0.000000   0.000000
              7          8          9         10         11         12
     1  C   -0.113069   0.000705   0.000171   0.000007  -0.000004   0.000061
     2  H    0.005898  -0.000415   0.000008   0.000000   0.000000  -0.000082
     3  C   -0.006873  -0.049119   0.004887  -0.000131   0.000135  -0.043808
     4  H    0.000149   0.003933  -0.000125   0.000002   0.000002  -0.006758
     5  C   -0.039546   0.356892  -0.061026   0.004051  -0.003258   0.334180
     6  C    0.390242  -0.015542   0.003610   0.000262  -0.000138   0.000116
     7  C    5.195133   0.523034  -0.027258  -0.004499  -0.000408   0.002339
     8  C    0.523034   4.986268   0.343740  -0.037087  -0.036513  -0.038431
     9  C   -0.027258   0.343740   5.079366   0.388265   0.387399  -0.014559
    10  H   -0.004499  -0.037087   0.388265   0.553708  -0.029678   0.000256
    11  H   -0.000408  -0.036513   0.387399  -0.029678   0.557500  -0.001269
    12  C    0.002339  -0.038431  -0.014559   0.000256  -0.001269   5.015820
    13  C    0.000470  -0.013746  -0.041224   0.004093  -0.003175   0.347800
    14  H   -0.000026  -0.000517  -0.000886  -0.000050   0.002332  -0.037836
    15  C   -0.002639  -0.050353   0.328706  -0.030517  -0.038055  -0.038678
    16  H    0.001501  -0.002403  -0.043919  -0.004496   0.005492  -0.002078
    17  H    0.000029   0.005244  -0.032075  -0.002960  -0.004460   0.004093
    18  H    0.370782  -0.036530  -0.008604   0.004333   0.000116  -0.000057
    19  C   -0.002523  -0.062323  -0.004149   0.000066   0.001933  -0.054266
    20  H   -0.000005   0.005152   0.000057   0.000001  -0.000040  -0.007192
    21  H   -0.000226  -0.006623   0.001498   0.000006   0.001992  -0.005766
    22  H    0.001919  -0.001698  -0.000864  -0.000057   0.000249   0.004723
    23  O   -0.000045   0.002381   0.000079   0.000002  -0.000022   0.076707
    24  O   -0.066048   0.006973  -0.000103   0.000001   0.000001   0.000002
    25  C   -0.000021   0.000102   0.004114  -0.000131   0.000081  -0.023287
    26  H   -0.000014  -0.000043   0.000085  -0.000005   0.000003  -0.003059
    27  C    0.000000  -0.000034  -0.000140   0.000002   0.000003  -0.020738
    28  C   -0.000002   0.000091   0.000001   0.000000   0.000000  -0.016976
    29  H    0.000000  -0.000008   0.000000   0.000000   0.000000  -0.001997
    30  H    0.000000   0.000000   0.000000   0.000000   0.000000   0.003412
    31  C    0.000100   0.000838  -0.000146   0.000004  -0.000033   0.334997
    32  H    0.000004  -0.000322  -0.000005   0.000000  -0.000001  -0.023053
    33  C    0.000001   0.000005   0.000189   0.000000  -0.000012   0.004449
    34  H    0.000000  -0.000004  -0.000047   0.000004   0.000005  -0.000079
    35  H    0.000000   0.000000  -0.000018   0.000000   0.000000   0.000108
    36  C    0.000000   0.000000  -0.000002   0.000000   0.000000  -0.000266
    37  H    0.000000   0.000000   0.000000   0.000000   0.000000   0.000009
    38  C    0.000000   0.000000   0.000002   0.000000   0.000000   0.000111
    39  O    0.000000   0.000000   0.000000   0.000000   0.000000  -0.000005
    40  C    0.000000   0.000000   0.000000   0.000000  -0.000001  -0.002230
    41  H    0.000000   0.000000   0.000000   0.000000   0.000000   0.000094
    42  H    0.000000   0.000000   0.000000   0.000000   0.000000  -0.000019
    43  H    0.000000   0.000000   0.000005   0.000000  -0.000001  -0.001341
    44  C    0.000000   0.000000   0.000000   0.000000   0.000000   0.000002
    45  H    0.000000   0.000000   0.000000   0.000000   0.000000   0.000000
    46  H    0.000000   0.000000   0.000000   0.000000   0.000000   0.000000
    47  H    0.000000   0.000000   0.000000   0.000000   0.000000   0.000000
             13         14         15         16         17         18
     1  C    0.000017   0.000000   0.000007  -0.000001   0.000000   0.006318
     2  H    0.000002   0.000000   0.000000   0.000000   0.000000  -0.000094
     3  C    0.003406  -0.000058  -0.000201  -0.000050   0.000008  -0.000665
     4  H    0.000021   0.000000  -0.000011   0.000001   0.000000   0.000013
     5  C   -0.046416  -0.000508  -0.009833  -0.000200   0.000131   0.004445
     6  C   -0.000022   0.000000  -0.000217  -0.000070   0.000003  -0.035424
     7  C    0.000470  -0.000026  -0.002639   0.001501   0.000029   0.370782
     8  C   -0.013746  -0.000517  -0.050353  -0.002403   0.005244  -0.036530
     9  C   -0.041224  -0.000886   0.328706  -0.043919  -0.032075  -0.008604
    10  H    0.004093  -0.000050  -0.030517  -0.004496  -0.002960   0.004333
    11  H   -0.003175   0.002332  -0.038055   0.005492  -0.004460   0.000116
    12  C    0.347800  -0.037836  -0.038678  -0.002078   0.004093  -0.000057
    13  C    5.021676   0.389066   0.341983  -0.042719  -0.025496  -0.000001
    14  H    0.389066   0.567111  -0.039576   0.005113  -0.006201   0.000000
    15  C    0.341983  -0.039576   5.073592   0.392720   0.380733   0.000295
    16  H   -0.042719   0.005113   0.392720   0.578181  -0.031111   0.000116
    17  H   -0.025496  -0.006201   0.380733  -0.031111   0.563657  -0.000021
    18  H   -0.000001   0.000000   0.000295   0.000116  -0.000021   0.542425
    19  C   -0.002675   0.000892  -0.000640   0.000091  -0.000031  -0.000136
    20  H    0.000042   0.000130  -0.000027   0.000002   0.000000   0.000004
    21  H    0.001939   0.001086  -0.000457  -0.000004   0.000034   0.000000
    22  H   -0.000076  -0.000001   0.000093   0.000000  -0.000001  -0.000026
    23  O   -0.018496  -0.005356   0.002414  -0.000049  -0.000039   0.000000
    24  O    0.000000   0.000000   0.000001   0.000000   0.000000   0.001924
    25  C    0.351390  -0.033224  -0.044685  -0.006189  -0.005357   0.000000
    26  H   -0.042271   0.005192  -0.008809   0.006486   0.000028   0.000000
    27  C   -0.032072  -0.006996   0.006044   0.000190  -0.000087   0.000000
    28  C   -0.011145   0.000880  -0.000432  -0.000002   0.000001   0.000000
    29  H    0.000594  -0.000011   0.000005   0.000000   0.000000   0.000000
    30  H   -0.000162   0.000063   0.000004   0.000001   0.000000   0.000000
    31  C   -0.042423   0.002648   0.001648   0.000215  -0.000071   0.000001
    32  H    0.002456  -0.000156   0.000080  -0.000022   0.000000   0.000000
    33  C   -0.036246  -0.004241  -0.004798  -0.001048   0.002060   0.000000
    34  H   -0.003167  -0.000108   0.002142   0.000962   0.000399   0.000000
    35  H   -0.003254   0.003450  -0.000817   0.000081   0.000620   0.000000
    36  C    0.004242   0.000027   0.000179  -0.000035   0.000005   0.000000
    37  H    0.000003   0.000001  -0.000021  -0.000005   0.000007   0.000000
    38  C    0.003951  -0.000034  -0.000117  -0.000020  -0.000009   0.000000
    39  O   -0.000074   0.000000   0.000000   0.000000   0.000000   0.000000
    40  C   -0.004421   0.001754   0.000040   0.000002   0.000005   0.000000
    41  H   -0.000042  -0.000021   0.000000   0.000000   0.000000   0.000000
    42  H    0.000049   0.000063  -0.000003   0.000000  -0.000002   0.000000
    43  H    0.002028   0.002689  -0.000005  -0.000001  -0.000005   0.000000
    44  C   -0.000147   0.000002   0.000000   0.000001   0.000002   0.000000
    45  H    0.000003   0.000000   0.000000   0.000000   0.000000   0.000000
    46  H    0.000000   0.000000   0.000000   0.000000   0.000000   0.000000
    47  H    0.000000  -0.000003   0.000000   0.000000   0.000000   0.000000
             19         20         21         22         23         24
     1  C   -0.000788   0.000202  -0.000049   0.000966   0.000301  -0.069750
     2  H   -0.000142  -0.000010   0.000003  -0.000012   0.000002   0.001365
     3  C   -0.060436  -0.007332   0.005283  -0.003060   0.000905   0.006503
     4  H   -0.003523   0.003301  -0.000031  -0.000108   0.005105  -0.000087
     5  C    0.339286  -0.026104  -0.025956  -0.029918  -0.033968   0.000218
     6  C    0.000534  -0.000036  -0.000009   0.000000  -0.000004   0.498975
     7  C   -0.002523  -0.000005  -0.000226   0.001919  -0.000045  -0.066048
     8  C   -0.062323   0.005152  -0.006623  -0.001698   0.002381   0.006973
     9  C   -0.004149   0.000057   0.001498  -0.000864   0.000079  -0.000103
    10  H    0.000066   0.000001   0.000006  -0.000057   0.000002   0.000001
    11  H    0.001933  -0.000040   0.001992   0.000249  -0.000022   0.000001
    12  C   -0.054266  -0.007192  -0.005766   0.004723   0.076707   0.000002
    13  C   -0.002675   0.000042   0.001939  -0.000076  -0.018496   0.000000
    14  H    0.000892   0.000130   0.001086  -0.000001  -0.005356   0.000000
    15  C   -0.000640  -0.000027  -0.000457   0.000093   0.002414   0.000001
    16  H    0.000091   0.000002  -0.000004   0.000000  -0.000049   0.000000
    17  H   -0.000031   0.000000   0.000034  -0.000001  -0.000039   0.000000
    18  H   -0.000136   0.000004   0.000000  -0.000026   0.000000   0.001924
    19  C    5.097457   0.381759   0.379760   0.381491  -0.009331   0.000006
    20  H    0.381759   0.534938  -0.026226  -0.027279   0.006773   0.000000
    21  H    0.379760  -0.026226   0.545794  -0.026337  -0.000056   0.000000
    22  H    0.381491  -0.027279  -0.026337   0.542427   0.000294  -0.000005
    23  O   -0.009331   0.006773  -0.000056   0.000294   8.407094   0.000000
    24  O    0.000006   0.000000   0.000000  -0.000005   0.000000   8.174427
    25  C    0.000078  -0.000003  -0.000028   0.000001  -0.009730   0.000000
    26  H    0.000000   0.000000   0.000001   0.000000   0.000092   0.000000
    27  C   -0.000024  -0.000004  -0.000001   0.000000   0.009894   0.000000
    28  C   -0.000090   0.000018   0.000001   0.000002  -0.049649   0.000000
    29  H    0.000000   0.000000   0.000000   0.000000   0.003676   0.000000
    30  H    0.000005   0.000001   0.000000   0.000000  -0.002676   0.000000
    31  C    0.002881   0.000492  -0.000035  -0.000102   0.126778   0.000000
    32  H    0.000221  -0.000123  -0.000012  -0.000001  -0.027018   0.000000
    33  C    0.000002   0.000000   0.000001   0.000000  -0.000170   0.000000
    34  H    0.000000   0.000000   0.000000   0.000000   0.000000   0.000000
    35  H    0.000000   0.000000   0.000000   0.000000  -0.000006   0.000000
    36  C    0.000000   0.000000   0.000000   0.000000   0.000006   0.000000
    37  H    0.000000   0.000000   0.000000   0.000000   0.000000   0.000000
    38  C    0.000000   0.000000   0.000000   0.000000   0.000113   0.000000
    39  O    0.000000   0.000000   0.000000   0.000000  -0.000001   0.000000
    40  C   -0.000011   0.000001  -0.000003   0.000000  -0.005140   0.000000
    41  H    0.000000   0.000000   0.000000   0.000000   0.000105   0.000000
    42  H    0.000000   0.000000   0.000000   0.000000   0.000397   0.000000
    43  H    0.000050   0.000008   0.000013   0.000000   0.009441   0.000000
    44  C    0.000000   0.000000   0.000000   0.000000   0.000000   0.000000
    45  H    0.000000   0.000000   0.000000   0.000000   0.000000   0.000000
    46  H    0.000000   0.000000   0.000000   0.000000   0.000000   0.000000
    47  H    0.000000   0.000000   0.000000   0.000000   0.000000   0.000000
             25         26         27         28         29         30
     1  C    0.000000  -0.000001  -0.000001   0.000010   0.000000   0.000000
     2  H    0.000000   0.000000   0.000000   0.000000   0.000000   0.000000
     3  C   -0.000073   0.000002  -0.000006   0.000079   0.000013  -0.000001
     4  H    0.000003   0.000000  -0.000005   0.000182  -0.000008   0.000001
     5  C    0.001941   0.000071   0.000407   0.001470   0.000073  -0.000090
     6  C    0.000000   0.000001   0.000000   0.000000   0.000000   0.000000
     7  C   -0.000021  -0.000014   0.000000  -0.000002   0.000000   0.000000
     8  C    0.000102  -0.000043  -0.000034   0.000091  -0.000008   0.000000
     9  C    0.004114   0.000085  -0.000140   0.000001   0.000000   0.000000
    10  H   -0.000131  -0.000005   0.000002   0.000000   0.000000   0.000000
    11  H    0.000081   0.000003   0.000003   0.000000   0.000000   0.000000
    12  C   -0.023287  -0.003059  -0.020738  -0.016976  -0.001997   0.003412
    13  C    0.351390  -0.042271  -0.032072  -0.011145   0.000594  -0.000162
    14  H   -0.033224   0.005192  -0.006996   0.000880  -0.000011   0.000063
    15  C   -0.044685  -0.008809   0.006044  -0.000432   0.000005   0.000004
    16  H   -0.006189   0.006486   0.000190  -0.000002   0.000000   0.000001
    17  H   -0.005357   0.000028  -0.000087   0.000001   0.000000   0.000000
    18  H    0.000000   0.000000   0.000000   0.000000   0.000000   0.000000
    19  C    0.000078   0.000000  -0.000024  -0.000090   0.000000   0.000005
    20  H   -0.000003   0.000000  -0.000004   0.000018   0.000000   0.000001
    21  H   -0.000028   0.000001  -0.000001   0.000001   0.000000   0.000000
    22  H    0.000001   0.000000   0.000000   0.000002   0.000000   0.000000
    23  O   -0.009730   0.000092   0.009894  -0.049649   0.003676  -0.002676
    24  O    0.000000   0.000000   0.000000   0.000000   0.000000   0.000000
    25  C    5.132960   0.400422   0.310529  -0.056739  -0.005245   0.005971
    26  H    0.400422   0.592750  -0.047834  -0.003681   0.003915   0.000242
    27  C    0.310529  -0.047834   5.335147   0.328593  -0.036881  -0.035473
    28  C   -0.056739  -0.003681   0.328593   5.070549   0.375492   0.377393
    29  H   -0.005245   0.003915  -0.036881   0.375492   0.567334  -0.027378
    30  H    0.005971   0.000242  -0.035473   0.377393  -0.027378   0.555348
    31  C   -0.004589  -0.000770  -0.038119   0.347498  -0.032600  -0.029343
    32  H   -0.000639  -0.000287   0.005942  -0.056097  -0.000018  -0.002374
    33  C    0.333448  -0.047650  -0.042602   0.005875  -0.000179  -0.000200
    34  H   -0.026653  -0.005740   0.004744  -0.000180   0.000005   0.000003
    35  H   -0.037927   0.005402  -0.004958   0.000093  -0.000002   0.000006
    36  C   -0.038363  -0.000062  -0.162324   0.006660   0.000774  -0.000051
    37  H   -0.000589   0.002531   0.003085  -0.000303  -0.000026   0.000000
    38  C   -0.051797  -0.006565   0.329336  -0.035067  -0.003028  -0.003982
    39  O    0.003034  -0.000027  -0.082448   0.004103   0.001448   0.002555
    40  C   -0.053689   0.005342   0.349549  -0.041196   0.005163  -0.005349
    41  H    0.005305  -0.000115  -0.030988  -0.007337   0.000063   0.004862
    42  H   -0.004874  -0.000073  -0.034304   0.004673  -0.000120   0.000073
    43  H   -0.005741   0.000028  -0.028966  -0.002429  -0.000106   0.000219
    44  C    0.003281   0.000127   0.006525  -0.000066  -0.000010   0.000000
    45  H   -0.000208   0.000006   0.000410  -0.000005  -0.000001   0.000000
    46  H    0.000167  -0.000006  -0.000210   0.000002   0.000000   0.000000
    47  H    0.000108   0.000003   0.000227  -0.000012   0.000000   0.000000
             31         32         33         34         35         36
     1  C    0.000045   0.000113   0.000000   0.000000   0.000000   0.000000
     2  H   -0.000003   0.000021   0.000000   0.000000   0.000000   0.000000
     3  C   -0.003715   0.006673   0.000001   0.000000   0.000000   0.000000
     4  H    0.000299  -0.001633   0.000000   0.000000   0.000000   0.000000
     5  C   -0.033387  -0.004354  -0.000108   0.000001   0.000000   0.000002
     6  C   -0.000012  -0.000012   0.000000   0.000000   0.000000   0.000000
     7  C    0.000100   0.000004   0.000001   0.000000   0.000000   0.000000
     8  C    0.000838  -0.000322   0.000005  -0.000004   0.000000   0.000000
     9  C   -0.000146  -0.000005   0.000189  -0.000047  -0.000018  -0.000002
    10  H    0.000004   0.000000   0.000000   0.000004   0.000000   0.000000
    11  H   -0.000033  -0.000001  -0.000012   0.000005   0.000000   0.000000
    12  C    0.334997  -0.023053   0.004449  -0.000079   0.000108  -0.000266
    13  C   -0.042423   0.002456  -0.036246  -0.003167  -0.003254   0.004242
    14  H    0.002648  -0.000156  -0.004241  -0.000108   0.003450   0.000027
    15  C    0.001648   0.000080  -0.004798   0.002142  -0.000817   0.000179
    16  H    0.000215  -0.000022  -0.001048   0.000962   0.000081  -0.000035
    17  H   -0.000071   0.000000   0.002060   0.000399   0.000620   0.000005
    18  H    0.000001   0.000000   0.000000   0.000000   0.000000   0.000000
    19  C    0.002881   0.000221   0.000002   0.000000   0.000000   0.000000
    20  H    0.000492  -0.000123   0.000000   0.000000   0.000000   0.000000
    21  H   -0.000035  -0.000012   0.000001   0.000000   0.000000   0.000000
    22  H   -0.000102  -0.000001   0.000000   0.000000   0.000000   0.000000
    23  O    0.126778  -0.027018  -0.000170   0.000000  -0.000006   0.000006
    24  O    0.000000   0.000000   0.000000   0.000000   0.000000   0.000000
    25  C   -0.004589  -0.000639   0.333448  -0.026653  -0.037927  -0.038363
    26  H   -0.000770  -0.000287  -0.047650  -0.005740   0.005402  -0.000062
    27  C   -0.038119   0.005942  -0.042602   0.004744  -0.004958  -0.162324
    28  C    0.347498  -0.056097   0.005875  -0.000180   0.000093   0.006660
    29  H   -0.032600  -0.000018  -0.000179   0.000005  -0.000002   0.000774
    30  H   -0.029343  -0.002374  -0.000200   0.000003   0.000006  -0.000051
    31  C    4.884004   0.384410   0.000745   0.000009  -0.000042  -0.000033
    32  H    0.384410   0.570332  -0.000009   0.000000   0.000000   0.000006
    33  C    0.000745  -0.000009   5.119645   0.378881   0.391892   0.311532
    34  H    0.000009   0.000000   0.378881   0.564872  -0.030611  -0.026065
    35  H   -0.000042   0.000000   0.391892  -0.030611   0.564376  -0.033839
    36  C   -0.000033   0.000006   0.311532  -0.026065  -0.033839   5.227046
    37  H   -0.000003   0.000000  -0.036191  -0.006911   0.004038   0.388478
    38  C    0.004472  -0.000060  -0.067671   0.004083  -0.003611   0.345031
    39  O    0.000359   0.000001   0.004574  -0.000065  -0.000044  -0.078417
    40  C   -0.004230  -0.000085  -0.003131   0.000085   0.002534   0.001989
    41  H    0.000026  -0.000002  -0.000263   0.000002  -0.000047   0.000299
    42  H   -0.000033   0.000006   0.001662   0.000010   0.000876   0.001661
    43  H    0.000115   0.000003  -0.000193  -0.000018   0.000239  -0.000279
    44  C    0.000001   0.000000  -0.048119   0.000437  -0.004160   0.344611
    45  H    0.000000   0.000000   0.005450  -0.000199   0.000148  -0.033662
    46  H    0.000000   0.000000  -0.004707   0.001261   0.000036  -0.031751
    47  H    0.000000   0.000000  -0.005691  -0.000057   0.003316  -0.036674
             37         38         39         40         41         42
     1  C    0.000000   0.000000   0.000000   0.000000   0.000000   0.000000
     2  H    0.000000   0.000000   0.000000   0.000000   0.000000   0.000000
     3  C    0.000000   0.000000   0.000000   0.000001   0.000000   0.000000
     4  H    0.000000   0.000000   0.000000   0.000000   0.000000   0.000000
     5  C    0.000000   0.000002   0.000000  -0.000014   0.000001   0.000000
     6  C    0.000000   0.000000   0.000000   0.000000   0.000000   0.000000
     7  C    0.000000   0.000000   0.000000   0.000000   0.000000   0.000000
     8  C    0.000000   0.000000   0.000000   0.000000   0.000000   0.000000
     9  C    0.000000   0.000002   0.000000   0.000000   0.000000   0.000000
    10  H    0.000000   0.000000   0.000000   0.000000   0.000000   0.000000
    11  H    0.000000   0.000000   0.000000  -0.000001   0.000000   0.000000
    12  C    0.000009   0.000111  -0.000005  -0.002230   0.000094  -0.000019
    13  C    0.000003   0.003951  -0.000074  -0.004421  -0.000042   0.000049
    14  H    0.000001  -0.000034   0.000000   0.001754  -0.000021   0.000063
    15  C   -0.000021  -0.000117   0.000000   0.000040   0.000000  -0.000003
    16  H   -0.000005  -0.000020   0.000000   0.000002   0.000000   0.000000
    17  H    0.000007  -0.000009   0.000000   0.000005   0.000000  -0.000002
    18  H    0.000000   0.000000   0.000000   0.000000   0.000000   0.000000
    19  C    0.000000   0.000000   0.000000  -0.000011   0.000000   0.000000
    20  H    0.000000   0.000000   0.000000   0.000001   0.000000   0.000000
    21  H    0.000000   0.000000   0.000000  -0.000003   0.000000   0.000000
    22  H    0.000000   0.000000   0.000000   0.000000   0.000000   0.000000
    23  O    0.000000   0.000113  -0.000001  -0.005140   0.000105   0.000397
    24  O    0.000000   0.000000   0.000000   0.000000   0.000000   0.000000
    25  C   -0.000589  -0.051797   0.003034  -0.053689   0.005305  -0.004874
    26  H    0.002531  -0.006565  -0.000027   0.005342  -0.000115  -0.000073
    27  C    0.003085   0.329336  -0.082448   0.349549  -0.030988  -0.034304
    28  C   -0.000303  -0.035067   0.004103  -0.041196  -0.007337   0.004673
    29  H   -0.000026  -0.003028   0.001448   0.005163   0.000063  -0.000120
    30  H    0.000000  -0.003982   0.002555  -0.005349   0.004862   0.000073
    31  C   -0.000003   0.004472   0.000359  -0.004230   0.000026  -0.000033
    32  H    0.000000  -0.000060   0.000001  -0.000085  -0.000002   0.000006
    33  C   -0.036191  -0.067671   0.004574  -0.003131  -0.000263   0.001662
    34  H   -0.006911   0.004083  -0.000065   0.000085   0.000002   0.000010
    35  H    0.004038  -0.003611  -0.000044   0.002534  -0.000047   0.000876
    36  C    0.388478   0.345031  -0.078417   0.001989   0.000299   0.001661
    37  H    0.526382  -0.030915  -0.001560   0.000175  -0.000002  -0.000008
    38  C   -0.030915   4.608336   0.530961  -0.043103  -0.003665  -0.006304
    39  O   -0.001560   0.530961   8.133149  -0.001059   0.002816  -0.000265
    40  C    0.000175  -0.043103  -0.001059   5.047683   0.382693   0.380042
    41  H   -0.000002  -0.003665   0.002816   0.382693   0.551184  -0.028787
    42  H   -0.000008  -0.006304  -0.000265   0.380042  -0.028787   0.569947
    43  H    0.000003   0.004078   0.000015   0.384485  -0.025968  -0.026872
    44  C   -0.026726  -0.036777   0.000629  -0.000880  -0.000004  -0.000202
    45  H   -0.002751  -0.004695   0.005681  -0.000010  -0.000007  -0.000027
    46  H   -0.003681   0.004476   0.000055   0.000019   0.000000   0.000016
    47  H    0.004425  -0.006073   0.000282   0.000119   0.000013   0.001643
             43         44         45         46         47
     1  C    0.000000   0.000000   0.000000   0.000000   0.000000
     2  H    0.000000   0.000000   0.000000   0.000000   0.000000
     3  C   -0.000002   0.000000   0.000000   0.000000   0.000000
     4  H   -0.000001   0.000000   0.000000   0.000000   0.000000
     5  C   -0.000047   0.000000   0.000000   0.000000   0.000000
     6  C    0.000000   0.000000   0.000000   0.000000   0.000000
     7  C    0.000000   0.000000   0.000000   0.000000   0.000000
     8  C    0.000000   0.000000   0.000000   0.000000   0.000000
     9  C    0.000005   0.000000   0.000000   0.000000   0.000000
    10  H    0.000000   0.000000   0.000000   0.000000   0.000000
    11  H   -0.000001   0.000000   0.000000   0.000000   0.000000
    12  C   -0.001341   0.000002   0.000000   0.000000   0.000000
    13  C    0.002028  -0.000147   0.000003   0.000000   0.000000
    14  H    0.002689   0.000002   0.000000   0.000000  -0.000003
    15  C   -0.000005   0.000000   0.000000   0.000000   0.000000
    16  H   -0.000001   0.000001   0.000000   0.000000   0.000000
    17  H   -0.000005   0.000002   0.000000   0.000000   0.000000
    18  H    0.000000   0.000000   0.000000   0.000000   0.000000
    19  C    0.000050   0.000000   0.000000   0.000000   0.000000
    20  H    0.000008   0.000000   0.000000   0.000000   0.000000
    21  H    0.000013   0.000000   0.000000   0.000000   0.000000
    22  H    0.000000   0.000000   0.000000   0.000000   0.000000
    23  O    0.009441   0.000000   0.000000   0.000000   0.000000
    24  O    0.000000   0.000000   0.000000   0.000000   0.000000
    25  C   -0.005741   0.003281  -0.000208   0.000167   0.000108
    26  H    0.000028   0.000127   0.000006  -0.000006   0.000003
    27  C   -0.028966   0.006525   0.000410  -0.000210   0.000227
    28  C   -0.002429  -0.000066  -0.000005   0.000002  -0.000012
    29  H   -0.000106  -0.000010  -0.000001   0.000000   0.000000
    30  H    0.000219   0.000000   0.000000   0.000000   0.000000
    31  C    0.000115   0.000001   0.000000   0.000000   0.000000
    32  H    0.000003   0.000000   0.000000   0.000000   0.000000
    33  C   -0.000193  -0.048119   0.005450  -0.004707  -0.005691
    34  H   -0.000018   0.000437  -0.000199   0.001261  -0.000057
    35  H    0.000239  -0.004160   0.000148   0.000036   0.003316
    36  C   -0.000279   0.344611  -0.033662  -0.031751  -0.036674
    37  H    0.000003  -0.026726  -0.002751  -0.003681   0.004425
    38  C    0.004078  -0.036777  -0.004695   0.004476  -0.006073
    39  O    0.000015   0.000629   0.005681   0.000055   0.000282
    40  C    0.384485  -0.000880  -0.000010   0.000019   0.000119
    41  H   -0.025968  -0.000004  -0.000007   0.000000   0.000013
    42  H   -0.026872  -0.000202  -0.000027   0.000016   0.001643
    43  H    0.527556   0.000035   0.000000  -0.000001   0.000005
    44  C    0.000035   5.005284   0.380014   0.387540   0.394600
    45  H    0.000000   0.380014   0.558758  -0.028041  -0.027906
    46  H   -0.000001   0.387540  -0.028041   0.557454  -0.028526
    47  H    0.000005   0.394600  -0.027906  -0.028526   0.554162
 Mulliken atomic charges:
              1
     1  C   -0.177383
     2  H    0.158426
     3  C   -0.091112
     4  H    0.169314
     5  C   -0.125535
     6  C    0.411568
     7  C   -0.228400
     8  C    0.116351
     9  C   -0.307030
    10  H    0.154549
    11  H    0.159825
    12  C    0.214555
    13  C   -0.105763
    14  H    0.153305
    15  C   -0.259795
    16  H    0.143267
    17  H    0.150866
    18  H    0.150787
    19  C   -0.385421
    20  H    0.161502
    21  H    0.154406
    22  H    0.157383
    23  O   -0.490798
    24  O   -0.554402
    25  C   -0.143155
    26  H    0.144283
    27  C   -0.085414
    28  C   -0.242258
    29  H    0.149062
    30  H    0.156917
    31  C    0.097100
    32  H    0.146012
    33  C   -0.257178
    34  H    0.141998
    35  H    0.142125
    36  C   -0.190726
    37  H    0.180557
    38  C    0.468540
    39  O   -0.525698
    40  C   -0.397126
    41  H    0.149784
    42  H    0.140777
    43  H    0.160958
    44  C   -0.406001
    45  H    0.147040
    46  H    0.145897
    47  H    0.146040
 Sum of Mulliken atomic charges =   0.00000
 Mulliken charges with hydrogens summed into heavy atoms:
              1
     1  C   -0.018957
     3  C    0.078202
     5  C   -0.125535
     6  C    0.411568
     7  C   -0.077613
     8  C    0.116351
     9  C    0.007344
    12  C    0.214555
    13  C    0.047542
    15  C    0.034338
    19  C    0.087870
    23  O   -0.490798
    24  O   -0.554402
    25  C    0.001127
    27  C   -0.085414
    28  C    0.063721
    31  C    0.243112
    33  C    0.026945
    36  C   -0.010169
    38  C    0.468540
    39  O   -0.525698
    40  C    0.054392
    44  C    0.032976
 Sum of Mulliken charges with hydrogens summed into heavy atoms =   0.00000
 Electronic spatial extent (au):  <R**2>=           7665.8382
 Charge=              0.0000 electrons
 Dipole moment (field-independent basis, Debye):
    X=             -2.8827    Y=              2.5287    Z=              3.8778  Tot=              5.4536
 Quadrupole moment (field-independent basis, Debye-Ang):
   XX=           -179.4884   YY=           -127.6989   ZZ=           -139.5272
   XY=            -16.5758   XZ=              9.5791   YZ=              2.5541
 Traceless Quadrupole moment (field-independent basis, Debye-Ang):
   XX=            -30.5835   YY=             21.2059   ZZ=              9.3776
   XY=            -16.5758   XZ=              9.5791   YZ=              2.5541
 Octapole moment (field-independent basis, Debye-Ang**2):
  XXX=           -145.9190  YYY=             -0.8042  ZZZ=             15.5289  XYY=             20.6573
  XXY=             15.3231  XXZ=            126.5228  XZZ=            -26.3932  YZZ=              2.9316
  YYZ=             -6.1498  XYZ=             29.2776
 Hexadecapole moment (field-independent basis, Debye-Ang**3):
 XXXX=          -9070.1552 YYYY=          -1519.7399 ZZZZ=           -996.5817 XXXY=           -378.9458
 XXXZ=            313.2827 YYYX=              1.2458 YYYZ=              7.3711 ZZZX=             70.7219
 ZZZY=              4.6258 XXYY=          -1487.5123 XXZZ=          -1635.1149 YYZZ=           -437.2628
 XXYZ=            -15.7946 YYXZ=            -27.2412 ZZXY=            -43.8664
 N-N= 2.043596536195D+03 E-N=-6.414877742335D+03  KE= 9.928467189437D+02
 1\1\GINC-COMPUTE-8-13\SP\RmPW1PW91\6-31G(d,p)\C20H24O3\FBRUNO.IQUIR\16
 -Oct-2021\0\\# mPW1PW91/6-31g** scrf=(pcm,solvent=chloroform,smd,dovac
 uum) nmr\\comment\\0,1\C,0,1.304846455,4.357949462,0.741287389\H,0,1.9
 38273168,4.981403311,1.360330597\C,0,0.544578513,3.376391388,1.2440087
 04\H,0,0.562056756,3.217812868,2.320987976\C,0,-0.383703418,2.47009860
 1,0.436151454\C,0,1.298127003,4.653723293,-0.703063799\C,0,0.434763208
 ,3.815747719,-1.559776829\C,0,-0.322653975,2.827763717,-1.050984628\C,
 0,-1.138812517,1.944192824,-1.951295075\H,0,-1.071185646,2.270126144,-
 2.996487143\H,0,-2.20029997,1.986598216,-1.686535233\C,0,-0.093405782,
 0.949177068,0.652483707\C,0,-0.630332007,-0.044815302,-0.40442715\H,0,
 -1.669548844,-0.286676682,-0.148814132\C,0,-0.609627819,0.525991093,-1
 .839287875\H,0,0.416766083,0.511508593,-2.231969191\H,0,-1.200403265,-
 0.122239374,-2.498013074\H,0,0.473752807,4.043000081,-2.619067776\C,0,
 -1.817482231,2.79410602,0.941326025\H,0,-1.888441402,2.723375073,2.034
 053598\H,0,-2.561650967,2.097918954,0.538490921\H,0,-2.124333701,3.810
 464949,0.663902804\O,0,-0.472523987,0.579605292,2.006995284\O,0,1.9843
 09825,5.551213048,-1.174135315\C,0,0.232964556,-1.326585192,-0.4058246
 5\H,0,1.228712432,-1.030157069,-0.781201336\C,0,0.438632602,-1.9563620
 3,0.985233856\C,0,1.3453184,-1.025531156,1.791637461\H,0,2.374806894,-
 1.082954728,1.415159384\H,0,1.39104467,-1.340472707,2.841079238\C,0,0.
 903237028,0.412009691,1.716375586\H,0,1.615690938,1.079769355,2.180393
 549\C,0,-0.211609518,-2.498282596,-1.281464633\H,0,-0.128515177,-2.276
 24009,-2.350170702\H,0,-1.252533784,-2.774068479,-1.077594908\C,0,0.77
 2807645,-3.612746968,-0.881928034\H,0,1.694825636,-3.520563758,-1.4677
 2292\C,0,1.106247093,-3.255629843,0.562142798\O,0,1.810339554,-3.93993
 1975,1.293686584\C,0,-0.842709164,-2.358888691,1.735506075\H,0,-0.5966
 57248,-2.734791375,2.735756346\H,0,-1.381157948,-3.167492597,1.2284274
 57\H,0,-1.551239895,-1.537534831,1.857249217\C,0,0.181119524,-5.000911
 975,-1.018657999\H,0,0.910575818,-5.762481663,-0.723254745\H,0,-0.1169
 86936,-5.196985125,-2.053394684\H,0,-0.697981408,-5.127602555,-0.37759
 4177\\Version=EM64L-G09RevC.01\State=1-A\HF=-1002.0364653\RMSD=4.758e-
 09\Dipole=-1.7054108,-1.1766756,-0.5573715\Quadrupole=8.2148452,-20.72
 26259,12.5077806,-3.9625272,3.8623726,16.0000996\PG=C01 [X(C20H24O3)]\
 \@


 ... SUBJECTS WHICH DISCLOSE THEIR FULL POWER, MEANING AND BEAUTY AS SOON
 AS THEY ARE PRESENTED TO THE MIND HAVE VERY LITTLE OF THOSE QUALITIES
 TO DISCLOSE.
                           -- CHARLES DUTTON (1882)
 Job cpu time:  0 days  1 hours 55 minutes  7.3 seconds.
 File lengths (MBytes):  RWF=    205 Int=      0 D2E=      0 Chk=     14 Scr=      1
 Normal termination of Gaussian 09 at Sat Oct 16 10:45:20 2021.
