 Entering Gaussian System, Link 0=g09
 Input=/home/lpassaglia.iquir/OPTB/OPTB_cloropropano_001_nmr_B3L_A_GAS.gjc
 Output=/home/lpassaglia.iquir/OPTB/OPTB_cloropropano_001_nmr_B3L_A_GAS.log
 Initial command:
 /opt/ohpc/pub/apps/software/Gaussian/09/AMD64.SSE4a-enabled/g09/l1.exe /local/lpassaglia.iquir/Gau-79440.inp -scrdir=/local/lpassaglia.iquir/
 Entering Link 1 = /opt/ohpc/pub/apps/software/Gaussian/09/AMD64.SSE4a-enabled/g09/l1.exe PID=     79441.
  
 Copyright (c) 1988,1990,1992,1993,1995,1998,2003,2009,2011,
            Gaussian, Inc.  All Rights Reserved.
  
 This is part of the Gaussian(R) 09 program.  It is based on
 the Gaussian(R) 03 system (copyright 2003, Gaussian, Inc.),
 the Gaussian(R) 98 system (copyright 1998, Gaussian, Inc.),
 the Gaussian(R) 94 system (copyright 1995, Gaussian, Inc.),
 the Gaussian 92(TM) system (copyright 1992, Gaussian, Inc.),
 the Gaussian 90(TM) system (copyright 1990, Gaussian, Inc.),
 the Gaussian 88(TM) system (copyright 1988, Gaussian, Inc.),
 the Gaussian 86(TM) system (copyright 1986, Carnegie Mellon
 University), and the Gaussian 82(TM) system (copyright 1983,
 Carnegie Mellon University). Gaussian is a federally registered
 trademark of Gaussian, Inc.
  
 This software contains proprietary and confidential information,
 including trade secrets, belonging to Gaussian, Inc.
  
 This software is provided under written license and may be
 used, copied, transmitted, or stored only in accord with that
 written license.
  
 The following legend is applicable only to US Government
 contracts under FAR:
  
                    RESTRICTED RIGHTS LEGEND
  
 Use, reproduction and disclosure by the US Government is
 subject to restrictions as set forth in subparagraphs (a)
 and (c) of the Commercial Computer Software - Restricted
 Rights clause in FAR 52.227-19.
  
 Gaussian, Inc.
 340 Quinnipiac St., Bldg. 40, Wallingford CT 06492
  
  
 ---------------------------------------------------------------
 Warning -- This program may not be used in any manner that
 competes with the business of Gaussian, Inc. or will provide
 assistance to any competitor of Gaussian, Inc.  The licensee
 of this program is prohibited from giving any competitor of
 Gaussian, Inc. access to this program.  By using this program,
 the user acknowledges that Gaussian, Inc. is engaged in the
 business of creating and licensing software in the field of
 computational chemistry and represents and warrants to the
 licensee that it is not a competitor of Gaussian, Inc. and that
 it will not use this program in any manner prohibited above.
 ---------------------------------------------------------------
  

 Cite this work as:
 Gaussian 09, Revision C.01,
 M. J. Frisch, G. W. Trucks, H. B. Schlegel, G. E. Scuseria, 
 M. A. Robb, J. R. Cheeseman, G. Scalmani, V. Barone, B. Mennucci, 
 G. A. Petersson, H. Nakatsuji, M. Caricato, X. Li, H. P. Hratchian, 
 A. F. Izmaylov, J. Bloino, G. Zheng, J. L. Sonnenberg, M. Hada, 
 M. Ehara, K. Toyota, R. Fukuda, J. Hasegawa, M. Ishida, T. Nakajima, 
 Y. Honda, O. Kitao, H. Nakai, T. Vreven, J. A. Montgomery, Jr., 
 J. E. Peralta, F. Ogliaro, M. Bearpark, J. J. Heyd, E. Brothers, 
 K. N. Kudin, V. N. Staroverov, T. Keith, R. Kobayashi, J. Normand, 
 K. Raghavachari, A. Rendell, J. C. Burant, S. S. Iyengar, J. Tomasi, 
 M. Cossi, N. Rega, J. M. Millam, M. Klene, J. E. Knox, J. B. Cross, 
 V. Bakken, C. Adamo, J. Jaramillo, R. Gomperts, R. E. Stratmann, 
 O. Yazyev, A. J. Austin, R. Cammi, C. Pomelli, J. W. Ochterski, 
 R. L. Martin, K. Morokuma, V. G. Zakrzewski, G. A. Voth, 
 P. Salvador, J. J. Dannenberg, S. Dapprich, A. D. Daniels, 
 O. Farkas, J. B. Foresman, J. V. Ortiz, J. Cioslowski, 
 and D. J. Fox, Gaussian, Inc., Wallingford CT, 2010.
 
 ******************************************
 Gaussian 09:  AM64L-G09RevC.01 23-Sep-2011
                 1-Nov-2024 
 ******************************************
 %nprocshared=4
 Will use up to    4 processors via shared memory.
 -------------------
 # b3lyp/6-31g** nmr
 -------------------
 1/38=1/1;
 2/12=2,17=6,18=5,40=1/2;
 3/5=1,6=6,7=101,11=2,16=1,25=1,30=1,74=-5/1,2,8,3;
 4//1;
 5/5=2,38=5/2;
 8/6=1,10=90,11=11/1;
 10/13=100,45=16/2;
 6/7=2,8=2,9=2,10=2,28=1/1;
 99/9=1/99;
 -------
 comment
 -------
 Charge =  0 Multiplicity = 1
 Symbolic Z-Matrix:
 1                    -2.00045  -0.67739   1.22545 
 6                    -1.82001  -0.72161   0.14439 
 1                    -1.19211  -1.59514  -0.05641 
 1                    -2.78492  -0.87692  -0.34997 
 6                    -1.15534   0.56206  -0.35769 
 1                    -1.81445   1.42156  -0.16527 
 1                    -1.01086   0.51704  -1.4438 
 6                     0.1759    0.88652   0.30889 
 1                     0.08926   0.90577   1.39804 
 1                     0.57383   1.84362  -0.03348 
 17                    1.46684  -0.34708  -0.06754 
 
                          Input orientation:                          
 ---------------------------------------------------------------------
 Center     Atomic      Atomic             Coordinates (Angstroms)
 Number     Number       Type             X           Y           Z
 ---------------------------------------------------------------------
      1          1           0       -2.000450   -0.677390    1.225446
      2          6           0       -1.820006   -0.721605    0.144391
      3          1           0       -1.192108   -1.595137   -0.056408
      4          1           0       -2.784916   -0.876922   -0.349971
      5          6           0       -1.155338    0.562060   -0.357689
      6          1           0       -1.814447    1.421564   -0.165265
      7          1           0       -1.010858    0.517041   -1.443795
      8          6           0        0.175900    0.886517    0.308889
      9          1           0        0.089261    0.905767    1.398038
     10          1           0        0.573829    1.843619   -0.033475
     11         17           0        1.466844   -0.347081   -0.067536
 ---------------------------------------------------------------------
                    Distance matrix (angstroms):
                    1          2          3          4          5
     1  H    0.000000
     2  C    1.096902   0.000000
     3  H    1.771673   1.094365   0.000000
     4  H    1.771197   1.095248   1.771736   0.000000
     5  C    2.181001   1.530250   2.178445   2.173995   0.000000
     6  H    2.524734   2.165431   3.082149   2.501792   1.100090
     7  H    3.087200   2.170553   2.533573   2.507362   1.096598
     8  C    2.832381   2.568415   2.857183   3.508596   1.523743
     9  H    2.627369   2.804509   3.164149   3.807152   2.179389
    10  H    3.816711   3.513183   3.865760   4.333899   2.176586
    11  Cl   3.715243   3.314900   2.937311   4.293945   2.790442
                    6          7          8          9         10
     6  H    0.000000
     7  H    1.760272   0.000000
     8  C    2.114847   2.148676   0.000000
     9  H    2.516757   3.072033   1.092759   0.000000
    10  H    2.428860   2.502008   1.091607   1.778652   0.000000
    11  Cl   3.728877   2.963073   1.824828   2.369656   2.365968
                   11
    11  Cl   0.000000
 Stoichiometry    C3H7Cl
 Framework group  C1[X(C3H7Cl)]
 Deg. of freedom    27
 Full point group                 C1      NOp   1
 Largest Abelian subgroup         C1      NOp   1
 Largest concise Abelian subgroup C1      NOp   1
                         Standard orientation:                         
 ---------------------------------------------------------------------
 Center     Atomic      Atomic             Coordinates (Angstroms)
 Number     Number       Type             X           Y           Z
 ---------------------------------------------------------------------
      1          1           0       -2.000450   -0.677389    1.225446
      2          6           0       -1.820006   -0.721605    0.144391
      3          1           0       -1.192108   -1.595137   -0.056408
      4          1           0       -2.784916   -0.876921   -0.349971
      5          6           0       -1.155338    0.562060   -0.357689
      6          1           0       -1.814447    1.421564   -0.165265
      7          1           0       -1.010858    0.517041   -1.443795
      8          6           0        0.175900    0.886517    0.308889
      9          1           0        0.089261    0.905767    1.398038
     10          1           0        0.573830    1.843619   -0.033475
     11         17           0        1.466844   -0.347081   -0.067536
 ---------------------------------------------------------------------
 Rotational constants (GHZ):     11.8402111      3.2158563      2.7738571
 Standard basis: 6-31G(d,p) (6D, 7F)
 There are    99 symmetry adapted basis functions of A   symmetry.
 Integral buffers will be    131072 words long.
 Raffenetti 2 integral format.
 Two-electron integral symmetry is turned on.
    99 basis functions,   185 primitive gaussians,    99 cartesian basis functions
    21 alpha electrons       21 beta electrons
       nuclear repulsion energy       161.2563254757 Hartrees.
 NAtoms=   11 NActive=   11 NUniq=   11 SFac= 1.00D+00 NAtFMM=   60 NAOKFM=F Big=F
 One-electron integrals computed using PRISM.
 NBasis=    99 RedAO= T  NBF=    99
 NBsUse=    99 1.00D-06 NBFU=    99
 Harris functional with IExCor=  402 diagonalized for initial guess.
 ExpMin= 1.43D-01 ExpMax= 2.52D+04 ExpMxC= 3.78D+03 IAcc=1 IRadAn=         1 AccDes= 0.00D+00
 HarFok:  IExCor=  402 AccDes= 0.00D+00 IRadAn=         1 IDoV= 1
 ScaDFX=  1.000000  1.000000  1.000000  1.000000
 FoFCou: FMM=F IPFlag=           0 FMFlag=      100000 FMFlg1=           0
         NFxFlg=           0 DoJE=T BraDBF=F KetDBF=T FulRan=T
         Omega=  0.000000  0.000000  1.000000  0.000000  0.000000 ICntrl=     500 IOpCl=  0
         NMat0=    1 NMatS0=    1 NMatT0=    0 NMatD0=    1 NMtDS0=    0 NMtDT0=    0
         I1Cent=           4 NGrid=           0.
 Petite list used in FoFCou.
 Initial guess orbital symmetries:
       Occupied  (A) (A) (A) (A) (A) (A) (A) (A) (A) (A) (A) (A)
                 (A) (A) (A) (A) (A) (A) (A) (A) (A)
       Virtual   (A) (A) (A) (A) (A) (A) (A) (A) (A) (A) (A) (A)
                 (A) (A) (A) (A) (A) (A) (A) (A) (A) (A) (A) (A)
                 (A) (A) (A) (A) (A) (A) (A) (A) (A) (A) (A) (A)
                 (A) (A) (A) (A) (A) (A) (A) (A) (A) (A) (A) (A)
                 (A) (A) (A) (A) (A) (A) (A) (A) (A) (A) (A) (A)
                 (A) (A) (A) (A) (A) (A) (A) (A) (A) (A) (A) (A)
                 (A) (A) (A) (A) (A) (A)
 The electronic state of the initial guess is 1-A.
 Requested convergence on RMS density matrix=1.00D-08 within 128 cycles.
 Requested convergence on MAX density matrix=1.00D-06.
 Requested convergence on             energy=1.00D-06.
 No special actions if energy rises.
 Keep R1 ints in memory in canonical form, NReq=13311501.
 Integral accuracy reduced to 1.0D-05 until final iterations.
 Initial convergence to 1.0D-05 achieved.  Increase integral accuracy.
 SCF Done:  E(RB3LYP) =  -578.749492157     A.U. after   12 cycles
             Convg  =    0.5999D-08             -V/T =  2.0046
 Range of M.O.s used for correlation:     1    99
 NBasis=    99 NAE=    21 NBE=    21 NFC=     0 NFV=     0
 NROrb=     99 NOA=    21 NOB=    21 NVA=    78 NVB=    78
          Differentiating once with respect to magnetic field using GIAOs.
          Electric field/nuclear overlap derivatives assumed to be zero.
          Keep R3 ints in memory in canonical form, NReq=13076756.
 FoFCou: FMM=F IPFlag=           0 FMFlag=           0 FMFlg1=           0
         NFxFlg=           0 DoJE=F BraDBF=F KetDBF=T FulRan=T
         Omega=  0.000000  0.000000  1.000000  0.000000  0.000000 ICntrl=    6100 IOpCl=  0
         NMat0=    1 NMatS0=    1 NMatT0=    0 NMatD0=    1 NMtDS0=    0 NMtDT0=    0
         I1Cent=           7 NGrid=          11.
 Symmetry not used in FoFCou.
          There are     3 degrees of freedom in the 1st order CPHF.  IDoFFX=0.
      3 vectors produced by pass  0 Test12= 5.46D-14 3.33D-08 XBig12= 3.24D+00 4.90D-01.
 AX will form     3 AO Fock derivatives at one time.
      3 vectors produced by pass  1 Test12= 5.46D-14 3.33D-08 XBig12= 2.95D-03 1.71D-02.
      3 vectors produced by pass  2 Test12= 5.46D-14 3.33D-08 XBig12= 9.10D-06 1.50D-03.
      3 vectors produced by pass  3 Test12= 5.46D-14 3.33D-08 XBig12= 1.10D-08 3.57D-05.
      3 vectors produced by pass  4 Test12= 5.46D-14 3.33D-08 XBig12= 2.01D-11 1.30D-06.
      2 vectors produced by pass  5 Test12= 5.46D-14 3.33D-08 XBig12= 2.47D-14 3.77D-08.
 Inverted reduced A of dimension    17 with in-core refinement.
 Calculating GIAO nuclear magnetic shielding tensors.
 SCF GIAO Magnetic shielding tensor (ppm):
      1  H    Isotropic =    31.0606   Anisotropy =     9.1233
   XX=    29.5869   YX=     1.7289   ZX=    -3.3138
   XY=     1.2329   YY=    28.2781   ZY=    -1.9968
   XZ=    -2.9889   YZ=    -0.9572   ZZ=    35.3168
   Eigenvalues:    27.2611    28.7779    37.1428
      2  C    Isotropic =   178.8703   Anisotropy =    19.4082
   XX=   176.1514   YX=     9.2820   ZX=    -0.3063
   XY=    13.0883   YY=   180.3329   ZY=    -4.7241
   XZ=    -0.8084   YZ=    -7.2323   ZZ=   180.1268
   Eigenvalues:   165.9860   178.8160   191.8091
      3  H    Isotropic =    30.1294   Anisotropy =     6.6677
   XX=    30.6782   YX=    -0.2633   ZX=    -1.0321
   XY=    -1.4963   YY=    34.2610   ZY=     0.9150
   XZ=    -0.5653   YZ=     0.7541   ZZ=    25.4491
   Eigenvalues:    25.2749    30.5388    34.5746
      4  H    Isotropic =    30.7621   Anisotropy =    10.2905
   XX=    35.1947   YX=     3.1867   ZX=     3.0507
   XY=     3.8710   YY=    28.7637   ZY=     0.5198
   XZ=     2.8750   YZ=     0.0702   ZZ=    28.3278
   Eigenvalues:    26.4351    28.2287    37.6224
      5  C    Isotropic =   163.6277   Anisotropy =    19.6525
   XX=   175.1249   YX=    -6.4667   ZX=     5.1263
   XY=     1.6671   YY=   158.3508   ZY=     0.8693
   XZ=     4.9291   YZ=    -0.3546   ZZ=   157.4075
   Eigenvalues:   155.7633   158.3905   176.7294
      6  H    Isotropic =    30.1020   Anisotropy =     9.3569
   XX=    32.2921   YX=    -3.8414   ZX=     0.2819
   XY=    -3.5830   YY=    32.8957   ZY=    -0.3884
   XZ=     0.3594   YZ=    -0.3595   ZZ=    25.1182
   Eigenvalues:    25.0966    28.8696    36.3400
      7  H    Isotropic =    30.0387   Anisotropy =     7.7810
   XX=    28.6887   YX=     1.2750   ZX=     1.2822
   XY=     0.8437   YY=    26.8074   ZY=    -2.2862
   XZ=     0.3510   YZ=    -2.0560   ZZ=    34.6200
   Eigenvalues:    25.7282    29.1619    35.2260
      8  C    Isotropic =   138.9465   Anisotropy =    44.4654
   XX=   155.5467   YX=   -15.5949   ZX=     2.7233
   XY=   -17.8266   YY=   143.3842   ZY=    16.7970
   XZ=     3.9741   YZ=    19.2902   ZZ=   117.9085
   Eigenvalues:   106.0719   142.1775   168.5901
      9  H    Isotropic =    28.3839   Anisotropy =     8.7781
   XX=    27.8329   YX=    -2.3635   ZX=    -0.7109
   XY=    -2.1701   YY=    25.9738   ZY=     5.0077
   XZ=    -0.7179   YZ=     3.6454   ZZ=    31.3449
   Eigenvalues:    22.9834    27.9322    34.2359
     10  H    Isotropic =    28.0883   Anisotropy =     9.1771
   XX=    28.1457   YX=     0.0713   ZX=    -0.1547
   XY=     0.7971   YY=    34.1731   ZY=    -0.7602
   XZ=     0.1200   YZ=     0.4424   ZZ=    21.9460
   Eigenvalues:    21.9439    28.1146    34.2063
     11  Cl   Isotropic =   863.0246   Anisotropy =   344.7562
   XX=   942.1124   YX=  -165.2676   ZX=   -18.1859
   XY=  -181.8857   YY=   841.0287   ZY=    83.0635
   XZ=   -35.7886   YZ=    96.9591   ZZ=   805.9328
   Eigenvalues:   682.2323   813.9795  1092.8621
 End of Minotr Frequency-dependent properties file   721 does not exist.
 End of Minotr Frequency-dependent properties file   722 does not exist.

 **********************************************************************

            Population analysis using the SCF density.

 **********************************************************************

 Orbital symmetries:
       Occupied  (A) (A) (A) (A) (A) (A) (A) (A) (A) (A) (A) (A)
                 (A) (A) (A) (A) (A) (A) (A) (A) (A)
       Virtual   (A) (A) (A) (A) (A) (A) (A) (A) (A) (A) (A) (A)
                 (A) (A) (A) (A) (A) (A) (A) (A) (A) (A) (A) (A)
                 (A) (A) (A) (A) (A) (A) (A) (A) (A) (A) (A) (A)
                 (A) (A) (A) (A) (A) (A) (A) (A) (A) (A) (A) (A)
                 (A) (A) (A) (A) (A) (A) (A) (A) (A) (A) (A) (A)
                 (A) (A) (A) (A) (A) (A) (A) (A) (A) (A) (A) (A)
                 (A) (A) (A) (A) (A) (A)
 The electronic state is 1-A.
 Alpha  occ. eigenvalues -- -101.52744 -10.24629 -10.20043 -10.18119  -9.44391
 Alpha  occ. eigenvalues --   -7.20772  -7.19816  -7.19801  -0.85101  -0.77020
 Alpha  occ. eigenvalues --   -0.67890  -0.59196  -0.47360  -0.46439  -0.42566
 Alpha  occ. eigenvalues --   -0.39783  -0.36713  -0.35826  -0.34516  -0.29173
 Alpha  occ. eigenvalues --   -0.28987
 Alpha virt. eigenvalues --    0.02899   0.08850   0.12833   0.13445   0.15550
 Alpha virt. eigenvalues --    0.15948   0.17624   0.18321   0.20900   0.24547
 Alpha virt. eigenvalues --    0.40650   0.44090   0.45958   0.47234   0.49961
 Alpha virt. eigenvalues --    0.51889   0.54801   0.56861   0.58435   0.65567
 Alpha virt. eigenvalues --    0.68678   0.69140   0.73812   0.82509   0.83704
 Alpha virt. eigenvalues --    0.86274   0.87790   0.88655   0.89225   0.91579
 Alpha virt. eigenvalues --    0.92173   0.95524   0.97667   1.00883   1.04826
 Alpha virt. eigenvalues --    1.12212   1.32583   1.35889   1.42630   1.53102
 Alpha virt. eigenvalues --    1.55354   1.66086   1.75768   1.82775   1.85046
 Alpha virt. eigenvalues --    1.90230   2.03900   2.04836   2.06563   2.09388
 Alpha virt. eigenvalues --    2.10438   2.10572   2.22214   2.24688   2.28528
 Alpha virt. eigenvalues --    2.34855   2.37074   2.44959   2.54714   2.58690
 Alpha virt. eigenvalues --    2.65164   2.68988   2.76451   2.80792   2.84548
 Alpha virt. eigenvalues --    2.87920   2.89827   3.17606   3.24131   3.28976
 Alpha virt. eigenvalues --    3.37005   3.43205   3.48002   3.53205   4.20234
 Alpha virt. eigenvalues --    4.32663   4.46137   4.61437
          Condensed to atoms (all electrons):
              1          2          3          4          5          6
     1  H    0.607911   0.386230  -0.030898  -0.031333  -0.036772  -0.004346
     2  C    0.386230   4.910317   0.392182   0.383487   0.377840  -0.037188
     3  H   -0.030898   0.392182   0.567391  -0.029401  -0.034204   0.004988
     4  H   -0.031333   0.383487  -0.029401   0.600504  -0.028660  -0.003433
     5  C   -0.036772   0.377840  -0.034204  -0.028660   4.911673   0.372181
     6  H   -0.004346  -0.037188   0.004988  -0.003433   0.372181   0.627083
     7  H    0.005138  -0.037379  -0.004190  -0.003222   0.390470  -0.034122
     8  C   -0.004899  -0.050925  -0.005883   0.004741   0.350806  -0.033371
     9  H    0.005077  -0.006007  -0.000135  -0.000035  -0.036350  -0.002346
    10  H    0.000001   0.004636   0.000071  -0.000150  -0.032542  -0.002787
    11  Cl  -0.000144  -0.005900   0.008597  -0.000073  -0.057825   0.005269
              7          8          9         10         11
     1  H    0.005138  -0.004899   0.005077   0.000001  -0.000144
     2  C   -0.037379  -0.050925  -0.006007   0.004636  -0.005900
     3  H   -0.004190  -0.005883  -0.000135   0.000071   0.008597
     4  H   -0.003222   0.004741  -0.000035  -0.000150  -0.000073
     5  C    0.390470   0.350806  -0.036350  -0.032542  -0.057825
     6  H   -0.034122  -0.033371  -0.002346  -0.002787   0.005269
     7  H    0.602995  -0.041313   0.005642  -0.003708  -0.000831
     8  C   -0.041313   5.064854   0.379041   0.381075   0.227831
     9  H    0.005642   0.379041   0.587751  -0.034435  -0.049032
    10  H   -0.003708   0.381075  -0.034435   0.583892  -0.048019
    11  Cl  -0.000831   0.227831  -0.049032  -0.048019  17.028740
 Mulliken atomic charges:
              1
     1  H    0.104034
     2  C   -0.317293
     3  H    0.131482
     4  H    0.107575
     5  C   -0.176618
     6  H    0.108072
     7  H    0.120520
     8  C   -0.271956
     9  H    0.150828
    10  H    0.151968
    11  Cl  -0.108612
 Sum of Mulliken atomic charges =   0.00000
 Mulliken charges with hydrogens summed into heavy atoms:
              1
     2  C    0.025799
     5  C    0.051974
     8  C    0.030839
    11  Cl  -0.108612
 Sum of Mulliken charges with hydrogens summed into heavy atoms =   0.00000
 Electronic spatial extent (au):  <R**2>=            472.7336
 Charge=              0.0000 electrons
 Dipole moment (field-independent basis, Debye):
    X=             -1.7798    Y=              1.3273    Z=              0.3158  Tot=              2.2426
 Quadrupole moment (field-independent basis, Debye-Ang):
   XX=            -34.7375   YY=            -31.6426   ZZ=            -32.5736
   XY=              0.3704   XZ=              0.1689   YZ=              0.4206
 Traceless Quadrupole moment (field-independent basis, Debye-Ang):
   XX=             -1.7530   YY=              1.3420   ZZ=              0.4110
   XY=              0.3704   XZ=              0.1689   YZ=              0.4206
 Octapole moment (field-independent basis, Debye-Ang**2):
  XXX=              1.1451  YYY=              1.2876  ZZZ=              0.9944  XYY=              2.9569
  XXY=             -0.8024  XXZ=             -1.0565  XZZ=              0.7646  YZZ=              0.4934
  YYZ=             -0.4318  XYZ=              0.1609
 Hexadecapole moment (field-independent basis, Debye-Ang**3):
 XXXX=           -422.0773 YYYY=           -133.9193 ZZZZ=            -64.3709 XXXY=             -5.9532
 XXXZ=              0.6602 YYYX=             -2.6069 YYYZ=              0.5729 ZZZX=             -0.3624
 ZZZY=              0.7938 XXYY=            -90.9583 XXZZ=            -82.6807 YYZZ=            -35.2016
 XXYZ=              1.7016 YYXZ=             -0.7185 ZZXY=             -0.2694
 N-N= 1.612563254757D+02 E-N=-1.689946616631D+03  KE= 5.761093292075D+02
 1\1\GINC-COMPUTE-1-1\SP\RB3LYP\6-31G(d,p)\C3H7Cl1\LPASSAGLIA.IQUIR\01-
 Nov-2024\0\\# b3lyp/6-31g** nmr\\comment\\0,1\H,0,-2.00045,-0.67739,1.
 225446\C,0,-1.820006,-0.721605,0.144391\H,0,-1.192108,-1.595137,-0.056
 408\H,0,-2.784916,-0.876922,-0.349971\C,0,-1.155338,0.56206,-0.357689\
 H,0,-1.814447,1.421564,-0.165265\H,0,-1.010858,0.517041,-1.443795\C,0,
 0.1759,0.886517,0.308889\H,0,0.089261,0.905767,1.398038\H,0,0.573829,1
 .843619,-0.033475\Cl,0,1.466844,-0.347081,-0.067536\\Version=AM64L-G09
 RevC.01\State=1-A\HF=-578.7494922\RMSD=5.999e-09\Dipole=-0.7002434,0.5
 222098,0.1242607\Quadrupole=-1.3032801,0.997726,0.3055541,0.275346,0.1
 255685,0.3126921\PG=C01 [X(C3H7Cl1)]\\@


 The mind is not a vessel to be filled but a fire to be kindled.
                                  -- Plutarch
 Job cpu time:  0 days  0 hours  1 minutes 36.9 seconds.
 File lengths (MBytes):  RWF=      9 Int=      0 D2E=      0 Chk=      2 Scr=      1
 Normal termination of Gaussian 09 at Fri Nov  1 16:45:12 2024.
