 Entering Gaussian System, Link 0=g09
 Input=/home/lpassaglia.iquir/OPTB/OPTB_trans-1-chloropropene_001_nmr_B3L_A_GAS.gjc
 Output=/home/lpassaglia.iquir/OPTB/OPTB_trans-1-chloropropene_001_nmr_B3L_A_GAS.log
 Initial command:
 /opt/ohpc/pub/apps/software/Gaussian/09/AMD64.SSE4a-enabled/g09/l1.exe /local/lpassaglia.iquir/Gau-144099.inp -scrdir=/local/lpassaglia.iquir/
 Entering Link 1 = /opt/ohpc/pub/apps/software/Gaussian/09/AMD64.SSE4a-enabled/g09/l1.exe PID=    144151.
  
 Copyright (c) 1988,1990,1992,1993,1995,1998,2003,2009,2011,
            Gaussian, Inc.  All Rights Reserved.
  
 This is part of the Gaussian(R) 09 program.  It is based on
 the Gaussian(R) 03 system (copyright 2003, Gaussian, Inc.),
 the Gaussian(R) 98 system (copyright 1998, Gaussian, Inc.),
 the Gaussian(R) 94 system (copyright 1995, Gaussian, Inc.),
 the Gaussian 92(TM) system (copyright 1992, Gaussian, Inc.),
 the Gaussian 90(TM) system (copyright 1990, Gaussian, Inc.),
 the Gaussian 88(TM) system (copyright 1988, Gaussian, Inc.),
 the Gaussian 86(TM) system (copyright 1986, Carnegie Mellon
 University), and the Gaussian 82(TM) system (copyright 1983,
 Carnegie Mellon University). Gaussian is a federally registered
 trademark of Gaussian, Inc.
  
 This software contains proprietary and confidential information,
 including trade secrets, belonging to Gaussian, Inc.
  
 This software is provided under written license and may be
 used, copied, transmitted, or stored only in accord with that
 written license.
  
 The following legend is applicable only to US Government
 contracts under FAR:
  
                    RESTRICTED RIGHTS LEGEND
  
 Use, reproduction and disclosure by the US Government is
 subject to restrictions as set forth in subparagraphs (a)
 and (c) of the Commercial Computer Software - Restricted
 Rights clause in FAR 52.227-19.
  
 Gaussian, Inc.
 340 Quinnipiac St., Bldg. 40, Wallingford CT 06492
  
  
 ---------------------------------------------------------------
 Warning -- This program may not be used in any manner that
 competes with the business of Gaussian, Inc. or will provide
 assistance to any competitor of Gaussian, Inc.  The licensee
 of this program is prohibited from giving any competitor of
 Gaussian, Inc. access to this program.  By using this program,
 the user acknowledges that Gaussian, Inc. is engaged in the
 business of creating and licensing software in the field of
 computational chemistry and represents and warrants to the
 licensee that it is not a competitor of Gaussian, Inc. and that
 it will not use this program in any manner prohibited above.
 ---------------------------------------------------------------
  

 Cite this work as:
 Gaussian 09, Revision C.01,
 M. J. Frisch, G. W. Trucks, H. B. Schlegel, G. E. Scuseria, 
 M. A. Robb, J. R. Cheeseman, G. Scalmani, V. Barone, B. Mennucci, 
 G. A. Petersson, H. Nakatsuji, M. Caricato, X. Li, H. P. Hratchian, 
 A. F. Izmaylov, J. Bloino, G. Zheng, J. L. Sonnenberg, M. Hada, 
 M. Ehara, K. Toyota, R. Fukuda, J. Hasegawa, M. Ishida, T. Nakajima, 
 Y. Honda, O. Kitao, H. Nakai, T. Vreven, J. A. Montgomery, Jr., 
 J. E. Peralta, F. Ogliaro, M. Bearpark, J. J. Heyd, E. Brothers, 
 K. N. Kudin, V. N. Staroverov, T. Keith, R. Kobayashi, J. Normand, 
 K. Raghavachari, A. Rendell, J. C. Burant, S. S. Iyengar, J. Tomasi, 
 M. Cossi, N. Rega, J. M. Millam, M. Klene, J. E. Knox, J. B. Cross, 
 V. Bakken, C. Adamo, J. Jaramillo, R. Gomperts, R. E. Stratmann, 
 O. Yazyev, A. J. Austin, R. Cammi, C. Pomelli, J. W. Ochterski, 
 R. L. Martin, K. Morokuma, V. G. Zakrzewski, G. A. Voth, 
 P. Salvador, J. J. Dannenberg, S. Dapprich, A. D. Daniels, 
 O. Farkas, J. B. Foresman, J. V. Ortiz, J. Cioslowski, 
 and D. J. Fox, Gaussian, Inc., Wallingford CT, 2010.
 
 ******************************************
 Gaussian 09:  AM64L-G09RevC.01 23-Sep-2011
                 1-Nov-2024 
 ******************************************
 %nprocshared=4
 Will use up to    4 processors via shared memory.
 -------------------
 # b3lyp/6-31g** nmr
 -------------------
 1/38=1/1;
 2/12=2,17=6,18=5,40=1/2;
 3/5=1,6=6,7=101,11=2,16=1,25=1,30=1,74=-5/1,2,8,3;
 4//1;
 5/5=2,38=5/2;
 8/6=1,10=90,11=11/1;
 10/13=100,45=16/2;
 6/7=2,8=2,9=2,10=2,28=1/1;
 99/9=1/99;
 -------
 comment
 -------
 Charge =  0 Multiplicity = 1
 Symbolic Z-Matrix:
 1                    -2.60726   0.8704    0. 
 6                    -2.40531  -0.20557   0. 
 1                    -2.89163  -0.64348   0.88148 
 1                    -2.89163  -0.64348  -0.88148 
 6                    -0.93194  -0.49687   0. 
 1                    -0.62696  -1.54181   0. 
 6                     0.        0.45246   0. 
 1                    -0.21558   1.51559   0. 
 17                    1.72097   0.11427   0. 
 
                          Input orientation:                          
 ---------------------------------------------------------------------
 Center     Atomic      Atomic             Coordinates (Angstroms)
 Number     Number       Type             X           Y           Z
 ---------------------------------------------------------------------
      1          1           0       -2.607259    0.870401    0.000000
      2          6           0       -2.405313   -0.205568    0.000000
      3          1           0       -2.891626   -0.643478    0.881475
      4          1           0       -2.891626   -0.643478   -0.881475
      5          6           0       -0.931937   -0.496868    0.000000
      6          1           0       -0.626959   -1.541808    0.000000
      7          6           0        0.000000    0.452460    0.000000
      8          1           0       -0.215583    1.515590    0.000000
      9         17           0        1.720974    0.114272    0.000000
 ---------------------------------------------------------------------
                    Distance matrix (angstroms):
                    1          2          3          4          5
     1  H    0.000000
     2  C    1.094756   0.000000
     3  H    1.774737   1.097845   0.000000
     4  H    1.774737   1.097845   1.762950   0.000000
     5  C    2.162436   1.501896   2.153804   2.153804   0.000000
     6  H    3.120952   2.224428   2.590890   2.590890   1.088536
     7  C    2.640544   2.493698   3.215522   3.215522   1.330312
     8  H    2.477172   2.785193   3.549617   3.549617   2.136153
     9  Cl   4.393783   4.138664   4.756812   4.756812   2.722394
                    6          7          8          9
     6  H    0.000000
     7  C    2.090498   0.000000
     8  H    3.084949   1.084768   0.000000
     9  Cl   2.873220   1.753888   2.390386   0.000000
 Stoichiometry    C3H5Cl
 Framework group  CS[SG(C3H3Cl),X(H2)]
 Deg. of freedom    14
 Full point group                 CS      NOp   2
 Largest Abelian subgroup         CS      NOp   2
 Largest concise Abelian subgroup CS      NOp   2
                         Standard orientation:                         
 ---------------------------------------------------------------------
 Center     Atomic      Atomic             Coordinates (Angstroms)
 Number     Number       Type             X           Y           Z
 ---------------------------------------------------------------------
      1          1           0       -2.607259    0.870402    0.000000
      2          6           0       -2.405313   -0.205567    0.000000
      3          1           0       -2.891626   -0.643477    0.881475
      4          1           0       -2.891626   -0.643477   -0.881475
      5          6           0       -0.931937   -0.496868    0.000000
      6          1           0       -0.626960   -1.541808    0.000000
      7          6           0        0.000000    0.452460    0.000000
      8          1           0       -0.215583    1.515590    0.000000
      9         17           0        1.720974    0.114272    0.000000
 ---------------------------------------------------------------------
 Rotational constants (GHZ):     41.6789941      2.4098100      2.3107206
 Standard basis: 6-31G(d,p) (6D, 7F)
 There are    64 symmetry adapted basis functions of A'  symmetry.
 There are    25 symmetry adapted basis functions of A"  symmetry.
 Integral buffers will be    131072 words long.
 Raffenetti 2 integral format.
 Two-electron integral symmetry is turned on.
    89 basis functions,   171 primitive gaussians,    89 cartesian basis functions
    20 alpha electrons       20 beta electrons
       nuclear repulsion energy       140.8642079606 Hartrees.
 NAtoms=    9 NActive=    9 NUniq=    8 SFac= 1.27D+00 NAtFMM=   60 NAOKFM=F Big=F
 One-electron integrals computed using PRISM.
 NBasis=    89 RedAO= T  NBF=    64    25
 NBsUse=    89 1.00D-06 NBFU=    64    25
 Harris functional with IExCor=  402 diagonalized for initial guess.
 ExpMin= 1.43D-01 ExpMax= 2.52D+04 ExpMxC= 3.78D+03 IAcc=1 IRadAn=         1 AccDes= 0.00D+00
 HarFok:  IExCor=  402 AccDes= 0.00D+00 IRadAn=         1 IDoV= 1
 ScaDFX=  1.000000  1.000000  1.000000  1.000000
 FoFCou: FMM=F IPFlag=           0 FMFlag=      100000 FMFlg1=           0
         NFxFlg=           0 DoJE=T BraDBF=F KetDBF=T FulRan=T
         Omega=  0.000000  0.000000  1.000000  0.000000  0.000000 ICntrl=     500 IOpCl=  0
         NMat0=    1 NMatS0=    1 NMatT0=    0 NMatD0=    1 NMtDS0=    0 NMtDT0=    0
         I1Cent=           4 NGrid=           0.
 Petite list used in FoFCou.
 Initial guess orbital symmetries:
       Occupied  (A') (A') (A') (A') (A') (A') (A') (A") (A') (A')
                 (A') (A') (A') (A') (A") (A') (A') (A") (A') (A")
       Virtual   (A") (A') (A') (A') (A') (A") (A') (A') (A') (A')
                 (A') (A') (A") (A') (A") (A') (A') (A") (A") (A')
                 (A') (A') (A") (A') (A') (A') (A') (A") (A') (A")
                 (A') (A') (A') (A") (A') (A') (A") (A') (A") (A')
                 (A") (A') (A') (A") (A") (A') (A') (A") (A') (A')
                 (A") (A') (A') (A") (A") (A') (A') (A') (A") (A')
                 (A') (A') (A") (A') (A') (A') (A') (A') (A')
 The electronic state of the initial guess is 1-A'.
 Requested convergence on RMS density matrix=1.00D-08 within 128 cycles.
 Requested convergence on MAX density matrix=1.00D-06.
 Requested convergence on             energy=1.00D-06.
 No special actions if energy rises.
 Keep R1 ints in memory in canonical form, NReq=9049097.
 Integral accuracy reduced to 1.0D-05 until final iterations.
 Initial convergence to 1.0D-05 achieved.  Increase integral accuracy.
 SCF Done:  E(RB3LYP) =  -577.512604229     A.U. after   14 cycles
             Convg  =    0.3104D-08             -V/T =  2.0045
 Range of M.O.s used for correlation:     1    89
 NBasis=    89 NAE=    20 NBE=    20 NFC=     0 NFV=     0
 NROrb=     89 NOA=    20 NOB=    20 NVA=    69 NVB=    69
          Differentiating once with respect to magnetic field using GIAOs.
          Electric field/nuclear overlap derivatives assumed to be zero.
          Keep R3 ints in memory in canonical form, NReq=8844696.
 FoFCou: FMM=F IPFlag=           0 FMFlag=           0 FMFlg1=           0
         NFxFlg=           0 DoJE=F BraDBF=F KetDBF=T FulRan=T
         Omega=  0.000000  0.000000  1.000000  0.000000  0.000000 ICntrl=    6100 IOpCl=  0
         NMat0=    1 NMatS0=    1 NMatT0=    0 NMatD0=    1 NMtDS0=    0 NMtDT0=    0
         I1Cent=           7 NGrid=           9.
 Symmetry not used in FoFCou.
          There are     3 degrees of freedom in the 1st order CPHF.  IDoFFX=0.
      3 vectors produced by pass  0 Test12= 4.60D-14 3.33D-08 XBig12= 3.19D+00 7.24D-01.
 AX will form     3 AO Fock derivatives at one time.
      3 vectors produced by pass  1 Test12= 4.60D-14 3.33D-08 XBig12= 4.51D-03 2.72D-02.
      3 vectors produced by pass  2 Test12= 4.60D-14 3.33D-08 XBig12= 1.62D-05 2.07D-03.
      3 vectors produced by pass  3 Test12= 4.60D-14 3.33D-08 XBig12= 3.26D-08 1.13D-04.
      3 vectors produced by pass  4 Test12= 4.60D-14 3.33D-08 XBig12= 1.05D-10 4.94D-06.
      2 vectors produced by pass  5 Test12= 4.60D-14 3.33D-08 XBig12= 2.24D-13 2.56D-07.
 Inverted reduced A of dimension    17 with in-core refinement.
 Calculating GIAO nuclear magnetic shielding tensors.
 SCF GIAO Magnetic shielding tensor (ppm):
      1  H    Isotropic =    30.1424   Anisotropy =     6.1408
   XX=    30.8162   YX=    -3.0829   ZX=     0.0000
   XY=    -1.0321   YY=    32.9984   ZY=     0.0000
   XZ=     0.0000   YZ=     0.0000   ZZ=    26.6125
   Eigenvalues:    26.6125    29.5784    34.2362
      2  C    Isotropic =   173.9700   Anisotropy =    25.5912
   XX=   189.2570   YX=    -5.9307   ZX=     0.0000
   XY=    -7.8728   YY=   164.1779   ZY=     0.0000
   XZ=     0.0000   YZ=     0.0000   ZZ=   168.4753
   Eigenvalues:   162.4040   168.4753   191.0309
      3  H    Isotropic =    29.9870   Anisotropy =     8.7558
   XX=    31.3752   YX=     1.9176   ZX=    -3.7869
   XY=     1.2137   YY=    27.5666   ZY=    -2.0110
   XZ=    -3.6233   YZ=    -2.6615   ZZ=    31.0193
   Eigenvalues:    26.3556    27.7812    35.8242
      4  H    Isotropic =    29.9870   Anisotropy =     8.7558
   XX=    31.3752   YX=     1.9176   ZX=     3.7869
   XY=     1.2137   YY=    27.5666   ZY=     2.0110
   XZ=     3.6233   YZ=     2.6615   ZZ=    31.0193
   Eigenvalues:    26.3556    27.7812    35.8242
      5  C    Isotropic =    67.4341   Anisotropy =   131.6734
   XX=    25.2410   YX=    59.8582   ZX=     0.0000
   XY=    51.6109   YY=    21.8449   ZY=     0.0000
   XZ=     0.0000   YZ=     0.0000   ZZ=   155.2163
   Eigenvalues:   -32.2175    79.3034   155.2163
      6  H    Isotropic =    25.8161   Anisotropy =     5.9834
   XX=    28.4425   YX=     3.4769   ZX=     0.0000
   XY=     1.4538   YY=    25.3441   ZY=     0.0000
   XZ=     0.0000   YZ=     0.0000   ZZ=    23.6616
   Eigenvalues:    23.6616    23.9816    29.8050
      7  C    Isotropic =    70.0715   Anisotropy =    78.8408
   XX=    42.1633   YX=    53.2641   ZX=     0.0000
   XY=    60.9207   YY=    45.4191   ZY=     0.0000
   XZ=     0.0000   YZ=     0.0000   ZZ=   122.6320
   Eigenvalues:   -13.3244   100.9068   122.6320
      8  H    Isotropic =    25.8875   Anisotropy =     5.1699
   XX=    29.3036   YX=     0.6425   ZX=     0.0000
   XY=    -1.2163   YY=    26.6338   ZY=     0.0000
   XZ=     0.0000   YZ=     0.0000   ZZ=    21.7251
   Eigenvalues:    21.7251    26.6033    29.3341
      9  Cl   Isotropic =   752.1788   Anisotropy =   402.9407
   XX=   997.3424   YX=   -75.7219   ZX=     0.0000
   XY=  -128.5950   YY=   576.0163   ZY=     0.0000
   XZ=     0.0000   YZ=     0.0000   ZZ=   683.1777
   Eigenvalues:   552.5527   683.1777  1020.8059
 End of Minotr Frequency-dependent properties file   721 does not exist.
 End of Minotr Frequency-dependent properties file   722 does not exist.

 **********************************************************************

            Population analysis using the SCF density.

 **********************************************************************

 Orbital symmetries:
       Occupied  (A') (A') (A') (A') (A') (A') (A") (A') (A') (A')
                 (A') (A') (A') (A') (A") (A') (A') (A") (A') (A")
       Virtual   (A") (A') (A') (A') (A') (A") (A') (A') (A') (A')
                 (A') (A") (A') (A') (A") (A') (A') (A") (A") (A')
                 (A') (A') (A") (A') (A') (A') (A") (A") (A') (A')
                 (A') (A') (A') (A') (A") (A') (A") (A') (A") (A')
                 (A") (A') (A') (A") (A') (A") (A') (A") (A') (A')
                 (A") (A') (A') (A") (A") (A') (A') (A') (A") (A')
                 (A') (A') (A") (A') (A') (A') (A') (A') (A')
 The electronic state is 1-A'.
 Alpha  occ. eigenvalues -- -101.54345 -10.24160 -10.20569 -10.19744  -9.45998
 Alpha  occ. eigenvalues --   -7.22379  -7.21434  -7.21393  -0.86528  -0.78251
 Alpha  occ. eigenvalues --   -0.67940  -0.57020  -0.46903  -0.45279  -0.42391
 Alpha  occ. eigenvalues --   -0.38768  -0.37063  -0.35280  -0.30699  -0.24789
 Alpha virt. eigenvalues --    0.00802   0.04052   0.11249   0.12009   0.16003
 Alpha virt. eigenvalues --    0.16287   0.16656   0.26830   0.32710   0.39903
 Alpha virt. eigenvalues --    0.42870   0.45460   0.45763   0.49873   0.52040
 Alpha virt. eigenvalues --    0.53397   0.61194   0.62536   0.63537   0.69298
 Alpha virt. eigenvalues --    0.74659   0.79170   0.83292   0.84177   0.86323
 Alpha virt. eigenvalues --    0.87301   0.87397   0.89081   0.89229   0.92069
 Alpha virt. eigenvalues --    1.02357   1.07048   1.14060   1.27861   1.28664
 Alpha virt. eigenvalues --    1.31267   1.41067   1.58907   1.62067   1.81071
 Alpha virt. eigenvalues --    1.82374   1.90216   1.95675   2.03222   2.05807
 Alpha virt. eigenvalues --    2.06639   2.10985   2.17477   2.23473   2.35263
 Alpha virt. eigenvalues --    2.39842   2.48548   2.51779   2.53244   2.58019
 Alpha virt. eigenvalues --    2.66914   2.78734   2.83701   2.85276   2.92179
 Alpha virt. eigenvalues --    3.16601   3.37815   3.41222   3.43537   3.48964
 Alpha virt. eigenvalues --    4.12912   4.25762   4.36248   4.55818
          Condensed to atoms (all electrons):
              1          2          3          4          5          6
     1  H    0.587906   0.385647  -0.028846  -0.028846  -0.034472   0.004408
     2  C    0.385647   4.916818   0.379418   0.379418   0.372924  -0.045513
     3  H   -0.028846   0.379418   0.593424  -0.036044  -0.032375  -0.001430
     4  H   -0.028846   0.379418  -0.036044   0.593424  -0.032375  -0.001430
     5  C   -0.034472   0.372924  -0.032375  -0.032375   4.808616   0.387358
     6  H    0.004408  -0.045513  -0.001430  -0.001430   0.387358   0.588549
     7  C   -0.007289  -0.031885  -0.000488  -0.000488   0.649183  -0.046013
     8  H    0.005753  -0.007508   0.000098   0.000098  -0.038556   0.005204
     9  Cl   0.000078   0.004466  -0.000091  -0.000091  -0.070472  -0.002760
              7          8          9
     1  H   -0.007289   0.005753   0.000078
     2  C   -0.031885  -0.007508   0.004466
     3  H   -0.000488   0.000098  -0.000091
     4  H   -0.000488   0.000098  -0.000091
     5  C    0.649183  -0.038556  -0.070472
     6  H   -0.046013   0.005204  -0.002760
     7  C    5.033842   0.383002   0.236062
     8  H    0.383002   0.565960  -0.052483
     9  Cl   0.236062  -0.052483  16.924140
 Mulliken atomic charges:
              1
     1  H    0.115662
     2  C   -0.353785
     3  H    0.126334
     4  H    0.126334
     5  C   -0.009831
     6  H    0.111626
     7  C   -0.215926
     8  H    0.138434
     9  Cl  -0.038849
 Sum of Mulliken atomic charges =   0.00000
 Mulliken charges with hydrogens summed into heavy atoms:
              1
     2  C    0.014546
     5  C    0.101795
     7  C   -0.077492
     9  Cl  -0.038849
 Sum of Mulliken charges with hydrogens summed into heavy atoms =   0.00000
 Electronic spatial extent (au):  <R**2>=            516.5204
 Charge=              0.0000 electrons
 Dipole moment (field-independent basis, Debye):
    X=             -2.0918    Y=              0.0444    Z=              0.0000  Tot=              2.0922
 Quadrupole moment (field-independent basis, Debye-Ang):
   XX=            -30.9013   YY=            -29.4927   ZZ=            -32.8220
   XY=              0.1344   XZ=              0.0000   YZ=              0.0000
 Traceless Quadrupole moment (field-independent basis, Debye-Ang):
   XX=              0.1707   YY=              1.5793   ZZ=             -1.7500
   XY=              0.1344   XZ=              0.0000   YZ=              0.0000
 Octapole moment (field-independent basis, Debye-Ang**2):
  XXX=              2.1620  YYY=              1.3527  ZZZ=              0.0000  XYY=              0.1380
  XXY=             -1.9344  XXZ=              0.0000  XZZ=              1.1930  YZZ=             -0.4246
  YYZ=              0.0000  XYZ=              0.0000
 Hexadecapole moment (field-independent basis, Debye-Ang**3):
 XXXX=           -545.7476 YYYY=            -69.3393 ZZZZ=            -41.3285 XXXY=            -26.5484
 XXXZ=              0.0000 YYYX=            -27.6088 YYYZ=              0.0000 ZZZX=              0.0000
 ZZZY=              0.0000 XXYY=           -106.6558 XXZZ=           -100.1471 YYZZ=            -19.8242
 XXYZ=              0.0000 YYXZ=              0.0000 ZZXY=             -7.3764
 N-N= 1.408642079606D+02 E-N=-1.646532923772D+03  KE= 5.749005580789D+02
 Symmetry A'   KE= 5.250315675202D+02
 Symmetry A"   KE= 4.986899055871D+01
 1\1\GINC-COMPUTE-1-10\SP\RB3LYP\6-31G(d,p)\C3H5Cl1\LPASSAGLIA.IQUIR\01
 -Nov-2024\0\\# b3lyp/6-31g** nmr\\comment\\0,1\H,0,-2.607259,0.870401,
 0.\C,0,-2.405313,-0.205568,0.\H,0,-2.891626,-0.643478,0.881475\H,0,-2.
 891626,-0.643478,-0.881475\C,0,-0.931937,-0.496868,0.\H,0,-0.626959,-1
 .541808,0.\C,0,0.,0.45246,0.\H,0,-0.215583,1.51559,0.\Cl,0,1.720974,0.
 114272,0.\\Version=AM64L-G09RevC.01\State=1-A'\HF=-577.5126042\RMSD=3.
 104e-09\Dipole=-0.8229591,0.0174561,0.\Quadrupole=0.126897,1.1741701,-
 1.3010671,0.0998882,0.,0.\PG=CS [SG(C3H3Cl1),X(H2)]\\@


 MOST BUREAUCRACIES FUNCTION LIKE A SEPTIC TANK.
 THE LARGE CHUNKS RISE TO THE TOP.
 Job cpu time:  0 days  0 hours  2 minutes 32.7 seconds.
 File lengths (MBytes):  RWF=      9 Int=      0 D2E=      0 Chk=      2 Scr=      1
 Normal termination of Gaussian 09 at Fri Nov  1 16:05:23 2024.
