 Entering Gaussian System, Link 0=g09
 Input=/home/mamichetti.iquir/Linux/01_Cardona_A1A3_R__S_R_R_007_OptB.gjc
 Output=/home/mamichetti.iquir/Linux/01_Cardona_A1A3_R__S_R_R_007_OptB.log
 Initial command:
 /opt/ohpc/pub/apps/software/Gaussian/09/AMD64.SSE4a-enabled/g09/l1.exe /local/mamichetti.iquir/Gau-405056.inp -scrdir=/local/mamichetti.iquir/
 Entering Link 1 = /opt/ohpc/pub/apps/software/Gaussian/09/AMD64.SSE4a-enabled/g09/l1.exe PID=    405057.
  
 Copyright (c) 1988,1990,1992,1993,1995,1998,2003,2009,2011,
            Gaussian, Inc.  All Rights Reserved.
  
 This is part of the Gaussian(R) 09 program.  It is based on
 the Gaussian(R) 03 system (copyright 2003, Gaussian, Inc.),
 the Gaussian(R) 98 system (copyright 1998, Gaussian, Inc.),
 the Gaussian(R) 94 system (copyright 1995, Gaussian, Inc.),
 the Gaussian 92(TM) system (copyright 1992, Gaussian, Inc.),
 the Gaussian 90(TM) system (copyright 1990, Gaussian, Inc.),
 the Gaussian 88(TM) system (copyright 1988, Gaussian, Inc.),
 the Gaussian 86(TM) system (copyright 1986, Carnegie Mellon
 University), and the Gaussian 82(TM) system (copyright 1983,
 Carnegie Mellon University). Gaussian is a federally registered
 trademark of Gaussian, Inc.
  
 This software contains proprietary and confidential information,
 including trade secrets, belonging to Gaussian, Inc.
  
 This software is provided under written license and may be
 used, copied, transmitted, or stored only in accord with that
 written license.
  
 The following legend is applicable only to US Government
 contracts under FAR:
  
                    RESTRICTED RIGHTS LEGEND
  
 Use, reproduction and disclosure by the US Government is
 subject to restrictions as set forth in subparagraphs (a)
 and (c) of the Commercial Computer Software - Restricted
 Rights clause in FAR 52.227-19.
  
 Gaussian, Inc.
 340 Quinnipiac St., Bldg. 40, Wallingford CT 06492
  
  
 ---------------------------------------------------------------
 Warning -- This program may not be used in any manner that
 competes with the business of Gaussian, Inc. or will provide
 assistance to any competitor of Gaussian, Inc.  The licensee
 of this program is prohibited from giving any competitor of
 Gaussian, Inc. access to this program.  By using this program,
 the user acknowledges that Gaussian, Inc. is engaged in the
 business of creating and licensing software in the field of
 computational chemistry and represents and warrants to the
 licensee that it is not a competitor of Gaussian, Inc. and that
 it will not use this program in any manner prohibited above.
 ---------------------------------------------------------------
  

 Cite this work as:
 Gaussian 09, Revision C.01,
 M. J. Frisch, G. W. Trucks, H. B. Schlegel, G. E. Scuseria, 
 M. A. Robb, J. R. Cheeseman, G. Scalmani, V. Barone, B. Mennucci, 
 G. A. Petersson, H. Nakatsuji, M. Caricato, X. Li, H. P. Hratchian, 
 A. F. Izmaylov, J. Bloino, G. Zheng, J. L. Sonnenberg, M. Hada, 
 M. Ehara, K. Toyota, R. Fukuda, J. Hasegawa, M. Ishida, T. Nakajima, 
 Y. Honda, O. Kitao, H. Nakai, T. Vreven, J. A. Montgomery, Jr., 
 J. E. Peralta, F. Ogliaro, M. Bearpark, J. J. Heyd, E. Brothers, 
 K. N. Kudin, V. N. Staroverov, T. Keith, R. Kobayashi, J. Normand, 
 K. Raghavachari, A. Rendell, J. C. Burant, S. S. Iyengar, J. Tomasi, 
 M. Cossi, N. Rega, J. M. Millam, M. Klene, J. E. Knox, J. B. Cross, 
 V. Bakken, C. Adamo, J. Jaramillo, R. Gomperts, R. E. Stratmann, 
 O. Yazyev, A. J. Austin, R. Cammi, C. Pomelli, J. W. Ochterski, 
 R. L. Martin, K. Morokuma, V. G. Zakrzewski, G. A. Voth, 
 P. Salvador, J. J. Dannenberg, S. Dapprich, A. D. Daniels, 
 O. Farkas, J. B. Foresman, J. V. Ortiz, J. Cioslowski, 
 and D. J. Fox, Gaussian, Inc., Wallingford CT, 2010.
 
 ******************************************
 Gaussian 09:  AM64L-G09RevC.01 23-Sep-2011
                17-May-2024 
 ******************************************
 %nprocshared=4
 Will use up to    4 processors via shared memory.
 ------------------------------------------------
 # mpw1pw91/6-31+G** nmr scrf=(pcm,solvent=water)
 ------------------------------------------------
 1/38=1/1;
 2/12=2,17=6,18=5,40=1/2;
 3/5=1,6=6,7=111,11=2,16=1,25=1,30=1,70=2201,72=1,74=-7/1,2,8,3;
 4//1;
 5/5=2,38=5,53=1/2;
 8/6=1,10=90,11=11/1;
 10/13=100,45=16/2;
 6/7=2,8=2,9=2,10=2,28=1/1;
 99/9=1/99;
 -------
 comment
 -------
 Charge =  0 Multiplicity = 1
 Symbolic Z-Matrix:
 6                    -2.47741   0.43459   0.32216 
 6                    -1.03384   0.35761   0.84487 
 7                    -0.40499  -0.8238    0.14934 
 6                    -1.40782  -1.41905  -0.75681 
 6                    -2.75313  -1.00119  -0.15521 
 6                     0.85097  -0.39055  -0.48278 
 6                     1.2526    0.84073   0.33904 
 6                    -0.09548   1.54506   0.5866 
 1                    -3.17843   0.77711   1.08922 
 1                    -2.53575   1.12431  -0.52491 
 1                    -1.03936   0.16811   1.92578 
 1                    -1.29224  -2.50703  -0.8194 
 1                    -1.30453  -1.01666  -1.77873 
 1                    -3.0063   -1.64719   0.69418 
 1                    -3.56939  -1.06388  -0.88156 
 1                     0.69057  -0.06505  -1.52532 
 1                     1.69662   0.53225   1.29235 
 1                    -0.05785   2.23053   1.44404 
 8                    -0.46303   2.26282  -0.59347 
 1                     0.38462   2.58084  -0.9613 
 8                     2.16709   1.64422  -0.40666 
 1                     2.58052   2.27083   0.21154 
 6                     1.89165  -1.50964  -0.49621 
 1                     1.57285  -2.29735  -1.19556 
 1                     2.85326  -1.12072  -0.84702 
 8                     2.10467  -2.05435   0.80676 
 1                     1.20531  -2.1663    1.16828 
 
                          Input orientation:                          
 ---------------------------------------------------------------------
 Center     Atomic      Atomic             Coordinates (Angstroms)
 Number     Number       Type             X           Y           Z
 ---------------------------------------------------------------------
      1          6           0       -2.477406    0.434587    0.322164
      2          6           0       -1.033842    0.357607    0.844873
      3          7           0       -0.404991   -0.823801    0.149343
      4          6           0       -1.407824   -1.419048   -0.756814
      5          6           0       -2.753130   -1.001189   -0.155210
      6          6           0        0.850966   -0.390547   -0.482777
      7          6           0        1.252596    0.840725    0.339040
      8          6           0       -0.095484    1.545056    0.586595
      9          1           0       -3.178433    0.777108    1.089220
     10          1           0       -2.535752    1.124312   -0.524909
     11          1           0       -1.039360    0.168112    1.925777
     12          1           0       -1.292240   -2.507025   -0.819403
     13          1           0       -1.304529   -1.016658   -1.778731
     14          1           0       -3.006303   -1.647191    0.694184
     15          1           0       -3.569389   -1.063877   -0.881556
     16          1           0        0.690571   -0.065049   -1.525319
     17          1           0        1.696615    0.532254    1.292346
     18          1           0       -0.057854    2.230531    1.444039
     19          8           0       -0.463027    2.262818   -0.593472
     20          1           0        0.384624    2.580841   -0.961295
     21          8           0        2.167092    1.644215   -0.406659
     22          1           0        2.580520    2.270830    0.211538
     23          6           0        1.891647   -1.509639   -0.496209
     24          1           0        1.572845   -2.297347   -1.195560
     25          1           0        2.853264   -1.120724   -0.847016
     26          8           0        2.104673   -2.054349    0.806760
     27          1           0        1.205309   -2.166297    1.168277
 ---------------------------------------------------------------------
                    Distance matrix (angstroms):
                    1          2          3          4          5
     1  C    0.000000
     2  C    1.537214   0.000000
     3  N    2.430702   1.508291   0.000000
     4  C    2.396698   2.421109   1.476859   0.000000
     5  C    1.537973   2.408826   2.374442   1.531790   0.000000
     6  C    3.522334   2.423817   1.471296   2.497007   3.670108
     7  C    3.752086   2.391039   2.356741   3.658593   4.436527
     8  C    2.641329   1.535337   2.428676   3.508974   3.754560
     9  H    1.094136   2.198854   3.337403   3.371350   2.211748
    10  H    1.093918   2.172527   2.964777   2.791896   2.168337
    11  H    2.170382   1.097403   2.131205   3.138652   2.938500
    12  H    3.370590   3.323056   2.135163   1.095888   2.200658
    13  H    2.809895   2.974084   2.136313   1.103133   2.175892
    14  H    2.179892   2.816474   2.782382   2.170848   1.096761
    15  H    2.210602   3.380854   3.336736   2.194099   1.094435
    16  H    3.701204   2.961427   2.140199   2.612886   3.822647
    17  H    4.286402   2.772387   2.749925   4.200497   4.924134
    18  H    3.215315   2.195312   3.335519   4.470526   4.501791
    19  O    2.870286   2.454485   3.175273   3.804663   4.011282
    20  H    3.800643   3.196413   3.667233   4.387915   4.829722
    21  O    4.854456   3.669833   3.607749   4.720828   5.591956
    22  H    5.382067   4.138254   4.300452   5.519039   6.268049
    23  C    4.851636   3.720698   2.482269   3.310986   4.684950
    24  H    5.115807   4.243461   2.809259   3.138199   4.634265
    25  H    5.674682   4.489715   3.420105   4.272471   5.650180
    26  O    5.236896   3.958442   2.871386   3.896923   5.062883
    27  H    4.587253   3.389466   2.331006   3.330589   4.333397
                    6          7          8          9         10
     6  C    0.000000
     7  C    1.533858   0.000000
     8  C    2.405386   1.541001   0.000000
     9  H    4.480028   4.494534   3.216668   0.000000
    10  H    3.710314   3.895948   2.714291   1.771723   0.000000
    11  H    3.112325   2.867613   2.140160   2.376202   3.026445
    12  H    3.030863   4.361836   4.452911   4.241002   3.849631
    13  H    2.591847   3.804433   3.690384   3.867073   2.769789
    14  H    4.224088   4.945106   4.321445   2.462297   3.064121
    15  H    4.489091   5.326247   4.585849   2.725074   2.446175
    16  H    1.103888   2.147588   2.769567   4.744917   3.581139
    17  H    2.172037   1.095947   2.176114   4.885418   4.643908
    18  H    3.377665   2.206777   1.098409   3.460686   3.352679
    19  O    2.962968   2.415634   1.429275   3.523098   2.365816
    20  H    3.045587   2.339284   1.923361   4.489258   3.292492
    21  O    2.424508   1.427574   2.472981   5.618200   4.732972
    22  H    3.249055   1.955720   2.797930   6.013906   5.294629
    23  C    1.528255   2.574925   3.801620   5.783469   5.151736
    24  H    2.159874   3.507856   4.552303   6.103043   5.388700
    25  H    2.162181   2.795738   4.225723   6.613028   5.846831
    26  O    2.450087   3.053891   4.224320   6.000678   5.780205
    27  H    2.450475   3.119624   3.975495   5.280822   5.262179
                   11         12         13         14         15
    11  H    0.000000
    12  H    3.841396   0.000000
    13  H    3.898381   1.772471   0.000000
    14  H    2.946356   2.443005   3.067396   0.000000
    15  H    3.974917   2.696655   2.436543   1.772083   0.000000
    16  H    3.867440   3.223834   2.224905   4.593065   4.422595
    17  H    2.831853   4.757095   4.564812   5.217779   5.916442
    18  H    2.334309   5.393637   4.741801   4.928728   5.347186
    19  O    3.326645   4.846653   3.587189   4.838851   4.560633
    20  H    4.022956   5.358954   4.057516   5.667032   5.378155
    21  O    4.230895   5.419421   4.584210   6.229705   6.361329
    22  H    4.523668   6.236105   5.464646   6.840791   7.080714
    23  C    4.155919   3.352069   3.478999   5.042407   5.492732
    24  H    4.758660   2.897270   3.203051   4.996242   5.297416
    25  H    4.949950   4.371247   4.262178   6.081693   6.422997
    26  O    4.009548   3.793196   4.402752   5.128404   6.002202
    27  H    3.325930   3.210096   4.038046   4.269884   5.311769
                   16         17         18         19         20
    16  H    0.000000
    17  H    3.050923   0.000000
    18  H    3.827129   2.446491   0.000000
    19  O    2.760089   3.348912   2.077657   0.000000
    20  H    2.722583   3.316161   2.470655   0.977213   0.000000
    21  O    2.520535   2.084328   2.952835   2.708338   2.088560
    22  H    3.470578   2.229816   2.912336   3.148219   2.508706
    23  C    2.142076   2.721451   4.642627   4.448076   4.383999
    24  H    2.422871   3.769833   5.488929   5.030148   5.026278
    25  H    2.500357   2.940585   4.995443   4.744515   4.450711
    26  O    3.375736   2.663235   4.841781   5.214563   5.250674
    27  H    3.454802   2.745715   4.582982   5.050165   5.267250
                   21         22         23         24         25
    21  O    0.000000
    22  H    0.972490   0.000000
    23  C    3.167126   3.907352   0.000000
    24  H    4.063423   4.885036   1.100550   0.000000
    25  H    2.882644   3.563364   1.095001   1.773527   0.000000
    26  O    3.893027   4.391798   1.428222   2.085947   2.041328
    27  H    4.233846   4.742853   1.916448   2.395826   2.805421
                   26         27
    26  O    0.000000
    27  H    0.975747   0.000000
 Stoichiometry    C8H15NO3
 Framework group  C1[X(C8H15NO3)]
 Deg. of freedom    75
 Full point group                 C1      NOp   1
 Largest Abelian subgroup         C1      NOp   1
 Largest concise Abelian subgroup C1      NOp   1
                         Standard orientation:                         
 ---------------------------------------------------------------------
 Center     Atomic      Atomic             Coordinates (Angstroms)
 Number     Number       Type             X           Y           Z
 ---------------------------------------------------------------------
      1          6           0       -2.477406    0.434586    0.322164
      2          6           0       -1.033842    0.357607    0.844873
      3          7           0       -0.404991   -0.823801    0.149343
      4          6           0       -1.407824   -1.419048   -0.756814
      5          6           0       -2.753130   -1.001190   -0.155210
      6          6           0        0.850966   -0.390547   -0.482777
      7          6           0        1.252596    0.840725    0.339040
      8          6           0       -0.095484    1.545056    0.586595
      9          1           0       -3.178433    0.777107    1.089220
     10          1           0       -2.535752    1.124311   -0.524909
     11          1           0       -1.039360    0.168112    1.925777
     12          1           0       -1.292239   -2.507025   -0.819403
     13          1           0       -1.304529   -1.016658   -1.778731
     14          1           0       -3.006303   -1.647192    0.694184
     15          1           0       -3.569389   -1.063878   -0.881556
     16          1           0        0.690571   -0.065049   -1.525319
     17          1           0        1.696615    0.532254    1.292346
     18          1           0       -0.057854    2.230531    1.444039
     19          8           0       -0.463028    2.262818   -0.593472
     20          1           0        0.384623    2.580841   -0.961295
     21          8           0        2.167092    1.644216   -0.406659
     22          1           0        2.580519    2.270831    0.211538
     23          6           0        1.891647   -1.509638   -0.496209
     24          1           0        1.572846   -2.297347   -1.195560
     25          1           0        2.853264   -1.120723   -0.847016
     26          8           0        2.104674   -2.054348    0.806760
     27          1           0        1.205310   -2.166297    1.168277
 ---------------------------------------------------------------------
 Rotational constants (GHZ):      1.2088364      0.9071043      0.6022521
 Standard basis: 6-31+G(d,p) (6D, 7F)
 There are   303 symmetry adapted basis functions of A   symmetry.
 Integral buffers will be    131072 words long.
 Raffenetti 2 integral format.
 Two-electron integral symmetry is turned on.
   303 basis functions,   489 primitive gaussians,   303 cartesian basis functions
    47 alpha electrons       47 beta electrons
       nuclear repulsion energy       810.7300159675 Hartrees.
 NAtoms=   27 NActive=   27 NUniq=   27 SFac= 1.00D+00 NAtFMM=   60 NAOKFM=F Big=F
 ------------------------------------------------------------------------------
 Polarizable Continuum Model (PCM)
 =================================
 Model                : PCM.
 Atomic radii         : UFF (Universal Force Field).
 Polarization charges : Total charges.
 Charge compensation  : None.
 Solution method      : Matrix inversion.
 Cavity type          : Scaled VdW (van der Waals Surface) (Alpha=1.100).
 Cavity algorithm     : GePol (No added spheres)
                        Default sphere list used, NSphG=   27.
                        Lebedev-Laikov grids with approx.  5.0 points / Ang**2.
                        Smoothing algorithm: Karplus/York (Gamma=1.0000).
                        Polarization charges: spherical gaussians, with
                                              point-specific exponents (IZeta= 3).
                        Self-potential: point-specific (ISelfS= 7).
                        Self-field    : sphere-specific E.n sum rule (ISelfD= 2).
 Solvent              : Water, Eps=  78.355300 Eps(inf)=   1.777849
 ------------------------------------------------------------------------------
 One-electron integrals computed using PRISM.
 NBasis=   303 RedAO= T  NBF=   303
 NBsUse=   303 1.00D-06 NBFU=   303
 Harris functional with IExCor=  908 diagonalized for initial guess.
 ExpMin= 4.38D-02 ExpMax= 5.48D+03 ExpMxC= 8.25D+02 IAcc=2 IRadAn=         4 AccDes= 0.00D+00
 HarFok:  IExCor=  908 AccDes= 0.00D+00 IRadAn=         4 IDoV= 1
 ScaDFX=  1.000000  1.000000  1.000000  1.000000
 FoFCou: FMM=F IPFlag=           0 FMFlag=      100000 FMFlg1=           0
         NFxFlg=           0 DoJE=T BraDBF=F KetDBF=T FulRan=T
         Omega=  0.000000  0.000000  1.000000  0.000000  0.000000 ICntrl=     500 IOpCl=  0
         NMat0=    1 NMatS0=    1 NMatT0=    0 NMatD0=    1 NMtDS0=    0 NMtDT0=    0
         I1Cent=           4 NGrid=           0.
 Petite list used in FoFCou.
 Initial guess orbital symmetries:
       Occupied  (A) (A) (A) (A) (A) (A) (A) (A) (A) (A) (A) (A)
                 (A) (A) (A) (A) (A) (A) (A) (A) (A) (A) (A) (A)
                 (A) (A) (A) (A) (A) (A) (A) (A) (A) (A) (A) (A)
                 (A) (A) (A) (A) (A) (A) (A) (A) (A) (A) (A)
       Virtual   (A) (A) (A) (A) (A) (A) (A) (A) (A) (A) (A) (A)
                 (A) (A) (A) (A) (A) (A) (A) (A) (A) (A) (A) (A)
                 (A) (A) (A) (A) (A) (A) (A) (A) (A) (A) (A) (A)
                 (A) (A) (A) (A) (A) (A) (A) (A) (A) (A) (A) (A)
                 (A) (A) (A) (A) (A) (A) (A) (A) (A) (A) (A) (A)
                 (A) (A) (A) (A) (A) (A) (A) (A) (A) (A) (A) (A)
                 (A) (A) (A) (A) (A) (A) (A) (A) (A) (A) (A) (A)
                 (A) (A) (A) (A) (A) (A) (A) (A) (A) (A) (A) (A)
                 (A) (A) (A) (A) (A) (A) (A) (A) (A) (A) (A) (A)
                 (A) (A) (A) (A) (A) (A) (A) (A) (A) (A) (A) (A)
                 (A) (A) (A) (A) (A) (A) (A) (A) (A) (A) (A) (A)
                 (A) (A) (A) (A) (A) (A) (A) (A) (A) (A) (A) (A)
                 (A) (A) (A) (A) (A) (A) (A) (A) (A) (A) (A) (A)
                 (A) (A) (A) (A) (A) (A) (A) (A) (A) (A) (A) (A)
                 (A) (A) (A) (A) (A) (A) (A) (A) (A) (A) (A) (A)
                 (A) (A) (A) (A) (A) (A) (A) (A) (A) (A) (A) (A)
                 (A) (A) (A) (A) (A) (A) (A) (A) (A) (A) (A) (A)
                 (A) (A) (A) (A) (A) (A) (A) (A) (A) (A) (A) (A)
                 (A) (A) (A) (A) (A) (A) (A) (A) (A) (A) (A) (A)
                 (A) (A) (A) (A) (A) (A) (A) (A) (A) (A) (A) (A)
                 (A) (A) (A) (A) (A) (A) (A) (A) (A) (A) (A) (A)
                 (A) (A) (A) (A)
 The electronic state of the initial guess is 1-A.
 Requested convergence on RMS density matrix=1.00D-08 within 128 cycles.
 Requested convergence on MAX density matrix=1.00D-06.
 Requested convergence on             energy=1.00D-06.
 No special actions if energy rises.
 Error on total polarization charges =  0.01407
 SCF Done:  E(RmPW1PW91) =  -594.203787671     A.U. after   13 cycles
             Convg  =    0.4979D-08             -V/T =  2.0094
 Range of M.O.s used for correlation:     1   303
 NBasis=   303 NAE=    47 NBE=    47 NFC=     0 NFV=     0
 NROrb=    303 NOA=    47 NOB=    47 NVA=   256 NVB=   256

 **** Warning!!: The largest alpha MO coefficient is  0.70603508D+02

 NEqPCM:  Using equilibrium solvation (IEInf=0, Eps=  78.3553, EpsInf=   1.7778)
          Differentiating once with respect to magnetic field using GIAOs.
          Electric field/nuclear overlap derivatives assumed to be zero.
 FoFCou: FMM=F IPFlag=           0 FMFlag=    10101102 FMFlg1=           0
         NFxFlg=    40000000 DoJE=F BraDBF=F KetDBF=T FulRan=T
         Omega=  0.000000  0.000000  1.000000  0.000000  0.000000 ICntrl=    6100 IOpCl=  0
         NMat0=    1 NMatS0=    1 NMatT0=    0 NMatD0=    1 NMtDS0=    0 NMtDT0=    0
         I1Cent=           7 NGrid=        1856.
 Symmetry not used in FoFCou.
          There are     3 degrees of freedom in the 1st order CPHF.  IDoFFX=0.
      3 vectors produced by pass  0 Test12= 4.01D-13 3.33D-08 XBig12= 3.41D+01 1.87D+00.
 AX will form     3 AO Fock derivatives at one time.
      3 vectors produced by pass  1 Test12= 4.01D-13 3.33D-08 XBig12= 8.21D-02 4.64D-02.
      3 vectors produced by pass  2 Test12= 4.01D-13 3.33D-08 XBig12= 1.96D-04 2.34D-03.
      3 vectors produced by pass  3 Test12= 4.01D-13 3.33D-08 XBig12= 8.12D-07 1.98D-04.
      3 vectors produced by pass  4 Test12= 4.01D-13 3.33D-08 XBig12= 2.43D-09 7.65D-06.
      3 vectors produced by pass  5 Test12= 4.01D-13 3.33D-08 XBig12= 7.54D-12 4.42D-07.
 Inverted reduced A of dimension    18 with in-core refinement.
 Calculating GIAO nuclear magnetic shielding tensors.
 SCF GIAO Magnetic shielding tensor (ppm):
      1  C    Isotropic =   170.2024   Anisotropy =    19.9845
   XX=   178.7415   YX=     2.5458   ZX=     5.2988
   XY=    -5.7429   YY=   176.6794   ZY=    17.4481
   XZ=     3.6128   YZ=    10.2422   ZZ=   155.1863
   Eigenvalues:   147.6933   179.3885   183.5254
      2  C    Isotropic =   127.4106   Anisotropy =    51.9697
   XX=   133.9611   YX=    -7.8060   ZX=    -4.5245
   XY=    -9.4598   YY=   148.5793   ZY=    25.1440
   XZ=    -6.8980   YZ=    22.8264   ZZ=    99.6916
   Eigenvalues:    89.7936   130.3812   162.0571
      3  N    Isotropic =   201.7863   Anisotropy =    69.4361
   XX=   243.5206   YX=     2.1082   ZX=   -18.1768
   XY=    14.4388   YY=   207.9235   ZY=    60.7028
   XZ=   -17.0306   YZ=    54.4970   ZZ=   153.9147
   Eigenvalues:   114.4184   242.8634   248.0770
      4  C    Isotropic =   139.5351   Anisotropy =    56.3974
   XX=   155.9316   YX=    12.6644   ZX=    18.3213
   XY=    22.0240   YY=   120.5001   ZY=     9.9075
   XZ=    17.9297   YZ=    17.9230   ZZ=   142.1735
   Eigenvalues:   111.6897   129.7823   177.1333
      5  C    Isotropic =   165.0182   Anisotropy =    22.6507
   XX=   178.9844   YX=    -0.7536   ZX=     0.8514
   XY=     4.0767   YY=   168.4467   ZY=    22.1212
   XZ=    -8.0706   YZ=    16.3160   ZZ=   147.6235
   Eigenvalues:   135.8157   179.1203   180.1187
      6  C    Isotropic =   124.5195   Anisotropy =    50.1665
   XX=   145.5179   YX=    16.4645   ZX=    -4.9512
   XY=    22.1324   YY=   114.0648   ZY=   -12.7057
   XZ=   -15.5245   YZ=    -0.1338   ZZ=   113.9757
   Eigenvalues:   104.5930   111.0017   157.9638
      7  C    Isotropic =   119.1563   Anisotropy =    53.8896
   XX=   140.1475   YX=    18.5573   ZX=   -27.6899
   XY=    12.4765   YY=   128.3131   ZY=    -0.9785
   XZ=   -13.3201   YZ=     3.3955   ZZ=    89.0083
   Eigenvalues:    80.9113   121.4748   155.0827
      8  C    Isotropic =   122.9439   Anisotropy =    26.3741
   XX=   116.8154   YX=     0.4026   ZX=     2.1338
   XY=    -3.5432   YY=   124.7340   ZY=   -14.0566
   XZ=    10.4234   YZ=   -12.0711   ZZ=   127.2822
   Eigenvalues:   110.9152   117.3898   140.5266
      9  H    Isotropic =    29.9285   Anisotropy =    11.5979
   XX=    32.6406   YX=    -2.2156   ZX=    -4.4905
   XY=    -3.1913   YY=    28.1862   ZY=     3.5879
   XZ=    -4.9739   YZ=     2.9772   ZZ=    28.9586
   Eigenvalues:    24.9194    27.2057    37.6604
     10  H    Isotropic =    29.3553   Anisotropy =     7.2009
   XX=    30.0247   YX=    -0.0023   ZX=     1.9716
   XY=     0.3036   YY=    31.3055   ZY=    -4.3277
   XZ=     2.4075   YZ=    -4.2720   ZZ=    26.7358
   Eigenvalues:    23.5524    30.3576    34.1560
     11  H    Isotropic =    27.9693   Anisotropy =     8.7456
   XX=    25.7967   YX=    -1.1396   ZX=    -1.5625
   XY=    -0.5650   YY=    24.8606   ZY=     1.7089
   XZ=    -1.7847   YZ=     0.5893   ZZ=    33.2506
   Eigenvalues:    24.3535    25.7546    33.7997
     12  H    Isotropic =    28.3962   Anisotropy =     9.7439
   XX=    27.2922   YX=     1.2850   ZX=     1.1064
   XY=     0.5956   YY=    33.6246   ZY=     3.2601
   XZ=     1.1857   YZ=     3.3924   ZZ=    24.2718
   Eigenvalues:    23.0515    27.2450    34.8921
     13  H    Isotropic =    29.2485   Anisotropy =     8.4382
   XX=    28.1305   YX=     0.3608   ZX=     2.2042
   XY=     1.0922   YY=    25.5220   ZY=     2.0419
   XZ=     0.9576   YZ=     1.5189   ZZ=    34.0931
   Eigenvalues:    25.1071    27.7645    34.8740
     14  H    Isotropic =    29.5217   Anisotropy =    10.9390
   XX=    29.2687   YX=     3.3587   ZX=    -3.6953
   XY=     3.7668   YY=    31.2362   ZY=    -3.2212
   XZ=    -3.9509   YZ=    -3.4757   ZZ=    28.0600
   Eigenvalues:    24.7779    26.9727    36.8143
     15  H    Isotropic =    29.4857   Anisotropy =    11.7289
   XX=    34.0621   YX=     1.7453   ZX=     4.6770
   XY=     2.5187   YY=    26.6968   ZY=     2.1566
   XZ=     4.7622   YZ=     1.6793   ZZ=    27.6982
   Eigenvalues:    24.8009    26.3511    37.3050
     16  H    Isotropic =    28.8928   Anisotropy =     2.6174
   XX=    27.9409   YX=    -0.3971   ZX=    -1.7711
   XY=    -0.8547   YY=    28.7125   ZY=    -0.4926
   XZ=    -0.7455   YZ=    -0.5188   ZZ=    30.0250
   Eigenvalues:    26.9920    29.0487    30.6378
     17  H    Isotropic =    27.0289   Anisotropy =     3.1735
   XX=    26.8927   YX=     1.5847   ZX=     1.0698
   XY=     0.0075   YY=    27.0707   ZY=    -1.2153
   XZ=     3.0748   YZ=    -1.1544   ZZ=    27.1234
   Eigenvalues:    24.2420    27.7003    29.1446
     18  H    Isotropic =    27.7697   Anisotropy =     8.8485
   XX=    23.5900   YX=    -0.1859   ZX=     1.4748
   XY=     0.3871   YY=    27.9176   ZY=     2.2724
   XZ=     0.8745   YZ=     4.0127   ZZ=    31.8015
   Eigenvalues:    23.3918    26.2486    33.6687
     19  O    Isotropic =   309.3035   Anisotropy =    50.0587
   XX=   318.3667   YX=    20.4945   ZX=   -22.2791
   XY=    28.0680   YY=   298.2975   ZY=    20.1246
   XZ=   -19.4840   YZ=   -11.3662   ZZ=   311.2461
   Eigenvalues:   274.9245   310.3099   342.6759
     20  H    Isotropic =    28.5312   Anisotropy =    18.2774
   XX=    36.3840   YX=     3.9202   ZX=    -4.3481
   XY=     3.2981   YY=    25.6876   ZY=    -7.8056
   XZ=    -5.8326   YZ=    -6.9329   ZZ=    23.5220
   Eigenvalues:    17.0247    27.8528    40.7161
     21  O    Isotropic =   307.4289   Anisotropy =    97.1487
   XX=   295.2659   YX=    26.1590   ZX=    12.9761
   XY=    50.4021   YY=   335.5360   ZY=    18.8760
   XZ=    23.3927   YZ=    36.3912   ZZ=   291.4848
   Eigenvalues:   271.9128   278.1792   372.1947
     22  H    Isotropic =    29.9309   Anisotropy =    22.4880
   XX=    29.8418   YX=    10.1313   ZX=     4.2220
   XY=    10.1799   YY=    32.2042   ZY=     7.2699
   XZ=     4.7015   YZ=     6.0325   ZZ=    27.7468
   Eigenvalues:    20.5152    24.3547    44.9229
     23  C    Isotropic =   135.6617   Anisotropy =    57.1924
   XX=   115.4453   YX=    -7.8298   ZX=     7.4656
   XY=    -8.3436   YY=   128.1439   ZY=   -19.8912
   XZ=     9.2545   YZ=   -18.2617   ZZ=   163.3959
   Eigenvalues:   111.4911   121.7040   173.7899
     24  H    Isotropic =    27.8163   Anisotropy =     7.6468
   XX=    24.9620   YX=    -1.9460   ZX=     1.0562
   XY=    -2.2396   YY=    27.8193   ZY=     2.3165
   XZ=     0.9959   YZ=     4.4227   ZZ=    30.6675
   Eigenvalues:    22.9363    27.5983    32.9141
     25  H    Isotropic =    27.9429   Anisotropy =     6.5669
   XX=    29.7641   YX=    -1.4972   ZX=    -2.7841
   XY=     0.2301   YY=    26.7387   ZY=    -1.5577
   XZ=    -4.3267   YZ=    -1.2534   ZZ=    27.3260
   Eigenvalues:    23.9604    27.5476    32.3209
     26  O    Isotropic =   328.3365   Anisotropy =    48.5029
   XX=   349.8570   YX=     6.3981   ZX=   -22.2151
   XY=    -2.7606   YY=   307.3468   ZY=    16.9387
   XZ=   -15.2890   YZ=    -2.0027   ZZ=   327.8057
   Eigenvalues:   303.3069   321.0309   360.6717
     27  H    Isotropic =    29.1761   Anisotropy =    16.1774
   XX=    37.9199   YX=    -0.2412   ZX=    -4.5092
   XY=    -1.3113   YY=    23.6949   ZY=    -6.9305
   XZ=    -5.7602   YZ=    -5.4746   ZZ=    25.9135
   Eigenvalues:    17.7195    29.8478    39.9611
 End of Minotr Frequency-dependent properties file   721 does not exist.
 End of Minotr Frequency-dependent properties file   722 does not exist.

 **********************************************************************

            Population analysis using the SCF density.

 **********************************************************************

 Orbital symmetries:
       Occupied  (A) (A) (A) (A) (A) (A) (A) (A) (A) (A) (A) (A)
                 (A) (A) (A) (A) (A) (A) (A) (A) (A) (A) (A) (A)
                 (A) (A) (A) (A) (A) (A) (A) (A) (A) (A) (A) (A)
                 (A) (A) (A) (A) (A) (A) (A) (A) (A) (A) (A)
       Virtual   (A) (A) (A) (A) (A) (A) (A) (A) (A) (A) (A) (A)
                 (A) (A) (A) (A) (A) (A) (A) (A) (A) (A) (A) (A)
                 (A) (A) (A) (A) (A) (A) (A) (A) (A) (A) (A) (A)
                 (A) (A) (A) (A) (A) (A) (A) (A) (A) (A) (A) (A)
                 (A) (A) (A) (A) (A) (A) (A) (A) (A) (A) (A) (A)
                 (A) (A) (A) (A) (A) (A) (A) (A) (A) (A) (A) (A)
                 (A) (A) (A) (A) (A) (A) (A) (A) (A) (A) (A) (A)
                 (A) (A) (A) (A) (A) (A) (A) (A) (A) (A) (A) (A)
                 (A) (A) (A) (A) (A) (A) (A) (A) (A) (A) (A) (A)
                 (A) (A) (A) (A) (A) (A) (A) (A) (A) (A) (A) (A)
                 (A) (A) (A) (A) (A) (A) (A) (A) (A) (A) (A) (A)
                 (A) (A) (A) (A) (A) (A) (A) (A) (A) (A) (A) (A)
                 (A) (A) (A) (A) (A) (A) (A) (A) (A) (A) (A) (A)
                 (A) (A) (A) (A) (A) (A) (A) (A) (A) (A) (A) (A)
                 (A) (A) (A) (A) (A) (A) (A) (A) (A) (A) (A) (A)
                 (A) (A) (A) (A) (A) (A) (A) (A) (A) (A) (A) (A)
                 (A) (A) (A) (A) (A) (A) (A) (A) (A) (A) (A) (A)
                 (A) (A) (A) (A) (A) (A) (A) (A) (A) (A) (A) (A)
                 (A) (A) (A) (A) (A) (A) (A) (A) (A) (A) (A) (A)
                 (A) (A) (A) (A) (A) (A) (A) (A) (A) (A) (A) (A)
                 (A) (A) (A) (A) (A) (A) (A) (A) (A) (A) (A) (A)
                 (A) (A) (A) (A)
 The electronic state is 1-A.
 Alpha  occ. eigenvalues --  -19.27176 -19.25120 -19.24926 -14.41573 -10.30822
 Alpha  occ. eigenvalues --  -10.30148 -10.29228 -10.28097 -10.27936 -10.26960
 Alpha  occ. eigenvalues --  -10.24629 -10.24382  -1.08349  -1.05298  -1.04919
 Alpha  occ. eigenvalues --   -0.96474  -0.82970  -0.79302  -0.75121  -0.71460
 Alpha  occ. eigenvalues --   -0.66978  -0.61092  -0.60589  -0.57340  -0.55526
 Alpha  occ. eigenvalues --   -0.53578  -0.52717  -0.50096  -0.49063  -0.47605
 Alpha  occ. eigenvalues --   -0.46114  -0.44972  -0.43366  -0.41981  -0.40467
 Alpha  occ. eigenvalues --   -0.39713  -0.38195  -0.37696  -0.36143  -0.35619
 Alpha  occ. eigenvalues --   -0.35296  -0.34116  -0.33344  -0.31056  -0.29759
 Alpha  occ. eigenvalues --   -0.28997  -0.23571
 Alpha virt. eigenvalues --    0.00254   0.01492   0.01890   0.02394   0.03918
 Alpha virt. eigenvalues --    0.04315   0.04764   0.05028   0.05659   0.07063
 Alpha virt. eigenvalues --    0.07556   0.08149   0.09025   0.09290   0.09515
 Alpha virt. eigenvalues --    0.09966   0.11343   0.11937   0.12142   0.13232
 Alpha virt. eigenvalues --    0.13597   0.14147   0.14842   0.15054   0.15784
 Alpha virt. eigenvalues --    0.16270   0.16597   0.16862   0.17733   0.18316
 Alpha virt. eigenvalues --    0.18957   0.19522   0.19753   0.20632   0.20676
 Alpha virt. eigenvalues --    0.21678   0.21978   0.22211   0.22793   0.23241
 Alpha virt. eigenvalues --    0.23448   0.24319   0.24644   0.25594   0.26217
 Alpha virt. eigenvalues --    0.26586   0.26618   0.28041   0.28374   0.29069
 Alpha virt. eigenvalues --    0.30360   0.30520   0.30666   0.31462   0.31684
 Alpha virt. eigenvalues --    0.32936   0.33376   0.33858   0.33942   0.34148
 Alpha virt. eigenvalues --    0.35442   0.36211   0.36372   0.36867   0.38654
 Alpha virt. eigenvalues --    0.38749   0.40124   0.40510   0.40653   0.41232
 Alpha virt. eigenvalues --    0.42346   0.42955   0.44466   0.47334   0.47558
 Alpha virt. eigenvalues --    0.49115   0.65141   0.65228   0.67377   0.68651
 Alpha virt. eigenvalues --    0.69629   0.70970   0.71259   0.72945   0.74266
 Alpha virt. eigenvalues --    0.75662   0.76515   0.78832   0.79852   0.81496
 Alpha virt. eigenvalues --    0.81961   0.82969   0.86632   0.86721   0.88303
 Alpha virt. eigenvalues --    0.90939   0.92446   0.93922   0.94903   0.96582
 Alpha virt. eigenvalues --    0.98869   1.00338   1.02026   1.03283   1.05078
 Alpha virt. eigenvalues --    1.05480   1.07530   1.08748   1.09489   1.10550
 Alpha virt. eigenvalues --    1.12593   1.12873   1.13821   1.14336   1.16482
 Alpha virt. eigenvalues --    1.17083   1.18813   1.21541   1.22718   1.24413
 Alpha virt. eigenvalues --    1.26875   1.28585   1.29817   1.30707   1.32566
 Alpha virt. eigenvalues --    1.33728   1.36522   1.38084   1.40030   1.41508
 Alpha virt. eigenvalues --    1.43107   1.45333   1.46724   1.48903   1.49398
 Alpha virt. eigenvalues --    1.54230   1.57154   1.58628   1.59354   1.60832
 Alpha virt. eigenvalues --    1.61940   1.64845   1.66360   1.67369   1.69964
 Alpha virt. eigenvalues --    1.71290   1.74475   1.76056   1.77993   1.81008
 Alpha virt. eigenvalues --    1.82031   1.82842   1.84082   1.87006   1.88447
 Alpha virt. eigenvalues --    1.89218   1.90235   1.93256   1.95103   1.95914
 Alpha virt. eigenvalues --    1.98369   2.00124   2.02530   2.04325   2.05238
 Alpha virt. eigenvalues --    2.05693   2.06688   2.10023   2.10800   2.11943
 Alpha virt. eigenvalues --    2.13984   2.14536   2.16462   2.16692   2.18418
 Alpha virt. eigenvalues --    2.18873   2.21935   2.24496   2.25081   2.27530
 Alpha virt. eigenvalues --    2.29587   2.31194   2.35443   2.37958   2.39107
 Alpha virt. eigenvalues --    2.41789   2.42721   2.45379   2.47829   2.48350
 Alpha virt. eigenvalues --    2.49033   2.51032   2.51771   2.53652   2.54753
 Alpha virt. eigenvalues --    2.58561   2.58790   2.60562   2.61882   2.63538
 Alpha virt. eigenvalues --    2.64748   2.66464   2.68635   2.68693   2.69589
 Alpha virt. eigenvalues --    2.71293   2.72768   2.74428   2.76613   2.77527
 Alpha virt. eigenvalues --    2.78648   2.81437   2.83534   2.85418   2.85788
 Alpha virt. eigenvalues --    2.86569   2.89492   2.90586   2.92193   2.96667
 Alpha virt. eigenvalues --    2.96993   3.00559   3.01271   3.01722   3.03325
 Alpha virt. eigenvalues --    3.06958   3.10249   3.12580   3.14847   3.32259
 Alpha virt. eigenvalues --    3.35152   3.36391   3.37231   3.43931   3.45096
 Alpha virt. eigenvalues --    3.48300   3.49937   3.51445   3.53119   3.56265
 Alpha virt. eigenvalues --    3.56714   3.58476   3.60634   3.63086   4.27944
 Alpha virt. eigenvalues --    4.31684   4.38901   4.48155   4.50481   4.51721
 Alpha virt. eigenvalues --    4.60627   4.73920   4.79016   4.79745   4.88806
 Alpha virt. eigenvalues --    5.01967
          Condensed to atoms (all electrons):
              1          2          3          4          5          6
     1  C    5.939713  -0.534660   0.047727  -0.232978   0.208553   0.112561
     2  C   -0.534660   9.112037  -0.160803  -0.158196   0.044910  -1.274861
     3  N    0.047727  -0.160803   7.639623   0.219379  -0.151644  -0.649504
     4  C   -0.232978  -0.158196   0.219379   5.580352   0.204867  -0.151530
     5  C    0.208553   0.044910  -0.151644   0.204867   5.477580   0.051853
     6  C    0.112561  -1.274861  -0.649504  -0.151530   0.051853  11.095774
     7  C   -0.053167   0.659257   0.085078  -0.096176  -0.102153  -2.279935
     8  C    0.077143  -1.345899  -0.168853   0.135332  -0.014095   1.190942
     9  H    0.361880  -0.045460   0.012033   0.021153  -0.021661   0.007084
    10  H    0.510646  -0.218339   0.029098   0.013180  -0.065889   0.016639
    11  H    0.054806   0.119001  -0.013560   0.007477  -0.015186   0.073854
    12  H    0.030000   0.004887  -0.054365   0.375638  -0.026172   0.005398
    13  H    0.010962  -0.002655  -0.079003   0.443357  -0.044204  -0.025971
    14  H   -0.020478  -0.051291   0.017140  -0.038183   0.403320   0.006815
    15  H   -0.070672   0.049497   0.003591  -0.022291   0.382705  -0.002999
    16  H    0.004425   0.044837  -0.013820   0.032558  -0.004196   0.071961
    17  H    0.010298  -0.014963   0.060805   0.011637   0.002039  -0.176971
    18  H    0.002164  -0.102243   0.022094  -0.001246   0.002604   0.021033
    19  O    0.069905  -0.341872   0.049716   0.001338  -0.016524  -0.014204
    20  H   -0.011052   0.063846   0.001858  -0.001126   0.004896  -0.026353
    21  O   -0.004480   0.063292   0.021218   0.003187   0.006293  -0.098872
    22  H   -0.000013   0.008976  -0.002465  -0.000594  -0.000254   0.021775
    23  C   -0.009346  -0.011920   0.248799  -0.083384  -0.011436  -1.691631
    24  H    0.001583  -0.006858  -0.015895   0.015457   0.005319  -0.018511
    25  H    0.000338   0.014996   0.019026  -0.003909  -0.001451  -0.246788
    26  O    0.004818   0.000716   0.046249  -0.000955  -0.001274  -0.223087
    27  H    0.001257   0.021022   0.048960   0.006456  -0.006355  -0.107195
              7          8          9         10         11         12
     1  C   -0.053167   0.077143   0.361880   0.510646   0.054806   0.030000
     2  C    0.659257  -1.345899  -0.045460  -0.218339   0.119001   0.004887
     3  N    0.085078  -0.168853   0.012033   0.029098  -0.013560  -0.054365
     4  C   -0.096176   0.135332   0.021153   0.013180   0.007477   0.375638
     5  C   -0.102153  -0.014095  -0.021661  -0.065889  -0.015186  -0.026172
     6  C   -2.279935   1.190942   0.007084   0.016639   0.073854   0.005398
     7  C    8.040102  -1.112128  -0.002347  -0.015353  -0.072099  -0.001261
     8  C   -1.112128   6.826238   0.006223   0.055680   0.109520  -0.005711
     9  H   -0.002347   0.006223   0.520182  -0.024594  -0.004595  -0.000102
    10  H   -0.015353   0.055680  -0.024594   0.506723   0.003920  -0.000046
    11  H   -0.072099   0.109520  -0.004595   0.003920   0.559933   0.000188
    12  H   -0.001261  -0.005711  -0.000102  -0.000046   0.000188   0.542302
    13  H    0.019254  -0.002837  -0.000143   0.001001  -0.000483  -0.041967
    14  H   -0.002847   0.013995  -0.005090   0.004040   0.000809  -0.006082
    15  H    0.001658  -0.000974   0.000491  -0.005370  -0.000111   0.000712
    16  H    0.130892  -0.056671  -0.000010  -0.000193  -0.000604  -0.001001
    17  H    0.374315  -0.016818   0.000003  -0.000013   0.000311   0.000008
    18  H    0.015185   0.347863   0.000358   0.000073  -0.001571   0.000005
    19  O   -0.019583   0.291686   0.000273   0.000519   0.006508   0.000102
    20  H   -0.057803  -0.003544   0.000001   0.000053  -0.000226  -0.000001
    21  O    0.157801  -0.098222   0.000019  -0.000234  -0.000401   0.000026
    22  H    0.026951  -0.045758   0.000000   0.000000  -0.000008   0.000000
    23  C    0.488204  -0.268550   0.001001  -0.000984   0.001871   0.008588
    24  H   -0.007425  -0.006213   0.000000   0.000001   0.000010   0.000111
    25  H    0.055141  -0.017609   0.000000   0.000000  -0.000005  -0.000012
    26  O    0.047109  -0.028043   0.000000   0.000014   0.001219   0.001234
    27  H    0.005515  -0.012080  -0.000001  -0.000001  -0.000528  -0.000379
             13         14         15         16         17         18
     1  C    0.010962  -0.020478  -0.070672   0.004425   0.010298   0.002164
     2  C   -0.002655  -0.051291   0.049497   0.044837  -0.014963  -0.102243
     3  N   -0.079003   0.017140   0.003591  -0.013820   0.060805   0.022094
     4  C    0.443357  -0.038183  -0.022291   0.032558   0.011637  -0.001246
     5  C   -0.044204   0.403320   0.382705  -0.004196   0.002039   0.002604
     6  C   -0.025971   0.006815  -0.002999   0.071961  -0.176971   0.021033
     7  C    0.019254  -0.002847   0.001658   0.130892   0.374315   0.015185
     8  C   -0.002837   0.013995  -0.000974  -0.056671  -0.016818   0.347863
     9  H   -0.000143  -0.005090   0.000491  -0.000010   0.000003   0.000358
    10  H    0.001001   0.004040  -0.005370  -0.000193  -0.000013   0.000073
    11  H   -0.000483   0.000809  -0.000111  -0.000604   0.000311  -0.001571
    12  H   -0.041967  -0.006082   0.000712  -0.001001   0.000008   0.000005
    13  H    0.573206   0.003987  -0.004517   0.012911  -0.000013  -0.000011
    14  H    0.003987   0.521984  -0.024743  -0.000009  -0.000002   0.000000
    15  H   -0.004517  -0.024743   0.515827  -0.000017   0.000000   0.000002
    16  H    0.012911  -0.000009  -0.000017   0.590897   0.004617  -0.000188
    17  H   -0.000013  -0.000002   0.000000   0.004617   0.543123  -0.002808
    18  H   -0.000011   0.000000   0.000002  -0.000188  -0.002808   0.573311
    19  O    0.000360   0.000020   0.000129   0.007908   0.007281  -0.045082
    20  H    0.000051   0.000001  -0.000001   0.001315   0.001048  -0.000305
    21  O   -0.000144  -0.000009  -0.000010   0.008804  -0.021904  -0.006707
    22  H    0.000001   0.000000   0.000000   0.000122  -0.007881   0.001816
    23  C   -0.015278  -0.001090   0.000822  -0.004338   0.025589   0.013163
    24  H    0.000138   0.000004   0.000000  -0.001608   0.000169   0.000003
    25  H    0.000010   0.000000   0.000000   0.001943   0.000415  -0.000003
    26  O   -0.000270   0.000033  -0.000008   0.009985   0.012137   0.000234
    27  H    0.000111   0.000001  -0.000001   0.000639  -0.000109  -0.000015
             19         20         21         22         23         24
     1  C    0.069905  -0.011052  -0.004480  -0.000013  -0.009346   0.001583
     2  C   -0.341872   0.063846   0.063292   0.008976  -0.011920  -0.006858
     3  N    0.049716   0.001858   0.021218  -0.002465   0.248799  -0.015895
     4  C    0.001338  -0.001126   0.003187  -0.000594  -0.083384   0.015457
     5  C   -0.016524   0.004896   0.006293  -0.000254  -0.011436   0.005319
     6  C   -0.014204  -0.026353  -0.098872   0.021775  -1.691631  -0.018511
     7  C   -0.019583  -0.057803   0.157801   0.026951   0.488204  -0.007425
     8  C    0.291686  -0.003544  -0.098222  -0.045758  -0.268550  -0.006213
     9  H    0.000273   0.000001   0.000019   0.000000   0.001001   0.000000
    10  H    0.000519   0.000053  -0.000234   0.000000  -0.000984   0.000001
    11  H    0.006508  -0.000226  -0.000401  -0.000008   0.001871   0.000010
    12  H    0.000102  -0.000001   0.000026   0.000000   0.008588   0.000111
    13  H    0.000360   0.000051  -0.000144   0.000001  -0.015278   0.000138
    14  H    0.000020   0.000001  -0.000009   0.000000  -0.001090   0.000004
    15  H    0.000129  -0.000001  -0.000010   0.000000   0.000822   0.000000
    16  H    0.007908   0.001315   0.008804   0.000122  -0.004338  -0.001608
    17  H    0.007281   0.001048  -0.021904  -0.007881   0.025589   0.000169
    18  H   -0.045082  -0.000305  -0.006707   0.001816   0.013163   0.000003
    19  O    8.305559   0.237534  -0.023579   0.002196   0.052843   0.000233
    20  H    0.237534   0.359570   0.038023  -0.002341   0.003101  -0.000001
    21  O   -0.023579   0.038023   8.305446   0.243327   0.002222  -0.000740
    22  H    0.002196  -0.002341   0.243327   0.354570  -0.003932   0.000008
    23  C    0.052843   0.003101   0.002222  -0.003932   6.364879   0.388200
    24  H    0.000233  -0.000001  -0.000740   0.000008   0.388200   0.585311
    25  H   -0.000038   0.000004   0.008363  -0.000183   0.549722  -0.039014
    26  O    0.001183   0.000041   0.000900   0.000376   0.254736  -0.049271
    27  H    0.000003   0.000000   0.000422  -0.000002   0.044284  -0.004114
             25         26         27
     1  C    0.000338   0.004818   0.001257
     2  C    0.014996   0.000716   0.021022
     3  N    0.019026   0.046249   0.048960
     4  C   -0.003909  -0.000955   0.006456
     5  C   -0.001451  -0.001274  -0.006355
     6  C   -0.246788  -0.223087  -0.107195
     7  C    0.055141   0.047109   0.005515
     8  C   -0.017609  -0.028043  -0.012080
     9  H    0.000000   0.000000  -0.000001
    10  H    0.000000   0.000014  -0.000001
    11  H   -0.000005   0.001219  -0.000528
    12  H   -0.000012   0.001234  -0.000379
    13  H    0.000010  -0.000270   0.000111
    14  H    0.000000   0.000033   0.000001
    15  H    0.000000  -0.000008  -0.000001
    16  H    0.001943   0.009985   0.000639
    17  H    0.000415   0.012137  -0.000109
    18  H   -0.000003   0.000234  -0.000015
    19  O   -0.000038   0.001183   0.000003
    20  H    0.000004   0.000041   0.000000
    21  O    0.008363   0.000900   0.000422
    22  H   -0.000183   0.000376  -0.000002
    23  C    0.549722   0.254736   0.044284
    24  H   -0.039014  -0.049271  -0.004114
    25  H    0.540369  -0.052917   0.006307
    26  O   -0.052917   8.286373   0.250498
    27  H    0.006307   0.250498   0.358307
 Mulliken atomic charges:
              1
     1  C   -0.511934
     2  C    0.062744
     3  N   -0.262481
     4  C   -0.280799
     5  C   -0.312444
     6  C    0.312726
     7  C   -0.284185
     8  C    0.149382
     9  H    0.173301
    10  H    0.189432
    11  H    0.169949
    12  H    0.167899
    13  H    0.152145
    14  H    0.177678
    15  H    0.176280
    16  H    0.158842
    17  H    0.187687
    18  H    0.160272
    19  O   -0.574412
    20  H    0.391410
    21  O   -0.604040
    22  H    0.403314
    23  C   -0.346134
    24  H    0.153103
    25  H    0.165297
    26  O   -0.562030
    27  H    0.386999
 Sum of Mulliken atomic charges =   0.00000
 Mulliken charges with hydrogens summed into heavy atoms:
              1
     1  C   -0.149202
     2  C    0.232693
     3  N   -0.262481
     4  C    0.039245
     5  C    0.041514
     6  C    0.471569
     7  C   -0.096498
     8  C    0.309654
    19  O   -0.183003
    21  O   -0.200726
    23  C   -0.027734
    26  O   -0.175031
 Sum of Mulliken charges with hydrogens summed into heavy atoms =   0.00000
 Electronic spatial extent (au):  <R**2>=           2010.3255
 Charge=              0.0000 electrons
 Dipole moment (field-independent basis, Debye):
    X=             -1.1359    Y=              1.5158    Z=              0.9247  Tot=              2.1078
 Quadrupole moment (field-independent basis, Debye-Ang):
   XX=            -75.6186   YY=            -74.5564   ZZ=            -71.3526
   XY=             13.3316   XZ=             -1.4498   YZ=              7.8199
 Traceless Quadrupole moment (field-independent basis, Debye-Ang):
   XX=             -1.7761   YY=             -0.7139   ZZ=              2.4899
   XY=             13.3316   XZ=             -1.4498   YZ=              7.8199
 Octapole moment (field-independent basis, Debye-Ang**2):
  XXX=             -5.7302  YYY=             21.8971  ZZZ=              2.8751  XYY=             11.3652
  XXY=             25.2356  XXZ=             -1.0291  XZZ=              0.7313  YZZ=              3.8082
  YYZ=              1.3947  XYZ=             11.5546
 Hexadecapole moment (field-independent basis, Debye-Ang**3):
 XXXX=          -1366.6741 YYYY=           -937.1507 ZZZZ=           -273.1295 XXXY=             80.1318
 XXXZ=             -2.3241 YYYX=            109.3713 YYYZ=              9.1641 ZZZX=              1.2539
 ZZZY=            -12.2884 XXYY=           -397.6865 XXZZ=           -277.9004 YYZZ=           -194.7561
 XXYZ=             42.5619 YYXZ=            -10.2790 ZZXY=              6.2984
 N-N= 8.107300159675D+02 E-N=-3.007342903724D+03  KE= 5.886645574416D+02
 1\1\GINC-COMPUTE-3-1\SP\RmPW1PW91\6-31+G(d,p)\C8H15N1O3\MAMICHETTI.IQU
 IR\17-May-2024\0\\# mpw1pw91/6-31+G** nmr scrf=(pcm,solvent=water)\\co
 mment\\0,1\C,0,-2.477406,0.434587,0.322164\C,0,-1.033842,0.357607,0.84
 4873\N,0,-0.404991,-0.823801,0.149343\C,0,-1.407824,-1.419048,-0.75681
 4\C,0,-2.75313,-1.001189,-0.15521\C,0,0.850966,-0.390547,-0.482777\C,0
 ,1.252596,0.840725,0.33904\C,0,-0.095484,1.545056,0.586595\H,0,-3.1784
 33,0.777108,1.08922\H,0,-2.535752,1.124312,-0.524909\H,0,-1.03936,0.16
 8112,1.925777\H,0,-1.29224,-2.507025,-0.819403\H,0,-1.304529,-1.016658
 ,-1.778731\H,0,-3.006303,-1.647191,0.694184\H,0,-3.569389,-1.063877,-0
 .881556\H,0,0.690571,-0.065049,-1.525319\H,0,1.696615,0.532254,1.29234
 6\H,0,-0.057854,2.230531,1.444039\O,0,-0.463027,2.262818,-0.593472\H,0
 ,0.384624,2.580841,-0.961295\O,0,2.167092,1.644215,-0.406659\H,0,2.580
 52,2.27083,0.211538\C,0,1.891647,-1.509639,-0.496209\H,0,1.572845,-2.2
 97347,-1.19556\H,0,2.853264,-1.120724,-0.847016\O,0,2.104673,-2.054349
 ,0.80676\H,0,1.205309,-2.166297,1.168277\\Version=AM64L-G09RevC.01\Sta
 te=1-A\HF=-594.2037877\RMSD=4.979e-09\Dipole=-0.4469037,0.5963553,0.36
 37975\Quadrupole=-1.3204574,-0.5307585,1.8512159,9.9117066,-1.0778741,
 5.8138825\PG=C01 [X(C8H15N1O3)]\\@


 YOU CANNOT THROW TO THE GROUND THE LETTERS OF
 THE GREEK ALPHABET AND PICK UP THE ILIAD.
        - RUFUS CHOATE, 1799-1859
 Job cpu time:  0 days  0 hours  8 minutes 38.9 seconds.
 File lengths (MBytes):  RWF=    115 Int=      0 D2E=      0 Chk=      7 Scr=      1
 Normal termination of Gaussian 09 at Fri May 17 12:24:35 2024.
