 Entering Gaussian System, Link 0=g09
 Input=/home/mamichetti.iquir/Linux/01_Cardona_A1A3_R__S_R_R_028_OptB.gjc
 Output=/home/mamichetti.iquir/Linux/01_Cardona_A1A3_R__S_R_R_028_OptB.log
 Initial command:
 /opt/ohpc/pub/apps/software/Gaussian/09/AMD64.SSE4a-enabled/g09/l1.exe /local/mamichetti.iquir/Gau-405445.inp -scrdir=/local/mamichetti.iquir/
 Entering Link 1 = /opt/ohpc/pub/apps/software/Gaussian/09/AMD64.SSE4a-enabled/g09/l1.exe PID=    405446.
  
 Copyright (c) 1988,1990,1992,1993,1995,1998,2003,2009,2011,
            Gaussian, Inc.  All Rights Reserved.
  
 This is part of the Gaussian(R) 09 program.  It is based on
 the Gaussian(R) 03 system (copyright 2003, Gaussian, Inc.),
 the Gaussian(R) 98 system (copyright 1998, Gaussian, Inc.),
 the Gaussian(R) 94 system (copyright 1995, Gaussian, Inc.),
 the Gaussian 92(TM) system (copyright 1992, Gaussian, Inc.),
 the Gaussian 90(TM) system (copyright 1990, Gaussian, Inc.),
 the Gaussian 88(TM) system (copyright 1988, Gaussian, Inc.),
 the Gaussian 86(TM) system (copyright 1986, Carnegie Mellon
 University), and the Gaussian 82(TM) system (copyright 1983,
 Carnegie Mellon University). Gaussian is a federally registered
 trademark of Gaussian, Inc.
  
 This software contains proprietary and confidential information,
 including trade secrets, belonging to Gaussian, Inc.
  
 This software is provided under written license and may be
 used, copied, transmitted, or stored only in accord with that
 written license.
  
 The following legend is applicable only to US Government
 contracts under FAR:
  
                    RESTRICTED RIGHTS LEGEND
  
 Use, reproduction and disclosure by the US Government is
 subject to restrictions as set forth in subparagraphs (a)
 and (c) of the Commercial Computer Software - Restricted
 Rights clause in FAR 52.227-19.
  
 Gaussian, Inc.
 340 Quinnipiac St., Bldg. 40, Wallingford CT 06492
  
  
 ---------------------------------------------------------------
 Warning -- This program may not be used in any manner that
 competes with the business of Gaussian, Inc. or will provide
 assistance to any competitor of Gaussian, Inc.  The licensee
 of this program is prohibited from giving any competitor of
 Gaussian, Inc. access to this program.  By using this program,
 the user acknowledges that Gaussian, Inc. is engaged in the
 business of creating and licensing software in the field of
 computational chemistry and represents and warrants to the
 licensee that it is not a competitor of Gaussian, Inc. and that
 it will not use this program in any manner prohibited above.
 ---------------------------------------------------------------
  

 Cite this work as:
 Gaussian 09, Revision C.01,
 M. J. Frisch, G. W. Trucks, H. B. Schlegel, G. E. Scuseria, 
 M. A. Robb, J. R. Cheeseman, G. Scalmani, V. Barone, B. Mennucci, 
 G. A. Petersson, H. Nakatsuji, M. Caricato, X. Li, H. P. Hratchian, 
 A. F. Izmaylov, J. Bloino, G. Zheng, J. L. Sonnenberg, M. Hada, 
 M. Ehara, K. Toyota, R. Fukuda, J. Hasegawa, M. Ishida, T. Nakajima, 
 Y. Honda, O. Kitao, H. Nakai, T. Vreven, J. A. Montgomery, Jr., 
 J. E. Peralta, F. Ogliaro, M. Bearpark, J. J. Heyd, E. Brothers, 
 K. N. Kudin, V. N. Staroverov, T. Keith, R. Kobayashi, J. Normand, 
 K. Raghavachari, A. Rendell, J. C. Burant, S. S. Iyengar, J. Tomasi, 
 M. Cossi, N. Rega, J. M. Millam, M. Klene, J. E. Knox, J. B. Cross, 
 V. Bakken, C. Adamo, J. Jaramillo, R. Gomperts, R. E. Stratmann, 
 O. Yazyev, A. J. Austin, R. Cammi, C. Pomelli, J. W. Ochterski, 
 R. L. Martin, K. Morokuma, V. G. Zakrzewski, G. A. Voth, 
 P. Salvador, J. J. Dannenberg, S. Dapprich, A. D. Daniels, 
 O. Farkas, J. B. Foresman, J. V. Ortiz, J. Cioslowski, 
 and D. J. Fox, Gaussian, Inc., Wallingford CT, 2010.
 
 ******************************************
 Gaussian 09:  AM64L-G09RevC.01 23-Sep-2011
                17-May-2024 
 ******************************************
 %nprocshared=4
 Will use up to    4 processors via shared memory.
 ------------------------------------------------
 # mpw1pw91/6-31+G** nmr scrf=(pcm,solvent=water)
 ------------------------------------------------
 1/38=1/1;
 2/12=2,17=6,18=5,40=1/2;
 3/5=1,6=6,7=111,11=2,16=1,25=1,30=1,70=2201,72=1,74=-7/1,2,8,3;
 4//1;
 5/5=2,38=5,53=1/2;
 8/6=1,10=90,11=11/1;
 10/13=100,45=16/2;
 6/7=2,8=2,9=2,10=2,28=1/1;
 99/9=1/99;
 -------
 comment
 -------
 Charge =  0 Multiplicity = 1
 Symbolic Z-Matrix:
 6                    -1.71279   1.40143  -0.25607 
 6                    -0.75347   0.42865  -1.00773 
 7                     0.63027   0.69288  -0.50705 
 6                     0.58051   2.04129   0.09493 
 6                    -0.81094   2.17069   0.73088 
 6                     1.00738  -0.3973    0.44655 
 6                    -0.17538  -1.36838   0.52711 
 6                    -0.94983  -1.08323  -0.76772 
 1                    -2.17212   2.08774  -0.97533 
 1                    -2.5235    0.86756   0.24548 
 1                    -0.80041   0.63579  -2.08201 
 1                     0.70084   2.78472  -0.70388 
 1                     1.40988   2.17322   0.79522 
 1                    -1.11908   3.21243   0.86681 
 1                    -0.81783   1.6858    1.71263 
 1                     1.20754   0.01817   1.44075 
 1                     0.15388  -2.41546   0.57624 
 1                    -0.46933  -1.63326  -1.58768 
 8                    -2.29439  -1.52601  -0.61058 
 1                    -2.80321  -1.22957  -1.3839 
 8                    -0.97309  -1.06575   1.67712 
 1                    -1.87862  -1.34627   1.45174 
 6                     2.28657  -1.0746   -0.05654 
 1                     2.68062  -1.76112   0.69976 
 1                     2.07379  -1.65705  -0.96676 
 8                     3.30087  -0.10271  -0.31108 
 1                     2.84612   0.57171  -0.85184 
 
                          Input orientation:                          
 ---------------------------------------------------------------------
 Center     Atomic      Atomic             Coordinates (Angstroms)
 Number     Number       Type             X           Y           Z
 ---------------------------------------------------------------------
      1          6           0       -1.712785    1.401427   -0.256065
      2          6           0       -0.753466    0.428645   -1.007727
      3          7           0        0.630272    0.692884   -0.507049
      4          6           0        0.580505    2.041285    0.094925
      5          6           0       -0.810937    2.170688    0.730880
      6          6           0        1.007385   -0.397298    0.446547
      7          6           0       -0.175380   -1.368384    0.527113
      8          6           0       -0.949825   -1.083235   -0.767717
      9          1           0       -2.172124    2.087744   -0.975326
     10          1           0       -2.523499    0.867562    0.245475
     11          1           0       -0.800408    0.635785   -2.082012
     12          1           0        0.700840    2.784716   -0.703877
     13          1           0        1.409884    2.173218    0.795223
     14          1           0       -1.119082    3.212432    0.866810
     15          1           0       -0.817831    1.685796    1.712634
     16          1           0        1.207543    0.018166    1.440749
     17          1           0        0.153875   -2.415455    0.576241
     18          1           0       -0.469327   -1.633258   -1.587684
     19          8           0       -2.294394   -1.526008   -0.610580
     20          1           0       -2.803209   -1.229565   -1.383896
     21          8           0       -0.973088   -1.065753    1.677116
     22          1           0       -1.878618   -1.346268    1.451740
     23          6           0        2.286566   -1.074599   -0.056544
     24          1           0        2.680622   -1.761122    0.699764
     25          1           0        2.073789   -1.657047   -0.966755
     26          8           0        3.300874   -0.102711   -0.311083
     27          1           0        2.846122    0.571713   -0.851842
 ---------------------------------------------------------------------
                    Distance matrix (angstroms):
                    1          2          3          4          5
     1  C    0.000000
     2  C    1.559357   0.000000
     3  N    2.460679   1.495069   0.000000
     4  C    2.406614   2.365571   1.477510   0.000000
     5  C    1.542450   2.461863   2.406960   1.535348   0.000000
     6  C    3.335926   2.428516   1.496682   2.500510   3.159382
     7  C    3.263255   2.432947   2.442825   3.519090   3.601456
     8  C    2.649045   1.543354   2.391496   3.584506   3.585122
     9  H    1.095153   2.183174   3.165176   2.953737   2.184227
    10  H    1.092617   2.212731   3.247010   3.321917   2.206043
    11  H    2.180074   1.095079   2.128524   2.936223   3.204434
    12  H    2.817731   2.785391   2.102256   1.097841   2.172793
    13  H    3.384070   3.312740   2.120164   1.093478   2.221754
    14  H    2.212029   3.375949   3.360930   2.203631   1.094834
    15  H    2.181189   2.997488   2.830171   2.167648   1.094993
    16  H    3.649781   3.163714   2.140655   2.509468   3.035050
    17  H    4.329635   3.379516   3.325995   4.502911   4.689081
    18  H    3.539592   2.160678   2.790668   4.175594   4.467935
    19  O    3.005632   2.520487   3.672584   4.635554   4.203061
    20  H    3.063192   2.663195   4.031558   4.933041   4.472488
    21  O    3.220453   3.080559   3.230193   3.817154   3.375827
    22  H    3.239433   3.235006   3.780149   4.400426   3.745472
    23  C    4.708006   3.522256   2.463790   3.555604   4.554827
    24  H    5.497031   4.416284   3.417964   4.385729   5.258430
    25  H    4.919094   3.513568   2.795934   4.127314   5.084797
    26  O    5.234714   4.147930   2.793473   3.487401   4.812590
    27  H    4.671938   3.605801   2.245786   2.861648   4.293694
                    6          7          8          9         10
     6  C    0.000000
     7  C    1.532459   0.000000
     8  C    2.403251   1.535467   0.000000
     9  H    4.278602   4.264872   3.404736   0.000000
    10  H    3.755988   3.254602   2.703445   1.761438   0.000000
    11  H    3.275513   3.348863   2.169038   2.283538   2.905161
    12  H    3.397449   4.419427   4.205926   2.968733   3.869510
    13  H    2.625097   3.889459   4.314568   3.996615   4.180725
    14  H    4.210538   4.689333   4.599248   2.401517   2.803009
    15  H    3.045270   3.338595   3.719825   3.036577   2.394027
    16  H    1.095952   2.160955   3.277902   4.641414   4.008844
    17  H    2.195053   1.098717   2.190705   5.300607   4.249228
    18  H    2.801137   2.151495   1.098066   4.137675   3.719435
    19  O    3.645991   2.410272   1.424291   3.634170   2.552351
    20  H    4.308575   3.252186   1.958602   3.401432   2.670399
    21  O    2.425573   1.431932   2.445006   4.291582   2.862006
    22  H    3.199995   1.938155   2.420296   4.215357   2.602305
    23  C    1.532365   2.547183   3.313619   5.542968   5.196146
    24  H    2.173444   2.888044   3.974063   6.416295   5.848011
    25  H    2.172926   2.715461   3.084010   5.661388   5.383141
    26  O    2.433285   3.793263   4.386158   5.932370   5.930810
    27  H    2.450663   3.846423   4.141877   5.243700   5.488575
                   11         12         13         14         15
    11  H    0.000000
    12  H    2.961572   0.000000
    13  H    3.940504   1.767477   0.000000
    14  H    3.928895   2.441744   2.735098   0.000000
    15  H    3.937279   3.058351   2.458035   1.771098   0.000000
    16  H    4.101605   3.536943   2.258737   3.993235   2.637622
    17  H    4.157768   5.383275   4.762503   5.777366   4.365302
    18  H    2.345747   4.654987   4.868156   5.470597   4.693578
    19  O    3.011720   5.249997   5.420538   5.100672   4.230041
    20  H    2.824555   5.371707   5.837606   5.256738   4.693565
    21  O    4.129902   4.826725   4.116701   4.356693   2.756155
    22  H    4.192669   5.325910   4.861280   4.658410   3.222848
    23  C    4.069071   4.222307   3.470215   5.552446   4.515202
    24  H    5.059744   5.153095   4.135568   6.261142   5.014611
    25  H    3.842120   4.656539   4.268052   6.104770   5.168674
    26  O    4.527922   3.905342   3.159052   5.649214   4.925233
    27  H    3.848974   3.085695   2.709321   5.064583   4.608934
                   16         17         18         19         20
    16  H    0.000000
    17  H    2.789283   0.000000
    18  H    3.835427   2.383859   0.000000
    19  O    4.342348   2.862461   2.072946   0.000000
    20  H    5.061777   3.740698   2.377289   0.972002   0.000000
    21  O    2.446610   2.074528   3.351829   2.681648   3.570150
    22  H    3.374343   2.457781   3.362523   2.111478   2.984848
    23  C    2.144834   2.597438   3.201786   4.636369   5.262289
    24  H    2.425878   2.613017   3.894990   5.150055   5.890382
    25  H    3.058234   2.577225   2.617930   4.384638   4.913436
    26  O    2.732318   4.004963   4.264587   5.781219   6.299251
    27  H    2.871816   4.267410   4.049143   5.557297   5.953371
                   21         22         23         24         25
    21  O    0.000000
    22  H    0.974406   0.000000
    23  C    3.692018   4.438185   0.000000
    24  H    3.845563   4.639422   1.094804   0.000000
    25  H    4.077149   4.644052   1.101365   1.776616   0.000000
    26  O    4.811147   5.610804   1.427647   2.038836   2.086050
    27  H    4.864493   5.595383   1.912053   2.806598   2.361583
                   26         27
    26  O    0.000000
    27  H    0.976764   0.000000
 Stoichiometry    C8H15NO3
 Framework group  C1[X(C8H15NO3)]
 Deg. of freedom    75
 Full point group                 C1      NOp   1
 Largest Abelian subgroup         C1      NOp   1
 Largest concise Abelian subgroup C1      NOp   1
                         Standard orientation:                         
 ---------------------------------------------------------------------
 Center     Atomic      Atomic             Coordinates (Angstroms)
 Number     Number       Type             X           Y           Z
 ---------------------------------------------------------------------
      1          6           0       -1.712785    1.401427   -0.256065
      2          6           0       -0.753466    0.428645   -1.007727
      3          7           0        0.630272    0.692884   -0.507049
      4          6           0        0.580506    2.041285    0.094925
      5          6           0       -0.810936    2.170688    0.730880
      6          6           0        1.007385   -0.397298    0.446547
      7          6           0       -0.175380   -1.368384    0.527113
      8          6           0       -0.949825   -1.083235   -0.767717
      9          1           0       -2.172123    2.087745   -0.975326
     10          1           0       -2.523499    0.867563    0.245475
     11          1           0       -0.800408    0.635785   -2.082012
     12          1           0        0.700841    2.784716   -0.703877
     13          1           0        1.409885    2.173218    0.795223
     14          1           0       -1.119081    3.212432    0.866810
     15          1           0       -0.817831    1.685796    1.712634
     16          1           0        1.207543    0.018166    1.440749
     17          1           0        0.153874   -2.415455    0.576241
     18          1           0       -0.469327   -1.633258   -1.587684
     19          8           0       -2.294394   -1.526007   -0.610580
     20          1           0       -2.803209   -1.229564   -1.383896
     21          8           0       -0.973088   -1.065753    1.677116
     22          1           0       -1.878618   -1.346268    1.451740
     23          6           0        2.286566   -1.074600   -0.056544
     24          1           0        2.680622   -1.761123    0.699764
     25          1           0        2.073789   -1.657048   -0.966755
     26          8           0        3.300874   -0.102712   -0.311083
     27          1           0        2.846122    0.571712   -0.851842
 ---------------------------------------------------------------------
 Rotational constants (GHZ):      1.2450826      0.8735488      0.6607407
 Standard basis: 6-31+G(d,p) (6D, 7F)
 There are   303 symmetry adapted basis functions of A   symmetry.
 Integral buffers will be    131072 words long.
 Raffenetti 2 integral format.
 Two-electron integral symmetry is turned on.
   303 basis functions,   489 primitive gaussians,   303 cartesian basis functions
    47 alpha electrons       47 beta electrons
       nuclear repulsion energy       816.5672504912 Hartrees.
 NAtoms=   27 NActive=   27 NUniq=   27 SFac= 1.00D+00 NAtFMM=   60 NAOKFM=F Big=F
 ------------------------------------------------------------------------------
 Polarizable Continuum Model (PCM)
 =================================
 Model                : PCM.
 Atomic radii         : UFF (Universal Force Field).
 Polarization charges : Total charges.
 Charge compensation  : None.
 Solution method      : Matrix inversion.
 Cavity type          : Scaled VdW (van der Waals Surface) (Alpha=1.100).
 Cavity algorithm     : GePol (No added spheres)
                        Default sphere list used, NSphG=   27.
                        Lebedev-Laikov grids with approx.  5.0 points / Ang**2.
                        Smoothing algorithm: Karplus/York (Gamma=1.0000).
                        Polarization charges: spherical gaussians, with
                                              point-specific exponents (IZeta= 3).
                        Self-potential: point-specific (ISelfS= 7).
                        Self-field    : sphere-specific E.n sum rule (ISelfD= 2).
 Solvent              : Water, Eps=  78.355300 Eps(inf)=   1.777849
 ------------------------------------------------------------------------------
 One-electron integrals computed using PRISM.
 NBasis=   303 RedAO= T  NBF=   303
 NBsUse=   303 1.00D-06 NBFU=   303
 Harris functional with IExCor=  908 diagonalized for initial guess.
 ExpMin= 4.38D-02 ExpMax= 5.48D+03 ExpMxC= 8.25D+02 IAcc=2 IRadAn=         4 AccDes= 0.00D+00
 HarFok:  IExCor=  908 AccDes= 0.00D+00 IRadAn=         4 IDoV= 1
 ScaDFX=  1.000000  1.000000  1.000000  1.000000
 FoFCou: FMM=F IPFlag=           0 FMFlag=      100000 FMFlg1=           0
         NFxFlg=           0 DoJE=T BraDBF=F KetDBF=T FulRan=T
         Omega=  0.000000  0.000000  1.000000  0.000000  0.000000 ICntrl=     500 IOpCl=  0
         NMat0=    1 NMatS0=    1 NMatT0=    0 NMatD0=    1 NMtDS0=    0 NMtDT0=    0
         I1Cent=           4 NGrid=           0.
 Petite list used in FoFCou.
 Initial guess orbital symmetries:
       Occupied  (A) (A) (A) (A) (A) (A) (A) (A) (A) (A) (A) (A)
                 (A) (A) (A) (A) (A) (A) (A) (A) (A) (A) (A) (A)
                 (A) (A) (A) (A) (A) (A) (A) (A) (A) (A) (A) (A)
                 (A) (A) (A) (A) (A) (A) (A) (A) (A) (A) (A)
       Virtual   (A) (A) (A) (A) (A) (A) (A) (A) (A) (A) (A) (A)
                 (A) (A) (A) (A) (A) (A) (A) (A) (A) (A) (A) (A)
                 (A) (A) (A) (A) (A) (A) (A) (A) (A) (A) (A) (A)
                 (A) (A) (A) (A) (A) (A) (A) (A) (A) (A) (A) (A)
                 (A) (A) (A) (A) (A) (A) (A) (A) (A) (A) (A) (A)
                 (A) (A) (A) (A) (A) (A) (A) (A) (A) (A) (A) (A)
                 (A) (A) (A) (A) (A) (A) (A) (A) (A) (A) (A) (A)
                 (A) (A) (A) (A) (A) (A) (A) (A) (A) (A) (A) (A)
                 (A) (A) (A) (A) (A) (A) (A) (A) (A) (A) (A) (A)
                 (A) (A) (A) (A) (A) (A) (A) (A) (A) (A) (A) (A)
                 (A) (A) (A) (A) (A) (A) (A) (A) (A) (A) (A) (A)
                 (A) (A) (A) (A) (A) (A) (A) (A) (A) (A) (A) (A)
                 (A) (A) (A) (A) (A) (A) (A) (A) (A) (A) (A) (A)
                 (A) (A) (A) (A) (A) (A) (A) (A) (A) (A) (A) (A)
                 (A) (A) (A) (A) (A) (A) (A) (A) (A) (A) (A) (A)
                 (A) (A) (A) (A) (A) (A) (A) (A) (A) (A) (A) (A)
                 (A) (A) (A) (A) (A) (A) (A) (A) (A) (A) (A) (A)
                 (A) (A) (A) (A) (A) (A) (A) (A) (A) (A) (A) (A)
                 (A) (A) (A) (A) (A) (A) (A) (A) (A) (A) (A) (A)
                 (A) (A) (A) (A) (A) (A) (A) (A) (A) (A) (A) (A)
                 (A) (A) (A) (A) (A) (A) (A) (A) (A) (A) (A) (A)
                 (A) (A) (A) (A)
 The electronic state of the initial guess is 1-A.
 Requested convergence on RMS density matrix=1.00D-08 within 128 cycles.
 Requested convergence on MAX density matrix=1.00D-06.
 Requested convergence on             energy=1.00D-06.
 No special actions if energy rises.
 Error on total polarization charges =  0.01425
 SCF Done:  E(RmPW1PW91) =  -594.197429819     A.U. after   13 cycles
             Convg  =    0.4573D-08             -V/T =  2.0094
 Range of M.O.s used for correlation:     1   303
 NBasis=   303 NAE=    47 NBE=    47 NFC=     0 NFV=     0
 NROrb=    303 NOA=    47 NOB=    47 NVA=   256 NVB=   256

 **** Warning!!: The largest alpha MO coefficient is  0.70974415D+02

 NEqPCM:  Using equilibrium solvation (IEInf=0, Eps=  78.3553, EpsInf=   1.7778)
          Differentiating once with respect to magnetic field using GIAOs.
          Electric field/nuclear overlap derivatives assumed to be zero.
 FoFCou: FMM=F IPFlag=           0 FMFlag=    10101102 FMFlg1=           0
         NFxFlg=    40000000 DoJE=F BraDBF=F KetDBF=T FulRan=T
         Omega=  0.000000  0.000000  1.000000  0.000000  0.000000 ICntrl=    6100 IOpCl=  0
         NMat0=    1 NMatS0=    1 NMatT0=    0 NMatD0=    1 NMtDS0=    0 NMtDT0=    0
         I1Cent=           7 NGrid=        1799.
 Symmetry not used in FoFCou.
          There are     3 degrees of freedom in the 1st order CPHF.  IDoFFX=0.
      3 vectors produced by pass  0 Test12= 4.01D-13 3.33D-08 XBig12= 2.64D+01 8.16D-01.
 AX will form     3 AO Fock derivatives at one time.
      3 vectors produced by pass  1 Test12= 4.01D-13 3.33D-08 XBig12= 5.94D-02 3.29D-02.
      3 vectors produced by pass  2 Test12= 4.01D-13 3.33D-08 XBig12= 1.23D-04 2.61D-03.
      3 vectors produced by pass  3 Test12= 4.01D-13 3.33D-08 XBig12= 5.90D-07 1.72D-04.
      3 vectors produced by pass  4 Test12= 4.01D-13 3.33D-08 XBig12= 2.02D-09 9.95D-06.
      3 vectors produced by pass  5 Test12= 4.01D-13 3.33D-08 XBig12= 6.27D-12 3.93D-07.
 Inverted reduced A of dimension    18 with in-core refinement.
 Calculating GIAO nuclear magnetic shielding tensors.
 SCF GIAO Magnetic shielding tensor (ppm):
      1  C    Isotropic =   169.2892   Anisotropy =    25.5274
   XX=   177.3915   YX=    -4.9180   ZX=     3.5538
   XY=    -5.6336   YY=   165.0236   ZY=    18.8951
   XZ=     6.3876   YZ=    23.2332   ZZ=   165.4525
   Eigenvalues:   142.6609   178.8993   186.3075
      2  C    Isotropic =   126.0604   Anisotropy =    63.0749
   XX=   159.8625   YX=    12.0516   ZX=    17.0948
   XY=    12.9915   YY=   122.0652   ZY=    12.8570
   XZ=    10.1251   YZ=    18.9080   ZZ=    96.2535
   Eigenvalues:    87.9584   122.1124   168.1103
      3  N    Isotropic =   190.5820   Anisotropy =    64.7003
   XX=   200.1527   YX=     9.3131   ZX=    36.5715
   XY=    -2.7423   YY=   198.6036   ZY=    12.1747
   XZ=    52.6005   YZ=    -6.4741   ZZ=   172.9896
   Eigenvalues:   139.9605   198.0699   233.7155
      4  C    Isotropic =   137.1072   Anisotropy =    60.4923
   XX=   130.8241   YX=    -6.2742   ZX=     3.2726
   XY=     7.6075   YY=   165.1263   ZY=    27.0362
   XZ=   -12.2761   YZ=    28.1566   ZZ=   115.3711
   Eigenvalues:   102.4172   131.4690   177.4354
      5  C    Isotropic =   169.9078   Anisotropy =    20.6103
   XX=   181.5241   YX=     1.7899   ZX=    -3.5280
   XY=     5.2244   YY=   169.0142   ZY=    14.4074
   XZ=    -2.5967   YZ=    22.3347   ZZ=   159.1849
   Eigenvalues:   144.5191   181.5562   183.6480
      6  C    Isotropic =   120.9337   Anisotropy =    31.3457
   XX=   117.8103   YX=     7.2849   ZX=     6.5291
   XY=     1.8824   YY=   129.7762   ZY=   -21.2743
   XZ=    11.0102   YZ=   -14.4315   ZZ=   115.2146
   Eigenvalues:    98.2601   122.7102   141.8309
      7  C    Isotropic =   119.9195   Anisotropy =    27.5934
   XX=   123.6262   YX=    -0.1879   ZX=   -16.4281
   XY=     2.3036   YY=   108.4600   ZY=     3.5834
   XZ=    -8.5682   YZ=    -2.7956   ZZ=   127.6722
   Eigenvalues:   108.2191   113.2243   138.3150
      8  C    Isotropic =   119.9578   Anisotropy =    50.0131
   XX=   142.2372   YX=    15.4820   ZX=     7.3671
   XY=    20.7277   YY=   120.3125   ZY=   -10.0359
   XZ=    18.2440   YZ=    -8.3695   ZZ=    97.3237
   Eigenvalues:    87.5677   119.0058   153.2998
      9  H    Isotropic =    30.0845   Anisotropy =    12.4203
   XX=    29.7481   YX=    -4.9474   ZX=     4.5809
   XY=    -5.2016   YY=    30.6210   ZY=    -2.5268
   XZ=     4.8165   YZ=    -2.5487   ZZ=    29.8843
   Eigenvalues:    24.1930    27.6957    38.3647
     10  H    Isotropic =    29.3863   Anisotropy =     6.9463
   XX=    32.8183   YX=     1.4532   ZX=    -2.2820
   XY=     1.6415   YY=    30.0728   ZY=     0.1157
   XZ=    -2.1672   YZ=    -0.3728   ZZ=    25.2678
   Eigenvalues:    24.6456    29.4962    34.0172
     11  H    Isotropic =    28.0340   Anisotropy =     8.9368
   XX=    25.6816   YX=    -0.9670   ZX=     1.3779
   XY=    -0.8845   YY=    24.6196   ZY=    -0.6170
   XZ=     0.9346   YZ=    -0.1834   ZZ=    33.8007
   Eigenvalues:    24.0773    26.0327    33.9918
     12  H    Isotropic =    28.6045   Anisotropy =    11.6503
   XX=    25.9158   YX=     1.6160   ZX=    -2.6432
   XY=     2.6233   YY=    34.2695   ZY=    -4.0791
   XZ=    -3.6738   YZ=    -2.7320   ZZ=    25.6283
   Eigenvalues:    22.5046    26.9376    36.3714
     13  H    Isotropic =    28.6452   Anisotropy =     8.9060
   XX=    31.3426   YX=     2.0653   ZX=     2.1864
   XY=     2.6568   YY=    29.5007   ZY=     4.1077
   XZ=     2.3841   YZ=     2.8535   ZZ=    25.0923
   Eigenvalues:    23.0711    28.2820    34.5826
     14  H    Isotropic =    30.0654   Anisotropy =    12.5215
   XX=    27.5385   YX=    -2.7607   ZX=    -0.4369
   XY=    -3.0718   YY=    36.3415   ZY=     3.7602
   XZ=    -0.7658   YZ=     3.8054   ZZ=    26.3161
   Eigenvalues:    24.9810    26.8021    38.4131
     15  H    Isotropic =    29.5864   Anisotropy =     8.2760
   XX=    26.0323   YX=     0.0119   ZX=    -0.7494
   XY=     0.2348   YY=    27.7237   ZY=    -1.0041
   XZ=    -0.7998   YZ=     0.0193   ZZ=    35.0033
   Eigenvalues:    25.9621    27.6934    35.1038
     16  H    Isotropic =    28.7546   Anisotropy =     6.3013
   XX=    28.7072   YX=    -1.3250   ZX=     2.2409
   XY=    -1.8650   YY=    26.7244   ZY=    -2.0285
   XZ=     2.3761   YZ=    -0.6622   ZZ=    30.8323
   Eigenvalues:    25.8369    27.4716    32.9555
     17  H    Isotropic =    27.8202   Anisotropy =     7.2990
   XX=    26.9302   YX=    -3.6454   ZX=    -1.5222
   XY=    -2.0346   YY=    31.2526   ZY=    -0.9686
   XZ=    -2.6308   YZ=    -0.1523   ZZ=    25.2778
   Eigenvalues:    23.2773    27.4972    32.6862
     18  H    Isotropic =    27.1097   Anisotropy =     5.9697
   XX=    27.4727   YX=    -0.3814   ZX=    -2.4568
   XY=     1.4890   YY=    26.9223   ZY=     4.2368
   XZ=    -0.1171   YZ=     3.9276   ZZ=    26.9341
   Eigenvalues:    22.5031    27.7365    31.0895
     19  O    Isotropic =   303.3779   Anisotropy =    49.6558
   XX=   296.6214   YX=    -0.7332   ZX=    19.3739
   XY=    15.0243   YY=   306.6023   ZY=    -4.7444
   XZ=    49.2239   YZ=    -4.9673   ZZ=   306.9098
   Eigenvalues:   265.2989   308.3530   336.4817
     20  H    Isotropic =    29.7927   Anisotropy =    19.6020
   XX=    33.3912   YX=     0.6646   ZX=     9.7940
   XY=     0.5567   YY=    23.4433   ZY=    -3.4468
   XZ=     9.6434   YZ=    -2.9605   ZZ=    32.5437
   Eigenvalues:    20.5338    25.9836    42.8607
     21  O    Isotropic =   307.8452   Anisotropy =    51.5120
   XX=   334.6676   YX=    22.7665   ZX=    -1.5604
   XY=    10.8317   YY=   301.9449   ZY=    23.2038
   XZ=     2.0453   YZ=     0.1787   ZZ=   286.9230
   Eigenvalues:   279.2528   302.0962   342.1865
     22  H    Isotropic =    28.8549   Anisotropy =    17.1295
   XX=    38.1259   YX=     6.1751   ZX=     1.8721
   XY=     6.6602   YY=    20.4304   ZY=    -0.5550
   XZ=     0.0661   YZ=     0.4211   ZZ=    28.0083
   Eigenvalues:    18.3343    27.9557    40.2745
     23  C    Isotropic =   130.4227   Anisotropy =    47.8849
   XX=   143.7380   YX=    15.0659   ZX=    -7.1014
   XY=    23.5367   YY=   137.7844   ZY=     0.1523
   XZ=   -14.9242   YZ=    -6.2376   ZZ=   109.7456
   Eigenvalues:   106.1981   122.7240   162.3459
     24  H    Isotropic =    28.1051   Anisotropy =     6.7541
   XX=    29.3605   YX=    -1.0446   ZX=     0.4042
   XY=    -2.3722   YY=    29.5606   ZY=    -3.3192
   XZ=     1.3053   YZ=    -3.5312   ZZ=    25.3943
   Eigenvalues:    23.4670    28.2406    32.6078
     25  H    Isotropic =    28.4906   Anisotropy =     6.0116
   XX=    30.0101   YX=     1.9039   ZX=    -0.6710
   XY=     0.9233   YY=    29.8312   ZY=     5.1451
   XZ=    -1.9639   YZ=     3.1347   ZZ=    25.6306
   Eigenvalues:    22.6178    30.3557    32.4984
     26  O    Isotropic =   314.6102   Anisotropy =    36.9477
   XX=   321.2444   YX=   -12.3936   ZX=     5.7142
   XY=    -7.8838   YY=   328.1957   ZY=   -13.4306
   XZ=    22.6109   YZ=     2.5676   ZZ=   294.3904
   Eigenvalues:   288.2752   316.3133   339.2420
     27  H    Isotropic =    28.8597   Anisotropy =    15.3945
   XX=    31.7334   YX=    -3.3188   ZX=     2.0809
   XY=    -5.5728   YY=    30.0474   ZY=    -8.4987
   XZ=     0.8911   YZ=    -8.6625   ZZ=    24.7981
   Eigenvalues:    18.2797    29.1767    39.1226
 End of Minotr Frequency-dependent properties file   721 does not exist.
 End of Minotr Frequency-dependent properties file   722 does not exist.

 **********************************************************************

            Population analysis using the SCF density.

 **********************************************************************

 Orbital symmetries:
       Occupied  (A) (A) (A) (A) (A) (A) (A) (A) (A) (A) (A) (A)
                 (A) (A) (A) (A) (A) (A) (A) (A) (A) (A) (A) (A)
                 (A) (A) (A) (A) (A) (A) (A) (A) (A) (A) (A) (A)
                 (A) (A) (A) (A) (A) (A) (A) (A) (A) (A) (A)
       Virtual   (A) (A) (A) (A) (A) (A) (A) (A) (A) (A) (A) (A)
                 (A) (A) (A) (A) (A) (A) (A) (A) (A) (A) (A) (A)
                 (A) (A) (A) (A) (A) (A) (A) (A) (A) (A) (A) (A)
                 (A) (A) (A) (A) (A) (A) (A) (A) (A) (A) (A) (A)
                 (A) (A) (A) (A) (A) (A) (A) (A) (A) (A) (A) (A)
                 (A) (A) (A) (A) (A) (A) (A) (A) (A) (A) (A) (A)
                 (A) (A) (A) (A) (A) (A) (A) (A) (A) (A) (A) (A)
                 (A) (A) (A) (A) (A) (A) (A) (A) (A) (A) (A) (A)
                 (A) (A) (A) (A) (A) (A) (A) (A) (A) (A) (A) (A)
                 (A) (A) (A) (A) (A) (A) (A) (A) (A) (A) (A) (A)
                 (A) (A) (A) (A) (A) (A) (A) (A) (A) (A) (A) (A)
                 (A) (A) (A) (A) (A) (A) (A) (A) (A) (A) (A) (A)
                 (A) (A) (A) (A) (A) (A) (A) (A) (A) (A) (A) (A)
                 (A) (A) (A) (A) (A) (A) (A) (A) (A) (A) (A) (A)
                 (A) (A) (A) (A) (A) (A) (A) (A) (A) (A) (A) (A)
                 (A) (A) (A) (A) (A) (A) (A) (A) (A) (A) (A) (A)
                 (A) (A) (A) (A) (A) (A) (A) (A) (A) (A) (A) (A)
                 (A) (A) (A) (A) (A) (A) (A) (A) (A) (A) (A) (A)
                 (A) (A) (A) (A) (A) (A) (A) (A) (A) (A) (A) (A)
                 (A) (A) (A) (A) (A) (A) (A) (A) (A) (A) (A) (A)
                 (A) (A) (A) (A) (A) (A) (A) (A) (A) (A) (A) (A)
                 (A) (A) (A) (A)
 The electronic state is 1-A.
 Alpha  occ. eigenvalues --  -19.26930 -19.25311 -19.24998 -14.41955 -10.30967
 Alpha  occ. eigenvalues --  -10.30689 -10.29325 -10.28192 -10.27956 -10.26933
 Alpha  occ. eigenvalues --  -10.24243 -10.24041  -1.08183  -1.05454  -1.04986
 Alpha  occ. eigenvalues --   -0.96575  -0.82509  -0.78895  -0.75632  -0.71508
 Alpha  occ. eigenvalues --   -0.66788  -0.61994  -0.60019  -0.58952  -0.55012
 Alpha  occ. eigenvalues --   -0.52773  -0.52116  -0.50580  -0.48782  -0.48121
 Alpha  occ. eigenvalues --   -0.45296  -0.44865  -0.43158  -0.42846  -0.41365
 Alpha  occ. eigenvalues --   -0.39400  -0.38457  -0.37634  -0.36373  -0.35494
 Alpha  occ. eigenvalues --   -0.34683  -0.34067  -0.32957  -0.30688  -0.29687
 Alpha  occ. eigenvalues --   -0.29269  -0.24204
 Alpha virt. eigenvalues --    0.00168   0.01391   0.02084   0.02427   0.03618
 Alpha virt. eigenvalues --    0.04280   0.04612   0.04836   0.05064   0.07016
 Alpha virt. eigenvalues --    0.07735   0.08319   0.08840   0.08977   0.09555
 Alpha virt. eigenvalues --    0.10176   0.11467   0.11733   0.12564   0.12734
 Alpha virt. eigenvalues --    0.12837   0.13393   0.14293   0.14822   0.15761
 Alpha virt. eigenvalues --    0.16152   0.16589   0.17012   0.17283   0.18429
 Alpha virt. eigenvalues --    0.18531   0.18999   0.20039   0.20436   0.20889
 Alpha virt. eigenvalues --    0.21007   0.21390   0.22617   0.22789   0.23104
 Alpha virt. eigenvalues --    0.23949   0.24710   0.24770   0.25041   0.25845
 Alpha virt. eigenvalues --    0.26612   0.26831   0.27731   0.27908   0.28426
 Alpha virt. eigenvalues --    0.29275   0.30012   0.30917   0.31482   0.31994
 Alpha virt. eigenvalues --    0.32730   0.33332   0.33636   0.34177   0.35780
 Alpha virt. eigenvalues --    0.36012   0.36850   0.37031   0.38255   0.38773
 Alpha virt. eigenvalues --    0.39532   0.39799   0.40743   0.41499   0.41911
 Alpha virt. eigenvalues --    0.42720   0.43624   0.45431   0.46043   0.46654
 Alpha virt. eigenvalues --    0.48819   0.65278   0.65886   0.67148   0.69290
 Alpha virt. eigenvalues --    0.69971   0.71220   0.72949   0.73926   0.74174
 Alpha virt. eigenvalues --    0.76745   0.77227   0.79100   0.79388   0.80910
 Alpha virt. eigenvalues --    0.81823   0.84534   0.85964   0.86478   0.88328
 Alpha virt. eigenvalues --    0.90610   0.92231   0.93970   0.95288   0.95959
 Alpha virt. eigenvalues --    0.98312   0.99660   1.02949   1.03833   1.04551
 Alpha virt. eigenvalues --    1.05755   1.06752   1.08366   1.09472   1.10029
 Alpha virt. eigenvalues --    1.10769   1.11887   1.13148   1.15037   1.15185
 Alpha virt. eigenvalues --    1.15948   1.19127   1.20341   1.23232   1.24198
 Alpha virt. eigenvalues --    1.28031   1.29377   1.30723   1.32956   1.33773
 Alpha virt. eigenvalues --    1.35442   1.36546   1.39429   1.39855   1.41866
 Alpha virt. eigenvalues --    1.42237   1.44059   1.48047   1.50548   1.52095
 Alpha virt. eigenvalues --    1.53204   1.55400   1.57632   1.60137   1.62648
 Alpha virt. eigenvalues --    1.63926   1.65333   1.66473   1.70582   1.71409
 Alpha virt. eigenvalues --    1.73499   1.75161   1.77480   1.79216   1.79661
 Alpha virt. eigenvalues --    1.80986   1.81898   1.82993   1.84443   1.87549
 Alpha virt. eigenvalues --    1.89210   1.89855   1.90942   1.91348   1.93133
 Alpha virt. eigenvalues --    1.95082   1.97488   2.01611   2.02938   2.04205
 Alpha virt. eigenvalues --    2.05522   2.06960   2.08062   2.09086   2.11059
 Alpha virt. eigenvalues --    2.14331   2.14617   2.16523   2.18078   2.19826
 Alpha virt. eigenvalues --    2.22344   2.25034   2.26974   2.29185   2.29781
 Alpha virt. eigenvalues --    2.32963   2.34508   2.36309   2.38420   2.39855
 Alpha virt. eigenvalues --    2.40170   2.43333   2.44723   2.46931   2.47218
 Alpha virt. eigenvalues --    2.49851   2.51286   2.53370   2.54681   2.55770
 Alpha virt. eigenvalues --    2.56077   2.58054   2.60947   2.61804   2.63739
 Alpha virt. eigenvalues --    2.64272   2.66183   2.66676   2.67973   2.69010
 Alpha virt. eigenvalues --    2.70161   2.73932   2.74162   2.75724   2.78687
 Alpha virt. eigenvalues --    2.79144   2.80407   2.82095   2.83814   2.85603
 Alpha virt. eigenvalues --    2.87079   2.88705   2.90426   2.92514   2.94679
 Alpha virt. eigenvalues --    2.96587   2.97902   3.01432   3.03706   3.05678
 Alpha virt. eigenvalues --    3.06738   3.09535   3.12962   3.13568   3.32750
 Alpha virt. eigenvalues --    3.34188   3.36847   3.38890   3.43025   3.44812
 Alpha virt. eigenvalues --    3.45995   3.48351   3.52794   3.54379   3.56154
 Alpha virt. eigenvalues --    3.56516   3.58800   3.61006   3.63237   4.29860
 Alpha virt. eigenvalues --    4.31085   4.40068   4.48661   4.51311   4.57538
 Alpha virt. eigenvalues --    4.61132   4.69234   4.73921   4.85857   4.91272
 Alpha virt. eigenvalues --    5.00197
          Condensed to atoms (all electrons):
              1          2          3          4          5          6
     1  C    6.114410  -0.686681   0.176189   0.108080  -0.247071   0.153376
     2  C   -0.686681   8.058908  -0.293356  -0.261317   0.385695  -1.228306
     3  N    0.176189  -0.293356   7.471051   0.152341  -0.290850  -0.045658
     4  C    0.108080  -0.261317   0.152341   5.705611   0.012243  -0.105941
     5  C   -0.247071   0.385695  -0.290850   0.012243   5.815857   0.041441
     6  C    0.153376  -1.228306  -0.045658  -0.105941   0.041441   9.899287
     7  C   -0.370677   1.166190  -0.181959  -0.013717   0.093505  -2.342454
     8  C    0.107603  -0.925391   0.100419  -0.120711   0.015248   0.594485
     9  H    0.431685  -0.111340   0.015430   0.000729  -0.044843   0.021474
    10  H    0.473260  -0.121551   0.020153   0.031055  -0.058174   0.001987
    11  H   -0.017302   0.274821  -0.039659  -0.015433   0.005040   0.019042
    12  H    0.014248  -0.035060  -0.037908   0.404244  -0.061759   0.014223
    13  H    0.015153   0.014609  -0.055459   0.393122  -0.030140   0.017325
    14  H   -0.003874   0.004391   0.016037  -0.024799   0.344634  -0.001489
    15  H   -0.060815  -0.010349   0.004927  -0.070415   0.439429   0.027141
    16  H   -0.012575   0.038902  -0.058630   0.033774  -0.002101   0.278971
    17  H    0.011823   0.009333   0.021321  -0.001578  -0.007011  -0.176782
    18  H    0.025280  -0.013211   0.023127   0.012726  -0.008607  -0.033626
    19  O    0.054365  -0.109151   0.011902   0.013179  -0.012209   0.067758
    20  H   -0.013240  -0.046043  -0.001118  -0.002350   0.007213   0.000170
    21  O    0.122636  -0.055138   0.049795   0.020213  -0.107749  -0.049536
    22  H    0.003668  -0.014844  -0.002182   0.001247   0.000805   0.019233
    23  C    0.079771  -0.111569   0.103358  -0.007740  -0.085513  -0.700815
    24  H    0.001094   0.000164   0.007210  -0.004106   0.000920  -0.112674
    25  H   -0.004617   0.025317   0.018459   0.004107   0.001161  -0.188758
    26  O   -0.001818  -0.009917   0.002927  -0.015870   0.002509  -0.082561
    27  H   -0.004709   0.028700   0.048235  -0.010288   0.008927  -0.074890
              7          8          9         10         11         12
     1  C   -0.370677   0.107603   0.431685   0.473260  -0.017302   0.014248
     2  C    1.166190  -0.925391  -0.111340  -0.121551   0.274821  -0.035060
     3  N   -0.181959   0.100419   0.015430   0.020153  -0.039659  -0.037908
     4  C   -0.013717  -0.120711   0.000729   0.031055  -0.015433   0.404244
     5  C    0.093505   0.015248  -0.044843  -0.058174   0.005040  -0.061759
     6  C   -2.342454   0.594485   0.021474   0.001987   0.019042   0.014223
     7  C    7.749816  -0.840104  -0.028201   0.003732  -0.000903  -0.000784
     8  C   -0.840104   6.639670   0.048618  -0.017181   0.060681   0.011122
     9  H   -0.028201   0.048618   0.529365  -0.026379  -0.007938   0.001122
    10  H    0.003732  -0.017181  -0.026379   0.510270   0.003903  -0.000031
    11  H   -0.000903   0.060681  -0.007938   0.003903   0.550550   0.001567
    12  H   -0.000784   0.011122   0.001122  -0.000031   0.001567   0.537971
    13  H   -0.007718   0.000189  -0.000122  -0.000128  -0.000133  -0.025302
    14  H    0.004098  -0.001976  -0.006012   0.001581  -0.000002  -0.003461
    15  H   -0.013464   0.016756   0.003835  -0.006902  -0.000135   0.003965
    16  H    0.071933  -0.018220   0.000004  -0.000026  -0.000259  -0.000031
    17  H    0.347046   0.039597   0.000006  -0.000064  -0.000130   0.000004
    18  H    0.030131   0.261399  -0.000097   0.000092  -0.007302   0.000006
    19  O   -0.187589   0.230725  -0.001573   0.005371  -0.006930  -0.000086
    20  H    0.013615   0.052851  -0.000003  -0.000088   0.001723   0.000001
    21  O    0.227040  -0.072652   0.000951  -0.001921  -0.000250   0.000133
    22  H    0.014398  -0.043489  -0.000010  -0.000106  -0.000028  -0.000002
    23  C    0.055691   0.086390   0.001386  -0.001727   0.004175   0.006459
    24  H   -0.011862   0.005462   0.000000   0.000000   0.000002   0.000000
    25  H    0.126955  -0.026173   0.000000   0.000001  -0.000096   0.000014
    26  O    0.023984   0.021414   0.000007   0.000014   0.000491   0.000862
    27  H    0.005423  -0.011893  -0.000001  -0.000001  -0.000188  -0.000467
             13         14         15         16         17         18
     1  C    0.015153  -0.003874  -0.060815  -0.012575   0.011823   0.025280
     2  C    0.014609   0.004391  -0.010349   0.038902   0.009333  -0.013211
     3  N   -0.055459   0.016037   0.004927  -0.058630   0.021321   0.023127
     4  C    0.393122  -0.024799  -0.070415   0.033774  -0.001578   0.012726
     5  C   -0.030140   0.344634   0.439429  -0.002101  -0.007011  -0.008607
     6  C    0.017325  -0.001489   0.027141   0.278971  -0.176782  -0.033626
     7  C   -0.007718   0.004098  -0.013464   0.071933   0.347046   0.030131
     8  C    0.000189  -0.001976   0.016756  -0.018220   0.039597   0.261399
     9  H   -0.000122  -0.006012   0.003835   0.000004   0.000006  -0.000097
    10  H   -0.000128   0.001581  -0.006902  -0.000026  -0.000064   0.000092
    11  H   -0.000133  -0.000002  -0.000135  -0.000259  -0.000130  -0.007302
    12  H   -0.025302  -0.003461   0.003965  -0.000031   0.000004   0.000006
    13  H    0.523034   0.001233  -0.005237   0.001144  -0.000009   0.000008
    14  H    0.001233   0.525865  -0.025331  -0.000144   0.000000   0.000002
    15  H   -0.005237  -0.025331   0.509602   0.000777   0.000020   0.000001
    16  H    0.001144  -0.000144   0.000777   0.527502  -0.000016  -0.000127
    17  H   -0.000009   0.000000   0.000020  -0.000016   0.573637  -0.003953
    18  H    0.000008   0.000002   0.000001  -0.000127  -0.003953   0.567194
    19  O    0.000059   0.000099  -0.000239  -0.000773   0.001437  -0.030929
    20  H    0.000000  -0.000001   0.000005   0.000005  -0.000164  -0.005200
    21  O    0.000261   0.000451  -0.002059  -0.011216  -0.048374   0.005327
    22  H   -0.000004  -0.000011  -0.000124   0.000329  -0.000561   0.000634
    23  C   -0.014215   0.000079   0.006583  -0.034308   0.070937  -0.000204
    24  H   -0.000028   0.000000  -0.000001  -0.004668   0.001260   0.000074
    25  H   -0.000022   0.000000   0.000001   0.004660  -0.001258  -0.000221
    26  O    0.001315   0.000029  -0.000037   0.001775   0.000345  -0.000342
    27  H   -0.000079  -0.000006   0.000001   0.000412   0.000007   0.000037
             19         20         21         22         23         24
     1  C    0.054365  -0.013240   0.122636   0.003668   0.079771   0.001094
     2  C   -0.109151  -0.046043  -0.055138  -0.014844  -0.111569   0.000164
     3  N    0.011902  -0.001118   0.049795  -0.002182   0.103358   0.007210
     4  C    0.013179  -0.002350   0.020213   0.001247  -0.007740  -0.004106
     5  C   -0.012209   0.007213  -0.107749   0.000805  -0.085513   0.000920
     6  C    0.067758   0.000170  -0.049536   0.019233  -0.700815  -0.112674
     7  C   -0.187589   0.013615   0.227040   0.014398   0.055691  -0.011862
     8  C    0.230725   0.052851  -0.072652  -0.043489   0.086390   0.005462
     9  H   -0.001573  -0.000003   0.000951  -0.000010   0.001386   0.000000
    10  H    0.005371  -0.000088  -0.001921  -0.000106  -0.001727   0.000000
    11  H   -0.006930   0.001723  -0.000250  -0.000028   0.004175   0.000002
    12  H   -0.000086   0.000001   0.000133  -0.000002   0.006459   0.000000
    13  H    0.000059   0.000000   0.000261  -0.000004  -0.014215  -0.000028
    14  H    0.000099  -0.000001   0.000451  -0.000011   0.000079   0.000000
    15  H   -0.000239   0.000005  -0.002059  -0.000124   0.006583  -0.000001
    16  H   -0.000773   0.000005  -0.011216   0.000329  -0.034308  -0.004668
    17  H    0.001437  -0.000164  -0.048374  -0.000561   0.070937   0.001260
    18  H   -0.030929  -0.005200   0.005327   0.000634  -0.000204   0.000074
    19  O    8.301025   0.239093  -0.010571   0.025243   0.001261   0.000088
    20  H    0.239093   0.357454   0.000153  -0.000789  -0.001023   0.000000
    21  O   -0.010571   0.000153   8.217721   0.246442   0.015770  -0.000022
    22  H    0.025243  -0.000789   0.246442   0.366462  -0.001559  -0.000007
    23  C    0.001261  -0.001023   0.015770  -0.001559   5.690230   0.500494
    24  H    0.000088   0.000000  -0.000022  -0.000007   0.500494   0.538383
    25  H   -0.000797   0.000004  -0.000752   0.000015   0.394808  -0.038649
    26  O   -0.000032  -0.000002  -0.000220  -0.000008   0.177362  -0.058813
    27  H    0.000038   0.000000  -0.000085   0.000000   0.026305   0.006679
             25         26         27
     1  C   -0.004617  -0.001818  -0.004709
     2  C    0.025317  -0.009917   0.028700
     3  N    0.018459   0.002927   0.048235
     4  C    0.004107  -0.015870  -0.010288
     5  C    0.001161   0.002509   0.008927
     6  C   -0.188758  -0.082561  -0.074890
     7  C    0.126955   0.023984   0.005423
     8  C   -0.026173   0.021414  -0.011893
     9  H    0.000000   0.000007  -0.000001
    10  H    0.000001   0.000014  -0.000001
    11  H   -0.000096   0.000491  -0.000188
    12  H    0.000014   0.000862  -0.000467
    13  H   -0.000022   0.001315  -0.000079
    14  H    0.000000   0.000029  -0.000006
    15  H    0.000001  -0.000037   0.000001
    16  H    0.004660   0.001775   0.000412
    17  H   -0.001258   0.000345   0.000007
    18  H   -0.000221  -0.000342   0.000037
    19  O   -0.000797  -0.000032   0.000038
    20  H    0.000004  -0.000002   0.000000
    21  O   -0.000752  -0.000220  -0.000085
    22  H    0.000015  -0.000008   0.000000
    23  C    0.394808   0.177362   0.026305
    24  H   -0.038649  -0.058813   0.006679
    25  H    0.589119  -0.048467  -0.004510
    26  O   -0.048467   8.281398   0.234675
    27  H   -0.004510   0.234675   0.365324
 Mulliken atomic charges:
              1
     1  C   -0.469262
     2  C    0.026196
     3  N   -0.236099
     4  C   -0.238406
     5  C   -0.218600
     6  C   -0.012422
     7  C    0.065874
     8  C   -0.214838
     9  H    0.171907
    10  H    0.182861
    11  H    0.174694
    12  H    0.168949
    13  H    0.171145
    14  H    0.168608
    15  H    0.182065
    16  H    0.182904
    17  H    0.163128
    18  H    0.177779
    19  O   -0.590765
    20  H    0.397735
    21  O   -0.546349
    22  H    0.385248
    23  C   -0.262385
    24  H    0.169002
    25  H    0.149699
    26  O   -0.531019
    27  H    0.382353
 Sum of Mulliken atomic charges =   0.00000
 Mulliken charges with hydrogens summed into heavy atoms:
              1
     1  C   -0.114493
     2  C    0.200890
     3  N   -0.236099
     4  C    0.101688
     5  C    0.132072
     6  C    0.170482
     7  C    0.229001
     8  C   -0.037059
    19  O   -0.193031
    21  O   -0.161101
    23  C    0.056316
    26  O   -0.148666
 Sum of Mulliken charges with hydrogens summed into heavy atoms =   0.00000
 Electronic spatial extent (au):  <R**2>=           1941.0588
 Charge=              0.0000 electrons
 Dipole moment (field-independent basis, Debye):
    X=             -3.9093    Y=              0.6638    Z=             -2.9555  Tot=              4.9456
 Quadrupole moment (field-independent basis, Debye-Ang):
   XX=            -83.1363   YY=            -69.3737   ZZ=            -73.1030
   XY=             -1.3188   XZ=              6.1769   YZ=              1.7267
 Traceless Quadrupole moment (field-independent basis, Debye-Ang):
   XX=             -7.9320   YY=              5.8306   ZZ=              2.1013
   XY=             -1.3188   XZ=              6.1769   YZ=              1.7267
 Octapole moment (field-independent basis, Debye-Ang**2):
  XXX=            -82.4790  YYY=              0.0583  ZZZ=            -17.9447  XYY=             10.0850
  XXY=             -1.1321  XXZ=             -6.1905  XZZ=             -7.8067  YZZ=             -2.3785
  YYZ=             -1.8501  XYZ=             -4.2573
 Hexadecapole moment (field-independent basis, Debye-Ang**3):
 XXXX=          -1435.6379 YYYY=           -874.5167 ZZZZ=           -378.9357 XXXY=             40.2138
 XXXZ=             37.4557 YYYX=             -5.0905 YYYZ=             -9.5929 ZZZX=             22.8315
 ZZZY=             15.3521 XXYY=           -346.9956 XXZZ=           -228.9316 YYZZ=           -206.9883
 XXYZ=             -9.9139 YYXZ=              0.1620 ZZXY=             15.9856
 N-N= 8.165672504912D+02 E-N=-3.018813480175D+03  KE= 5.886617434714D+02
 1\1\GINC-COMPUTE-3-1\SP\RmPW1PW91\6-31+G(d,p)\C8H15N1O3\MAMICHETTI.IQU
 IR\17-May-2024\0\\# mpw1pw91/6-31+G** nmr scrf=(pcm,solvent=water)\\co
 mment\\0,1\C,0,-1.712785,1.401427,-0.256065\C,0,-0.753466,0.428645,-1.
 007727\N,0,0.630272,0.692884,-0.507049\C,0,0.580505,2.041285,0.094925\
 C,0,-0.810937,2.170688,0.73088\C,0,1.007385,-0.397298,0.446547\C,0,-0.
 17538,-1.368384,0.527113\C,0,-0.949825,-1.083235,-0.767717\H,0,-2.1721
 24,2.087744,-0.975326\H,0,-2.523499,0.867562,0.245475\H,0,-0.800408,0.
 635785,-2.082012\H,0,0.70084,2.784716,-0.703877\H,0,1.409884,2.173218,
 0.795223\H,0,-1.119082,3.212432,0.86681\H,0,-0.817831,1.685796,1.71263
 4\H,0,1.207543,0.018166,1.440749\H,0,0.153875,-2.415455,0.576241\H,0,-
 0.469327,-1.633258,-1.587684\O,0,-2.294394,-1.526008,-0.61058\H,0,-2.8
 03209,-1.229565,-1.383896\O,0,-0.973088,-1.065753,1.677116\H,0,-1.8786
 18,-1.346268,1.45174\C,0,2.286566,-1.074599,-0.056544\H,0,2.680622,-1.
 761122,0.699764\H,0,2.073789,-1.657047,-0.966755\O,0,3.300874,-0.10271
 1,-0.311083\H,0,2.846122,0.571713,-0.851842\\Version=AM64L-G09RevC.01\
 State=1-A\HF=-594.1974298\RMSD=4.573e-09\Dipole=-1.5380452,0.261165,-1
 .1628002\Quadrupole=-5.8972139,4.3349271,1.5622868,-0.9804646,4.592341
 ,1.2837905\PG=C01 [X(C8H15N1O3)]\\@


 CHEMISTRY BEGAN BY SAYING IT WOULD CHANGE THE BASER
 METALS INTO GOLD.  BY NOT DOING THAT IT HAS DONE MUCH
 GREATER THINGS.  --  RALPH WALDO EMERSON
 Job cpu time:  0 days  0 hours  8 minutes 37.2 seconds.
 File lengths (MBytes):  RWF=    111 Int=      0 D2E=      0 Chk=      7 Scr=      1
 Normal termination of Gaussian 09 at Fri May 17 12:28:26 2024.
