 Entering Gaussian System, Link 0=g09
 Input=/home/mamichetti.iquir/Linux/01_Cardona_A1A3_R__S_R_R_032_OptB.gjc
 Output=/home/mamichetti.iquir/Linux/01_Cardona_A1A3_R__S_R_R_032_OptB.log
 Initial command:
 /opt/ohpc/pub/apps/software/Gaussian/09/AMD64.SSE4a-enabled/g09/l1.exe /local/mamichetti.iquir/Gau-406675.inp -scrdir=/local/mamichetti.iquir/
 Entering Link 1 = /opt/ohpc/pub/apps/software/Gaussian/09/AMD64.SSE4a-enabled/g09/l1.exe PID=    406676.
  
 Copyright (c) 1988,1990,1992,1993,1995,1998,2003,2009,2011,
            Gaussian, Inc.  All Rights Reserved.
  
 This is part of the Gaussian(R) 09 program.  It is based on
 the Gaussian(R) 03 system (copyright 2003, Gaussian, Inc.),
 the Gaussian(R) 98 system (copyright 1998, Gaussian, Inc.),
 the Gaussian(R) 94 system (copyright 1995, Gaussian, Inc.),
 the Gaussian 92(TM) system (copyright 1992, Gaussian, Inc.),
 the Gaussian 90(TM) system (copyright 1990, Gaussian, Inc.),
 the Gaussian 88(TM) system (copyright 1988, Gaussian, Inc.),
 the Gaussian 86(TM) system (copyright 1986, Carnegie Mellon
 University), and the Gaussian 82(TM) system (copyright 1983,
 Carnegie Mellon University). Gaussian is a federally registered
 trademark of Gaussian, Inc.
  
 This software contains proprietary and confidential information,
 including trade secrets, belonging to Gaussian, Inc.
  
 This software is provided under written license and may be
 used, copied, transmitted, or stored only in accord with that
 written license.
  
 The following legend is applicable only to US Government
 contracts under FAR:
  
                    RESTRICTED RIGHTS LEGEND
  
 Use, reproduction and disclosure by the US Government is
 subject to restrictions as set forth in subparagraphs (a)
 and (c) of the Commercial Computer Software - Restricted
 Rights clause in FAR 52.227-19.
  
 Gaussian, Inc.
 340 Quinnipiac St., Bldg. 40, Wallingford CT 06492
  
  
 ---------------------------------------------------------------
 Warning -- This program may not be used in any manner that
 competes with the business of Gaussian, Inc. or will provide
 assistance to any competitor of Gaussian, Inc.  The licensee
 of this program is prohibited from giving any competitor of
 Gaussian, Inc. access to this program.  By using this program,
 the user acknowledges that Gaussian, Inc. is engaged in the
 business of creating and licensing software in the field of
 computational chemistry and represents and warrants to the
 licensee that it is not a competitor of Gaussian, Inc. and that
 it will not use this program in any manner prohibited above.
 ---------------------------------------------------------------
  

 Cite this work as:
 Gaussian 09, Revision C.01,
 M. J. Frisch, G. W. Trucks, H. B. Schlegel, G. E. Scuseria, 
 M. A. Robb, J. R. Cheeseman, G. Scalmani, V. Barone, B. Mennucci, 
 G. A. Petersson, H. Nakatsuji, M. Caricato, X. Li, H. P. Hratchian, 
 A. F. Izmaylov, J. Bloino, G. Zheng, J. L. Sonnenberg, M. Hada, 
 M. Ehara, K. Toyota, R. Fukuda, J. Hasegawa, M. Ishida, T. Nakajima, 
 Y. Honda, O. Kitao, H. Nakai, T. Vreven, J. A. Montgomery, Jr., 
 J. E. Peralta, F. Ogliaro, M. Bearpark, J. J. Heyd, E. Brothers, 
 K. N. Kudin, V. N. Staroverov, T. Keith, R. Kobayashi, J. Normand, 
 K. Raghavachari, A. Rendell, J. C. Burant, S. S. Iyengar, J. Tomasi, 
 M. Cossi, N. Rega, J. M. Millam, M. Klene, J. E. Knox, J. B. Cross, 
 V. Bakken, C. Adamo, J. Jaramillo, R. Gomperts, R. E. Stratmann, 
 O. Yazyev, A. J. Austin, R. Cammi, C. Pomelli, J. W. Ochterski, 
 R. L. Martin, K. Morokuma, V. G. Zakrzewski, G. A. Voth, 
 P. Salvador, J. J. Dannenberg, S. Dapprich, A. D. Daniels, 
 O. Farkas, J. B. Foresman, J. V. Ortiz, J. Cioslowski, 
 and D. J. Fox, Gaussian, Inc., Wallingford CT, 2010.
 
 ******************************************
 Gaussian 09:  AM64L-G09RevC.01 23-Sep-2011
                17-May-2024 
 ******************************************
 %nprocshared=4
 Will use up to    4 processors via shared memory.
 ------------------------------------------------
 # mpw1pw91/6-31+G** nmr scrf=(pcm,solvent=water)
 ------------------------------------------------
 1/38=1/1;
 2/12=2,17=6,18=5,40=1/2;
 3/5=1,6=6,7=111,11=2,16=1,25=1,30=1,70=2201,72=1,74=-7/1,2,8,3;
 4//1;
 5/5=2,38=5,53=1/2;
 8/6=1,10=90,11=11/1;
 10/13=100,45=16/2;
 6/7=2,8=2,9=2,10=2,28=1/1;
 99/9=1/99;
 -------
 comment
 -------
 Charge =  0 Multiplicity = 1
 Symbolic Z-Matrix:
 6                    -2.42166  -0.74124   0.29901 
 6                    -1.22158  -0.01689   0.94652 
 7                     0.00517  -0.84121   0.63301 
 6                    -0.44472  -2.01431  -0.1568 
 6                    -1.78893  -1.62767  -0.78607 
 6                     0.97545   0.03075  -0.06479 
 6                     0.61768   1.44638   0.42874 
 6                    -0.92135   1.41497   0.46045 
 1                    -2.92033  -1.36556   1.04838 
 1                    -3.16     -0.03783  -0.09555 
 1                    -1.35594   0.03274   2.03309 
 1                    -0.581    -2.87661   0.5093 
 1                     0.31679  -2.28875  -0.89121 
 1                    -2.40397  -2.49679  -1.0411 
 1                    -1.62636  -1.05562  -1.70842 
 1                     0.83206   0.00425  -1.16031 
 1                     1.00378   1.59208   1.44414 
 1                    -1.33842   2.16699   1.13374 
 8                    -1.44519   1.76634  -0.83046 
 1                    -1.17712   1.09574  -1.4819 
 8                     1.1421    2.49832  -0.36769 
 1                     0.50322   2.60439  -1.09832 
 6                     2.43202  -0.31923   0.21938 
 1                     3.07023   0.44788  -0.23206 
 1                     2.60888  -0.31586   1.30412 
 8                     2.85531  -1.56273  -0.3538 
 1                     2.41285  -2.27069   0.14208 
 
                          Input orientation:                          
 ---------------------------------------------------------------------
 Center     Atomic      Atomic             Coordinates (Angstroms)
 Number     Number       Type             X           Y           Z
 ---------------------------------------------------------------------
      1          6           0       -2.421664   -0.741239    0.299010
      2          6           0       -1.221581   -0.016888    0.946515
      3          7           0        0.005168   -0.841206    0.633011
      4          6           0       -0.444723   -2.014308   -0.156803
      5          6           0       -1.788934   -1.627666   -0.786070
      6          6           0        0.975454    0.030749   -0.064792
      7          6           0        0.617678    1.446379    0.428743
      8          6           0       -0.921351    1.414966    0.460446
      9          1           0       -2.920327   -1.365557    1.048384
     10          1           0       -3.160001   -0.037830   -0.095547
     11          1           0       -1.355935    0.032738    2.033092
     12          1           0       -0.581002   -2.876605    0.509299
     13          1           0        0.316791   -2.288746   -0.891209
     14          1           0       -2.403968   -2.496787   -1.041102
     15          1           0       -1.626357   -1.055617   -1.708417
     16          1           0        0.832057    0.004253   -1.160312
     17          1           0        1.003776    1.592082    1.444140
     18          1           0       -1.338419    2.166987    1.133741
     19          8           0       -1.445194    1.766344   -0.830461
     20          1           0       -1.177120    1.095736   -1.481904
     21          8           0        1.142097    2.498318   -0.367693
     22          1           0        0.503223    2.604394   -1.098323
     23          6           0        2.432024   -0.319228    0.219382
     24          1           0        3.070230    0.447879   -0.232064
     25          1           0        2.608877   -0.315856    1.304115
     26          8           0        2.855314   -1.562729   -0.353801
     27          1           0        2.412846   -2.270688    0.142083
 ---------------------------------------------------------------------
                    Distance matrix (angstroms):
                    1          2          3          4          5
     1  C    0.000000
     2  C    1.544068   0.000000
     3  N    2.451747   1.510860   0.000000
     4  C    2.395155   2.410499   1.484041   0.000000
     5  C    1.537367   2.432765   2.418907   1.533745   0.000000
     6  C    3.502674   2.419085   1.479422   2.491511   3.303396
     7  C    3.747013   2.406681   2.376960   3.667140   4.088680
     8  C    2.631771   1.541625   2.445103   3.516830   3.400605
     9  H    1.095445   2.171410   3.001000   2.828775   2.171169
    10  H    1.093435   2.200864   3.345819   3.359011   2.210028
    11  H    2.177581   1.095976   2.139300   3.133105   3.300319
    12  H    2.827021   2.963019   2.121733   1.098098   2.167240
    13  H    3.363114   3.302296   2.125024   1.092965   2.209561
    14  H    2.208656   3.390953   3.368611   2.203046   1.094842
    15  H    2.181997   2.879490   2.861840   2.173213   1.097449
    16  H    3.643087   2.942209   2.148151   2.590711   3.110114
    17  H    4.299924   2.790812   2.752460   4.203239   4.810389
    18  H    3.213717   2.194998   3.332444   4.466254   4.276451
    19  O    2.918419   2.527363   3.323344   3.968386   3.411661
    20  H    2.845175   2.671540   3.102002   3.458999   2.876703
    21  O    4.862059   3.693288   3.666938   4.788138   5.078359
    22  H    4.658408   3.745321   3.888153   4.808063   4.823051
    23  C    4.872650   3.737507   2.516581   3.360132   4.532045
    24  H    5.644195   4.474896   3.435797   4.292193   5.312841
    25  H    5.147575   3.858713   2.739648   3.787280   5.042862
    26  O    5.380289   4.549892   3.101246   3.336611   4.664774
    27  H    5.073098   4.351527   2.842770   2.884573   4.350851
                    6          7          8          9         10
     6  C    0.000000
     7  C    1.541295   0.000000
     8  C    2.406201   1.539676   0.000000
     9  H    4.285550   4.561625   3.474606   0.000000
    10  H    4.136138   4.092507   2.726041   1.768864   0.000000
    11  H    3.136319   2.909891   2.138372   2.317801   2.791189
    12  H    3.347364   4.486816   4.305323   2.836604   3.882746
    13  H    2.548894   3.972904   4.132487   3.885001   4.217557
    14  H    4.331525   5.180671   4.444616   2.431514   2.740826
    15  H    3.263605   3.982854   3.362258   3.061106   2.447305
    16  H    1.105183   2.156567   2.773339   4.564549   4.131830
    17  H    2.171506   1.096053   2.169133   4.929791   4.729090
    18  H    3.369570   2.200594   1.092157   3.871510   3.112961
    19  O    3.075398   2.437912   1.436774   3.938893   2.595324
    20  H    2.788544   2.644773   1.984956   3.936889   2.671849
    21  O    2.491669   1.419824   2.473314   5.782568   5.001416
    22  H    2.813332   1.919903   2.423615   5.664764   4.626675
    23  C    1.524741   2.540286   3.782944   5.516313   5.607950
    24  H    2.142443   2.729227   4.165039   6.388652   6.250626
    25  H    2.159192   2.799397   4.021198   5.633770   5.942752
    26  O    2.481244   3.830682   4.877793   5.946682   6.210960
    27  H    2.721306   4.137800   4.980188   5.484832   6.008223
                   11         12         13         14         15
    11  H    0.000000
    12  H    3.374425   0.000000
    13  H    4.091312   1.764379   0.000000
    14  H    4.116739   2.423058   2.732815   0.000000
    15  H    3.905961   3.054018   2.442183   1.768321   0.000000
    16  H    3.871169   3.617137   2.365536   4.091610   2.732681
    17  H    2.889058   4.832661   4.581117   5.874351   4.885338
    18  H    2.316065   5.138232   5.166595   5.255105   4.306501
    19  O    3.348625   4.909049   4.421768   4.374689   2.960927
    20  H    3.676566   4.483273   3.746386   3.821738   2.209399
    21  O    4.252413   5.712091   4.885814   6.162721   4.700248
    22  H    4.458211   5.813892   4.901068   5.871719   4.278201
    23  C    4.214506   3.962645   3.096227   5.451367   4.552926
    24  H    4.989410   4.993326   3.937641   6.268369   5.147625
    25  H    4.046314   4.167073   3.737031   5.948539   5.249743
    26  O    5.096802   3.778820   2.694440   5.385619   4.709302
    27  H    4.804726   3.076542   2.336978   4.965153   4.606073
                   16         17         18         19         20
    16  H    0.000000
    17  H    3.055136   0.000000
    18  H    3.827671   2.431613   0.000000
    19  O    2.898213   3.346884   2.007487   0.000000
    20  H    2.309015   3.682988   2.831112   0.972603   0.000000
    21  O    2.635286   2.030550   2.918397   2.728372   2.930439
    22  H    2.621585   2.781986   2.926616   2.137851   2.290575
    23  C    2.137309   2.681983   4.607988   4.525992   4.233488
    24  H    2.463304   2.896393   4.925134   4.741886   4.474573
    25  H    3.054989   2.497235   4.666335   5.032640   4.907980
    26  O    2.683181   4.075981   5.806114   5.459332   4.959897
    27  H    3.061124   4.312983   5.894772   5.668152   5.182470
                   21         22         23         24         25
    21  O    0.000000
    22  H    0.976336   0.000000
    23  C    3.153908   3.742217   0.000000
    24  H    2.817870   3.462728   1.095246   0.000000
    25  H    3.586915   4.328204   1.099061   1.776509   0.000000
    26  O    4.407653   4.842681   1.433181   2.025723   2.089045
    27  H    4.961662   5.380678   1.953084   2.821834   2.282568
                   26         27
    26  O    0.000000
    27  H    0.971023   0.000000
 Stoichiometry    C8H15NO3
 Framework group  C1[X(C8H15NO3)]
 Deg. of freedom    75
 Full point group                 C1      NOp   1
 Largest Abelian subgroup         C1      NOp   1
 Largest concise Abelian subgroup C1      NOp   1
                         Standard orientation:                         
 ---------------------------------------------------------------------
 Center     Atomic      Atomic             Coordinates (Angstroms)
 Number     Number       Type             X           Y           Z
 ---------------------------------------------------------------------
      1          6           0       -2.421664   -0.741239    0.299010
      2          6           0       -1.221581   -0.016888    0.946515
      3          7           0        0.005168   -0.841206    0.633011
      4          6           0       -0.444723   -2.014308   -0.156803
      5          6           0       -1.788934   -1.627666   -0.786070
      6          6           0        0.975454    0.030749   -0.064792
      7          6           0        0.617678    1.446379    0.428743
      8          6           0       -0.921351    1.414966    0.460446
      9          1           0       -2.920327   -1.365557    1.048384
     10          1           0       -3.160001   -0.037830   -0.095547
     11          1           0       -1.355935    0.032738    2.033092
     12          1           0       -0.581002   -2.876605    0.509299
     13          1           0        0.316791   -2.288746   -0.891209
     14          1           0       -2.403968   -2.496787   -1.041102
     15          1           0       -1.626357   -1.055617   -1.708417
     16          1           0        0.832057    0.004253   -1.160312
     17          1           0        1.003776    1.592082    1.444140
     18          1           0       -1.338419    2.166987    1.133741
     19          8           0       -1.445194    1.766344   -0.830461
     20          1           0       -1.177120    1.095736   -1.481904
     21          8           0        1.142097    2.498318   -0.367693
     22          1           0        0.503223    2.604394   -1.098323
     23          6           0        2.432024   -0.319228    0.219382
     24          1           0        3.070230    0.447879   -0.232064
     25          1           0        2.608877   -0.315856    1.304115
     26          8           0        2.855314   -1.562729   -0.353801
     27          1           0        2.412846   -2.270688    0.142083
 ---------------------------------------------------------------------
 Rotational constants (GHZ):      1.1348386      0.9460983      0.5963503
 Standard basis: 6-31+G(d,p) (6D, 7F)
 There are   303 symmetry adapted basis functions of A   symmetry.
 Integral buffers will be    131072 words long.
 Raffenetti 2 integral format.
 Two-electron integral symmetry is turned on.
   303 basis functions,   489 primitive gaussians,   303 cartesian basis functions
    47 alpha electrons       47 beta electrons
       nuclear repulsion energy       809.0084766307 Hartrees.
 NAtoms=   27 NActive=   27 NUniq=   27 SFac= 1.00D+00 NAtFMM=   60 NAOKFM=F Big=F
 ------------------------------------------------------------------------------
 Polarizable Continuum Model (PCM)
 =================================
 Model                : PCM.
 Atomic radii         : UFF (Universal Force Field).
 Polarization charges : Total charges.
 Charge compensation  : None.
 Solution method      : Matrix inversion.
 Cavity type          : Scaled VdW (van der Waals Surface) (Alpha=1.100).
 Cavity algorithm     : GePol (No added spheres)
                        Default sphere list used, NSphG=   27.
                        Lebedev-Laikov grids with approx.  5.0 points / Ang**2.
                        Smoothing algorithm: Karplus/York (Gamma=1.0000).
                        Polarization charges: spherical gaussians, with
                                              point-specific exponents (IZeta= 3).
                        Self-potential: point-specific (ISelfS= 7).
                        Self-field    : sphere-specific E.n sum rule (ISelfD= 2).
 Solvent              : Water, Eps=  78.355300 Eps(inf)=   1.777849
 ------------------------------------------------------------------------------
 One-electron integrals computed using PRISM.
 NBasis=   303 RedAO= T  NBF=   303
 NBsUse=   303 1.00D-06 NBFU=   303
 Harris functional with IExCor=  908 diagonalized for initial guess.
 ExpMin= 4.38D-02 ExpMax= 5.48D+03 ExpMxC= 8.25D+02 IAcc=2 IRadAn=         4 AccDes= 0.00D+00
 HarFok:  IExCor=  908 AccDes= 0.00D+00 IRadAn=         4 IDoV= 1
 ScaDFX=  1.000000  1.000000  1.000000  1.000000
 FoFCou: FMM=F IPFlag=           0 FMFlag=      100000 FMFlg1=           0
         NFxFlg=           0 DoJE=T BraDBF=F KetDBF=T FulRan=T
         Omega=  0.000000  0.000000  1.000000  0.000000  0.000000 ICntrl=     500 IOpCl=  0
         NMat0=    1 NMatS0=    1 NMatT0=    0 NMatD0=    1 NMtDS0=    0 NMtDT0=    0
         I1Cent=           4 NGrid=           0.
 Petite list used in FoFCou.
 Initial guess orbital symmetries:
       Occupied  (A) (A) (A) (A) (A) (A) (A) (A) (A) (A) (A) (A)
                 (A) (A) (A) (A) (A) (A) (A) (A) (A) (A) (A) (A)
                 (A) (A) (A) (A) (A) (A) (A) (A) (A) (A) (A) (A)
                 (A) (A) (A) (A) (A) (A) (A) (A) (A) (A) (A)
       Virtual   (A) (A) (A) (A) (A) (A) (A) (A) (A) (A) (A) (A)
                 (A) (A) (A) (A) (A) (A) (A) (A) (A) (A) (A) (A)
                 (A) (A) (A) (A) (A) (A) (A) (A) (A) (A) (A) (A)
                 (A) (A) (A) (A) (A) (A) (A) (A) (A) (A) (A) (A)
                 (A) (A) (A) (A) (A) (A) (A) (A) (A) (A) (A) (A)
                 (A) (A) (A) (A) (A) (A) (A) (A) (A) (A) (A) (A)
                 (A) (A) (A) (A) (A) (A) (A) (A) (A) (A) (A) (A)
                 (A) (A) (A) (A) (A) (A) (A) (A) (A) (A) (A) (A)
                 (A) (A) (A) (A) (A) (A) (A) (A) (A) (A) (A) (A)
                 (A) (A) (A) (A) (A) (A) (A) (A) (A) (A) (A) (A)
                 (A) (A) (A) (A) (A) (A) (A) (A) (A) (A) (A) (A)
                 (A) (A) (A) (A) (A) (A) (A) (A) (A) (A) (A) (A)
                 (A) (A) (A) (A) (A) (A) (A) (A) (A) (A) (A) (A)
                 (A) (A) (A) (A) (A) (A) (A) (A) (A) (A) (A) (A)
                 (A) (A) (A) (A) (A) (A) (A) (A) (A) (A) (A) (A)
                 (A) (A) (A) (A) (A) (A) (A) (A) (A) (A) (A) (A)
                 (A) (A) (A) (A) (A) (A) (A) (A) (A) (A) (A) (A)
                 (A) (A) (A) (A) (A) (A) (A) (A) (A) (A) (A) (A)
                 (A) (A) (A) (A) (A) (A) (A) (A) (A) (A) (A) (A)
                 (A) (A) (A) (A) (A) (A) (A) (A) (A) (A) (A) (A)
                 (A) (A) (A) (A) (A) (A) (A) (A) (A) (A) (A) (A)
                 (A) (A) (A) (A)
 The electronic state of the initial guess is 1-A.
 Requested convergence on RMS density matrix=1.00D-08 within 128 cycles.
 Requested convergence on MAX density matrix=1.00D-06.
 Requested convergence on             energy=1.00D-06.
 No special actions if energy rises.
 Error on total polarization charges =  0.01434
 SCF Done:  E(RmPW1PW91) =  -594.196128171     A.U. after   13 cycles
             Convg  =    0.6570D-08             -V/T =  2.0094
 Range of M.O.s used for correlation:     1   303
 NBasis=   303 NAE=    47 NBE=    47 NFC=     0 NFV=     0
 NROrb=    303 NOA=    47 NOB=    47 NVA=   256 NVB=   256

 **** Warning!!: The largest alpha MO coefficient is  0.66404334D+02

 NEqPCM:  Using equilibrium solvation (IEInf=0, Eps=  78.3553, EpsInf=   1.7778)
          Differentiating once with respect to magnetic field using GIAOs.
          Electric field/nuclear overlap derivatives assumed to be zero.
 FoFCou: FMM=F IPFlag=           0 FMFlag=    10101102 FMFlg1=           0
         NFxFlg=    40000000 DoJE=F BraDBF=F KetDBF=T FulRan=T
         Omega=  0.000000  0.000000  1.000000  0.000000  0.000000 ICntrl=    6100 IOpCl=  0
         NMat0=    1 NMatS0=    1 NMatT0=    0 NMatD0=    1 NMtDS0=    0 NMtDT0=    0
         I1Cent=           7 NGrid=        1797.
 Symmetry not used in FoFCou.
          There are     3 degrees of freedom in the 1st order CPHF.  IDoFFX=0.
      3 vectors produced by pass  0 Test12= 4.01D-13 3.33D-08 XBig12= 3.69D+01 9.23D-01.
 AX will form     3 AO Fock derivatives at one time.
      3 vectors produced by pass  1 Test12= 4.01D-13 3.33D-08 XBig12= 8.66D-02 4.06D-02.
      3 vectors produced by pass  2 Test12= 4.01D-13 3.33D-08 XBig12= 1.58D-04 2.03D-03.
      3 vectors produced by pass  3 Test12= 4.01D-13 3.33D-08 XBig12= 7.40D-07 1.67D-04.
      3 vectors produced by pass  4 Test12= 4.01D-13 3.33D-08 XBig12= 2.74D-09 8.98D-06.
      3 vectors produced by pass  5 Test12= 4.01D-13 3.33D-08 XBig12= 8.34D-12 6.96D-07.
      1 vectors produced by pass  6 Test12= 4.01D-13 3.33D-08 XBig12= 3.43D-14 3.51D-08.
 Inverted reduced A of dimension    19 with in-core refinement.
 Calculating GIAO nuclear magnetic shielding tensors.
 SCF GIAO Magnetic shielding tensor (ppm):
      1  C    Isotropic =   168.5826   Anisotropy =    23.7886
   XX=   178.5533   YX=    -1.6036   ZX=     2.9780
   XY=     1.5566   YY=   163.7371   ZY=    19.7374
   XZ=    -3.2920   YZ=    21.9450   ZZ=   163.4574
   Eigenvalues:   142.7553   178.5508   184.4417
      2  C    Isotropic =   128.5292   Anisotropy =    54.3239
   XX=   150.1692   YX=   -18.5446   ZX=     2.2490
   XY=   -17.6593   YY=   140.7521   ZY=    15.5588
   XZ=    -2.1226   YZ=     5.1864   ZZ=    94.6664
   Eigenvalues:    92.1519   128.6906   164.7452
      3  N    Isotropic =   191.5671   Anisotropy =    70.5141
   XX=   234.3520   YX=    -1.5233   ZX=   -18.2214
   XY=     9.9350   YY=   196.2687   ZY=    22.7760
   XZ=   -21.7009   YZ=    22.1777   ZZ=   144.0807
   Eigenvalues:   131.7617   204.3631   238.5765
      4  C    Isotropic =   140.6640   Anisotropy =    56.9519
   XX=   137.2261   YX=    14.7198   ZX=     8.2951
   XY=     2.9405   YY=   156.4209   ZY=    28.5423
   XZ=    21.7937   YZ=    25.4103   ZZ=   128.3450
   Eigenvalues:   109.1588   134.2012   178.6319
      5  C    Isotropic =   168.1210   Anisotropy =    24.4043
   XX=   172.5282   YX=    -4.6344   ZX=     7.6870
   XY=    -7.1996   YY=   170.6573   ZY=    13.2727
   XZ=    11.4058   YZ=    22.1311   ZZ=   161.1775
   Eigenvalues:   143.3125   176.6600   184.3905
      6  C    Isotropic =   125.4322   Anisotropy =    41.7679
   XX=   121.4086   YX=    10.6387   ZX=    -6.3948
   XY=    21.7063   YY=   139.9217   ZY=   -13.9601
   XZ=   -25.7962   YZ=     5.3642   ZZ=   114.9663
   Eigenvalues:   100.3113   122.7079   153.2775
      7  C    Isotropic =   120.6201   Anisotropy =    52.3475
   XX=   118.8769   YX=    11.2182   ZX=   -22.0001
   XY=     7.3415   YY=   145.5930   ZY=   -18.2409
   XZ=   -14.8971   YZ=   -10.8836   ZZ=    97.3903
   Eigenvalues:    85.6136   120.7282   155.5184
      8  C    Isotropic =   118.9086   Anisotropy =    26.8412
   XX=   115.2899   YX=     8.0385   ZX=     7.4600
   XY=     7.6157   YY=   112.3604   ZY=   -13.9943
   XZ=    12.4120   YZ=    -9.6998   ZZ=   129.0756
   Eigenvalues:    98.1352   121.7879   136.8028
      9  H    Isotropic =    29.8452   Anisotropy =    12.7004
   XX=    31.5438   YX=     4.3242   ZX=    -4.8590
   XY=     4.9772   YY=    27.5255   ZY=    -1.9821
   XZ=    -5.3533   YZ=    -2.0130   ZZ=    30.4665
   Eigenvalues:    24.1115    27.1120    38.3122
     10  H    Isotropic =    29.4283   Anisotropy =     9.1415
   XX=    33.9577   YX=    -2.7133   ZX=     1.5485
   XY=    -2.8814   YY=    29.4534   ZY=    -1.1200
   XZ=     0.9670   YZ=    -0.8017   ZZ=    24.8738
   Eigenvalues:    24.6190    28.1433    35.5226
     11  H    Isotropic =    27.8473   Anisotropy =     9.2201
   XX=    26.2615   YX=    -0.3170   ZX=    -2.7030
   XY=     0.0040   YY=    24.3425   ZY=     1.3661
   XZ=    -2.6800   YZ=     0.6694   ZZ=    32.9381
   Eigenvalues:    24.2038    25.3442    33.9941
     12  H    Isotropic =    28.6958   Anisotropy =    11.7427
   XX=    25.5146   YX=     1.5875   ZX=     1.3502
   XY=     0.5694   YY=    35.6371   ZY=    -3.5286
   XZ=     2.5176   YZ=    -2.7804   ZZ=    24.9356
   Eigenvalues:    22.5210    27.0420    36.5242
     13  H    Isotropic =    28.6353   Anisotropy =     7.5835
   XX=    31.2710   YX=    -1.5890   ZX=    -0.6153
   XY=    -1.7265   YY=    29.1018   ZY=     4.8987
   XZ=    -1.5653   YZ=     3.8988   ZZ=    25.5331
   Eigenvalues:    22.5705    29.6444    33.6910
     14  H    Isotropic =    29.9350   Anisotropy =    12.8629
   XX=    29.8641   YX=     4.4273   ZX=     2.3451
   XY=     5.0654   YY=    32.8077   ZY=     4.2972
   XZ=     2.8383   YZ=     4.3166   ZZ=    27.1331
   Eigenvalues:    24.8125    26.4822    38.5102
     15  H    Isotropic =    30.2121   Anisotropy =     8.0036
   XX=    27.4733   YX=    -0.2467   ZX=     0.3507
   XY=    -0.0839   YY=    27.8602   ZY=    -1.6326
   XZ=     0.9069   YZ=    -0.7960   ZZ=    35.3029
   Eigenvalues:    27.4056    27.6829    35.5479
     16  H    Isotropic =    29.1352   Anisotropy =     4.7326
   XX=    30.2688   YX=     0.9465   ZX=    -1.5782
   XY=     0.2130   YY=    27.9435   ZY=    -2.4030
   XZ=    -2.3309   YZ=    -0.9686   ZZ=    29.1931
   Eigenvalues:    26.6159    28.4994    32.2902
     17  H    Isotropic =    27.9681   Anisotropy =     4.9491
   XX=    26.0385   YX=     1.6931   ZX=     0.4146
   XY=     0.7801   YY=    28.3097   ZY=     0.7690
   XZ=     2.9429   YZ=     1.9724   ZZ=    29.5562
   Eigenvalues:    25.2036    27.4332    31.2676
     18  H    Isotropic =    27.7401   Anisotropy =     8.5362
   XX=    24.8684   YX=    -2.0083   ZX=    -0.2655
   XY=    -1.9871   YY=    28.0572   ZY=     3.0867
   XZ=    -1.6522   YZ=     4.1767   ZZ=    30.2947
   Eigenvalues:    23.7779    26.0115    33.4309
     19  O    Isotropic =   309.1136   Anisotropy =    75.0170
   XX=   283.7695   YX=   -17.6877   ZX=   -36.3744
   XY=   -15.9851   YY=   332.1558   ZY=    47.0305
   XZ=   -10.2137   YZ=     3.8827   ZZ=   311.4156
   Eigenvalues:   270.4131   297.8028   359.1249
     20  H    Isotropic =    31.0364   Anisotropy =    14.5800
   XX=    24.3473   YX=    -3.0195   ZX=    -0.2972
   XY=    -1.9141   YY=    32.7070   ZY=     7.0152
   XZ=     0.6682   YZ=     5.0547   ZZ=    36.0550
   Eigenvalues:    23.3407    29.0121    40.7565
     21  O    Isotropic =   307.7185   Anisotropy =    32.9185
   XX=   296.1922   YX=   -12.5425   ZX=    21.5157
   XY=    13.4800   YY=   323.5761   ZY=   -12.0332
   XZ=    28.4013   YZ=    -2.3222   ZZ=   303.3871
   Eigenvalues:   274.0521   319.4392   329.6641
     22  H    Isotropic =    28.9646   Anisotropy =    14.7346
   XX=    31.2673   YX=     2.9210   ZX=     6.7361
   XY=     0.8217   YY=    24.1920   ZY=    -5.5755
   XZ=     6.7631   YZ=    -6.3402   ZZ=    31.4345
   Eigenvalues:    18.6424    29.4637    38.7877
     23  C    Isotropic =   124.9128   Anisotropy =    49.8798
   XX=   126.7704   YX=   -14.5498   ZX=     2.8267
   XY=   -20.5309   YY=   138.0127   ZY=    24.2510
   XZ=    -1.1145   YZ=    21.3786   ZZ=   109.9552
   Eigenvalues:    94.1804   122.3919   158.1660
     24  H    Isotropic =    27.7053   Anisotropy =     5.3603
   XX=    30.7453   YX=    -0.1942   ZX=    -1.3785
   XY=     1.4269   YY=    30.1327   ZY=    -0.4694
   XZ=    -1.5799   YZ=     0.9590   ZZ=    22.2379
   Eigenvalues:    21.9734    29.8636    31.2788
     25  H    Isotropic =    27.9821   Anisotropy =     5.5840
   XX=    27.6071   YX=    -2.2083   ZX=     2.5722
   XY=    -1.4490   YY=    27.8271   ZY=     4.3882
   XZ=     3.1116   YZ=     2.0163   ZZ=    28.5121
   Eigenvalues:    22.7290    29.5125    31.7048
     26  O    Isotropic =   307.2789   Anisotropy =    22.8920
   XX=   299.9809   YX=    14.8791   ZX=     4.6322
   XY=     1.9668   YY=   311.1532   ZY=    -4.7267
   XZ=   -12.8794   YZ=   -11.3100   ZZ=   310.7025
   Eigenvalues:   295.4578   303.8386   322.5402
     27  H    Isotropic =    30.0429   Anisotropy =    14.5881
   XX=    28.3775   YX=     1.7127   ZX=    -4.6803
   XY=     2.5473   YY=    36.8301   ZY=    -5.1024
   XZ=    -3.7923   YZ=    -4.9253   ZZ=    24.9212
   Eigenvalues:    21.4093    28.9511    39.7684
 End of Minotr Frequency-dependent properties file   721 does not exist.
 End of Minotr Frequency-dependent properties file   722 does not exist.

 **********************************************************************

            Population analysis using the SCF density.

 **********************************************************************

 Orbital symmetries:
       Occupied  (A) (A) (A) (A) (A) (A) (A) (A) (A) (A) (A) (A)
                 (A) (A) (A) (A) (A) (A) (A) (A) (A) (A) (A) (A)
                 (A) (A) (A) (A) (A) (A) (A) (A) (A) (A) (A) (A)
                 (A) (A) (A) (A) (A) (A) (A) (A) (A) (A) (A)
       Virtual   (A) (A) (A) (A) (A) (A) (A) (A) (A) (A) (A) (A)
                 (A) (A) (A) (A) (A) (A) (A) (A) (A) (A) (A) (A)
                 (A) (A) (A) (A) (A) (A) (A) (A) (A) (A) (A) (A)
                 (A) (A) (A) (A) (A) (A) (A) (A) (A) (A) (A) (A)
                 (A) (A) (A) (A) (A) (A) (A) (A) (A) (A) (A) (A)
                 (A) (A) (A) (A) (A) (A) (A) (A) (A) (A) (A) (A)
                 (A) (A) (A) (A) (A) (A) (A) (A) (A) (A) (A) (A)
                 (A) (A) (A) (A) (A) (A) (A) (A) (A) (A) (A) (A)
                 (A) (A) (A) (A) (A) (A) (A) (A) (A) (A) (A) (A)
                 (A) (A) (A) (A) (A) (A) (A) (A) (A) (A) (A) (A)
                 (A) (A) (A) (A) (A) (A) (A) (A) (A) (A) (A) (A)
                 (A) (A) (A) (A) (A) (A) (A) (A) (A) (A) (A) (A)
                 (A) (A) (A) (A) (A) (A) (A) (A) (A) (A) (A) (A)
                 (A) (A) (A) (A) (A) (A) (A) (A) (A) (A) (A) (A)
                 (A) (A) (A) (A) (A) (A) (A) (A) (A) (A) (A) (A)
                 (A) (A) (A) (A) (A) (A) (A) (A) (A) (A) (A) (A)
                 (A) (A) (A) (A) (A) (A) (A) (A) (A) (A) (A) (A)
                 (A) (A) (A) (A) (A) (A) (A) (A) (A) (A) (A) (A)
                 (A) (A) (A) (A) (A) (A) (A) (A) (A) (A) (A) (A)
                 (A) (A) (A) (A) (A) (A) (A) (A) (A) (A) (A) (A)
                 (A) (A) (A) (A) (A) (A) (A) (A) (A) (A) (A) (A)
                 (A) (A) (A) (A)
 The electronic state is 1-A.
 Alpha  occ. eigenvalues --  -19.27214 -19.25940 -19.25699 -14.41693 -10.31024
 Alpha  occ. eigenvalues --  -10.30851 -10.29550 -10.28264 -10.28244 -10.27138
 Alpha  occ. eigenvalues --  -10.24952 -10.24928  -1.08549  -1.05762  -1.05396
 Alpha  occ. eigenvalues --   -0.96595  -0.83023  -0.79592  -0.75739  -0.71906
 Alpha  occ. eigenvalues --   -0.67170  -0.62638  -0.60859  -0.58761  -0.55040
 Alpha  occ. eigenvalues --   -0.54068  -0.52384  -0.51055  -0.48551  -0.47236
 Alpha  occ. eigenvalues --   -0.45983  -0.45487  -0.43721  -0.42600  -0.40587
 Alpha  occ. eigenvalues --   -0.40237  -0.38859  -0.38233  -0.36412  -0.35703
 Alpha  occ. eigenvalues --   -0.35277  -0.34782  -0.34449  -0.31649  -0.30525
 Alpha  occ. eigenvalues --   -0.28927  -0.23620
 Alpha virt. eigenvalues --    0.00237   0.01178   0.01627   0.02484   0.03796
 Alpha virt. eigenvalues --    0.04239   0.04584   0.04915   0.05387   0.07111
 Alpha virt. eigenvalues --    0.07586   0.08016   0.08344   0.08483   0.09591
 Alpha virt. eigenvalues --    0.10062   0.11266   0.11823   0.12098   0.12436
 Alpha virt. eigenvalues --    0.12698   0.13713   0.14051   0.14705   0.14983
 Alpha virt. eigenvalues --    0.15297   0.16202   0.16333   0.18056   0.18255
 Alpha virt. eigenvalues --    0.18978   0.19505   0.19536   0.20271   0.20385
 Alpha virt. eigenvalues --    0.21214   0.22049   0.22292   0.22596   0.22946
 Alpha virt. eigenvalues --    0.23319   0.24292   0.24701   0.25170   0.25629
 Alpha virt. eigenvalues --    0.26068   0.27196   0.27522   0.28623   0.28937
 Alpha virt. eigenvalues --    0.29054   0.29645   0.30416   0.30945   0.31556
 Alpha virt. eigenvalues --    0.32246   0.32609   0.33105   0.33853   0.34418
 Alpha virt. eigenvalues --    0.35262   0.35470   0.36356   0.37217   0.37949
 Alpha virt. eigenvalues --    0.38323   0.39754   0.40407   0.41146   0.41443
 Alpha virt. eigenvalues --    0.42061   0.42859   0.44082   0.44687   0.46818
 Alpha virt. eigenvalues --    0.47735   0.63513   0.66316   0.66748   0.68291
 Alpha virt. eigenvalues --    0.68967   0.69575   0.71323   0.72843   0.73897
 Alpha virt. eigenvalues --    0.76373   0.77779   0.78270   0.80534   0.81494
 Alpha virt. eigenvalues --    0.82915   0.84353   0.85717   0.86442   0.87973
 Alpha virt. eigenvalues --    0.88733   0.90222   0.92338   0.93813   0.96135
 Alpha virt. eigenvalues --    0.98981   1.00237   1.02661   1.03019   1.03593
 Alpha virt. eigenvalues --    1.04044   1.05784   1.07121   1.08660   1.11203
 Alpha virt. eigenvalues --    1.11653   1.12668   1.12818   1.14587   1.15472
 Alpha virt. eigenvalues --    1.17301   1.17805   1.20537   1.21779   1.27061
 Alpha virt. eigenvalues --    1.27645   1.28514   1.29672   1.31779   1.32353
 Alpha virt. eigenvalues --    1.33177   1.34680   1.38768   1.39094   1.39920
 Alpha virt. eigenvalues --    1.43113   1.44665   1.45214   1.48527   1.51369
 Alpha virt. eigenvalues --    1.54261   1.57195   1.58694   1.59318   1.60400
 Alpha virt. eigenvalues --    1.61903   1.64373   1.65351   1.67147   1.71542
 Alpha virt. eigenvalues --    1.72129   1.74887   1.75200   1.77237   1.78202
 Alpha virt. eigenvalues --    1.79615   1.80624   1.82147   1.84285   1.87050
 Alpha virt. eigenvalues --    1.87898   1.88571   1.90430   1.92467   1.92931
 Alpha virt. eigenvalues --    1.96280   1.98636   2.00895   2.02613   2.04113
 Alpha virt. eigenvalues --    2.05329   2.06779   2.08108   2.08576   2.09898
 Alpha virt. eigenvalues --    2.13059   2.15147   2.15752   2.16755   2.19373
 Alpha virt. eigenvalues --    2.20416   2.23917   2.25346   2.29472   2.30383
 Alpha virt. eigenvalues --    2.31158   2.33448   2.34607   2.36273   2.39399
 Alpha virt. eigenvalues --    2.41815   2.42865   2.44230   2.46061   2.46555
 Alpha virt. eigenvalues --    2.48459   2.49211   2.49683   2.52573   2.54719
 Alpha virt. eigenvalues --    2.55650   2.56605   2.57983   2.60367   2.63244
 Alpha virt. eigenvalues --    2.64356   2.65820   2.67314   2.69350   2.70276
 Alpha virt. eigenvalues --    2.71464   2.72873   2.72970   2.76611   2.77457
 Alpha virt. eigenvalues --    2.78507   2.79871   2.82440   2.83693   2.84344
 Alpha virt. eigenvalues --    2.85934   2.87638   2.90207   2.93245   2.96095
 Alpha virt. eigenvalues --    2.98310   2.98918   3.01381   3.02410   3.03731
 Alpha virt. eigenvalues --    3.04761   3.06993   3.12772   3.14541   3.32061
 Alpha virt. eigenvalues --    3.34650   3.37061   3.39055   3.39777   3.43638
 Alpha virt. eigenvalues --    3.47012   3.49550   3.53298   3.54981   3.55456
 Alpha virt. eigenvalues --    3.58270   3.59840   3.59965   3.62614   4.29374
 Alpha virt. eigenvalues --    4.31043   4.36594   4.45502   4.49272   4.55395
 Alpha virt. eigenvalues --    4.55828   4.66481   4.78748   4.79432   4.87412
 Alpha virt. eigenvalues --    5.01892
          Condensed to atoms (all electrons):
              1          2          3          4          5          6
     1  C    6.073342  -0.359017   0.058455   0.236920  -0.122091  -0.131554
     2  C   -0.359017   7.604402  -0.240093  -0.474731   0.182933  -0.630434
     3  N    0.058455  -0.240093   7.499274   0.135707  -0.147559  -0.421745
     4  C    0.236920  -0.474731   0.135707   6.286300  -0.292200  -0.339131
     5  C   -0.122091   0.182933  -0.147559  -0.292200   5.798779   0.177755
     6  C   -0.131554  -0.630434  -0.421745  -0.339131   0.177755  11.137657
     7  C    0.043501   0.816744   0.142962  -0.336649   0.008330  -2.576715
     8  C   -0.371142  -0.685374  -0.244694  -0.015832   0.256902   1.447957
     9  H    0.416698  -0.073309   0.011035  -0.001603  -0.045732   0.011742
    10  H    0.407863  -0.115997   0.016609   0.024570  -0.024403   0.000590
    11  H    0.001676   0.243504  -0.012521  -0.011297   0.022036   0.010137
    12  H    0.006696  -0.022393  -0.025432   0.370094  -0.036742   0.012617
    13  H    0.016988   0.041271  -0.062232   0.374742  -0.022679   0.016366
    14  H   -0.038847   0.020351   0.011429  -0.031019   0.373910   0.000773
    15  H   -0.036845  -0.002408   0.020481  -0.085103   0.409066   0.014702
    16  H    0.023363   0.004565  -0.070374   0.096843  -0.040926   0.255723
    17  H    0.019489  -0.015083   0.046958   0.019602  -0.008513  -0.160354
    18  H    0.024449  -0.049894   0.016036   0.001630  -0.008654   0.025168
    19  O    0.029917  -0.144724   0.052518   0.015234  -0.008790   0.037017
    20  H    0.024003  -0.064595   0.012682  -0.001751  -0.009410   0.039661
    21  O   -0.003506   0.009356   0.004660  -0.008552   0.003632  -0.205184
    22  H    0.007680   0.004769   0.005306   0.006202  -0.005726  -0.037800
    23  C    0.204170  -0.115289   0.354369   0.281982  -0.226771  -2.301524
    24  H   -0.000046   0.014586   0.011247  -0.007443   0.001723  -0.187553
    25  H    0.004124  -0.005127   0.012436   0.017772  -0.004212  -0.147028
    26  O    0.008076   0.015290   0.023209  -0.003762  -0.010029  -0.152949
    27  H   -0.000669   0.011051   0.017302  -0.006577   0.006112  -0.075520
              7          8          9         10         11         12
     1  C    0.043501  -0.371142   0.416698   0.407863   0.001676   0.006696
     2  C    0.816744  -0.685374  -0.073309  -0.115997   0.243504  -0.022393
     3  N    0.142962  -0.244694   0.011035   0.016609  -0.012521  -0.025432
     4  C   -0.336649  -0.015832  -0.001603   0.024570  -0.011297   0.370094
     5  C    0.008330   0.256902  -0.045732  -0.024403   0.022036  -0.036742
     6  C   -2.576715   1.447957   0.011742   0.000590   0.010137   0.012617
     7  C    8.617463  -1.686386  -0.004999  -0.004403  -0.021224   0.008197
     8  C   -1.686386   7.520911   0.019005   0.027833   0.038174  -0.001361
     9  H   -0.004999   0.019005   0.514942  -0.022874  -0.007373   0.001358
    10  H   -0.004403   0.027833  -0.022874   0.503689   0.002685  -0.000029
    11  H   -0.021224   0.038174  -0.007373   0.002685   0.549545   0.000847
    12  H    0.008197  -0.001361   0.001358  -0.000029   0.000847   0.542179
    13  H    0.016378  -0.018365  -0.000112  -0.000142  -0.000184  -0.030271
    14  H    0.004290   0.001101  -0.005026   0.000896  -0.000041  -0.002786
    15  H    0.004214  -0.001494   0.004182  -0.005957  -0.000129   0.004073
    16  H   -0.064311  -0.021514  -0.000006  -0.000035  -0.000554  -0.000403
    17  H    0.428340  -0.101332   0.000002  -0.000006   0.000394   0.000011
    18  H    0.003569   0.315924  -0.000037   0.000173  -0.003167   0.000004
    19  O   -0.210871   0.237905  -0.000102  -0.000074   0.007692   0.000185
    20  H   -0.018474  -0.002136   0.000022  -0.000488  -0.000033   0.000004
    21  O    0.372914  -0.029692   0.000018  -0.000069  -0.000194   0.000011
    22  H    0.065720  -0.093647   0.000000   0.000003  -0.000019   0.000000
    23  C    0.507345  -0.681948  -0.000091  -0.000116   0.004922   0.004257
    24  H    0.055473  -0.015073   0.000000   0.000000  -0.000006  -0.000003
    25  H    0.003782  -0.010442   0.000000   0.000000  -0.000010   0.000012
    26  O    0.046283  -0.036458  -0.000016   0.000002   0.000036  -0.000481
    27  H    0.012709  -0.003311   0.000000   0.000000  -0.000009  -0.000342
             13         14         15         16         17         18
     1  C    0.016988  -0.038847  -0.036845   0.023363   0.019489   0.024449
     2  C    0.041271   0.020351  -0.002408   0.004565  -0.015083  -0.049894
     3  N   -0.062232   0.011429   0.020481  -0.070374   0.046958   0.016036
     4  C    0.374742  -0.031019  -0.085103   0.096843   0.019602   0.001630
     5  C   -0.022679   0.373910   0.409066  -0.040926  -0.008513  -0.008654
     6  C    0.016366   0.000773   0.014702   0.255723  -0.160354   0.025168
     7  C    0.016378   0.004290   0.004214  -0.064311   0.428340   0.003569
     8  C   -0.018365   0.001101  -0.001494  -0.021514  -0.101332   0.315924
     9  H   -0.000112  -0.005026   0.004182  -0.000006   0.000002  -0.000037
    10  H   -0.000142   0.000896  -0.005957  -0.000035  -0.000006   0.000173
    11  H   -0.000184  -0.000041  -0.000129  -0.000554   0.000394  -0.003167
    12  H   -0.030271  -0.002786   0.004073  -0.000403   0.000011   0.000004
    13  H    0.526263   0.000981  -0.006229   0.001971  -0.000019   0.000004
    14  H    0.000981   0.507410  -0.022670  -0.000136   0.000000   0.000003
    15  H   -0.006229  -0.022670   0.541074  -0.000325   0.000002   0.000011
    16  H    0.001971  -0.000136  -0.000325   0.579282   0.004091  -0.000174
    17  H   -0.000019   0.000000   0.000002   0.004091   0.534013  -0.003958
    18  H    0.000004   0.000003   0.000011  -0.000174  -0.003958   0.529414
    19  O   -0.000065   0.000283  -0.000438   0.005457   0.012859  -0.050543
    20  H    0.000070   0.000003   0.002358  -0.001555  -0.000275   0.006440
    21  O   -0.000007  -0.000010   0.000001  -0.002487  -0.054601   0.000385
    22  H   -0.000003   0.000000   0.000010   0.001827   0.006167  -0.000204
    23  C   -0.029218  -0.000622   0.001886   0.062910   0.083870   0.014629
    24  H   -0.000022   0.000000   0.000000  -0.002462  -0.000093  -0.000002
    25  H    0.000117   0.000000   0.000001   0.004628   0.003595   0.000002
    26  O    0.005360   0.000048  -0.000316   0.000928   0.000126   0.000041
    27  H    0.000260  -0.000005   0.000000   0.000067   0.000010   0.000000
             19         20         21         22         23         24
     1  C    0.029917   0.024003  -0.003506   0.007680   0.204170  -0.000046
     2  C   -0.144724  -0.064595   0.009356   0.004769  -0.115289   0.014586
     3  N    0.052518   0.012682   0.004660   0.005306   0.354369   0.011247
     4  C    0.015234  -0.001751  -0.008552   0.006202   0.281982  -0.007443
     5  C   -0.008790  -0.009410   0.003632  -0.005726  -0.226771   0.001723
     6  C    0.037017   0.039661  -0.205184  -0.037800  -2.301524  -0.187553
     7  C   -0.210871  -0.018474   0.372914   0.065720   0.507345   0.055473
     8  C    0.237905  -0.002136  -0.029692  -0.093647  -0.681948  -0.015073
     9  H   -0.000102   0.000022   0.000018   0.000000  -0.000091   0.000000
    10  H   -0.000074  -0.000488  -0.000069   0.000003  -0.000116   0.000000
    11  H    0.007692  -0.000033  -0.000194  -0.000019   0.004922  -0.000006
    12  H    0.000185   0.000004   0.000011   0.000000   0.004257  -0.000003
    13  H   -0.000065   0.000070  -0.000007  -0.000003  -0.029218  -0.000022
    14  H    0.000283   0.000003  -0.000010   0.000000  -0.000622   0.000000
    15  H   -0.000438   0.002358   0.000001   0.000010   0.001886   0.000000
    16  H    0.005457  -0.001555  -0.002487   0.001827   0.062910  -0.002462
    17  H    0.012859  -0.000275  -0.054601   0.006167   0.083870  -0.000093
    18  H   -0.050543   0.006440   0.000385  -0.000204   0.014629  -0.000002
    19  O    8.247356   0.257626  -0.020570   0.044226   0.065437  -0.000211
    20  H    0.257626   0.356778  -0.003701  -0.004434   0.017868  -0.000003
    21  O   -0.020570  -0.003701   8.205136   0.244653  -0.001009   0.005446
    22  H    0.044226  -0.004434   0.244653   0.356054   0.015245  -0.000108
    23  C    0.065437   0.017868  -0.001009   0.015245   6.978792   0.501217
    24  H   -0.000211  -0.000003   0.005446  -0.000108   0.501217   0.539765
    25  H    0.000158   0.000000  -0.000065  -0.000004   0.479761  -0.032714
    26  O    0.000456   0.000113  -0.000415   0.000025   0.222089  -0.061463
    27  H   -0.000020  -0.000001   0.000059   0.000000   0.031470   0.006679
             25         26         27
     1  C    0.004124   0.008076  -0.000669
     2  C   -0.005127   0.015290   0.011051
     3  N    0.012436   0.023209   0.017302
     4  C    0.017772  -0.003762  -0.006577
     5  C   -0.004212  -0.010029   0.006112
     6  C   -0.147028  -0.152949  -0.075520
     7  C    0.003782   0.046283   0.012709
     8  C   -0.010442  -0.036458  -0.003311
     9  H    0.000000  -0.000016   0.000000
    10  H    0.000000   0.000002   0.000000
    11  H   -0.000010   0.000036  -0.000009
    12  H    0.000012  -0.000481  -0.000342
    13  H    0.000117   0.005360   0.000260
    14  H    0.000000   0.000048  -0.000005
    15  H    0.000001  -0.000316   0.000000
    16  H    0.004628   0.000928   0.000067
    17  H    0.003595   0.000126   0.000010
    18  H    0.000002   0.000041   0.000000
    19  O    0.000158   0.000456  -0.000020
    20  H    0.000000   0.000113  -0.000001
    21  O   -0.000065  -0.000415   0.000059
    22  H   -0.000004   0.000025   0.000000
    23  C    0.479761   0.222089   0.031470
    24  H   -0.032714  -0.061463   0.006679
    25  H    0.556074  -0.041581  -0.007113
    26  O   -0.041581   8.274110   0.258108
    27  H   -0.007113   0.258108   0.374647
 Mulliken atomic charges:
              1
     1  C   -0.543692
     2  C    0.029647
     3  N   -0.228026
     4  C   -0.251944
     5  C   -0.226740
     6  C    0.179625
     7  C   -0.234181
     8  C    0.154488
     9  H    0.182277
    10  H    0.189681
    11  H    0.175112
    12  H    0.169698
    13  H    0.168773
    14  H    0.179683
    15  H    0.159853
    16  H    0.163606
    17  H    0.184705
    18  H    0.178751
    19  O   -0.577918
    20  H    0.389225
    21  O   -0.516207
    22  H    0.384059
    23  C   -0.475631
    24  H    0.171064
    25  H    0.165831
    26  O   -0.546830
    27  H    0.375091
 Sum of Mulliken atomic charges =   0.00000
 Mulliken charges with hydrogens summed into heavy atoms:
              1
     1  C   -0.171734
     2  C    0.204759
     3  N   -0.228026
     4  C    0.086527
     5  C    0.112796
     6  C    0.343231
     7  C   -0.049476
     8  C    0.333239
    19  O   -0.188693
    21  O   -0.132148
    23  C   -0.138736
    26  O   -0.171738
 Sum of Mulliken charges with hydrogens summed into heavy atoms =   0.00000
 Electronic spatial extent (au):  <R**2>=           2016.2509
 Charge=              0.0000 electrons
 Dipole moment (field-independent basis, Debye):
    X=             -3.5140    Y=             -2.3253    Z=              0.6152  Tot=              4.2584
 Quadrupole moment (field-independent basis, Debye-Ang):
   XX=            -83.5740   YY=            -78.2233   ZZ=            -69.6098
   XY=              3.2379   XZ=              2.7576   YZ=              0.4662
 Traceless Quadrupole moment (field-independent basis, Debye-Ang):
   XX=             -6.4383   YY=             -1.0876   ZZ=              7.5259
   XY=              3.2379   XZ=              2.7576   YZ=              0.4662
 Octapole moment (field-independent basis, Debye-Ang**2):
  XXX=            -27.5531  YYY=            -34.1510  ZZZ=             -9.5140  XYY=             -8.4491
  XXY=              0.8263  XXZ=             16.9956  XZZ=             -2.4283  YZZ=             12.9324
  YYZ=              4.3891  XYZ=             -9.4530
 Hexadecapole moment (field-independent basis, Debye-Ang**3):
 XXXX=          -1418.3203 YYYY=          -1048.1719 ZZZZ=           -255.5298 XXXY=             58.4455
 XXXZ=             28.2747 YYYX=            -46.3775 YYYZ=            -12.6837 ZZZX=              4.1410
 ZZZY=            -12.8095 XXYY=           -427.1136 XXZZ=           -259.6971 YYZZ=           -205.3783
 XXYZ=            -11.5892 YYXZ=              2.3587 ZZXY=              3.1764
 N-N= 8.090084766307D+02 E-N=-3.003224612487D+03  KE= 5.886519059891D+02
 1\1\GINC-COMPUTE-3-1\SP\RmPW1PW91\6-31+G(d,p)\C8H15N1O3\MAMICHETTI.IQU
 IR\17-May-2024\0\\# mpw1pw91/6-31+G** nmr scrf=(pcm,solvent=water)\\co
 mment\\0,1\C,0,-2.421664,-0.741239,0.29901\C,0,-1.221581,-0.016888,0.9
 46515\N,0,0.005168,-0.841206,0.633011\C,0,-0.444723,-2.014308,-0.15680
 3\C,0,-1.788934,-1.627666,-0.78607\C,0,0.975454,0.030749,-0.064792\C,0
 ,0.617678,1.446379,0.428743\C,0,-0.921351,1.414966,0.460446\H,0,-2.920
 327,-1.365557,1.048384\H,0,-3.160001,-0.03783,-0.095547\H,0,-1.355935,
 0.032738,2.033092\H,0,-0.581002,-2.876605,0.509299\H,0,0.316791,-2.288
 746,-0.891209\H,0,-2.403968,-2.496787,-1.041102\H,0,-1.626357,-1.05561
 7,-1.708417\H,0,0.832057,0.004253,-1.160312\H,0,1.003776,1.592082,1.44
 414\H,0,-1.338419,2.166987,1.133741\O,0,-1.445194,1.766344,-0.830461\H
 ,0,-1.17712,1.095736,-1.481904\O,0,1.142097,2.498318,-0.367693\H,0,0.5
 03223,2.604394,-1.098323\C,0,2.432024,-0.319228,0.219382\H,0,3.07023,0
 .447879,-0.232064\H,0,2.608877,-0.315856,1.304115\O,0,2.855314,-1.5627
 29,-0.353801\H,0,2.412846,-2.270688,0.142083\\Version=AM64L-G09RevC.01
 \State=1-A\HF=-594.1961282\RMSD=6.570e-09\Dipole=-1.3825329,-0.9148513
 ,0.2420362\Quadrupole=-4.7867115,-0.8086112,5.5953226,2.4073071,2.0501
 811,0.3466442\PG=C01 [X(C8H15N1O3)]\\@


 NO HUMAN INVESTIGATION CAN BECOME REAL SCIENCE
 WITHOUT GOING THROUGH MATHEMATICAL PEOPLE.
 -- LEONARDO DA VINCI, IN "PENSIERI" CA. 1492
 Job cpu time:  0 days  0 hours  9 minutes  1.7 seconds.
 File lengths (MBytes):  RWF=    111 Int=      0 D2E=      0 Chk=      7 Scr=      1
 Normal termination of Gaussian 09 at Fri May 17 12:39:40 2024.
