 Entering Gaussian System, Link 0=g09
 Input=/home/mamichetti.iquir/Linux/01_Cardona_A1A3_R__S_R_R_041_OptB.gjc
 Output=/home/mamichetti.iquir/Linux/01_Cardona_A1A3_R__S_R_R_041_OptB.log
 Initial command:
 /opt/ohpc/pub/apps/software/Gaussian/09/AMD64.SSE4a-enabled/g09/l1.exe /local/mamichetti.iquir/Gau-404475.inp -scrdir=/local/mamichetti.iquir/
 Entering Link 1 = /opt/ohpc/pub/apps/software/Gaussian/09/AMD64.SSE4a-enabled/g09/l1.exe PID=    404476.
  
 Copyright (c) 1988,1990,1992,1993,1995,1998,2003,2009,2011,
            Gaussian, Inc.  All Rights Reserved.
  
 This is part of the Gaussian(R) 09 program.  It is based on
 the Gaussian(R) 03 system (copyright 2003, Gaussian, Inc.),
 the Gaussian(R) 98 system (copyright 1998, Gaussian, Inc.),
 the Gaussian(R) 94 system (copyright 1995, Gaussian, Inc.),
 the Gaussian 92(TM) system (copyright 1992, Gaussian, Inc.),
 the Gaussian 90(TM) system (copyright 1990, Gaussian, Inc.),
 the Gaussian 88(TM) system (copyright 1988, Gaussian, Inc.),
 the Gaussian 86(TM) system (copyright 1986, Carnegie Mellon
 University), and the Gaussian 82(TM) system (copyright 1983,
 Carnegie Mellon University). Gaussian is a federally registered
 trademark of Gaussian, Inc.
  
 This software contains proprietary and confidential information,
 including trade secrets, belonging to Gaussian, Inc.
  
 This software is provided under written license and may be
 used, copied, transmitted, or stored only in accord with that
 written license.
  
 The following legend is applicable only to US Government
 contracts under FAR:
  
                    RESTRICTED RIGHTS LEGEND
  
 Use, reproduction and disclosure by the US Government is
 subject to restrictions as set forth in subparagraphs (a)
 and (c) of the Commercial Computer Software - Restricted
 Rights clause in FAR 52.227-19.
  
 Gaussian, Inc.
 340 Quinnipiac St., Bldg. 40, Wallingford CT 06492
  
  
 ---------------------------------------------------------------
 Warning -- This program may not be used in any manner that
 competes with the business of Gaussian, Inc. or will provide
 assistance to any competitor of Gaussian, Inc.  The licensee
 of this program is prohibited from giving any competitor of
 Gaussian, Inc. access to this program.  By using this program,
 the user acknowledges that Gaussian, Inc. is engaged in the
 business of creating and licensing software in the field of
 computational chemistry and represents and warrants to the
 licensee that it is not a competitor of Gaussian, Inc. and that
 it will not use this program in any manner prohibited above.
 ---------------------------------------------------------------
  

 Cite this work as:
 Gaussian 09, Revision C.01,
 M. J. Frisch, G. W. Trucks, H. B. Schlegel, G. E. Scuseria, 
 M. A. Robb, J. R. Cheeseman, G. Scalmani, V. Barone, B. Mennucci, 
 G. A. Petersson, H. Nakatsuji, M. Caricato, X. Li, H. P. Hratchian, 
 A. F. Izmaylov, J. Bloino, G. Zheng, J. L. Sonnenberg, M. Hada, 
 M. Ehara, K. Toyota, R. Fukuda, J. Hasegawa, M. Ishida, T. Nakajima, 
 Y. Honda, O. Kitao, H. Nakai, T. Vreven, J. A. Montgomery, Jr., 
 J. E. Peralta, F. Ogliaro, M. Bearpark, J. J. Heyd, E. Brothers, 
 K. N. Kudin, V. N. Staroverov, T. Keith, R. Kobayashi, J. Normand, 
 K. Raghavachari, A. Rendell, J. C. Burant, S. S. Iyengar, J. Tomasi, 
 M. Cossi, N. Rega, J. M. Millam, M. Klene, J. E. Knox, J. B. Cross, 
 V. Bakken, C. Adamo, J. Jaramillo, R. Gomperts, R. E. Stratmann, 
 O. Yazyev, A. J. Austin, R. Cammi, C. Pomelli, J. W. Ochterski, 
 R. L. Martin, K. Morokuma, V. G. Zakrzewski, G. A. Voth, 
 P. Salvador, J. J. Dannenberg, S. Dapprich, A. D. Daniels, 
 O. Farkas, J. B. Foresman, J. V. Ortiz, J. Cioslowski, 
 and D. J. Fox, Gaussian, Inc., Wallingford CT, 2010.
 
 ******************************************
 Gaussian 09:  AM64L-G09RevC.01 23-Sep-2011
                17-May-2024 
 ******************************************
 %nprocshared=4
 Will use up to    4 processors via shared memory.
 ------------------------------------------------
 # mpw1pw91/6-31+G** nmr scrf=(pcm,solvent=water)
 ------------------------------------------------
 1/38=1/1;
 2/12=2,17=6,18=5,40=1/2;
 3/5=1,6=6,7=111,11=2,16=1,25=1,30=1,70=2201,72=1,74=-7/1,2,8,3;
 4//1;
 5/5=2,38=5,53=1/2;
 8/6=1,10=90,11=11/1;
 10/13=100,45=16/2;
 6/7=2,8=2,9=2,10=2,28=1/1;
 99/9=1/99;
 -------
 comment
 -------
 Charge =  0 Multiplicity = 1
 Symbolic Z-Matrix:
 6                     2.17192   0.0208   -0.50932 
 6                     0.69496  -0.03068  -0.93263 
 7                     0.05721  -1.09073  -0.07815 
 6                     1.13362  -1.75137   0.70608 
 6                     2.42628  -1.41886  -0.0439 
 6                    -1.03292  -0.4789    0.73013 
 6                    -0.85816   1.04614   0.62712 
 6                    -0.14638   1.25702  -0.72735 
 1                     2.82827   0.34182  -1.32379 
 1                     2.31414   0.71451   0.32806 
 1                     0.63905  -0.33525  -1.98495 
 1                     0.9569   -2.83026   0.78892 
 1                     1.18071  -1.35028   1.7302 
 1                     2.54751  -2.08261  -0.90886 
 1                     3.31228  -1.52346   0.59003 
 1                    -0.9433   -0.78344   1.78005 
 1                    -1.80832   1.5839    0.67206 
 1                    -0.9021    1.32395  -1.51426 
 8                     0.596     2.47038  -0.75797 
 1                     0.85797   2.61841   0.17211 
 8                    -0.06967   1.6054    1.69533 
 1                     0.65242   0.99073   1.90943 
 6                    -2.39997  -0.96624   0.23607 
 1                    -2.50999  -2.03328   0.47689 
 1                    -3.20517  -0.42276   0.74089 
 8                    -2.58088  -0.75667  -1.16722 
 1                    -1.82054  -1.19721  -1.588 
 
                          Input orientation:                          
 ---------------------------------------------------------------------
 Center     Atomic      Atomic             Coordinates (Angstroms)
 Number     Number       Type             X           Y           Z
 ---------------------------------------------------------------------
      1          6           0        2.171925    0.020798   -0.509319
      2          6           0        0.694955   -0.030684   -0.932632
      3          7           0        0.057211   -1.090729   -0.078154
      4          6           0        1.133620   -1.751371    0.706083
      5          6           0        2.426280   -1.418857   -0.043899
      6          6           0       -1.032923   -0.478899    0.730130
      7          6           0       -0.858161    1.046144    0.627118
      8          6           0       -0.146375    1.257020   -0.727350
      9          1           0        2.828270    0.341819   -1.323787
     10          1           0        2.314139    0.714510    0.328062
     11          1           0        0.639047   -0.335248   -1.984953
     12          1           0        0.956901   -2.830260    0.788918
     13          1           0        1.180705   -1.350282    1.730196
     14          1           0        2.547514   -2.082613   -0.908858
     15          1           0        3.312277   -1.523463    0.590030
     16          1           0       -0.943302   -0.783444    1.780046
     17          1           0       -1.808317    1.583899    0.672062
     18          1           0       -0.902095    1.323947   -1.514259
     19          8           0        0.595997    2.470380   -0.757974
     20          1           0        0.857967    2.618410    0.172105
     21          8           0       -0.069672    1.605401    1.695326
     22          1           0        0.652421    0.990725    1.909430
     23          6           0       -2.399970   -0.966244    0.236069
     24          1           0       -2.509985   -2.033278    0.476888
     25          1           0       -3.205169   -0.422759    0.740891
     26          8           0       -2.580877   -0.756668   -1.167215
     27          1           0       -1.820544   -1.197206   -1.587997
 ---------------------------------------------------------------------
                    Distance matrix (angstroms):
                    1          2          3          4          5
     1  C    0.000000
     2  C    1.537298   0.000000
     3  N    2.427635   1.503511   0.000000
     4  C    2.386601   2.416315   1.486651   0.000000
     5  C    1.534249   2.390472   2.391930   1.531015   0.000000
     6  C    3.472316   2.439516   1.488641   2.512702   3.667251
     7  C    3.394738   2.450418   2.429309   3.435043   4.161015
     8  C    2.636342   1.551824   2.444346   3.569809   3.774384
     9  H    1.094167   2.200635   3.358953   3.372485   2.213524
    10  H    1.096662   2.183213   2.918497   2.759908   2.168452
    11  H    2.157308   1.096934   2.131940   3.080857   2.852385
    12  H    3.360094   3.296965   2.141781   1.096400   2.201072
    13  H    2.806743   3.011303   2.144700   1.100862   2.168772
    14  H    2.173715   2.764589   2.806334   2.171831   1.097007
    15  H    2.212174   3.375983   3.350997   2.193617   1.094440
    16  H    3.948751   3.257170   2.132688   2.530590   3.883891
    17  H    4.436358   3.383532   3.346140   4.447491   5.240320
    18  H    3.486789   2.173450   2.968725   4.304839   4.556645
    19  O    2.923325   2.509107   3.665234   4.500631   4.357293
    20  H    2.989718   2.874842   3.802835   4.410907   4.336564
    21  O    3.520821   3.188666   3.229620   3.700599   4.289617
    22  H    3.016620   3.020331   2.938914   3.032934   3.573256
    23  C    4.736252   3.437978   2.480317   3.650150   4.855505
    24  H    5.206929   4.033456   2.790513   3.661674   5.001544
    25  H    5.538313   4.262085   3.429306   4.537787   5.772463
    26  O    4.860700   3.363504   2.873527   4.277402   5.174162
    27  H    4.311251   2.849213   2.411831   3.781136   4.524255
                    6          7          8          9         10
     6  C    0.000000
     7  C    1.538476   0.000000
     8  C    2.433851   1.544568   0.000000
     9  H    4.449827   4.229879   3.168887   0.000000
    10  H    3.576130   3.203577   2.731729   1.769699   0.000000
    11  H    3.191833   3.312520   2.175723   2.385007   3.042690
    12  H    3.080869   4.283356   4.496904   4.245896   3.823595
    13  H    2.580618   3.334159   3.820824   3.860633   2.741171
    14  H    4.251789   4.873086   4.294547   2.475654   3.067300
    15  H    4.471186   4.898654   4.629131   2.715923   2.464433
    16  H    1.096861   2.164228   3.329508   5.012460   3.868210
    17  H    2.204483   1.092702   2.197102   5.198472   4.227152
    18  H    2.881779   2.159769   1.093077   3.862186   3.756291
    19  O    3.683216   2.462012   1.422778   3.135914   2.685994
    20  H    3.671536   2.371530   1.916013   3.361942   2.401998
    21  O    2.490735   1.440677   2.448798   4.371470   2.888884
    22  H    2.528028   1.982234   2.767959   3.950834   2.310482
    23  C    1.533108   2.565112   3.309044   5.610586   5.005619
    24  H    2.159152   3.497704   4.226453   6.113958   5.553797
    25  H    2.172998   2.771113   3.785975   6.422605   5.650360
    26  O    2.464393   3.072053   3.189862   5.521780   5.325542
    27  H    2.551475   3.296291   3.093021   4.904067   4.941816
                   11         12         13         14         15
    11  H    0.000000
    12  H    3.744393   0.000000
    13  H    3.889218   1.768171   0.000000
    14  H    2.802412   2.443659   3.060896   0.000000
    15  H    3.897249   2.700939   2.423545   1.773183   0.000000
    16  H    4.108519   2.963539   2.198908   4.593892   4.480370
    17  H    4.090531   5.210075   4.320106   5.908966   5.990235
    18  H    2.312920   5.100777   4.692126   4.885792   5.504244
    19  O    3.062496   5.533526   4.596774   4.955898   5.014586
    20  H    3.664003   5.484364   4.275783   5.111034   4.832537
    21  O    4.220528   4.642253   3.209474   5.218514   4.738043
    22  H    4.113952   3.993517   2.406558   4.580342   3.890603
    23  C    3.816637   3.879276   3.898863   5.199494   5.750265
    24  H    4.342853   3.570972   3.957077   5.244142   5.845635
    25  H    4.713373   4.808450   4.590742   6.210487   6.611461
    26  O    3.348761   4.543359   4.785067   5.303327   6.197189
    27  H    2.636311   4.003847   4.476755   4.508337   5.585347
                   16         17         18         19         20
    16  H    0.000000
    17  H    2.753215   0.000000
    18  H    3.910913   2.380927   0.000000
    19  O    4.404357   2.934549   2.032377   0.000000
    20  H    4.171649   2.903315   2.759941   0.977542   0.000000
    21  O    2.544993   2.017528   3.327699   2.685141   2.051074
    22  H    2.389717   2.817475   3.774812   3.050837   2.389541
    23  C    2.130531   2.653935   3.248423   4.666297   4.844377
    24  H    2.390565   3.689770   4.221485   5.608471   5.751017
    25  H    2.515150   2.445937   3.666174   5.006567   5.106985
    26  O    3.371753   3.075393   2.695869   4.546850   5.001058
    27  H    3.504920   3.583652   2.684250   4.469876   4.983102
                   21         22         23         24         25
    21  O    0.000000
    22  H    0.972155   0.000000
    23  C    3.764715   3.993364   0.000000
    24  H    4.547494   4.604083   1.099390   0.000000
    25  H    3.854312   4.271349   1.094791   1.773908   0.000000
    26  O    4.481034   4.793052   1.430334   2.082747   2.035216
    27  H    4.658365   4.809843   1.927769   2.331972   2.817920
                   26         27
    26  O    0.000000
    27  H    0.974288   0.000000
 Stoichiometry    C8H15NO3
 Framework group  C1[X(C8H15NO3)]
 Deg. of freedom    75
 Full point group                 C1      NOp   1
 Largest Abelian subgroup         C1      NOp   1
 Largest concise Abelian subgroup C1      NOp   1
                         Standard orientation:                         
 ---------------------------------------------------------------------
 Center     Atomic      Atomic             Coordinates (Angstroms)
 Number     Number       Type             X           Y           Z
 ---------------------------------------------------------------------
      1          6           0        2.171925    0.020799   -0.509319
      2          6           0        0.694955   -0.030684   -0.932632
      3          7           0        0.057211   -1.090729   -0.078154
      4          6           0        1.133621   -1.751371    0.706083
      5          6           0        2.426280   -1.418856   -0.043899
      6          6           0       -1.032923   -0.478899    0.730130
      7          6           0       -0.858161    1.046144    0.627118
      8          6           0       -0.146375    1.257020   -0.727350
      9          1           0        2.828270    0.341820   -1.323787
     10          1           0        2.314139    0.714511    0.328062
     11          1           0        0.639047   -0.335248   -1.984953
     12          1           0        0.956902   -2.830260    0.788918
     13          1           0        1.180705   -1.350282    1.730196
     14          1           0        2.547515   -2.082612   -0.908858
     15          1           0        3.312277   -1.523462    0.590030
     16          1           0       -0.943302   -0.783444    1.780046
     17          1           0       -1.808317    1.583898    0.672062
     18          1           0       -0.902095    1.323947   -1.514259
     19          8           0        0.595996    2.470380   -0.757974
     20          1           0        0.857966    2.618410    0.172105
     21          8           0       -0.069672    1.605401    1.695326
     22          1           0        0.652421    0.990725    1.909430
     23          6           0       -2.399970   -0.966245    0.236069
     24          1           0       -2.509984   -2.033279    0.476888
     25          1           0       -3.205169   -0.422760    0.740891
     26          8           0       -2.580877   -0.756669   -1.167215
     27          1           0       -1.820544   -1.197207   -1.587997
 ---------------------------------------------------------------------
 Rotational constants (GHZ):      1.1339053      0.9184534      0.7025675
 Standard basis: 6-31+G(d,p) (6D, 7F)
 There are   303 symmetry adapted basis functions of A   symmetry.
 Integral buffers will be    131072 words long.
 Raffenetti 2 integral format.
 Two-electron integral symmetry is turned on.
   303 basis functions,   489 primitive gaussians,   303 cartesian basis functions
    47 alpha electrons       47 beta electrons
       nuclear repulsion energy       817.4977135952 Hartrees.
 NAtoms=   27 NActive=   27 NUniq=   27 SFac= 1.00D+00 NAtFMM=   60 NAOKFM=F Big=F
 ------------------------------------------------------------------------------
 Polarizable Continuum Model (PCM)
 =================================
 Model                : PCM.
 Atomic radii         : UFF (Universal Force Field).
 Polarization charges : Total charges.
 Charge compensation  : None.
 Solution method      : Matrix inversion.
 Cavity type          : Scaled VdW (van der Waals Surface) (Alpha=1.100).
 Cavity algorithm     : GePol (No added spheres)
                        Default sphere list used, NSphG=   27.
                        Lebedev-Laikov grids with approx.  5.0 points / Ang**2.
                        Smoothing algorithm: Karplus/York (Gamma=1.0000).
                        Polarization charges: spherical gaussians, with
                                              point-specific exponents (IZeta= 3).
                        Self-potential: point-specific (ISelfS= 7).
                        Self-field    : sphere-specific E.n sum rule (ISelfD= 2).
 Solvent              : Water, Eps=  78.355300 Eps(inf)=   1.777849
 ------------------------------------------------------------------------------
 One-electron integrals computed using PRISM.
 NBasis=   303 RedAO= T  NBF=   303
 NBsUse=   303 1.00D-06 NBFU=   303
 Harris functional with IExCor=  908 diagonalized for initial guess.
 ExpMin= 4.38D-02 ExpMax= 5.48D+03 ExpMxC= 8.25D+02 IAcc=2 IRadAn=         4 AccDes= 0.00D+00
 HarFok:  IExCor=  908 AccDes= 0.00D+00 IRadAn=         4 IDoV= 1
 ScaDFX=  1.000000  1.000000  1.000000  1.000000
 FoFCou: FMM=F IPFlag=           0 FMFlag=      100000 FMFlg1=           0
         NFxFlg=           0 DoJE=T BraDBF=F KetDBF=T FulRan=T
         Omega=  0.000000  0.000000  1.000000  0.000000  0.000000 ICntrl=     500 IOpCl=  0
         NMat0=    1 NMatS0=    1 NMatT0=    0 NMatD0=    1 NMtDS0=    0 NMtDT0=    0
         I1Cent=           4 NGrid=           0.
 Petite list used in FoFCou.
 Initial guess orbital symmetries:
       Occupied  (A) (A) (A) (A) (A) (A) (A) (A) (A) (A) (A) (A)
                 (A) (A) (A) (A) (A) (A) (A) (A) (A) (A) (A) (A)
                 (A) (A) (A) (A) (A) (A) (A) (A) (A) (A) (A) (A)
                 (A) (A) (A) (A) (A) (A) (A) (A) (A) (A) (A)
       Virtual   (A) (A) (A) (A) (A) (A) (A) (A) (A) (A) (A) (A)
                 (A) (A) (A) (A) (A) (A) (A) (A) (A) (A) (A) (A)
                 (A) (A) (A) (A) (A) (A) (A) (A) (A) (A) (A) (A)
                 (A) (A) (A) (A) (A) (A) (A) (A) (A) (A) (A) (A)
                 (A) (A) (A) (A) (A) (A) (A) (A) (A) (A) (A) (A)
                 (A) (A) (A) (A) (A) (A) (A) (A) (A) (A) (A) (A)
                 (A) (A) (A) (A) (A) (A) (A) (A) (A) (A) (A) (A)
                 (A) (A) (A) (A) (A) (A) (A) (A) (A) (A) (A) (A)
                 (A) (A) (A) (A) (A) (A) (A) (A) (A) (A) (A) (A)
                 (A) (A) (A) (A) (A) (A) (A) (A) (A) (A) (A) (A)
                 (A) (A) (A) (A) (A) (A) (A) (A) (A) (A) (A) (A)
                 (A) (A) (A) (A) (A) (A) (A) (A) (A) (A) (A) (A)
                 (A) (A) (A) (A) (A) (A) (A) (A) (A) (A) (A) (A)
                 (A) (A) (A) (A) (A) (A) (A) (A) (A) (A) (A) (A)
                 (A) (A) (A) (A) (A) (A) (A) (A) (A) (A) (A) (A)
                 (A) (A) (A) (A) (A) (A) (A) (A) (A) (A) (A) (A)
                 (A) (A) (A) (A) (A) (A) (A) (A) (A) (A) (A) (A)
                 (A) (A) (A) (A) (A) (A) (A) (A) (A) (A) (A) (A)
                 (A) (A) (A) (A) (A) (A) (A) (A) (A) (A) (A) (A)
                 (A) (A) (A) (A) (A) (A) (A) (A) (A) (A) (A) (A)
                 (A) (A) (A) (A) (A) (A) (A) (A) (A) (A) (A) (A)
                 (A) (A) (A) (A)
 The electronic state of the initial guess is 1-A.
 Requested convergence on RMS density matrix=1.00D-08 within 128 cycles.
 Requested convergence on MAX density matrix=1.00D-06.
 Requested convergence on             energy=1.00D-06.
 No special actions if energy rises.
 Error on total polarization charges =  0.01413
 SCF Done:  E(RmPW1PW91) =  -594.194371110     A.U. after   13 cycles
             Convg  =    0.4055D-08             -V/T =  2.0094
 Range of M.O.s used for correlation:     1   303
 NBasis=   303 NAE=    47 NBE=    47 NFC=     0 NFV=     0
 NROrb=    303 NOA=    47 NOB=    47 NVA=   256 NVB=   256

 **** Warning!!: The largest alpha MO coefficient is  0.69145744D+02

 NEqPCM:  Using equilibrium solvation (IEInf=0, Eps=  78.3553, EpsInf=   1.7778)
          Differentiating once with respect to magnetic field using GIAOs.
          Electric field/nuclear overlap derivatives assumed to be zero.
 FoFCou: FMM=F IPFlag=           0 FMFlag=    10101102 FMFlg1=           0
         NFxFlg=    40000000 DoJE=F BraDBF=F KetDBF=T FulRan=T
         Omega=  0.000000  0.000000  1.000000  0.000000  0.000000 ICntrl=    6100 IOpCl=  0
         NMat0=    1 NMatS0=    1 NMatT0=    0 NMatD0=    1 NMtDS0=    0 NMtDT0=    0
         I1Cent=           7 NGrid=        1789.
 Symmetry not used in FoFCou.
          There are     3 degrees of freedom in the 1st order CPHF.  IDoFFX=0.
      3 vectors produced by pass  0 Test12= 4.01D-13 3.33D-08 XBig12= 2.81D+01 9.46D-01.
 AX will form     3 AO Fock derivatives at one time.
      3 vectors produced by pass  1 Test12= 4.01D-13 3.33D-08 XBig12= 7.34D-02 4.93D-02.
      3 vectors produced by pass  2 Test12= 4.01D-13 3.33D-08 XBig12= 1.66D-04 3.66D-03.
      3 vectors produced by pass  3 Test12= 4.01D-13 3.33D-08 XBig12= 7.61D-07 1.93D-04.
      3 vectors produced by pass  4 Test12= 4.01D-13 3.33D-08 XBig12= 2.29D-09 7.58D-06.
      3 vectors produced by pass  5 Test12= 4.01D-13 3.33D-08 XBig12= 7.52D-12 5.74D-07.
 Inverted reduced A of dimension    18 with in-core refinement.
 Calculating GIAO nuclear magnetic shielding tensors.
 SCF GIAO Magnetic shielding tensor (ppm):
      1  C    Isotropic =   164.4224   Anisotropy =    17.8382
   XX=   170.7258   YX=    -5.4159   ZX=     2.6417
   XY=     2.2986   YY=   168.6734   ZY=   -15.2058
   XZ=     2.7879   YZ=    -7.9582   ZZ=   153.8680
   Eigenvalues:   147.4095   169.5432   176.3145
      2  C    Isotropic =   124.9365   Anisotropy =    55.9574
   XX=   133.1582   YX=     3.9484   ZX=   -19.1065
   XY=    14.9100   YY=   143.0582   ZY=   -27.7649
   XZ=    -6.0650   YZ=   -25.3463   ZZ=    98.5932
   Eigenvalues:    84.9826   127.5855   162.2414
      3  N    Isotropic =   202.8234   Anisotropy =    72.6651
   XX=   219.7398   YX=   -19.0552   ZX=   -37.3290
   XY=   -27.9795   YY=   207.2231   ZY=   -43.9061
   XZ=   -55.4497   YZ=   -37.9173   ZZ=   181.5072
   Eigenvalues:   123.8414   233.3619   251.2668
      4  C    Isotropic =   135.7371   Anisotropy =    60.8099
   XX=   159.8563   YX=   -15.8165   ZX=    11.7929
   XY=   -27.2429   YY=   115.4452   ZY=   -11.7545
   XZ=    12.6457   YZ=   -24.0288   ZZ=   131.9097
   Eigenvalues:   101.1700   129.7642   176.2770
      5  C    Isotropic =   166.2560   Anisotropy =    21.4353
   XX=   176.9366   YX=    -2.0491   ZX=    -3.1381
   XY=    -8.3821   YY=   168.8198   ZY=   -19.9929
   XZ=    -9.6614   YZ=   -14.9734   ZZ=   153.0116
   Eigenvalues:   139.9095   178.3123   180.5462
      6  C    Isotropic =   120.0954   Anisotropy =    29.4070
   XX=   119.7207   YX=   -10.1986   ZX=   -13.3908
   XY=   -13.4367   YY=   116.6266   ZY=     3.6218
   XZ=    -2.8282   YZ=    15.1082   ZZ=   123.9389
   Eigenvalues:   106.0107   114.5755   139.7001
      7  C    Isotropic =   112.7346   Anisotropy =    26.5958
   XX=   111.8577   YX=    12.4715   ZX=    13.4266
   XY=    12.8942   YY=   114.0718   ZY=     8.3525
   XZ=     1.2098   YZ=     3.4568   ZZ=   112.2744
   Eigenvalues:   100.0116   107.7271   130.4652
      8  C    Isotropic =   121.0853   Anisotropy =    50.2596
   XX=   118.5223   YX=    13.4667   ZX=   -15.8056
   XY=    14.4029   YY=   147.0084   ZY=    -0.3902
   XZ=   -19.9994   YZ=    -6.3243   ZZ=    97.7252
   Eigenvalues:    87.1252   121.5390   154.5917
      9  H    Isotropic =    29.7951   Anisotropy =    10.5691
   XX=    31.8192   YX=     1.2903   ZX=    -4.8374
   XY=     1.8142   YY=    28.1096   ZY=    -3.0588
   XZ=    -5.1491   YZ=    -2.7919   ZZ=    29.4564
   Eigenvalues:    24.7920    27.7521    36.8411
     10  H    Isotropic =    30.1112   Anisotropy =     6.2676
   XX=    30.8330   YX=     0.2275   ZX=     1.7580
   XY=     0.0336   YY=    31.8495   ZY=     3.4516
   XZ=     2.3127   YZ=     3.6741   ZZ=    27.6510
   Eigenvalues:    25.0968    30.9472    34.2896
     11  H    Isotropic =    27.8623   Anisotropy =     7.6459
   XX=    25.8525   YX=     0.5609   ZX=    -0.3796
   XY=     0.6239   YY=    24.7771   ZY=     0.2076
   XZ=     0.5883   YZ=    -0.0830   ZZ=    32.9574
   Eigenvalues:    24.5147    26.1127    32.9596
     12  H    Isotropic =    28.0578   Anisotropy =     9.7459
   XX=    26.6480   YX=    -1.4452   ZX=     0.4282
   XY=    -0.3864   YY=    33.3059   ZY=    -3.1454
   XZ=     0.3903   YZ=    -3.6272   ZZ=    24.2195
   Eigenvalues:    23.0934    26.5249    34.5551
     13  H    Isotropic =    28.8371   Anisotropy =     8.3089
   XX=    27.6666   YX=    -2.2463   ZX=     2.8100
   XY=    -2.6217   YY=    25.9101   ZY=    -1.9189
   XZ=     1.3721   YZ=    -1.4599   ZZ=    32.9344
   Eigenvalues:    24.1963    27.9385    34.3763
     14  H    Isotropic =    29.6734   Anisotropy =    11.0176
   XX=    28.0801   YX=    -2.9836   ZX=    -3.3137
   XY=    -3.2431   YY=    31.8033   ZY=     3.8598
   XZ=    -3.5415   YZ=     4.1693   ZZ=    29.1368
   Eigenvalues:    25.1194    26.8823    37.0184
     15  H    Isotropic =    29.5562   Anisotropy =    11.7329
   XX=    34.5859   YX=    -2.4191   ZX=     3.8168
   XY=    -3.3405   YY=    26.9539   ZY=    -1.9575
   XZ=     4.0810   YZ=    -1.6905   ZZ=    27.1289
   Eigenvalues:    25.0904    26.2001    37.3782
     16  H    Isotropic =    28.6535   Anisotropy =     4.9645
   XX=    28.2335   YX=     0.4591   ZX=    -2.4975
   XY=     0.5432   YY=    26.8111   ZY=    -1.1895
   XZ=    -0.7353   YZ=    -1.0312   ZZ=    30.9161
   Eigenvalues:    26.5227    27.4747    31.9632
     17  H    Isotropic =    27.6109   Anisotropy =     7.0927
   XX=    31.7373   YX=    -2.4529   ZX=     0.4104
   XY=    -1.4400   YY=    25.8577   ZY=     1.9797
   XZ=     1.5040   YZ=     2.1554   ZZ=    25.2378
   Eigenvalues:    22.9934    27.4999    32.3394
     18  H    Isotropic =    27.1201   Anisotropy =     5.3251
   XX=    27.5676   YX=     0.1016   ZX=     5.0717
   XY=     1.1971   YY=    27.8800   ZY=    -0.6202
   XZ=     2.4246   YZ=    -2.5092   ZZ=    25.9126
   Eigenvalues:    22.4151    28.2750    30.6701
     19  O    Isotropic =   312.1876   Anisotropy =    28.5101
   XX=   284.4299   YX=   -20.3308   ZX=    14.2039
   XY=     6.4464   YY=   324.7821   ZY=     2.5260
   XZ=    -6.9467   YZ=   -10.2052   ZZ=   327.3508
   Eigenvalues:   283.0710   322.2974   331.1944
     20  H    Isotropic =    28.2238   Anisotropy =    15.0017
   XX=    22.4902   YX=     5.1579   ZX=     2.6977
   XY=     3.6781   YY=    25.5055   ZY=     2.5103
   XZ=     3.4725   YZ=     2.3416   ZZ=    36.6759
   Eigenvalues:    19.2539    27.1926    38.2250
     21  O    Isotropic =   290.6511   Anisotropy =    72.1176
   XX=   294.1074   YX=    -2.0973   ZX=    40.5251
   XY=   -45.2678   YY=   313.6246   ZY=   -27.2933
   XZ=    12.0846   YZ=     0.8229   ZZ=   264.2213
   Eigenvalues:   248.9071   284.3166   338.7295
     22  H    Isotropic =    30.7805   Anisotropy =    14.7206
   XX=    32.9439   YX=    -7.0309   ZX=     5.5433
   XY=    -7.7145   YY=    30.5239   ZY=     0.3810
   XZ=     5.4763   YZ=     0.6497   ZZ=    28.8736
   Eigenvalues:    21.7579    29.9893    40.5942
     23  C    Isotropic =   127.6828   Anisotropy =    34.7239
   XX=   122.5913   YX=     7.6995   ZX=     1.5816
   XY=     5.1401   YY=   111.4885   ZY=    -3.2893
   XZ=    12.2268   YZ=    -5.0082   ZZ=   148.9685
   Eigenvalues:   107.4590   124.7573   150.8320
     24  H    Isotropic =    27.8597   Anisotropy =     8.4277
   XX=    26.4981   YX=     3.9887   ZX=     0.6269
   XY=     3.6996   YY=    29.0546   ZY=    -3.1593
   XZ=     0.0097   YZ=    -4.2740   ZZ=    28.0266
   Eigenvalues:    22.4676    27.6334    33.4782
     25  H    Isotropic =    28.0448   Anisotropy =     7.1647
   XX=    31.3697   YX=     0.2479   ZX=    -2.1604
   XY=    -0.1884   YY=    24.3359   ZY=     0.4612
   XZ=    -2.8466   YZ=     1.2333   ZZ=    28.4287
   Eigenvalues:    24.1221    27.1909    32.8212
     26  O    Isotropic =   316.1014   Anisotropy =    40.0866
   XX=   332.4213   YX=    -5.6769   ZX=   -27.1837
   XY=    -8.3568   YY=   300.9542   ZY=   -13.3794
   XZ=    -5.8541   YZ=     6.8519   ZZ=   314.9286
   Eigenvalues:   295.9795   309.4988   342.8258
     27  H    Isotropic =    29.7541   Anisotropy =    13.7104
   XX=    34.8324   YX=    -5.3792   ZX=    -1.6361
   XY=    -3.7121   YY=    24.2574   ZY=     5.7563
   XZ=    -3.4325   YZ=     5.0875   ZZ=    30.1724
   Eigenvalues:    20.5028    29.8651    38.8943
 End of Minotr Frequency-dependent properties file   721 does not exist.
 End of Minotr Frequency-dependent properties file   722 does not exist.

 **********************************************************************

            Population analysis using the SCF density.

 **********************************************************************

 Orbital symmetries:
       Occupied  (A) (A) (A) (A) (A) (A) (A) (A) (A) (A) (A) (A)
                 (A) (A) (A) (A) (A) (A) (A) (A) (A) (A) (A) (A)
                 (A) (A) (A) (A) (A) (A) (A) (A) (A) (A) (A) (A)
                 (A) (A) (A) (A) (A) (A) (A) (A) (A) (A) (A)
       Virtual   (A) (A) (A) (A) (A) (A) (A) (A) (A) (A) (A) (A)
                 (A) (A) (A) (A) (A) (A) (A) (A) (A) (A) (A) (A)
                 (A) (A) (A) (A) (A) (A) (A) (A) (A) (A) (A) (A)
                 (A) (A) (A) (A) (A) (A) (A) (A) (A) (A) (A) (A)
                 (A) (A) (A) (A) (A) (A) (A) (A) (A) (A) (A) (A)
                 (A) (A) (A) (A) (A) (A) (A) (A) (A) (A) (A) (A)
                 (A) (A) (A) (A) (A) (A) (A) (A) (A) (A) (A) (A)
                 (A) (A) (A) (A) (A) (A) (A) (A) (A) (A) (A) (A)
                 (A) (A) (A) (A) (A) (A) (A) (A) (A) (A) (A) (A)
                 (A) (A) (A) (A) (A) (A) (A) (A) (A) (A) (A) (A)
                 (A) (A) (A) (A) (A) (A) (A) (A) (A) (A) (A) (A)
                 (A) (A) (A) (A) (A) (A) (A) (A) (A) (A) (A) (A)
                 (A) (A) (A) (A) (A) (A) (A) (A) (A) (A) (A) (A)
                 (A) (A) (A) (A) (A) (A) (A) (A) (A) (A) (A) (A)
                 (A) (A) (A) (A) (A) (A) (A) (A) (A) (A) (A) (A)
                 (A) (A) (A) (A) (A) (A) (A) (A) (A) (A) (A) (A)
                 (A) (A) (A) (A) (A) (A) (A) (A) (A) (A) (A) (A)
                 (A) (A) (A) (A) (A) (A) (A) (A) (A) (A) (A) (A)
                 (A) (A) (A) (A) (A) (A) (A) (A) (A) (A) (A) (A)
                 (A) (A) (A) (A) (A) (A) (A) (A) (A) (A) (A) (A)
                 (A) (A) (A) (A) (A) (A) (A) (A) (A) (A) (A) (A)
                 (A) (A) (A) (A)
 The electronic state is 1-A.
 Alpha  occ. eigenvalues --  -19.27301 -19.25478 -19.25380 -14.41892 -10.31023
 Alpha  occ. eigenvalues --  -10.30226 -10.29627 -10.28720 -10.27838 -10.27483
 Alpha  occ. eigenvalues --  -10.24950 -10.24884  -1.08410  -1.05764  -1.04985
 Alpha  occ. eigenvalues --   -0.96487  -0.83197  -0.78983  -0.75753  -0.72129
 Alpha  occ. eigenvalues --   -0.66787  -0.62731  -0.60944  -0.57890  -0.56165
 Alpha  occ. eigenvalues --   -0.53259  -0.51932  -0.50780  -0.48837  -0.47116
 Alpha  occ. eigenvalues --   -0.46210  -0.45144  -0.43295  -0.42908  -0.41671
 Alpha  occ. eigenvalues --   -0.40481  -0.38553  -0.37271  -0.36481  -0.36000
 Alpha  occ. eigenvalues --   -0.35693  -0.35054  -0.33458  -0.31748  -0.30032
 Alpha  occ. eigenvalues --   -0.29129  -0.23479
 Alpha virt. eigenvalues --    0.00070   0.01195   0.02008   0.02408   0.03883
 Alpha virt. eigenvalues --    0.04114   0.04502   0.04994   0.05273   0.06730
 Alpha virt. eigenvalues --    0.07792   0.08135   0.08506   0.09049   0.09328
 Alpha virt. eigenvalues --    0.10252   0.10632   0.11479   0.11856   0.12272
 Alpha virt. eigenvalues --    0.12768   0.13577   0.14291   0.14875   0.15209
 Alpha virt. eigenvalues --    0.15709   0.15986   0.17089   0.17328   0.18037
 Alpha virt. eigenvalues --    0.18604   0.18955   0.20037   0.20866   0.21519
 Alpha virt. eigenvalues --    0.21720   0.21971   0.22174   0.22492   0.22716
 Alpha virt. eigenvalues --    0.23600   0.24577   0.24992   0.25235   0.25896
 Alpha virt. eigenvalues --    0.26429   0.26877   0.27536   0.28582   0.28887
 Alpha virt. eigenvalues --    0.29140   0.29555   0.30715   0.30969   0.31980
 Alpha virt. eigenvalues --    0.32190   0.33052   0.34080   0.34615   0.35109
 Alpha virt. eigenvalues --    0.35496   0.35911   0.36235   0.36709   0.37809
 Alpha virt. eigenvalues --    0.38946   0.39715   0.40132   0.41463   0.41870
 Alpha virt. eigenvalues --    0.43119   0.44233   0.45854   0.46753   0.47963
 Alpha virt. eigenvalues --    0.48476   0.63913   0.65392   0.67310   0.68776
 Alpha virt. eigenvalues --    0.69643   0.71027   0.71904   0.72395   0.73091
 Alpha virt. eigenvalues --    0.74724   0.76080   0.80002   0.80382   0.80735
 Alpha virt. eigenvalues --    0.82705   0.83457   0.84424   0.85259   0.89143
 Alpha virt. eigenvalues --    0.89834   0.93261   0.94607   0.94803   0.97704
 Alpha virt. eigenvalues --    0.98316   0.98460   1.00358   1.03732   1.05158
 Alpha virt. eigenvalues --    1.05333   1.06871   1.08578   1.08946   1.10568
 Alpha virt. eigenvalues --    1.11854   1.11984   1.12468   1.14809   1.15052
 Alpha virt. eigenvalues --    1.17173   1.17718   1.19683   1.23539   1.25186
 Alpha virt. eigenvalues --    1.28165   1.29287   1.29516   1.31939   1.33220
 Alpha virt. eigenvalues --    1.33869   1.34868   1.38598   1.40568   1.42282
 Alpha virt. eigenvalues --    1.44145   1.45572   1.46588   1.51351   1.51811
 Alpha virt. eigenvalues --    1.53097   1.55073   1.57527   1.60363   1.61133
 Alpha virt. eigenvalues --    1.61934   1.65024   1.66466   1.68849   1.70082
 Alpha virt. eigenvalues --    1.71727   1.72800   1.76205   1.77533   1.78150
 Alpha virt. eigenvalues --    1.80023   1.82164   1.82819   1.83991   1.87101
 Alpha virt. eigenvalues --    1.87825   1.89515   1.90488   1.91440   1.92777
 Alpha virt. eigenvalues --    1.98594   1.99598   2.00369   2.04171   2.04890
 Alpha virt. eigenvalues --    2.06217   2.07617   2.08948   2.10419   2.11725
 Alpha virt. eigenvalues --    2.13291   2.14038   2.16089   2.17209   2.19207
 Alpha virt. eigenvalues --    2.19737   2.22254   2.23744   2.26686   2.28908
 Alpha virt. eigenvalues --    2.30203   2.31726   2.34111   2.35913   2.39949
 Alpha virt. eigenvalues --    2.42320   2.43742   2.45479   2.47463   2.48604
 Alpha virt. eigenvalues --    2.49258   2.51725   2.52557   2.54254   2.55189
 Alpha virt. eigenvalues --    2.56105   2.57230   2.60106   2.60522   2.61811
 Alpha virt. eigenvalues --    2.63565   2.66729   2.67591   2.68053   2.69597
 Alpha virt. eigenvalues --    2.70729   2.72181   2.73942   2.76494   2.78573
 Alpha virt. eigenvalues --    2.78722   2.79920   2.80786   2.82994   2.85150
 Alpha virt. eigenvalues --    2.86061   2.86901   2.89352   2.90570   2.94630
 Alpha virt. eigenvalues --    2.96845   2.98812   2.99223   3.00715   3.02417
 Alpha virt. eigenvalues --    3.03544   3.08146   3.13077   3.18257   3.32163
 Alpha virt. eigenvalues --    3.33865   3.36243   3.36728   3.45078   3.45645
 Alpha virt. eigenvalues --    3.47595   3.49793   3.50996   3.53148   3.56039
 Alpha virt. eigenvalues --    3.57133   3.60225   3.61401   3.63431   4.27029
 Alpha virt. eigenvalues --    4.33723   4.39098   4.47309   4.51949   4.54255
 Alpha virt. eigenvalues --    4.60432   4.71114   4.78197   4.83958   4.87561
 Alpha virt. eigenvalues --    4.95215
          Condensed to atoms (all electrons):
              1          2          3          4          5          6
     1  C    5.762717  -0.598084   0.124866  -0.178365   0.181734   0.073072
     2  C   -0.598084   8.592101  -0.249274  -0.159907   0.081735  -0.380178
     3  N    0.124866  -0.249274   7.643744   0.216951  -0.284423  -0.313329
     4  C   -0.178365  -0.159907   0.216951   5.691888   0.007149  -0.344402
     5  C    0.181734   0.081735  -0.284423   0.007149   5.791842   0.241877
     6  C    0.073072  -0.380178  -0.313329  -0.344402   0.241877   8.739286
     7  C   -0.194223   0.667935  -0.082706  -0.007624  -0.058637  -1.187133
     8  C    0.241482  -1.488563   0.028538   0.133606  -0.055433   0.075560
     9  H    0.397046  -0.079198   0.014792   0.020866  -0.018292   0.006051
    10  H    0.437147  -0.097535   0.035489   0.029943  -0.089746  -0.036465
    11  H    0.044477   0.210231  -0.021575   0.001165  -0.023503   0.037835
    12  H    0.029240  -0.007775  -0.059247   0.396884  -0.042871   0.015015
    13  H   -0.007881   0.023527  -0.073065   0.409022  -0.015481  -0.033443
    14  H   -0.030967  -0.010320   0.014558  -0.025208   0.378496  -0.006314
    15  H   -0.058975   0.043367   0.005119  -0.022742   0.378441  -0.006077
    16  H   -0.007471   0.005242  -0.047508   0.019366   0.013577   0.280137
    17  H    0.002113   0.032932   0.017834  -0.002139  -0.001388  -0.131249
    18  H    0.007733  -0.093830   0.020468   0.006686  -0.006988  -0.008849
    19  O    0.024196  -0.240603   0.014627  -0.009407   0.001790   0.082668
    20  H    0.000725  -0.029643   0.002498   0.000598   0.000050   0.010576
    21  O   -0.013841   0.107459   0.032411   0.033764  -0.039561  -0.100595
    22  H   -0.010483   0.031938   0.010069  -0.002522  -0.007576  -0.056589
    23  C    0.079888  -0.243002   0.098627  -0.041918  -0.054353  -0.687448
    24  H   -0.000358   0.005409  -0.003912   0.006136   0.003778  -0.054576
    25  H    0.001425   0.003427   0.015298   0.000029  -0.000003  -0.135175
    26  O    0.004775  -0.012368   0.045181   0.008912   0.000158  -0.206597
    27  H    0.008916   0.002784   0.039614   0.008718  -0.001271  -0.047202
              7          8          9         10         11         12
     1  C   -0.194223   0.241482   0.397046   0.437147   0.044477   0.029240
     2  C    0.667935  -1.488563  -0.079198  -0.097535   0.210231  -0.007775
     3  N   -0.082706   0.028538   0.014792   0.035489  -0.021575  -0.059247
     4  C   -0.007624   0.133606   0.020866   0.029943   0.001165   0.396884
     5  C   -0.058637  -0.055433  -0.018292  -0.089746  -0.023503  -0.042871
     6  C   -1.187133   0.075560   0.006051  -0.036465   0.037835   0.015015
     7  C    7.412725  -0.774382  -0.010121   0.038341   0.000205  -0.006197
     8  C   -0.774382   7.087971   0.011645  -0.004554   0.010072   0.002244
     9  H   -0.010121   0.011645   0.506000  -0.022714  -0.003764  -0.000089
    10  H    0.038341  -0.004554  -0.022714   0.541957   0.004108  -0.000069
    11  H    0.000205   0.010072  -0.003764   0.004108   0.560649   0.000275
    12  H   -0.006197   0.002244  -0.000089  -0.000069   0.000275   0.543121
    13  H    0.020125  -0.008729  -0.000151   0.000767  -0.000498  -0.041141
    14  H    0.006254  -0.001882  -0.004538   0.004209   0.000896  -0.006283
    15  H    0.003363  -0.001728   0.000009  -0.004982  -0.000078   0.001149
    16  H    0.015848   0.029110   0.000003  -0.000056  -0.000247  -0.000370
    17  H    0.395716  -0.030504   0.000004  -0.000067  -0.000108   0.000006
    18  H   -0.072643   0.488276  -0.000074   0.000090  -0.007116   0.000004
    19  O   -0.140695   0.389458  -0.000762   0.003782   0.007644   0.000067
    20  H   -0.083531   0.064259   0.000213  -0.000773  -0.000163   0.000000
    21  O    0.324247  -0.224125   0.000146   0.001228  -0.001188  -0.000042
    22  H    0.044289  -0.019392   0.000024  -0.000793  -0.000005   0.000014
    23  C   -0.221915   0.158098   0.000180   0.000744   0.009650   0.008219
    24  H    0.020753  -0.002626   0.000000   0.000000  -0.000014   0.000032
    25  H   -0.010355   0.003384   0.000000   0.000000  -0.000014  -0.000011
    26  O    0.073480   0.009190   0.000013   0.000044   0.000214   0.000177
    27  H   -0.024949  -0.000152  -0.000004  -0.000001  -0.000911  -0.000100
             13         14         15         16         17         18
     1  C   -0.007881  -0.030967  -0.058975  -0.007471   0.002113   0.007733
     2  C    0.023527  -0.010320   0.043367   0.005242   0.032932  -0.093830
     3  N   -0.073065   0.014558   0.005119  -0.047508   0.017834   0.020468
     4  C    0.409022  -0.025208  -0.022742   0.019366  -0.002139   0.006686
     5  C   -0.015481   0.378496   0.378441   0.013577  -0.001388  -0.006988
     6  C   -0.033443  -0.006314  -0.006077   0.280137  -0.131249  -0.008849
     7  C    0.020125   0.006254   0.003363   0.015848   0.395716  -0.072643
     8  C   -0.008729  -0.001882  -0.001728   0.029110  -0.030504   0.488276
     9  H   -0.000151  -0.004538   0.000009   0.000003   0.000004  -0.000074
    10  H    0.000767   0.004209  -0.004982  -0.000056  -0.000067   0.000090
    11  H   -0.000498   0.000896  -0.000078  -0.000247  -0.000108  -0.007116
    12  H   -0.041141  -0.006283   0.001149  -0.000370   0.000006   0.000004
    13  H    0.576552   0.003976  -0.005005   0.006724  -0.000111   0.000007
    14  H    0.003976   0.517574  -0.023391  -0.000012   0.000000   0.000006
    15  H   -0.005005  -0.023391   0.510446  -0.000018   0.000000   0.000003
    16  H    0.006724  -0.000012  -0.000018   0.539951   0.000272  -0.000177
    17  H   -0.000111   0.000000   0.000000   0.000272   0.532591  -0.003931
    18  H    0.000007   0.000006   0.000003  -0.000177  -0.003931   0.527040
    19  O   -0.000103   0.000098   0.000051  -0.000692   0.001207  -0.058407
    20  H    0.000011  -0.000001   0.000001  -0.000015  -0.000059   0.005878
    21  O   -0.001346  -0.000008   0.000085  -0.006924  -0.050854   0.011616
    22  H   -0.000477   0.000000  -0.000057  -0.000345   0.005374  -0.000319
    23  C   -0.005974   0.001587  -0.000189  -0.037147   0.052727  -0.000842
    24  H    0.000034   0.000001   0.000000  -0.001908   0.000069  -0.000024
    25  H    0.000008   0.000000   0.000000   0.001408   0.001468   0.000092
    26  O   -0.000171   0.000013   0.000003   0.009475   0.000197  -0.002459
    27  H    0.000028   0.000001   0.000000   0.000116   0.000005  -0.000505
             19         20         21         22         23         24
     1  C    0.024196   0.000725  -0.013841  -0.010483   0.079888  -0.000358
     2  C   -0.240603  -0.029643   0.107459   0.031938  -0.243002   0.005409
     3  N    0.014627   0.002498   0.032411   0.010069   0.098627  -0.003912
     4  C   -0.009407   0.000598   0.033764  -0.002522  -0.041918   0.006136
     5  C    0.001790   0.000050  -0.039561  -0.007576  -0.054353   0.003778
     6  C    0.082668   0.010576  -0.100595  -0.056589  -0.687448  -0.054576
     7  C   -0.140695  -0.083531   0.324247   0.044289  -0.221915   0.020753
     8  C    0.389458   0.064259  -0.224125  -0.019392   0.158098  -0.002626
     9  H   -0.000762   0.000213   0.000146   0.000024   0.000180   0.000000
    10  H    0.003782  -0.000773   0.001228  -0.000793   0.000744   0.000000
    11  H    0.007644  -0.000163  -0.001188  -0.000005   0.009650  -0.000014
    12  H    0.000067   0.000000  -0.000042   0.000014   0.008219   0.000032
    13  H   -0.000103   0.000011  -0.001346  -0.000477  -0.005974   0.000034
    14  H    0.000098  -0.000001  -0.000008   0.000000   0.001587   0.000001
    15  H    0.000051   0.000001   0.000085  -0.000057  -0.000189   0.000000
    16  H   -0.000692  -0.000015  -0.006924  -0.000345  -0.037147  -0.001908
    17  H    0.001207  -0.000059  -0.050854   0.005374   0.052727   0.000069
    18  H   -0.058407   0.005878   0.011616  -0.000319  -0.000842  -0.000024
    19  O    8.215279   0.249147  -0.030728  -0.002308   0.007715  -0.000038
    20  H    0.249147   0.352840   0.043155  -0.004372  -0.001520   0.000000
    21  O   -0.030728   0.043155   8.255865   0.240551  -0.003353  -0.000292
    22  H   -0.002308  -0.004372   0.240551   0.347468   0.024868  -0.000013
    23  C    0.007715  -0.001520  -0.003353   0.024868   6.004927   0.386580
    24  H   -0.000038   0.000000  -0.000292  -0.000013   0.386580   0.571333
    25  H    0.000021  -0.000001   0.000048   0.000004   0.495560  -0.035136
    26  O   -0.002000   0.000103  -0.000804  -0.000104   0.209784  -0.050250
    27  H    0.000140  -0.000002  -0.000049  -0.000001   0.017796  -0.005282
             25         26         27
     1  C    0.001425   0.004775   0.008916
     2  C    0.003427  -0.012368   0.002784
     3  N    0.015298   0.045181   0.039614
     4  C    0.000029   0.008912   0.008718
     5  C   -0.000003   0.000158  -0.001271
     6  C   -0.135175  -0.206597  -0.047202
     7  C   -0.010355   0.073480  -0.024949
     8  C    0.003384   0.009190  -0.000152
     9  H    0.000000   0.000013  -0.000004
    10  H    0.000000   0.000044  -0.000001
    11  H   -0.000014   0.000214  -0.000911
    12  H   -0.000011   0.000177  -0.000100
    13  H    0.000008  -0.000171   0.000028
    14  H    0.000000   0.000013   0.000001
    15  H    0.000000   0.000003   0.000000
    16  H    0.001408   0.009475   0.000116
    17  H    0.001468   0.000197   0.000005
    18  H    0.000092  -0.002459  -0.000505
    19  O    0.000021  -0.002000   0.000140
    20  H   -0.000001   0.000103  -0.000002
    21  O    0.000048  -0.000804  -0.000049
    22  H    0.000004  -0.000104  -0.000001
    23  C    0.495560   0.209784   0.017796
    24  H   -0.035136  -0.050250  -0.005282
    25  H    0.539971  -0.054292   0.006668
    26  O   -0.054292   8.258437   0.250600
    27  H    0.006668   0.250600   0.359164
 Mulliken atomic charges:
              1
     1  C   -0.320903
     2  C   -0.117808
     3  N   -0.245644
     4  C   -0.197449
     5  C   -0.381102
     6  C    0.173544
     7  C   -0.148167
     8  C   -0.120824
     9  H    0.182716
    10  H    0.159906
    11  H    0.171765
    12  H    0.167749
    13  H    0.152795
    14  H    0.181256
    15  H    0.181205
    16  H    0.181660
    17  H    0.177899
    18  H    0.188268
    19  O   -0.512147
    20  H    0.390028
    21  O   -0.576865
    22  H    0.400759
    23  C   -0.259289
    24  H    0.160305
    25  H    0.166176
    26  O   -0.541711
    27  H    0.385879
 Sum of Mulliken atomic charges =   0.00000
 Mulliken charges with hydrogens summed into heavy atoms:
              1
     1  C    0.021719
     2  C    0.053957
     3  N   -0.245644
     4  C    0.123095
     5  C   -0.018641
     6  C    0.355204
     7  C    0.029732
     8  C    0.067444
    19  O   -0.122119
    21  O   -0.176106
    23  C    0.067192
    26  O   -0.155832
 Sum of Mulliken charges with hydrogens summed into heavy atoms =   0.00000
 Electronic spatial extent (au):  <R**2>=           1913.0911
 Charge=              0.0000 electrons
 Dipole moment (field-independent basis, Debye):
    X=              2.6690    Y=             -3.5213    Z=              2.7630  Tot=              5.2113
 Quadrupole moment (field-independent basis, Debye-Ang):
   XX=            -74.5800   YY=            -81.4785   ZZ=            -73.6468
   XY=             -2.3350   XZ=             -2.1613   YZ=              0.4045
 Traceless Quadrupole moment (field-independent basis, Debye-Ang):
   XX=              1.9884   YY=             -4.9100   ZZ=              2.9216
   XY=             -2.3350   XZ=             -2.1613   YZ=              0.4045
 Octapole moment (field-independent basis, Debye-Ang**2):
  XXX=             21.7664  YYY=            -20.5172  ZZZ=             -5.1758  XYY=             -3.2571
  XXY=              6.3563  XXZ=             23.8395  XZZ=              7.2018  YZZ=            -11.5683
  YYZ=              8.7771  XYZ=              9.0251
 Hexadecapole moment (field-independent basis, Debye-Ang**3):
 XXXX=          -1233.1816 YYYY=           -907.1604 ZZZZ=           -426.4479 XXXY=            -16.4192
 XXXZ=            -54.8164 YYYX=              7.5259 YYYZ=             31.4253 ZZZX=             16.4873
 ZZZY=             -1.3633 XXYY=           -328.2201 XXZZ=           -278.3958 YYZZ=           -240.4546
 XXYZ=             -2.3403 YYXZ=             16.3395 ZZXY=              4.2928
 N-N= 8.174977135952D+02 E-N=-3.020275481547D+03  KE= 5.886563722849D+02
 1\1\GINC-COMPUTE-3-1\SP\RmPW1PW91\6-31+G(d,p)\C8H15N1O3\MAMICHETTI.IQU
 IR\17-May-2024\0\\# mpw1pw91/6-31+G** nmr scrf=(pcm,solvent=water)\\co
 mment\\0,1\C,0,2.171925,0.020798,-0.509319\C,0,0.694955,-0.030684,-0.9
 32632\N,0,0.057211,-1.090729,-0.078154\C,0,1.13362,-1.751371,0.706083\
 C,0,2.42628,-1.418857,-0.043899\C,0,-1.032923,-0.478899,0.73013\C,0,-0
 .858161,1.046144,0.627118\C,0,-0.146375,1.25702,-0.72735\H,0,2.82827,0
 .341819,-1.323787\H,0,2.314139,0.71451,0.328062\H,0,0.639047,-0.335248
 ,-1.984953\H,0,0.956901,-2.83026,0.788918\H,0,1.180705,-1.350282,1.730
 196\H,0,2.547514,-2.082613,-0.908858\H,0,3.312277,-1.523463,0.59003\H,
 0,-0.943302,-0.783444,1.780046\H,0,-1.808317,1.583899,0.672062\H,0,-0.
 902095,1.323947,-1.514259\O,0,0.595997,2.47038,-0.757974\H,0,0.857967,
 2.61841,0.172105\O,0,-0.069672,1.605401,1.695326\H,0,0.652421,0.990725
 ,1.90943\C,0,-2.39997,-0.966244,0.236069\H,0,-2.509985,-2.033278,0.476
 888\H,0,-3.205169,-0.422759,0.740891\O,0,-2.580877,-0.756668,-1.167215
 \H,0,-1.820544,-1.197206,-1.587997\\Version=AM64L-G09RevC.01\State=1-A
 \HF=-594.1943711\RMSD=4.055e-09\Dipole=1.0500511,-1.385406,1.0870641\Q
 uadrupole=1.4783599,-3.6505004,2.1721405,-1.7359808,-1.6068689,0.30076
 55\PG=C01 [X(C8H15N1O3)]\\@


 We find comfort among those who agree with us -- growth among those who don't.
 -- Frank A. Clark
 Job cpu time:  0 days  0 hours  8 minutes 45.5 seconds.
 File lengths (MBytes):  RWF=    111 Int=      0 D2E=      0 Chk=      7 Scr=      1
 Normal termination of Gaussian 09 at Fri May 17 12:17:42 2024.
