 Entering Gaussian System, Link 0=g09
 Input=/home/mamichetti.iquir/Linux/01_Cardona_A1A3_R__S_R_R_014_OptB.gjc
 Output=/home/mamichetti.iquir/Linux/01_Cardona_A1A3_R__S_R_R_014_OptB.log
 Initial command:
 /opt/ohpc/pub/apps/software/Gaussian/09/AMD64.SSE4a-enabled/g09/l1.exe /local/mamichetti.iquir/Gau-406875.inp -scrdir=/local/mamichetti.iquir/
 Entering Link 1 = /opt/ohpc/pub/apps/software/Gaussian/09/AMD64.SSE4a-enabled/g09/l1.exe PID=    406876.
  
 Copyright (c) 1988,1990,1992,1993,1995,1998,2003,2009,2011,
            Gaussian, Inc.  All Rights Reserved.
  
 This is part of the Gaussian(R) 09 program.  It is based on
 the Gaussian(R) 03 system (copyright 2003, Gaussian, Inc.),
 the Gaussian(R) 98 system (copyright 1998, Gaussian, Inc.),
 the Gaussian(R) 94 system (copyright 1995, Gaussian, Inc.),
 the Gaussian 92(TM) system (copyright 1992, Gaussian, Inc.),
 the Gaussian 90(TM) system (copyright 1990, Gaussian, Inc.),
 the Gaussian 88(TM) system (copyright 1988, Gaussian, Inc.),
 the Gaussian 86(TM) system (copyright 1986, Carnegie Mellon
 University), and the Gaussian 82(TM) system (copyright 1983,
 Carnegie Mellon University). Gaussian is a federally registered
 trademark of Gaussian, Inc.
  
 This software contains proprietary and confidential information,
 including trade secrets, belonging to Gaussian, Inc.
  
 This software is provided under written license and may be
 used, copied, transmitted, or stored only in accord with that
 written license.
  
 The following legend is applicable only to US Government
 contracts under FAR:
  
                    RESTRICTED RIGHTS LEGEND
  
 Use, reproduction and disclosure by the US Government is
 subject to restrictions as set forth in subparagraphs (a)
 and (c) of the Commercial Computer Software - Restricted
 Rights clause in FAR 52.227-19.
  
 Gaussian, Inc.
 340 Quinnipiac St., Bldg. 40, Wallingford CT 06492
  
  
 ---------------------------------------------------------------
 Warning -- This program may not be used in any manner that
 competes with the business of Gaussian, Inc. or will provide
 assistance to any competitor of Gaussian, Inc.  The licensee
 of this program is prohibited from giving any competitor of
 Gaussian, Inc. access to this program.  By using this program,
 the user acknowledges that Gaussian, Inc. is engaged in the
 business of creating and licensing software in the field of
 computational chemistry and represents and warrants to the
 licensee that it is not a competitor of Gaussian, Inc. and that
 it will not use this program in any manner prohibited above.
 ---------------------------------------------------------------
  

 Cite this work as:
 Gaussian 09, Revision C.01,
 M. J. Frisch, G. W. Trucks, H. B. Schlegel, G. E. Scuseria, 
 M. A. Robb, J. R. Cheeseman, G. Scalmani, V. Barone, B. Mennucci, 
 G. A. Petersson, H. Nakatsuji, M. Caricato, X. Li, H. P. Hratchian, 
 A. F. Izmaylov, J. Bloino, G. Zheng, J. L. Sonnenberg, M. Hada, 
 M. Ehara, K. Toyota, R. Fukuda, J. Hasegawa, M. Ishida, T. Nakajima, 
 Y. Honda, O. Kitao, H. Nakai, T. Vreven, J. A. Montgomery, Jr., 
 J. E. Peralta, F. Ogliaro, M. Bearpark, J. J. Heyd, E. Brothers, 
 K. N. Kudin, V. N. Staroverov, T. Keith, R. Kobayashi, J. Normand, 
 K. Raghavachari, A. Rendell, J. C. Burant, S. S. Iyengar, J. Tomasi, 
 M. Cossi, N. Rega, J. M. Millam, M. Klene, J. E. Knox, J. B. Cross, 
 V. Bakken, C. Adamo, J. Jaramillo, R. Gomperts, R. E. Stratmann, 
 O. Yazyev, A. J. Austin, R. Cammi, C. Pomelli, J. W. Ochterski, 
 R. L. Martin, K. Morokuma, V. G. Zakrzewski, G. A. Voth, 
 P. Salvador, J. J. Dannenberg, S. Dapprich, A. D. Daniels, 
 O. Farkas, J. B. Foresman, J. V. Ortiz, J. Cioslowski, 
 and D. J. Fox, Gaussian, Inc., Wallingford CT, 2010.
 
 ******************************************
 Gaussian 09:  AM64L-G09RevC.01 23-Sep-2011
                17-May-2024 
 ******************************************
 %nprocshared=4
 Will use up to    4 processors via shared memory.
 ------------------------------------------------
 # mpw1pw91/6-31+G** nmr scrf=(pcm,solvent=water)
 ------------------------------------------------
 1/38=1/1;
 2/12=2,17=6,18=5,40=1/2;
 3/5=1,6=6,7=111,11=2,16=1,25=1,30=1,70=2201,72=1,74=-7/1,2,8,3;
 4//1;
 5/5=2,38=5,53=1/2;
 8/6=1,10=90,11=11/1;
 10/13=100,45=16/2;
 6/7=2,8=2,9=2,10=2,28=1/1;
 99/9=1/99;
 -------
 comment
 -------
 Charge =  0 Multiplicity = 1
 Symbolic Z-Matrix:
 6                    -1.94076   1.09307  -0.36461 
 6                    -0.73032   0.33941  -0.94245 
 7                     0.46979   0.8385   -0.18275 
 6                     0.00501   1.88555   0.76436 
 6                    -1.30741   2.38897   0.16219 
 6                     1.14412  -0.32348   0.4521 
 6                     0.1243   -1.4684    0.4669 
 6                    -0.71951  -1.20858  -0.79413 
 1                    -2.72004   1.26255  -1.11376 
 1                    -2.3895    0.53575   0.46458 
 1                    -0.62302   0.59824  -2.00225 
 1                     0.75954   2.67338   0.87013 
 1                    -0.17869   1.46604   1.76414 
 1                    -1.10685   3.08043  -0.66545 
 1                    -1.93005   2.90978   0.89631 
 1                     1.43743  -0.06077   1.47438 
 1                     0.59306  -2.45937   0.45421 
 1                    -0.20578  -1.64747  -1.65425 
 8                    -2.00182  -1.82105  -0.73654 
 1                    -2.26276  -1.78248   0.20228 
 8                    -0.77873  -1.37152   1.58007 
 1                    -0.31944  -1.71551   2.36372 
 6                     2.42152  -0.66713  -0.32255 
 1                     2.98768  -1.44636   0.19802 
 1                     2.17509  -1.04304  -1.32781 
 8                     3.26383   0.48259  -0.40987 
 1                     2.64688   1.20287  -0.64513 
 
                          Input orientation:                          
 ---------------------------------------------------------------------
 Center     Atomic      Atomic             Coordinates (Angstroms)
 Number     Number       Type             X           Y           Z
 ---------------------------------------------------------------------
      1          6           0       -1.940764    1.093068   -0.364605
      2          6           0       -0.730315    0.339405   -0.942450
      3          7           0        0.469791    0.838496   -0.182746
      4          6           0        0.005005    1.885550    0.764356
      5          6           0       -1.307409    2.388971    0.162185
      6          6           0        1.144124   -0.323480    0.452097
      7          6           0        0.124297   -1.468404    0.466902
      8          6           0       -0.719511   -1.208582   -0.794129
      9          1           0       -2.720042    1.262551   -1.113762
     10          1           0       -2.389498    0.535750    0.464577
     11          1           0       -0.623020    0.598236   -2.002250
     12          1           0        0.759542    2.673380    0.870126
     13          1           0       -0.178692    1.466044    1.764143
     14          1           0       -1.106848    3.080426   -0.665449
     15          1           0       -1.930050    2.909776    0.896309
     16          1           0        1.437430   -0.060770    1.474381
     17          1           0        0.593060   -2.459374    0.454213
     18          1           0       -0.205781   -1.647469   -1.654247
     19          8           0       -2.001816   -1.821053   -0.736543
     20          1           0       -2.262758   -1.782479    0.202279
     21          8           0       -0.778734   -1.371522    1.580069
     22          1           0       -0.319444   -1.715514    2.363723
     23          6           0        2.421515   -0.667130   -0.322553
     24          1           0        2.987680   -1.446357    0.198019
     25          1           0        2.175092   -1.043036   -1.327812
     26          8           0        3.263834    0.482588   -0.409866
     27          1           0        2.646879    1.202871   -0.645127
 ---------------------------------------------------------------------
                    Distance matrix (angstroms):
                    1          2          3          4          5
     1  C    0.000000
     2  C    1.538538   0.000000
     3  N    2.430773   1.505489   0.000000
     4  C    2.385078   2.417529   1.486388   0.000000
     5  C    1.535582   2.398745   2.383567   1.529207   0.000000
     6  C    3.491439   2.428518   1.485913   2.504977   3.667622
     7  C    3.393673   2.446387   2.421404   3.369231   4.125770
     8  C    2.640747   1.555114   2.445150   3.539414   3.768627
     9  H    1.094182   2.200127   3.349873   3.367690   2.211876
    10  H    1.095221   2.184300   2.947239   2.765045   2.167207
    11  H    2.159442   1.096212   2.136014   3.115397   2.891349
    12  H    3.363569   3.309463   2.135250   1.095988   2.203260
    13  H    2.788472   2.983161   2.145862   1.099684   2.166118
    14  H    2.176124   2.780594   2.782992   2.169859   1.096956
    15  H    2.211435   3.380415   3.348701   2.193374   1.094467
    16  H    4.015645   3.271136   2.119216   2.518757   3.906050
    17  H    4.439659   3.396344   3.361080   4.395493   5.215699
    18  H    3.490542   2.174732   2.966772   4.286758   4.561344
    19  O    2.938395   2.515291   3.672701   4.474252   4.360529
    20  H    2.948526   2.856778   3.805861   4.348921   4.279637
    21  O    3.347577   3.048396   3.090390   3.447920   4.053542
    22  H    4.237993   3.914369   3.691932   3.953594   4.761265
    23  C    4.704205   3.366217   2.468944   3.679275   4.845575
    24  H    5.572682   4.279381   3.421301   4.507626   5.758369
    25  H    4.736135   3.240530   2.785568   4.202744   5.111416
    26  O    5.240475   4.032043   2.825762   3.737254   4.985760
    27  H    4.597523   3.498487   2.255278   3.071187   4.206540
                    6          7          8          9         10
     6  C    0.000000
     7  C    1.533335   0.000000
     8  C    2.410315   1.539389   0.000000
     9  H    4.460851   4.248162   3.195432   0.000000
    10  H    3.636608   3.214935   2.723213   1.768800   0.000000
    11  H    3.161673   3.305480   2.175651   2.372388   3.034730
    12  H    3.050217   4.209572   4.475150   4.246617   3.827582
    13  H    2.583351   3.222673   3.740436   3.844764   2.728000
    14  H    4.231118   4.846627   4.308385   2.471447   3.065538
    15  H    4.483505   4.855223   4.613443   2.716215   2.456315
    16  H    1.095495   2.172732   3.334067   5.072892   4.002614
    17  H    2.205838   1.096322   2.201291   5.223784   4.226882
    18  H    2.830526   2.154133   1.093775   3.883536   3.744927
    19  O    3.681376   2.468400   1.422232   3.188535   2.673482
    20  H    3.714557   2.422127   1.924525   3.348624   2.336461
    21  O    2.463351   1.436660   2.380519   4.238366   2.734332
    22  H    2.781026   1.963644   3.223207   5.169588   3.600010
    23  C    1.532940   2.557829   3.222049   5.548449   5.021189
    24  H    2.173501   2.876064   3.845018   6.452677   5.737059
    25  H    2.179159   2.758205   2.948042   5.415153   5.151767
    26  O    2.426087   3.798919   4.344508   6.075408   5.720808
    27  H    2.406641   3.838716   4.143656   5.387673   5.200153
                   11         12         13         14         15
    11  H    0.000000
    12  H    3.803715   0.000000
    13  H    3.890531   1.771217   0.000000
    14  H    2.860488   2.450936   3.061147   0.000000
    15  H    3.931054   2.700088   2.429970   1.773660   0.000000
    16  H    4.094717   2.881012   2.242091   4.573766   4.527497
    17  H    4.106341   5.152268   4.209563   5.901925   5.948891
    18  H    2.310495   5.096474   4.623861   4.913515   5.499720
    19  O    3.058766   5.514201   4.514667   4.983023   5.005207
    20  H    3.635449   5.425403   4.163610   5.073157   4.754958
    21  O    4.091113   4.385378   2.906151   4.996984   4.485819
    22  H    4.950487   4.759982   3.240620   5.726860   5.112794
    23  C    3.700233   3.917096   3.958006   5.158595   5.763332
    24  H    4.696669   4.731655   4.578290   6.164617   6.606631
    25  H    3.313317   4.543838   4.625578   5.311572   6.117485
    26  O    4.201987   3.565028   4.188614   5.090869   5.879946
    27  H    3.591602   2.832036   3.722592   4.197153   5.122287
                   16         17         18         19         20
    16  H    0.000000
    17  H    2.739891   0.000000
    18  H    3.873767   2.396443   0.000000
    19  O    4.451426   2.925532   2.024365   0.000000
    20  H    4.274800   2.945735   2.774179   0.975175   0.000000
    21  O    2.576941   2.081536   3.296244   2.657950   2.066281
    22  H    2.572103   2.243261   4.020153   3.528904   2.907369
    23  C    2.136602   2.675584   3.104377   4.590074   4.843745
    24  H    2.439718   2.612670   3.697233   5.090076   5.261188
    25  H    3.059620   2.772084   2.477994   4.289693   4.752101
    26  O    2.679809   4.066301   4.257212   5.756783   6.004038
    27  H    2.748067   4.340364   4.156974   5.546426   5.808179
                   21         22         23         24         25
    21  O    0.000000
    22  H    0.971283   0.000000
    23  C    3.789160   3.978447   0.000000
    24  H    4.012672   3.962296   1.094867   0.000000
    25  H    4.157976   4.505815   1.101170   1.775141   0.000000
    26  O    4.872363   5.036301   1.427927   2.041229   2.086986
    27  H    4.828439   5.135097   1.910954   2.800973   2.394314
                   26         27
    26  O    0.000000
    27  H    0.977133   0.000000
 Stoichiometry    C8H15NO3
 Framework group  C1[X(C8H15NO3)]
 Deg. of freedom    75
 Full point group                 C1      NOp   1
 Largest Abelian subgroup         C1      NOp   1
 Largest concise Abelian subgroup C1      NOp   1
                         Standard orientation:                         
 ---------------------------------------------------------------------
 Center     Atomic      Atomic             Coordinates (Angstroms)
 Number     Number       Type             X           Y           Z
 ---------------------------------------------------------------------
      1          6           0       -1.940764    1.093068   -0.364605
      2          6           0       -0.730315    0.339405   -0.942450
      3          7           0        0.469791    0.838496   -0.182746
      4          6           0        0.005005    1.885550    0.764356
      5          6           0       -1.307409    2.388971    0.162185
      6          6           0        1.144124   -0.323480    0.452097
      7          6           0        0.124297   -1.468404    0.466902
      8          6           0       -0.719511   -1.208582   -0.794129
      9          1           0       -2.720042    1.262551   -1.113762
     10          1           0       -2.389498    0.535750    0.464577
     11          1           0       -0.623020    0.598236   -2.002250
     12          1           0        0.759542    2.673380    0.870126
     13          1           0       -0.178692    1.466044    1.764143
     14          1           0       -1.106848    3.080426   -0.665449
     15          1           0       -1.930050    2.909776    0.896309
     16          1           0        1.437430   -0.060770    1.474381
     17          1           0        0.593060   -2.459374    0.454213
     18          1           0       -0.205781   -1.647469   -1.654247
     19          8           0       -2.001816   -1.821053   -0.736543
     20          1           0       -2.262758   -1.782479    0.202279
     21          8           0       -0.778734   -1.371522    1.580069
     22          1           0       -0.319444   -1.715514    2.363723
     23          6           0        2.421515   -0.667130   -0.322553
     24          1           0        2.987680   -1.446357    0.198019
     25          1           0        2.175092   -1.043036   -1.327812
     26          8           0        3.263834    0.482588   -0.409866
     27          1           0        2.646879    1.202871   -0.645127
 ---------------------------------------------------------------------
 Rotational constants (GHZ):      1.1732758      0.8871579      0.6458457
 Standard basis: 6-31+G(d,p) (6D, 7F)
 There are   303 symmetry adapted basis functions of A   symmetry.
 Integral buffers will be    131072 words long.
 Raffenetti 2 integral format.
 Two-electron integral symmetry is turned on.
   303 basis functions,   489 primitive gaussians,   303 cartesian basis functions
    47 alpha electrons       47 beta electrons
       nuclear repulsion energy       812.9620965942 Hartrees.
 NAtoms=   27 NActive=   27 NUniq=   27 SFac= 1.00D+00 NAtFMM=   60 NAOKFM=F Big=F
 ------------------------------------------------------------------------------
 Polarizable Continuum Model (PCM)
 =================================
 Model                : PCM.
 Atomic radii         : UFF (Universal Force Field).
 Polarization charges : Total charges.
 Charge compensation  : None.
 Solution method      : Matrix inversion.
 Cavity type          : Scaled VdW (van der Waals Surface) (Alpha=1.100).
 Cavity algorithm     : GePol (No added spheres)
                        Default sphere list used, NSphG=   27.
                        Lebedev-Laikov grids with approx.  5.0 points / Ang**2.
                        Smoothing algorithm: Karplus/York (Gamma=1.0000).
                        Polarization charges: spherical gaussians, with
                                              point-specific exponents (IZeta= 3).
                        Self-potential: point-specific (ISelfS= 7).
                        Self-field    : sphere-specific E.n sum rule (ISelfD= 2).
 Solvent              : Water, Eps=  78.355300 Eps(inf)=   1.777849
 ------------------------------------------------------------------------------
 One-electron integrals computed using PRISM.
 NBasis=   303 RedAO= T  NBF=   303
 NBsUse=   303 1.00D-06 NBFU=   303
 Harris functional with IExCor=  908 diagonalized for initial guess.
 ExpMin= 4.38D-02 ExpMax= 5.48D+03 ExpMxC= 8.25D+02 IAcc=2 IRadAn=         4 AccDes= 0.00D+00
 HarFok:  IExCor=  908 AccDes= 0.00D+00 IRadAn=         4 IDoV= 1
 ScaDFX=  1.000000  1.000000  1.000000  1.000000
 FoFCou: FMM=F IPFlag=           0 FMFlag=      100000 FMFlg1=           0
         NFxFlg=           0 DoJE=T BraDBF=F KetDBF=T FulRan=T
         Omega=  0.000000  0.000000  1.000000  0.000000  0.000000 ICntrl=     500 IOpCl=  0
         NMat0=    1 NMatS0=    1 NMatT0=    0 NMatD0=    1 NMtDS0=    0 NMtDT0=    0
         I1Cent=           4 NGrid=           0.
 Petite list used in FoFCou.
 Initial guess orbital symmetries:
       Occupied  (A) (A) (A) (A) (A) (A) (A) (A) (A) (A) (A) (A)
                 (A) (A) (A) (A) (A) (A) (A) (A) (A) (A) (A) (A)
                 (A) (A) (A) (A) (A) (A) (A) (A) (A) (A) (A) (A)
                 (A) (A) (A) (A) (A) (A) (A) (A) (A) (A) (A)
       Virtual   (A) (A) (A) (A) (A) (A) (A) (A) (A) (A) (A) (A)
                 (A) (A) (A) (A) (A) (A) (A) (A) (A) (A) (A) (A)
                 (A) (A) (A) (A) (A) (A) (A) (A) (A) (A) (A) (A)
                 (A) (A) (A) (A) (A) (A) (A) (A) (A) (A) (A) (A)
                 (A) (A) (A) (A) (A) (A) (A) (A) (A) (A) (A) (A)
                 (A) (A) (A) (A) (A) (A) (A) (A) (A) (A) (A) (A)
                 (A) (A) (A) (A) (A) (A) (A) (A) (A) (A) (A) (A)
                 (A) (A) (A) (A) (A) (A) (A) (A) (A) (A) (A) (A)
                 (A) (A) (A) (A) (A) (A) (A) (A) (A) (A) (A) (A)
                 (A) (A) (A) (A) (A) (A) (A) (A) (A) (A) (A) (A)
                 (A) (A) (A) (A) (A) (A) (A) (A) (A) (A) (A) (A)
                 (A) (A) (A) (A) (A) (A) (A) (A) (A) (A) (A) (A)
                 (A) (A) (A) (A) (A) (A) (A) (A) (A) (A) (A) (A)
                 (A) (A) (A) (A) (A) (A) (A) (A) (A) (A) (A) (A)
                 (A) (A) (A) (A) (A) (A) (A) (A) (A) (A) (A) (A)
                 (A) (A) (A) (A) (A) (A) (A) (A) (A) (A) (A) (A)
                 (A) (A) (A) (A) (A) (A) (A) (A) (A) (A) (A) (A)
                 (A) (A) (A) (A) (A) (A) (A) (A) (A) (A) (A) (A)
                 (A) (A) (A) (A) (A) (A) (A) (A) (A) (A) (A) (A)
                 (A) (A) (A) (A) (A) (A) (A) (A) (A) (A) (A) (A)
                 (A) (A) (A) (A) (A) (A) (A) (A) (A) (A) (A) (A)
                 (A) (A) (A) (A)
 The electronic state of the initial guess is 1-A.
 Requested convergence on RMS density matrix=1.00D-08 within 128 cycles.
 Requested convergence on MAX density matrix=1.00D-06.
 Requested convergence on             energy=1.00D-06.
 No special actions if energy rises.
 Error on total polarization charges =  0.01410
 SCF Done:  E(RmPW1PW91) =  -594.198859275     A.U. after   13 cycles
             Convg  =    0.4547D-08             -V/T =  2.0094
 Range of M.O.s used for correlation:     1   303
 NBasis=   303 NAE=    47 NBE=    47 NFC=     0 NFV=     0
 NROrb=    303 NOA=    47 NOB=    47 NVA=   256 NVB=   256

 **** Warning!!: The largest alpha MO coefficient is  0.67487220D+02

 NEqPCM:  Using equilibrium solvation (IEInf=0, Eps=  78.3553, EpsInf=   1.7778)
          Differentiating once with respect to magnetic field using GIAOs.
          Electric field/nuclear overlap derivatives assumed to be zero.
 FoFCou: FMM=F IPFlag=           0 FMFlag=    10101102 FMFlg1=           0
         NFxFlg=    40000000 DoJE=F BraDBF=F KetDBF=T FulRan=T
         Omega=  0.000000  0.000000  1.000000  0.000000  0.000000 ICntrl=    6100 IOpCl=  0
         NMat0=    1 NMatS0=    1 NMatT0=    0 NMatD0=    1 NMtDS0=    0 NMtDT0=    0
         I1Cent=           7 NGrid=        1839.
 Symmetry not used in FoFCou.
          There are     3 degrees of freedom in the 1st order CPHF.  IDoFFX=0.
      3 vectors produced by pass  0 Test12= 4.01D-13 3.33D-08 XBig12= 3.12D+01 8.47D-01.
 AX will form     3 AO Fock derivatives at one time.
      3 vectors produced by pass  1 Test12= 4.01D-13 3.33D-08 XBig12= 7.10D-02 3.43D-02.
      3 vectors produced by pass  2 Test12= 4.01D-13 3.33D-08 XBig12= 1.51D-04 2.06D-03.
      3 vectors produced by pass  3 Test12= 4.01D-13 3.33D-08 XBig12= 6.12D-07 1.23D-04.
      3 vectors produced by pass  4 Test12= 4.01D-13 3.33D-08 XBig12= 1.84D-09 6.26D-06.
      3 vectors produced by pass  5 Test12= 4.01D-13 3.33D-08 XBig12= 6.10D-12 4.71D-07.
 Inverted reduced A of dimension    18 with in-core refinement.
 Calculating GIAO nuclear magnetic shielding tensors.
 SCF GIAO Magnetic shielding tensor (ppm):
      1  C    Isotropic =   166.3580   Anisotropy =    18.6793
   XX=   172.7705   YX=    -5.9503   ZX=     5.3333
   XY=     2.0971   YY=   171.0228   ZY=    15.4932
   XZ=     2.2676   YZ=    11.5597   ZZ=   155.2806
   Eigenvalues:   146.8045   173.4586   178.8109
      2  C    Isotropic =   127.4721   Anisotropy =    55.6092
   XX=   148.9692   YX=     6.5466   ZX=    26.2157
   XY=    14.2428   YY=   135.0585   ZY=    13.8569
   XZ=    14.6539   YZ=    18.4414   ZZ=    98.3887
   Eigenvalues:    87.9979   129.8735   164.5450
      3  N    Isotropic =   198.3025   Anisotropy =    80.0342
   XX=   201.0129   YX=   -27.7788   ZX=    43.6568
   XY=   -24.8028   YY=   208.8264   ZY=    21.6282
   XZ=    68.7851   YZ=    14.6502   ZZ=   185.0684
   Eigenvalues:   124.8005   218.4485   251.6587
      4  C    Isotropic =   136.2801   Anisotropy =    61.8061
   XX=   129.1040   YX=   -19.9587   ZX=    -5.1575
   XY=   -32.0078   YY=   145.6483   ZY=    21.3878
   XZ=     2.4025   YZ=    32.8199   ZZ=   134.0879
   Eigenvalues:   101.1746   130.1815   177.4841
      5  C    Isotropic =   166.2059   Anisotropy =    20.1773
   XX=   173.2578   YX=    -3.3251   ZX=    11.0864
   XY=    -8.6973   YY=   173.5868   ZY=    17.3844
   XZ=    14.2482   YZ=     8.5966   ZZ=   151.7730
   Eigenvalues:   139.8358   179.1244   179.6574
      6  C    Isotropic =   120.7757   Anisotropy =    22.6080
   XX=   117.5056   YX=     4.8444   ZX=     9.9346
   XY=   -11.0813   YY=   128.8414   ZY=   -12.2924
   XZ=    -6.1646   YZ=    -9.6418   ZZ=   115.9800
   Eigenvalues:   109.6962   116.7831   135.8477
      7  C    Isotropic =   118.1282   Anisotropy =    27.9519
   XX=   122.5464   YX=     7.4398   ZX=   -18.9819
   XY=     9.0591   YY=   109.1321   ZY=     3.7016
   XZ=    -7.6887   YZ=    -0.1177   ZZ=   122.7061
   Eigenvalues:   101.7850   115.8368   136.7628
      8  C    Isotropic =   120.6134   Anisotropy =    49.7449
   XX=   140.0598   YX=    17.1898   ZX=    10.8197
   XY=    19.3202   YY=   127.3792   ZY=   -10.6040
   XZ=    17.4040   YZ=    -7.5315   ZZ=    94.4013
   Eigenvalues:    85.4504   122.6132   153.7767
      9  H    Isotropic =    29.9197   Anisotropy =    10.9215
   XX=    33.1826   YX=    -1.9150   ZX=     5.5086
   XY=    -1.3780   YY=    27.8791   ZY=    -0.2188
   XZ=     5.5863   YZ=    -0.6390   ZZ=    28.6975
   Eigenvalues:    24.8434    27.7151    37.2007
     10  H    Isotropic =    29.6685   Anisotropy =     6.4511
   XX=    30.3296   YX=     0.7348   ZX=    -3.4392
   XY=     0.7788   YY=    31.2622   ZY=    -1.9369
   XZ=    -3.9928   YZ=    -1.8248   ZZ=    27.4136
   Eigenvalues:    24.6760    30.3602    33.9692
     11  H    Isotropic =    27.8452   Anisotropy =     8.3765
   XX=    25.6652   YX=     0.1021   ZX=     0.7290
   XY=    -0.0119   YY=    24.5090   ZY=    -0.7918
   XZ=     0.5120   YZ=    -0.0288   ZZ=    33.3614
   Eigenvalues:    24.4853    25.6208    33.4296
     12  H    Isotropic =    28.2818   Anisotropy =     9.3565
   XX=    28.4819   YX=     1.9757   ZX=     0.9201
   XY=     2.9705   YY=    31.5085   ZY=     3.4213
   XZ=     1.4949   YZ=     4.2674   ZZ=    24.8551
   Eigenvalues:    23.0969    27.2292    34.5195
     13  H    Isotropic =    28.5206   Anisotropy =     7.7679
   XX=    24.5791   YX=    -1.2335   ZX=    -0.8869
   XY=    -1.7061   YY=    28.0621   ZY=     2.4017
   XZ=    -0.0956   YZ=     1.4708   ZZ=    32.9206
   Eigenvalues:    24.0367    27.8260    33.6992
     14  H    Isotropic =    29.6698   Anisotropy =    11.0747
   XX=    26.6308   YX=     0.2267   ZX=     0.8592
   XY=    -0.0479   YY=    34.4037   ZY=    -4.6818
   XZ=     0.8576   YZ=    -5.1013   ZZ=    27.9748
   Eigenvalues:    24.9542    27.0021    37.0529
     15  H    Isotropic =    29.5974   Anisotropy =    11.6795
   XX=    29.3133   YX=    -3.6634   ZX=    -2.6377
   XY=    -4.4768   YY=    31.3629   ZY=     4.4438
   XZ=    -3.0237   YZ=     4.1617   ZZ=    28.1161
   Eigenvalues:    25.1406    26.2679    37.3838
     16  H    Isotropic =    28.6593   Anisotropy =     6.3636
   XX=    29.3282   YX=    -1.1610   ZX=     3.0085
   XY=    -1.1073   YY=    26.3033   ZY=    -1.8514
   XZ=     2.1492   YZ=    -0.6739   ZZ=    30.3463
   Eigenvalues:    25.8637    27.2124    32.9017
     17  H    Isotropic =    27.6851   Anisotropy =     6.9227
   XX=    27.5812   YX=    -3.6274   ZX=    -2.2744
   XY=    -2.3162   YY=    30.1043   ZY=    -0.8465
   XZ=    -2.5881   YZ=     0.4990   ZZ=    25.3697
   Eigenvalues:    23.2775    27.4775    32.3002
     18  H    Isotropic =    27.2340   Anisotropy =     6.0708
   XX=    27.0414   YX=    -0.1157   ZX=    -3.5527
   XY=     1.2400   YY=    27.0705   ZY=     3.5518
   XZ=    -0.5035   YZ=     3.6954   ZZ=    27.5901
   Eigenvalues:    22.8930    27.5278    31.2812
     19  O    Isotropic =   316.6495   Anisotropy =    27.6821
   XX=   295.9285   YX=     2.2476   ZX=    -8.7891
   XY=    24.2942   YY=   326.8591   ZY=     3.6119
   XZ=    10.1474   YZ=     6.8349   ZZ=   327.1609
   Eigenvalues:   290.9761   323.8681   335.1042
     20  H    Isotropic =    28.3778   Anisotropy =    14.7644
   XX=    27.6772   YX=     3.8352   ZX=    -3.5942
   XY=     2.7178   YY=    20.7019   ZY=    -0.3687
   XZ=    -3.9422   YZ=    -0.0989   ZZ=    36.7544
   Eigenvalues:    19.3192    27.5935    38.2207
     21  O    Isotropic =   294.3841   Anisotropy =    53.1802
   XX=   281.8369   YX=     7.7796   ZX=    27.4327
   XY=    -8.6198   YY=   277.0468   ZY=    10.3781
   XZ=     5.2660   YZ=    -9.8925   ZZ=   324.2687
   Eigenvalues:   276.0426   277.2722   329.8376
     22  H    Isotropic =    29.7283   Anisotropy =    20.3059
   XX=    26.4085   YX=    -3.0130   ZX=     3.0044
   XY=    -2.1697   YY=    23.8794   ZY=    -7.4963
   XZ=     4.6901   YZ=    -7.6031   ZZ=    38.8969
   Eigenvalues:    20.5683    25.3510    43.2655
     23  C    Isotropic =   132.9722   Anisotropy =    49.6993
   XX=   136.8219   YX=    17.8535   ZX=    -5.5199
   XY=    26.4532   YY=   148.1662   ZY=     1.6733
   XZ=   -10.1691   YZ=    -5.1737   ZZ=   113.9285
   Eigenvalues:   110.3890   122.4225   166.1051
     24  H    Isotropic =    28.2729   Anisotropy =     6.6068
   XX=    30.0392   YX=    -1.2099   ZX=     0.1483
   XY=    -2.7870   YY=    30.4874   ZY=    -1.9810
   XZ=     0.7236   YZ=    -2.1005   ZZ=    24.2920
   Eigenvalues:    23.6759    28.4652    32.6774
     25  H    Isotropic =    28.5622   Anisotropy =     5.5467
   XX=    29.6498   YX=     2.3184   ZX=    -1.0379
   XY=     2.0090   YY=    27.8625   ZY=     5.0735
   XZ=    -2.0902   YZ=     3.2461   ZZ=    28.1742
   Eigenvalues:    22.8290    30.5976    32.2600
     26  O    Isotropic =   314.3778   Anisotropy =    39.0820
   XX=   326.2703   YX=   -13.1307   ZX=    -0.9358
   XY=   -12.9297   YY=   327.2653   ZY=     2.0843
   XZ=     7.4238   YZ=    19.2510   ZZ=   289.5978
   Eigenvalues:   285.6738   317.0272   340.4325
     27  H    Isotropic =    28.9465   Anisotropy =    16.0768
   XX=    33.9588   YX=    -4.6328   ZX=     1.1875
   XY=    -6.1301   YY=    33.1659   ZY=    -4.9536
   XZ=    -0.7888   YZ=    -5.3236   ZZ=    19.7148
   Eigenvalues:    17.8148    29.3604    39.6644
 End of Minotr Frequency-dependent properties file   721 does not exist.
 End of Minotr Frequency-dependent properties file   722 does not exist.

 **********************************************************************

            Population analysis using the SCF density.

 **********************************************************************

 Orbital symmetries:
       Occupied  (A) (A) (A) (A) (A) (A) (A) (A) (A) (A) (A) (A)
                 (A) (A) (A) (A) (A) (A) (A) (A) (A) (A) (A) (A)
                 (A) (A) (A) (A) (A) (A) (A) (A) (A) (A) (A) (A)
                 (A) (A) (A) (A) (A) (A) (A) (A) (A) (A) (A)
       Virtual   (A) (A) (A) (A) (A) (A) (A) (A) (A) (A) (A) (A)
                 (A) (A) (A) (A) (A) (A) (A) (A) (A) (A) (A) (A)
                 (A) (A) (A) (A) (A) (A) (A) (A) (A) (A) (A) (A)
                 (A) (A) (A) (A) (A) (A) (A) (A) (A) (A) (A) (A)
                 (A) (A) (A) (A) (A) (A) (A) (A) (A) (A) (A) (A)
                 (A) (A) (A) (A) (A) (A) (A) (A) (A) (A) (A) (A)
                 (A) (A) (A) (A) (A) (A) (A) (A) (A) (A) (A) (A)
                 (A) (A) (A) (A) (A) (A) (A) (A) (A) (A) (A) (A)
                 (A) (A) (A) (A) (A) (A) (A) (A) (A) (A) (A) (A)
                 (A) (A) (A) (A) (A) (A) (A) (A) (A) (A) (A) (A)
                 (A) (A) (A) (A) (A) (A) (A) (A) (A) (A) (A) (A)
                 (A) (A) (A) (A) (A) (A) (A) (A) (A) (A) (A) (A)
                 (A) (A) (A) (A) (A) (A) (A) (A) (A) (A) (A) (A)
                 (A) (A) (A) (A) (A) (A) (A) (A) (A) (A) (A) (A)
                 (A) (A) (A) (A) (A) (A) (A) (A) (A) (A) (A) (A)
                 (A) (A) (A) (A) (A) (A) (A) (A) (A) (A) (A) (A)
                 (A) (A) (A) (A) (A) (A) (A) (A) (A) (A) (A) (A)
                 (A) (A) (A) (A) (A) (A) (A) (A) (A) (A) (A) (A)
                 (A) (A) (A) (A) (A) (A) (A) (A) (A) (A) (A) (A)
                 (A) (A) (A) (A) (A) (A) (A) (A) (A) (A) (A) (A)
                 (A) (A) (A) (A) (A) (A) (A) (A) (A) (A) (A) (A)
                 (A) (A) (A) (A)
 The electronic state is 1-A.
 Alpha  occ. eigenvalues --  -19.26703 -19.25525 -19.24977 -14.41658 -10.30983
 Alpha  occ. eigenvalues --  -10.30566 -10.29435 -10.28197 -10.27634 -10.26838
 Alpha  occ. eigenvalues --  -10.24554 -10.24415  -1.08127  -1.05393  -1.05004
 Alpha  occ. eigenvalues --   -0.96190  -0.83033  -0.78784  -0.75235  -0.71719
 Alpha  occ. eigenvalues --   -0.66711  -0.61872  -0.60565  -0.57653  -0.56135
 Alpha  occ. eigenvalues --   -0.53635  -0.52281  -0.49970  -0.48569  -0.46889
 Alpha  occ. eigenvalues --   -0.45933  -0.44843  -0.43585  -0.42937  -0.39922
 Alpha  occ. eigenvalues --   -0.39710  -0.38739  -0.37860  -0.36420  -0.35400
 Alpha  occ. eigenvalues --   -0.34909  -0.34533  -0.33224  -0.31440  -0.29546
 Alpha  occ. eigenvalues --   -0.29350  -0.23365
 Alpha virt. eigenvalues --    0.00236   0.01437   0.02066   0.02202   0.03751
 Alpha virt. eigenvalues --    0.04404   0.04590   0.04847   0.05629   0.07072
 Alpha virt. eigenvalues --    0.07783   0.08605   0.08806   0.09062   0.09230
 Alpha virt. eigenvalues --    0.10664   0.10952   0.11953   0.12412   0.12593
 Alpha virt. eigenvalues --    0.13259   0.13528   0.14468   0.14979   0.15393
 Alpha virt. eigenvalues --    0.15944   0.16545   0.16844   0.17141   0.18271
 Alpha virt. eigenvalues --    0.18376   0.19531   0.20086   0.20432   0.20941
 Alpha virt. eigenvalues --    0.21413   0.21932   0.22336   0.22681   0.23377
 Alpha virt. eigenvalues --    0.23435   0.24465   0.25077   0.25157   0.26080
 Alpha virt. eigenvalues --    0.26605   0.27792   0.27878   0.28717   0.29071
 Alpha virt. eigenvalues --    0.29433   0.30180   0.30428   0.30876   0.31141
 Alpha virt. eigenvalues --    0.32542   0.33476   0.34001   0.34407   0.34736
 Alpha virt. eigenvalues --    0.35650   0.36133   0.36886   0.37870   0.38925
 Alpha virt. eigenvalues --    0.39320   0.40464   0.40524   0.41021   0.41429
 Alpha virt. eigenvalues --    0.43347   0.44107   0.44418   0.46159   0.47917
 Alpha virt. eigenvalues --    0.49544   0.65246   0.65853   0.67986   0.68746
 Alpha virt. eigenvalues --    0.69934   0.71398   0.72401   0.72712   0.74289
 Alpha virt. eigenvalues --    0.74805   0.76953   0.77627   0.80772   0.81541
 Alpha virt. eigenvalues --    0.82619   0.83578   0.85151   0.86092   0.87054
 Alpha virt. eigenvalues --    0.90484   0.93457   0.93799   0.95154   0.96467
 Alpha virt. eigenvalues --    0.98102   1.00036   1.01389   1.03419   1.04286
 Alpha virt. eigenvalues --    1.06439   1.07846   1.09135   1.09721   1.10365
 Alpha virt. eigenvalues --    1.10737   1.11619   1.13257   1.15117   1.15529
 Alpha virt. eigenvalues --    1.16983   1.17809   1.19990   1.22782   1.25368
 Alpha virt. eigenvalues --    1.27584   1.29607   1.30151   1.31659   1.32888
 Alpha virt. eigenvalues --    1.35015   1.36718   1.39097   1.40253   1.42074
 Alpha virt. eigenvalues --    1.43296   1.44920   1.48087   1.50467   1.51863
 Alpha virt. eigenvalues --    1.53432   1.57412   1.58859   1.61283   1.62718
 Alpha virt. eigenvalues --    1.63066   1.65068   1.67184   1.68208   1.71089
 Alpha virt. eigenvalues --    1.73014   1.73960   1.75808   1.77450   1.79034
 Alpha virt. eigenvalues --    1.79635   1.82829   1.83683   1.84913   1.86749
 Alpha virt. eigenvalues --    1.88111   1.89986   1.91517   1.92443   1.93913
 Alpha virt. eigenvalues --    1.96903   1.98780   2.01012   2.03808   2.04493
 Alpha virt. eigenvalues --    2.06209   2.06873   2.07481   2.10424   2.10778
 Alpha virt. eigenvalues --    2.13434   2.15351   2.16507   2.18771   2.21553
 Alpha virt. eigenvalues --    2.21912   2.23222   2.24169   2.26189   2.28097
 Alpha virt. eigenvalues --    2.29085   2.31087   2.33635   2.37507   2.38472
 Alpha virt. eigenvalues --    2.41314   2.43483   2.44194   2.46737   2.48732
 Alpha virt. eigenvalues --    2.50478   2.51273   2.52898   2.54676   2.55896
 Alpha virt. eigenvalues --    2.57350   2.58864   2.58873   2.60837   2.62478
 Alpha virt. eigenvalues --    2.64237   2.64905   2.67317   2.68427   2.68628
 Alpha virt. eigenvalues --    2.70885   2.72857   2.75208   2.77644   2.78025
 Alpha virt. eigenvalues --    2.79570   2.81006   2.81858   2.84781   2.85810
 Alpha virt. eigenvalues --    2.87128   2.87956   2.90277   2.90744   2.95860
 Alpha virt. eigenvalues --    2.96810   2.98785   3.01119   3.02131   3.04019
 Alpha virt. eigenvalues --    3.06338   3.09250   3.12173   3.13078   3.32673
 Alpha virt. eigenvalues --    3.34164   3.36569   3.37215   3.43215   3.46380
 Alpha virt. eigenvalues --    3.48051   3.49686   3.52316   3.53799   3.56728
 Alpha virt. eigenvalues --    3.57466   3.58615   3.61796   3.63446   4.31252
 Alpha virt. eigenvalues --    4.34575   4.36787   4.48232   4.50627   4.53985
 Alpha virt. eigenvalues --    4.62908   4.72513   4.77947   4.83849   4.85226
 Alpha virt. eigenvalues --    4.96460
          Condensed to atoms (all electrons):
              1          2          3          4          5          6
     1  C    5.890585  -0.671040   0.091519  -0.142903   0.130407   0.183015
     2  C   -0.671040   8.577321  -0.252597  -0.255915   0.230412  -0.699838
     3  N    0.091519  -0.252597   7.489097   0.159863  -0.211298  -0.006154
     4  C   -0.142903  -0.255915   0.159863   5.627163   0.057726  -0.026168
     5  C    0.130407   0.230412  -0.211298   0.057726   5.613517   0.014567
     6  C    0.183015  -0.699838  -0.006154  -0.026168   0.014567   8.795145
     7  C   -0.165530   0.640360  -0.008225  -0.082354   0.023888  -2.095592
     8  C    0.099212  -0.984880  -0.061271   0.049342   0.019640   0.148639
     9  H    0.384871  -0.073964   0.015369   0.026587  -0.022209   0.005311
    10  H    0.488664  -0.165315   0.030606   0.017532  -0.075558  -0.003226
    11  H    0.048920   0.192468  -0.012188   0.010449  -0.020990   0.032272
    12  H    0.033924  -0.003319  -0.055699   0.402276  -0.041018  -0.005844
    13  H   -0.005152   0.015091  -0.075702   0.411259  -0.014826  -0.016010
    14  H   -0.022083  -0.027004   0.015370  -0.030147   0.385656  -0.000653
    15  H   -0.074474   0.055856   0.003674  -0.027342   0.390871  -0.009494
    16  H   -0.006945   0.019752  -0.058448   0.009112   0.015338   0.323851
    17  H    0.001924   0.002059   0.014825  -0.006001   0.000326  -0.047399
    18  H    0.010728  -0.100345   0.012975   0.001214  -0.003041   0.002687
    19  O    0.031470  -0.231204   0.026808  -0.002909  -0.002506   0.055215
    20  H    0.000375  -0.036927  -0.000004  -0.003659   0.003931   0.019632
    21  O    0.019463  -0.005419   0.006543  -0.025896   0.002782   0.083631
    22  H   -0.004365   0.003064  -0.001328  -0.003111   0.002262  -0.080762
    23  C    0.051672  -0.237327   0.058252  -0.038628  -0.046761  -0.313949
    24  H    0.001406  -0.001446   0.003804  -0.004308  -0.000685  -0.112744
    25  H   -0.003761   0.033471   0.014104   0.001749   0.004248  -0.176157
    26  O    0.006039  -0.027144  -0.000694  -0.013147  -0.001294  -0.090703
    27  H   -0.001548   0.021441   0.048641  -0.007036   0.000649  -0.070995
              7          8          9         10         11         12
     1  C   -0.165530   0.099212   0.384871   0.488664   0.048920   0.033924
     2  C    0.640360  -0.984880  -0.073964  -0.165315   0.192468  -0.003319
     3  N   -0.008225  -0.061271   0.015369   0.030606  -0.012188  -0.055699
     4  C   -0.082354   0.049342   0.026587   0.017532   0.010449   0.402276
     5  C    0.023888   0.019640  -0.022209  -0.075558  -0.020990  -0.041018
     6  C   -2.095592   0.148639   0.005311  -0.003226   0.032272  -0.005844
     7  C    7.710228  -0.383991  -0.010506   0.016887  -0.004897  -0.003839
     8  C   -0.383991   6.475180   0.014373   0.009228   0.010629  -0.002061
     9  H   -0.010506   0.014373   0.519612  -0.024622  -0.004716  -0.000104
    10  H    0.016887   0.009228  -0.024622   0.526654   0.004209  -0.000052
    11  H   -0.004897   0.010629  -0.004716   0.004209   0.561726   0.000190
    12  H   -0.003839  -0.002061  -0.000104  -0.000052   0.000190   0.551118
    13  H    0.011180   0.000252  -0.000121   0.001131  -0.000439  -0.041966
    14  H    0.004420  -0.001358  -0.004949   0.004189   0.000919  -0.006398
    15  H    0.005157  -0.003672   0.000126  -0.005265  -0.000107   0.000913
    16  H    0.037492   0.016187   0.000003  -0.000020  -0.000219  -0.000162
    17  H    0.305969  -0.009415   0.000005  -0.000057  -0.000050   0.000008
    18  H   -0.053667   0.464560  -0.000074   0.000096  -0.006351   0.000005
    19  O   -0.149894   0.391665  -0.000984   0.005436   0.007924   0.000070
    20  H   -0.067099   0.051606   0.000191   0.000198  -0.000100   0.000000
    21  O    0.156633  -0.168954   0.000549  -0.001943  -0.000703   0.000397
    22  H    0.089089   0.011821  -0.000002   0.000196   0.000009   0.000000
    23  C   -0.077597   0.040151   0.000184   0.000085   0.013788   0.005947
    24  H    0.005441   0.002588   0.000000   0.000000  -0.000001  -0.000011
    25  H    0.105415  -0.017102   0.000000   0.000000  -0.000269   0.000008
    26  O    0.015415   0.011511   0.000009   0.000031   0.001561   0.003227
    27  H    0.016304  -0.010606  -0.000001  -0.000001  -0.000282  -0.001197
             13         14         15         16         17         18
     1  C   -0.005152  -0.022083  -0.074474  -0.006945   0.001924   0.010728
     2  C    0.015091  -0.027004   0.055856   0.019752   0.002059  -0.100345
     3  N   -0.075702   0.015370   0.003674  -0.058448   0.014825   0.012975
     4  C    0.411259  -0.030147  -0.027342   0.009112  -0.006001   0.001214
     5  C   -0.014826   0.385656   0.390871   0.015338   0.000326  -0.003041
     6  C   -0.016010  -0.000653  -0.009494   0.323851  -0.047399   0.002687
     7  C    0.011180   0.004420   0.005157   0.037492   0.305969  -0.053667
     8  C    0.000252  -0.001358  -0.003672   0.016187  -0.009415   0.464560
     9  H   -0.000121  -0.004949   0.000126   0.000003   0.000005  -0.000074
    10  H    0.001131   0.004189  -0.005265  -0.000020  -0.000057   0.000096
    11  H   -0.000439   0.000919  -0.000107  -0.000219  -0.000050  -0.006351
    12  H   -0.041966  -0.006398   0.000913  -0.000162   0.000008   0.000005
    13  H    0.558879   0.004004  -0.004609   0.004798  -0.000148   0.000005
    14  H    0.004004   0.524596  -0.024267  -0.000011   0.000000   0.000006
    15  H   -0.004609  -0.024267   0.516247  -0.000013   0.000000   0.000003
    16  H    0.004798  -0.000011  -0.000013   0.534001  -0.000986  -0.000170
    17  H   -0.000148   0.000000   0.000000  -0.000986   0.555264  -0.004922
    18  H    0.000005   0.000006   0.000003  -0.000170  -0.004922   0.537854
    19  O   -0.000045   0.000126   0.000014  -0.000801   0.005596  -0.054520
    20  H    0.000000  -0.000001   0.000002  -0.000030  -0.000247   0.006135
    21  O   -0.002033  -0.000074  -0.000001  -0.007273  -0.042640   0.008432
    22  H    0.000083   0.000000   0.000001   0.002027  -0.007404  -0.000167
    23  C   -0.008340   0.000831   0.000309  -0.066988   0.059225  -0.000855
    24  H    0.000013   0.000000   0.000000  -0.004955   0.001359   0.000127
    25  H   -0.000004   0.000000   0.000000   0.004846  -0.001019  -0.000815
    26  O   -0.000889  -0.000001  -0.000005   0.004453   0.000135  -0.000296
    27  H    0.000299   0.000012  -0.000002  -0.000302  -0.000009   0.000020
             19         20         21         22         23         24
     1  C    0.031470   0.000375   0.019463  -0.004365   0.051672   0.001406
     2  C   -0.231204  -0.036927  -0.005419   0.003064  -0.237327  -0.001446
     3  N    0.026808  -0.000004   0.006543  -0.001328   0.058252   0.003804
     4  C   -0.002909  -0.003659  -0.025896  -0.003111  -0.038628  -0.004308
     5  C   -0.002506   0.003931   0.002782   0.002262  -0.046761  -0.000685
     6  C    0.055215   0.019632   0.083631  -0.080762  -0.313949  -0.112744
     7  C   -0.149894  -0.067099   0.156633   0.089089  -0.077597   0.005441
     8  C    0.391665   0.051606  -0.168954   0.011821   0.040151   0.002588
     9  H   -0.000984   0.000191   0.000549  -0.000002   0.000184   0.000000
    10  H    0.005436   0.000198  -0.001943   0.000196   0.000085   0.000000
    11  H    0.007924  -0.000100  -0.000703   0.000009   0.013788  -0.000001
    12  H    0.000070   0.000000   0.000397   0.000000   0.005947  -0.000011
    13  H   -0.000045   0.000000  -0.002033   0.000083  -0.008340   0.000013
    14  H    0.000126  -0.000001  -0.000074   0.000000   0.000831   0.000000
    15  H    0.000014   0.000002  -0.000001   0.000001   0.000309   0.000000
    16  H   -0.000801  -0.000030  -0.007273   0.002027  -0.066988  -0.004955
    17  H    0.005596  -0.000247  -0.042640  -0.007404   0.059225   0.001359
    18  H   -0.054520   0.006135   0.008432  -0.000167  -0.000855   0.000127
    19  O    8.181759   0.256715  -0.000067  -0.000786   0.010270   0.000079
    20  H    0.256715   0.351899   0.027777  -0.000292   0.001205   0.000000
    21  O   -0.000067   0.027777   8.361224   0.232990  -0.006694  -0.000071
    22  H   -0.000786  -0.000292   0.232990   0.346392   0.002980   0.000015
    23  C    0.010270   0.001205  -0.006694   0.002980   5.628248   0.493431
    24  H    0.000079   0.000000  -0.000071   0.000015   0.493431   0.540611
    25  H   -0.000860   0.000000  -0.000366  -0.000001   0.384352  -0.040145
    26  O    0.000174  -0.000008  -0.000238   0.000034   0.216752  -0.059853
    27  H    0.000005   0.000000  -0.000016  -0.000001   0.021333   0.006714
             25         26         27
     1  C   -0.003761   0.006039  -0.001548
     2  C    0.033471  -0.027144   0.021441
     3  N    0.014104  -0.000694   0.048641
     4  C    0.001749  -0.013147  -0.007036
     5  C    0.004248  -0.001294   0.000649
     6  C   -0.176157  -0.090703  -0.070995
     7  C    0.105415   0.015415   0.016304
     8  C   -0.017102   0.011511  -0.010606
     9  H    0.000000   0.000009  -0.000001
    10  H    0.000000   0.000031  -0.000001
    11  H   -0.000269   0.001561  -0.000282
    12  H    0.000008   0.003227  -0.001197
    13  H   -0.000004  -0.000889   0.000299
    14  H    0.000000  -0.000001   0.000012
    15  H    0.000000  -0.000005  -0.000002
    16  H    0.004846   0.004453  -0.000302
    17  H   -0.001019   0.000135  -0.000009
    18  H   -0.000815  -0.000296   0.000020
    19  O   -0.000860   0.000174   0.000005
    20  H    0.000000  -0.000008   0.000000
    21  O   -0.000366  -0.000238  -0.000016
    22  H   -0.000001   0.000034  -0.000001
    23  C    0.384352   0.216752   0.021333
    24  H   -0.040145  -0.059853   0.006714
    25  H    0.593677  -0.044418  -0.004020
    26  O   -0.044418   8.281125   0.231156
    27  H   -0.004020   0.231156   0.366079
 Mulliken atomic charges:
              1
     1  C   -0.376396
     2  C   -0.017608
     3  N   -0.247843
     4  C   -0.104748
     5  C   -0.456035
     6  C    0.091722
     7  C   -0.040685
     8  C   -0.173272
     9  H    0.175062
    10  H    0.170915
    11  H    0.166248
    12  H    0.163586
    13  H    0.163288
    14  H    0.176816
    15  H    0.176080
    16  H    0.175460
    17  H    0.173602
    18  H    0.180375
    19  O   -0.528748
    20  H    0.388702
    21  O   -0.638030
    22  H    0.407258
    23  C   -0.191874
    24  H    0.168632
    25  H    0.147067
    26  O   -0.532935
    27  H    0.383364
 Sum of Mulliken atomic charges =   0.00000
 Mulliken charges with hydrogens summed into heavy atoms:
              1
     1  C   -0.030419
     2  C    0.148640
     3  N   -0.247843
     4  C    0.222126
     5  C   -0.103139
     6  C    0.267181
     7  C    0.132916
     8  C    0.007103
    19  O   -0.140046
    21  O   -0.230772
    23  C    0.123825
    26  O   -0.149572
 Sum of Mulliken charges with hydrogens summed into heavy atoms =   0.00000
 Electronic spatial extent (au):  <R**2>=           1974.7455
 Charge=              0.0000 electrons
 Dipole moment (field-independent basis, Debye):
    X=             -0.7833    Y=             -0.4050    Z=              2.7920  Tot=              2.9279
 Quadrupole moment (field-independent basis, Debye-Ang):
   XX=            -91.0893   YY=            -69.5888   ZZ=            -68.1873
   XY=             -9.8614   XZ=             -0.3487   YZ=             -5.3941
 Traceless Quadrupole moment (field-independent basis, Debye-Ang):
   XX=            -14.8008   YY=              6.6997   ZZ=              8.1012
   XY=             -9.8614   XZ=             -0.3487   YZ=             -5.3941
 Octapole moment (field-independent basis, Debye-Ang**2):
  XXX=            -55.9185  YYY=             -1.0408  ZZZ=             16.8836  XYY=             16.2845
  XXY=             -3.9454  XXZ=             16.5618  XZZ=              4.8223  YZZ=            -10.7971
  YYZ=             15.0464  XYZ=              5.9933
 Hexadecapole moment (field-independent basis, Debye-Ang**3):
 XXXX=          -1492.5725 YYYY=           -933.2794 ZZZZ=           -312.3447 XXXY=            -39.9900
 XXXZ=             -1.3367 YYYX=             -5.6505 YYYZ=            -36.9232 ZZZX=             -1.8769
 ZZZY=            -38.1398 XXYY=           -360.8781 XXZZ=           -280.5244 YYZZ=           -197.5952
 XXYZ=            -24.1760 YYXZ=            -19.3145 ZZXY=             -7.5383
 N-N= 8.129620965942D+02 E-N=-3.011542738222D+03  KE= 5.886549973028D+02
 1\1\GINC-COMPUTE-3-1\SP\RmPW1PW91\6-31+G(d,p)\C8H15N1O3\MAMICHETTI.IQU
 IR\17-May-2024\0\\# mpw1pw91/6-31+G** nmr scrf=(pcm,solvent=water)\\co
 mment\\0,1\C,0,-1.940764,1.093068,-0.364605\C,0,-0.730315,0.339405,-0.
 94245\N,0,0.469791,0.838496,-0.182746\C,0,0.005005,1.88555,0.764356\C,
 0,-1.307409,2.388971,0.162185\C,0,1.144124,-0.32348,0.452097\C,0,0.124
 297,-1.468404,0.466902\C,0,-0.719511,-1.208582,-0.794129\H,0,-2.720042
 ,1.262551,-1.113762\H,0,-2.389498,0.53575,0.464577\H,0,-0.62302,0.5982
 36,-2.00225\H,0,0.759542,2.67338,0.870126\H,0,-0.178692,1.466044,1.764
 143\H,0,-1.106848,3.080426,-0.665449\H,0,-1.93005,2.909776,0.896309\H,
 0,1.43743,-0.06077,1.474381\H,0,0.59306,-2.459374,0.454213\H,0,-0.2057
 81,-1.647469,-1.654247\O,0,-2.001816,-1.821053,-0.736543\H,0,-2.262758
 ,-1.782479,0.202279\O,0,-0.778734,-1.371522,1.580069\H,0,-0.319444,-1.
 715514,2.363723\C,0,2.421515,-0.66713,-0.322553\H,0,2.98768,-1.446357,
 0.198019\H,0,2.175092,-1.043036,-1.327812\O,0,3.263834,0.482588,-0.409
 866\H,0,2.646879,1.202871,-0.645127\\Version=AM64L-G09RevC.01\State=1-
 A\HF=-594.1988593\RMSD=4.547e-09\Dipole=-0.3081755,-0.1593209,1.098442
 6\Quadrupole=-11.0040613,4.9810482,6.0230131,-7.3317084,-0.2592265,-4.
 0104045\PG=C01 [X(C8H15N1O3)]\\@


 ASKING FOR EFFICIENCY AND ADAPTABILITY IN THE SAME PROGRAM IS LIKE
 ASKING FOR A BEAUTIFUL AND MODEST WIFE ...
 WE'LL PROBABLY HAVE TO SETTLE FOR ONE OR THE OTHER.

             -- THE PSYCHOLOGY OF COMPUTER PROGRAMMING
                GERALD M. WEINBERG
 Job cpu time:  0 days  0 hours  9 minutes 12.0 seconds.
 File lengths (MBytes):  RWF=    114 Int=      0 D2E=      0 Chk=      7 Scr=      1
 Normal termination of Gaussian 09 at Fri May 17 12:41:15 2024.
