 Entering Gaussian System, Link 0=g09
 Input=/home/mamichetti.iquir/Linux/01_Cardona_A1A3_R__S_R_R_036_OptB.gjc
 Output=/home/mamichetti.iquir/Linux/01_Cardona_A1A3_R__S_R_R_036_OptB.log
 Initial command:
 /opt/ohpc/pub/apps/software/Gaussian/09/AMD64.SSE4a-enabled/g09/l1.exe /local/mamichetti.iquir/Gau-407601.inp -scrdir=/local/mamichetti.iquir/
 Entering Link 1 = /opt/ohpc/pub/apps/software/Gaussian/09/AMD64.SSE4a-enabled/g09/l1.exe PID=    407602.
  
 Copyright (c) 1988,1990,1992,1993,1995,1998,2003,2009,2011,
            Gaussian, Inc.  All Rights Reserved.
  
 This is part of the Gaussian(R) 09 program.  It is based on
 the Gaussian(R) 03 system (copyright 2003, Gaussian, Inc.),
 the Gaussian(R) 98 system (copyright 1998, Gaussian, Inc.),
 the Gaussian(R) 94 system (copyright 1995, Gaussian, Inc.),
 the Gaussian 92(TM) system (copyright 1992, Gaussian, Inc.),
 the Gaussian 90(TM) system (copyright 1990, Gaussian, Inc.),
 the Gaussian 88(TM) system (copyright 1988, Gaussian, Inc.),
 the Gaussian 86(TM) system (copyright 1986, Carnegie Mellon
 University), and the Gaussian 82(TM) system (copyright 1983,
 Carnegie Mellon University). Gaussian is a federally registered
 trademark of Gaussian, Inc.
  
 This software contains proprietary and confidential information,
 including trade secrets, belonging to Gaussian, Inc.
  
 This software is provided under written license and may be
 used, copied, transmitted, or stored only in accord with that
 written license.
  
 The following legend is applicable only to US Government
 contracts under FAR:
  
                    RESTRICTED RIGHTS LEGEND
  
 Use, reproduction and disclosure by the US Government is
 subject to restrictions as set forth in subparagraphs (a)
 and (c) of the Commercial Computer Software - Restricted
 Rights clause in FAR 52.227-19.
  
 Gaussian, Inc.
 340 Quinnipiac St., Bldg. 40, Wallingford CT 06492
  
  
 ---------------------------------------------------------------
 Warning -- This program may not be used in any manner that
 competes with the business of Gaussian, Inc. or will provide
 assistance to any competitor of Gaussian, Inc.  The licensee
 of this program is prohibited from giving any competitor of
 Gaussian, Inc. access to this program.  By using this program,
 the user acknowledges that Gaussian, Inc. is engaged in the
 business of creating and licensing software in the field of
 computational chemistry and represents and warrants to the
 licensee that it is not a competitor of Gaussian, Inc. and that
 it will not use this program in any manner prohibited above.
 ---------------------------------------------------------------
  

 Cite this work as:
 Gaussian 09, Revision C.01,
 M. J. Frisch, G. W. Trucks, H. B. Schlegel, G. E. Scuseria, 
 M. A. Robb, J. R. Cheeseman, G. Scalmani, V. Barone, B. Mennucci, 
 G. A. Petersson, H. Nakatsuji, M. Caricato, X. Li, H. P. Hratchian, 
 A. F. Izmaylov, J. Bloino, G. Zheng, J. L. Sonnenberg, M. Hada, 
 M. Ehara, K. Toyota, R. Fukuda, J. Hasegawa, M. Ishida, T. Nakajima, 
 Y. Honda, O. Kitao, H. Nakai, T. Vreven, J. A. Montgomery, Jr., 
 J. E. Peralta, F. Ogliaro, M. Bearpark, J. J. Heyd, E. Brothers, 
 K. N. Kudin, V. N. Staroverov, T. Keith, R. Kobayashi, J. Normand, 
 K. Raghavachari, A. Rendell, J. C. Burant, S. S. Iyengar, J. Tomasi, 
 M. Cossi, N. Rega, J. M. Millam, M. Klene, J. E. Knox, J. B. Cross, 
 V. Bakken, C. Adamo, J. Jaramillo, R. Gomperts, R. E. Stratmann, 
 O. Yazyev, A. J. Austin, R. Cammi, C. Pomelli, J. W. Ochterski, 
 R. L. Martin, K. Morokuma, V. G. Zakrzewski, G. A. Voth, 
 P. Salvador, J. J. Dannenberg, S. Dapprich, A. D. Daniels, 
 O. Farkas, J. B. Foresman, J. V. Ortiz, J. Cioslowski, 
 and D. J. Fox, Gaussian, Inc., Wallingford CT, 2010.
 
 ******************************************
 Gaussian 09:  AM64L-G09RevC.01 23-Sep-2011
                17-May-2024 
 ******************************************
 %nprocshared=4
 Will use up to    4 processors via shared memory.
 ------------------------------------------------
 # mpw1pw91/6-31+G** nmr scrf=(pcm,solvent=water)
 ------------------------------------------------
 1/38=1/1;
 2/12=2,17=6,18=5,40=1/2;
 3/5=1,6=6,7=111,11=2,16=1,25=1,30=1,70=2201,72=1,74=-7/1,2,8,3;
 4//1;
 5/5=2,38=5,53=1/2;
 8/6=1,10=90,11=11/1;
 10/13=100,45=16/2;
 6/7=2,8=2,9=2,10=2,28=1/1;
 99/9=1/99;
 -------
 comment
 -------
 Charge =  0 Multiplicity = 1
 Symbolic Z-Matrix:
 6                    -2.59977   0.41745   0.0189 
 6                    -1.25985   0.45281   0.76635 
 7                    -0.5697   -0.85331   0.44751 
 6                    -1.44256  -1.62163  -0.46184 
 6                    -2.84886  -1.08708  -0.17902 
 6                     0.76628  -0.54926  -0.07541 
 6                     1.08059   0.81854   0.5574 
 6                    -0.2519    1.5652    0.41332 
 1                    -3.39912   0.92052   0.57124 
 1                    -2.5004    0.90536  -0.95653 
 1                    -1.43907   0.503     1.84819 
 1                    -1.35629  -2.69946  -0.28258 
 1                    -1.17361  -1.44144  -1.51658 
 1                    -3.24808  -1.53399   0.73959 
 1                    -3.54793  -1.30501  -0.99244 
 1                     0.75049  -0.42163  -1.17316 
 1                     1.30929   0.68724   1.62027 
 1                    -0.33248   2.42579   1.08583 
 8                    -0.30976   2.0044   -0.95037 
 1                    -1.0257    2.65628  -1.02289 
 8                     2.20644   1.48186  -0.01181 
 1                     1.92317   1.77534  -0.89738 
 6                     1.82555  -1.60277   0.24133 
 1                     1.94481  -1.69803   1.33178 
 1                     1.52871  -2.58269  -0.14893 
 8                     3.07322  -1.27038  -0.38145 
 1                     3.17802  -0.30468  -0.27601 
 
                          Input orientation:                          
 ---------------------------------------------------------------------
 Center     Atomic      Atomic             Coordinates (Angstroms)
 Number     Number       Type             X           Y           Z
 ---------------------------------------------------------------------
      1          6           0       -2.599772    0.417449    0.018903
      2          6           0       -1.259847    0.452809    0.766346
      3          7           0       -0.569698   -0.853305    0.447514
      4          6           0       -1.442555   -1.621634   -0.461844
      5          6           0       -2.848861   -1.087084   -0.179023
      6          6           0        0.766284   -0.549264   -0.075413
      7          6           0        1.080585    0.818538    0.557395
      8          6           0       -0.251900    1.565199    0.413321
      9          1           0       -3.399115    0.920520    0.571244
     10          1           0       -2.500397    0.905356   -0.956532
     11          1           0       -1.439071    0.502997    1.848191
     12          1           0       -1.356287   -2.699459   -0.282584
     13          1           0       -1.173611   -1.441443   -1.516576
     14          1           0       -3.248080   -1.533986    0.739591
     15          1           0       -3.547932   -1.305008   -0.992437
     16          1           0        0.750490   -0.421630   -1.173159
     17          1           0        1.309287    0.687242    1.620268
     18          1           0       -0.332481    2.425785    1.085825
     19          8           0       -0.309757    2.004399   -0.950370
     20          1           0       -1.025699    2.656282   -1.022894
     21          8           0        2.206439    1.481864   -0.011813
     22          1           0        1.923166    1.775337   -0.897375
     23          6           0        1.825545   -1.602770    0.241329
     24          1           0        1.944814   -1.698030    1.331781
     25          1           0        1.528705   -2.582693   -0.148930
     26          8           0        3.073220   -1.270377   -0.381453
     27          1           0        3.178019   -0.304682   -0.276009
 ---------------------------------------------------------------------
                    Distance matrix (angstroms):
                    1          2          3          4          5
     1  C    0.000000
     2  C    1.534705   0.000000
     3  N    2.433048   1.511256   0.000000
     4  C    2.393351   2.417674   1.476191   0.000000
     5  C    1.537803   2.406233   2.375244   1.530826   0.000000
     6  C    3.503393   2.412036   1.466541   2.485614   3.656400
     7  C    3.741106   2.378033   2.351716   3.655068   4.428798
     8  C    2.642990   1.542075   2.439534   3.512759   3.758947
     9  H    1.094125   2.198474   3.341761   3.370155   2.212725
    10  H    1.095172   2.170731   2.965102   2.783779   2.166971
    11  H    2.168142   1.097738   2.134774   3.138524   2.936914
    12  H    3.369312   3.323605   2.135427   1.096031   2.199603
    13  H    2.801269   2.967720   2.137350   1.103295   2.172805
    14  H    2.178943   2.810897   2.778914   2.170495   1.096790
    15  H    2.211035   3.379138   3.338768   2.194173   1.094456
    16  H    3.653672   2.927077   2.134437   2.599120   3.792949
    17  H    4.232954   2.717460   2.698003   4.151955   4.865786
    18  H    3.211284   2.203340   3.349051   4.473158   4.502472
    19  O    2.949927   2.501443   3.191884   3.830144   4.074223
    20  H    2.928382   2.848069   3.832393   4.334641   4.248391
    21  O    4.922762   3.698598   3.656629   4.811381   5.673051
    22  H    4.810446   3.827352   3.864305   4.801789   5.610858
    23  C    4.869722   3.744421   2.518213   3.342946   4.721515
    24  H    5.181907   3.900728   2.796115   3.833692   5.063112
    25  H    5.106206   4.222325   2.783850   3.138461   4.626104
    26  O    5.932274   4.802320   3.759254   4.530129   5.928374
    27  H    5.830207   4.621142   3.856145   4.808181   6.078227
                    6          7          8          9         10
     6  C    0.000000
     7  C    1.539517   0.000000
     8  C    2.397189   1.534202   0.000000
     9  H    4.464189   4.480882   3.216444   0.000000
    10  H    3.682865   3.888823   2.714338   1.772575   0.000000
    11  H    3.109839   2.848576   2.143945   2.376277   3.025686
    12  H    3.028459   4.361217   4.459962   4.243397   3.841599
    13  H    2.576068   3.806609   3.689709   3.858851   2.753448
    14  H    4.212959   4.930001   4.323019   2.464904   3.063699
    15  H    4.474879   5.323025   4.591086   2.724008   2.446289
    16  H    1.105254   2.154483   2.732983   4.697183   3.517966
    17  H    2.167748   1.095099   2.159823   4.829484   4.604472
    18  H    3.377377   2.204368   1.095154   3.454687   3.344067
    19  O    2.905961   2.369108   1.433840   3.610296   2.450885
    20  H    3.792684   3.211082   1.962636   3.344735   2.290170
    21  O    2.490697   1.425323   2.496220   5.663682   4.835200
    22  H    2.723558   1.934364   2.548135   5.586970   4.508689
    23  C    1.527165   2.552958   3.792280   5.811446   5.141920
    24  H    2.165362   2.771224   4.039528   5.999400   5.636834
    25  H    2.172907   3.502582   4.548812   6.088888   5.390025
    26  O    2.436312   3.035720   4.441687   6.899187   6.010802
    27  H    2.432391   2.520995   3.966860   6.743712   5.845658
                   11         12         13         14         15
    11  H    0.000000
    12  H    3.847438   0.000000
    13  H    3.895250   1.771641   0.000000
    14  H    2.941225   2.445823   3.066313   0.000000
    15  H    3.973077   2.692897   2.435310   1.772643   0.000000
    16  H    3.844173   3.228024   2.204568   4.569957   4.391976
    17  H    2.763940   4.711250   4.531652   5.145779   5.864117
    18  H    2.345817   5.402670   4.736607   4.929542   5.345757
    19  O    3.370683   4.864920   3.597313   4.899988   4.630305
    20  H    3.612567   5.416762   4.130006   5.060008   4.696212
    21  O    4.208033   5.499981   4.715376   6.277877   6.468467
    22  H    4.523452   5.581808   4.507894   6.353980   6.279369
    23  C    4.204043   3.406063   3.480114   5.098497   5.521331
    24  H    4.069629   3.808714   4.231259   5.229125   5.977183
    25  H    4.724158   2.890446   3.236575   4.970607   5.302474
    26  O    5.336379   4.655382   4.399243   6.425345   6.649372
    27  H    5.146075   5.127858   4.665610   6.620980   6.837568
                   16         17         18         19         20
    16  H    0.000000
    17  H    3.056973   0.000000
    18  H    3.792573   2.450217   0.000000
    19  O    2.656949   3.311251   2.079465   0.000000
    20  H    3.556820   4.039255   2.231676   0.970971   0.000000
    21  O    2.663044   2.024844   2.922655   2.735905   3.584447
    22  H    2.505572   2.810574   3.073127   2.245267   3.080199
    23  C    2.133451   2.722526   4.647527   4.357904   5.278956
    24  H    3.054559   2.485285   4.717247   4.898906   5.773082
    25  H    2.514927   3.724336   5.483930   5.006362   5.893696
    26  O    2.596583   3.309172   5.235773   4.742611   5.712376
    27  H    2.590647   2.841116   4.651199   4.236886   5.195805
                   21         22         23         24         25
    21  O    0.000000
    22  H    0.974982   0.000000
    23  C    3.118353   3.566200   0.000000
    24  H    3.461996   4.127213   1.101084   0.000000
    25  H    4.122954   4.439391   1.095749   1.774339   0.000000
    26  O    2.909085   3.296236   1.433539   2.095557   2.040041
    27  H    2.050735   2.507435   1.944700   2.459106   2.815266
                   26         27
    26  O    0.000000
    27  H    0.977071   0.000000
 Stoichiometry    C8H15NO3
 Framework group  C1[X(C8H15NO3)]
 Deg. of freedom    75
 Full point group                 C1      NOp   1
 Largest Abelian subgroup         C1      NOp   1
 Largest concise Abelian subgroup C1      NOp   1
                         Standard orientation:                         
 ---------------------------------------------------------------------
 Center     Atomic      Atomic             Coordinates (Angstroms)
 Number     Number       Type             X           Y           Z
 ---------------------------------------------------------------------
      1          6           0       -2.599772    0.417449    0.018903
      2          6           0       -1.259847    0.452809    0.766346
      3          7           0       -0.569698   -0.853305    0.447514
      4          6           0       -1.442555   -1.621634   -0.461844
      5          6           0       -2.848861   -1.087084   -0.179023
      6          6           0        0.766284   -0.549264   -0.075413
      7          6           0        1.080585    0.818538    0.557395
      8          6           0       -0.251900    1.565199    0.413321
      9          1           0       -3.399115    0.920520    0.571244
     10          1           0       -2.500397    0.905356   -0.956532
     11          1           0       -1.439071    0.502997    1.848191
     12          1           0       -1.356287   -2.699459   -0.282584
     13          1           0       -1.173611   -1.441443   -1.516576
     14          1           0       -3.248080   -1.533986    0.739591
     15          1           0       -3.547932   -1.305008   -0.992437
     16          1           0        0.750490   -0.421630   -1.173159
     17          1           0        1.309287    0.687242    1.620268
     18          1           0       -0.332481    2.425785    1.085825
     19          8           0       -0.309757    2.004399   -0.950370
     20          1           0       -1.025699    2.656282   -1.022894
     21          8           0        2.206439    1.481864   -0.011813
     22          1           0        1.923166    1.775337   -0.897375
     23          6           0        1.825545   -1.602770    0.241329
     24          1           0        1.944814   -1.698030    1.331781
     25          1           0        1.528705   -2.582693   -0.148930
     26          8           0        3.073220   -1.270377   -0.381453
     27          1           0        3.178019   -0.304682   -0.276009
 ---------------------------------------------------------------------
 Rotational constants (GHZ):      1.4304017      0.7861035      0.5686111
 Standard basis: 6-31+G(d,p) (6D, 7F)
 There are   303 symmetry adapted basis functions of A   symmetry.
 Integral buffers will be    131072 words long.
 Raffenetti 2 integral format.
 Two-electron integral symmetry is turned on.
   303 basis functions,   489 primitive gaussians,   303 cartesian basis functions
    47 alpha electrons       47 beta electrons
       nuclear repulsion energy       807.2925798408 Hartrees.
 NAtoms=   27 NActive=   27 NUniq=   27 SFac= 1.00D+00 NAtFMM=   60 NAOKFM=F Big=F
 ------------------------------------------------------------------------------
 Polarizable Continuum Model (PCM)
 =================================
 Model                : PCM.
 Atomic radii         : UFF (Universal Force Field).
 Polarization charges : Total charges.
 Charge compensation  : None.
 Solution method      : Matrix inversion.
 Cavity type          : Scaled VdW (van der Waals Surface) (Alpha=1.100).
 Cavity algorithm     : GePol (No added spheres)
                        Default sphere list used, NSphG=   27.
                        Lebedev-Laikov grids with approx.  5.0 points / Ang**2.
                        Smoothing algorithm: Karplus/York (Gamma=1.0000).
                        Polarization charges: spherical gaussians, with
                                              point-specific exponents (IZeta= 3).
                        Self-potential: point-specific (ISelfS= 7).
                        Self-field    : sphere-specific E.n sum rule (ISelfD= 2).
 Solvent              : Water, Eps=  78.355300 Eps(inf)=   1.777849
 ------------------------------------------------------------------------------
 One-electron integrals computed using PRISM.
 NBasis=   303 RedAO= T  NBF=   303
 NBsUse=   303 1.00D-06 NBFU=   303
 Harris functional with IExCor=  908 diagonalized for initial guess.
 ExpMin= 4.38D-02 ExpMax= 5.48D+03 ExpMxC= 8.25D+02 IAcc=2 IRadAn=         4 AccDes= 0.00D+00
 HarFok:  IExCor=  908 AccDes= 0.00D+00 IRadAn=         4 IDoV= 1
 ScaDFX=  1.000000  1.000000  1.000000  1.000000
 FoFCou: FMM=F IPFlag=           0 FMFlag=      100000 FMFlg1=           0
         NFxFlg=           0 DoJE=T BraDBF=F KetDBF=T FulRan=T
         Omega=  0.000000  0.000000  1.000000  0.000000  0.000000 ICntrl=     500 IOpCl=  0
         NMat0=    1 NMatS0=    1 NMatT0=    0 NMatD0=    1 NMtDS0=    0 NMtDT0=    0
         I1Cent=           4 NGrid=           0.
 Petite list used in FoFCou.
 Initial guess orbital symmetries:
       Occupied  (A) (A) (A) (A) (A) (A) (A) (A) (A) (A) (A) (A)
                 (A) (A) (A) (A) (A) (A) (A) (A) (A) (A) (A) (A)
                 (A) (A) (A) (A) (A) (A) (A) (A) (A) (A) (A) (A)
                 (A) (A) (A) (A) (A) (A) (A) (A) (A) (A) (A)
       Virtual   (A) (A) (A) (A) (A) (A) (A) (A) (A) (A) (A) (A)
                 (A) (A) (A) (A) (A) (A) (A) (A) (A) (A) (A) (A)
                 (A) (A) (A) (A) (A) (A) (A) (A) (A) (A) (A) (A)
                 (A) (A) (A) (A) (A) (A) (A) (A) (A) (A) (A) (A)
                 (A) (A) (A) (A) (A) (A) (A) (A) (A) (A) (A) (A)
                 (A) (A) (A) (A) (A) (A) (A) (A) (A) (A) (A) (A)
                 (A) (A) (A) (A) (A) (A) (A) (A) (A) (A) (A) (A)
                 (A) (A) (A) (A) (A) (A) (A) (A) (A) (A) (A) (A)
                 (A) (A) (A) (A) (A) (A) (A) (A) (A) (A) (A) (A)
                 (A) (A) (A) (A) (A) (A) (A) (A) (A) (A) (A) (A)
                 (A) (A) (A) (A) (A) (A) (A) (A) (A) (A) (A) (A)
                 (A) (A) (A) (A) (A) (A) (A) (A) (A) (A) (A) (A)
                 (A) (A) (A) (A) (A) (A) (A) (A) (A) (A) (A) (A)
                 (A) (A) (A) (A) (A) (A) (A) (A) (A) (A) (A) (A)
                 (A) (A) (A) (A) (A) (A) (A) (A) (A) (A) (A) (A)
                 (A) (A) (A) (A) (A) (A) (A) (A) (A) (A) (A) (A)
                 (A) (A) (A) (A) (A) (A) (A) (A) (A) (A) (A) (A)
                 (A) (A) (A) (A) (A) (A) (A) (A) (A) (A) (A) (A)
                 (A) (A) (A) (A) (A) (A) (A) (A) (A) (A) (A) (A)
                 (A) (A) (A) (A) (A) (A) (A) (A) (A) (A) (A) (A)
                 (A) (A) (A) (A) (A) (A) (A) (A) (A) (A) (A) (A)
                 (A) (A) (A) (A)
 The electronic state of the initial guess is 1-A.
 Requested convergence on RMS density matrix=1.00D-08 within 128 cycles.
 Requested convergence on MAX density matrix=1.00D-06.
 Requested convergence on             energy=1.00D-06.
 No special actions if energy rises.
 Error on total polarization charges =  0.01449
 SCF Done:  E(RmPW1PW91) =  -594.201236961     A.U. after   13 cycles
             Convg  =    0.6307D-08             -V/T =  2.0094
 Range of M.O.s used for correlation:     1   303
 NBasis=   303 NAE=    47 NBE=    47 NFC=     0 NFV=     0
 NROrb=    303 NOA=    47 NOB=    47 NVA=   256 NVB=   256

 **** Warning!!: The largest alpha MO coefficient is  0.84378779D+02

 NEqPCM:  Using equilibrium solvation (IEInf=0, Eps=  78.3553, EpsInf=   1.7778)
          Differentiating once with respect to magnetic field using GIAOs.
          Electric field/nuclear overlap derivatives assumed to be zero.
 FoFCou: FMM=F IPFlag=           0 FMFlag=    10101102 FMFlg1=           0
         NFxFlg=    40000000 DoJE=F BraDBF=F KetDBF=T FulRan=T
         Omega=  0.000000  0.000000  1.000000  0.000000  0.000000 ICntrl=    6100 IOpCl=  0
         NMat0=    1 NMatS0=    1 NMatT0=    0 NMatD0=    1 NMtDS0=    0 NMtDT0=    0
         I1Cent=           7 NGrid=        1839.
 Symmetry not used in FoFCou.
          There are     3 degrees of freedom in the 1st order CPHF.  IDoFFX=0.
      3 vectors produced by pass  0 Test12= 4.01D-13 3.33D-08 XBig12= 3.82D+01 1.30D+00.
 AX will form     3 AO Fock derivatives at one time.
      3 vectors produced by pass  1 Test12= 4.01D-13 3.33D-08 XBig12= 9.48D-02 4.14D-02.
      3 vectors produced by pass  2 Test12= 4.01D-13 3.33D-08 XBig12= 1.74D-04 2.56D-03.
      3 vectors produced by pass  3 Test12= 4.01D-13 3.33D-08 XBig12= 7.09D-07 1.89D-04.
      3 vectors produced by pass  4 Test12= 4.01D-13 3.33D-08 XBig12= 2.13D-09 6.59D-06.
      3 vectors produced by pass  5 Test12= 4.01D-13 3.33D-08 XBig12= 6.25D-12 5.97D-07.
 Inverted reduced A of dimension    18 with in-core refinement.
 Calculating GIAO nuclear magnetic shielding tensors.
 SCF GIAO Magnetic shielding tensor (ppm):
      1  C    Isotropic =   170.1575   Anisotropy =    19.8176
   XX=   175.6745   YX=     3.1433   ZX=     8.4936
   XY=    -6.7438   YY=   181.3194   ZY=    10.5022
   XZ=     8.1555   YZ=     5.0572   ZZ=   153.4786
   Eigenvalues:   148.7613   178.3421   183.3692
      2  C    Isotropic =   127.6253   Anisotropy =    48.0726
   XX=   134.1356   YX=    -9.2021   ZX=     4.5524
   XY=   -10.3639   YY=   155.1715   ZY=     9.0577
   XZ=     2.6446   YZ=     7.7700   ZZ=    93.5688
   Eigenvalues:    91.8619   131.3403   159.6737
      3  N    Isotropic =   198.9032   Anisotropy =    76.5449
   XX=   248.4177   YX=   -11.5981   ZX=    -1.8956
   XY=    -0.3783   YY=   216.1521   ZY=    36.4629
   XZ=     1.3381   YZ=    30.3664   ZZ=   132.1399
   Eigenvalues:   120.4476   226.3289   249.9331
      4  C    Isotropic =   138.5627   Anisotropy =    56.9863
   XX=   150.4338   YX=    12.9826   ZX=    18.2048
   XY=    23.2682   YY=   126.8066   ZY=    17.2404
   XZ=    15.2373   YZ=    23.3807   ZZ=   138.4478
   Eigenvalues:   110.7507   128.3839   176.5536
      5  C    Isotropic =   164.9818   Anisotropy =    22.6655
   XX=   179.2152   YX=    -2.0096   ZX=     7.3800
   XY=    -0.7096   YY=   175.1791   ZY=    15.8412
   XZ=    -3.5174   YZ=    10.0453   ZZ=   140.5510
   Eigenvalues:   136.1291   178.7241   180.0921
      6  C    Isotropic =   125.9921   Anisotropy =    58.3081
   XX=   152.4852   YX=    20.3236   ZX=    -7.6642
   XY=    15.8640   YY=   106.3447   ZY=   -10.4991
   XZ=   -23.0985   YZ=    -2.9599   ZZ=   119.1464
   Eigenvalues:    99.9712   113.1410   164.8641
      7  C    Isotropic =   112.0751   Anisotropy =    45.0191
   XX=   128.9308   YX=    16.8679   ZX=   -18.1188
   XY=    10.2961   YY=   125.9761   ZY=    -0.0181
   XZ=    -4.6833   YZ=     2.9257   ZZ=    81.3185
   Eigenvalues:    78.2896   115.8480   142.0879
      8  C    Isotropic =   122.1060   Anisotropy =    27.9514
   XX=   118.9490   YX=     8.5506   ZX=     0.4501
   XY=     7.6445   YY=   112.0762   ZY=   -12.8548
   XZ=     8.4131   YZ=   -12.0382   ZZ=   135.2928
   Eigenvalues:   101.7469   123.8308   140.7403
      9  H    Isotropic =    29.9629   Anisotropy =    11.6608
   XX=    33.7668   YX=    -3.4632   ZX=    -2.9302
   XY=    -4.7076   YY=    29.6126   ZY=     2.8046
   XZ=    -3.4009   YZ=     2.3619   ZZ=    26.5092
   Eigenvalues:    24.9270    27.2249    37.7367
     10  H    Isotropic =    29.7850   Anisotropy =     6.9962
   XX=    29.5380   YX=     1.0221   ZX=     1.9527
   XY=     1.3688   YY=    29.9612   ZY=    -4.3538
   XZ=     2.2580   YZ=    -4.5427   ZZ=    29.8557
   Eigenvalues:    24.3900    30.5158    34.4491
     11  H    Isotropic =    28.0355   Anisotropy =     8.8707
   XX=    26.5176   YX=    -1.5623   ZX=    -2.3836
   XY=    -0.9843   YY=    25.4452   ZY=     3.0485
   XZ=    -2.3427   YZ=     2.0528   ZZ=    32.1436
   Eigenvalues:    24.4252    25.7320    33.9493
     12  H    Isotropic =    28.4383   Anisotropy =     9.7158
   XX=    27.0298   YX=     1.3742   ZX=     1.1678
   XY=     0.4988   YY=    34.6765   ZY=     0.9024
   XZ=     0.9209   YZ=     1.2390   ZZ=    23.6086
   Eigenvalues:    23.2605    27.1390    34.9155
     13  H    Isotropic =    29.2307   Anisotropy =     7.8949
   XX=    28.0472   YX=     0.2699   ZX=     1.3748
   XY=     0.6371   YY=    26.8225   ZY=     3.7180
   XZ=    -0.6442   YZ=     3.3333   ZZ=    32.8223
   Eigenvalues:    25.1697    28.0284    34.4939
     14  H    Isotropic =    29.6011   Anisotropy =    11.0516
   XX=    30.5537   YX=     3.1273   ZX=    -4.1460
   XY=     3.4095   YY=    29.8301   ZY=    -3.1158
   XZ=    -4.6456   YZ=    -3.4156   ZZ=    28.4196
   Eigenvalues:    24.8516    26.9830    36.9689
     15  H    Isotropic =    29.4995   Anisotropy =    11.6899
   XX=    32.6052   YX=     2.4540   ZX=     5.1045
   XY=     3.1186   YY=    27.6115   ZY=     2.6521
   XZ=     4.9384   YZ=     2.1757   ZZ=    28.2817
   Eigenvalues:    24.8278    26.3779    37.2928
     16  H    Isotropic =    28.8699   Anisotropy =     3.5757
   XX=    29.7787   YX=    -1.4064   ZX=    -1.2743
   XY=    -0.8768   YY=    28.2664   ZY=     0.1290
   XZ=    -1.5221   YZ=     1.0942   ZZ=    28.5647
   Eigenvalues:    27.5681    27.7880    31.2537
     17  H    Isotropic =    27.4445   Anisotropy =     3.7660
   XX=    27.8991   YX=     1.4175   ZX=    -0.4628
   XY=     0.9020   YY=    25.2801   ZY=     0.0921
   XZ=     2.7887   YZ=     0.1136   ZZ=    29.1542
   Eigenvalues:    24.8153    27.5629    29.9552
     18  H    Isotropic =    27.5967   Anisotropy =     8.4521
   XX=    23.4134   YX=    -0.1674   ZX=     0.1734
   XY=     0.1731   YY=    28.7955   ZY=     2.5982
   XZ=     0.0396   YZ=     4.2578   ZZ=    30.5811
   Eigenvalues:    23.4112    26.1474    33.2314
     19  O    Isotropic =   302.6603   Anisotropy =    44.2075
   XX=   305.3959   YX=   -20.3483   ZX=     1.7279
   XY=   -23.0351   YY=   311.1218   ZY=    17.3723
   XZ=    -7.6579   YZ=     1.2774   ZZ=   291.4631
   Eigenvalues:   283.7931   292.0558   332.1320
     20  H    Isotropic =    29.7400   Anisotropy =    20.5054
   XX=    31.0873   YX=    -9.5627   ZX=     1.8519
   XY=    -9.3123   YY=    33.6276   ZY=    -6.3756
   XZ=     1.9761   YZ=    -4.4830   ZZ=    24.5049
   Eigenvalues:    20.8514    24.9582    43.4102
     21  O    Isotropic =   294.2505   Anisotropy =    39.7584
   XX=   286.6071   YX=     1.1299   ZX=    11.9023
   XY=    29.9321   YY=   313.1374   ZY=    -8.9306
   XZ=    21.9564   YZ=     1.6066   ZZ=   283.0071
   Eigenvalues:   264.1132   297.8823   320.7562
     22  H    Isotropic =    28.6794   Anisotropy =    13.7885
   XX=    28.6782   YX=     1.2639   ZX=     1.5341
   XY=    -0.9700   YY=    23.2413   ZY=    -7.1040
   XZ=     1.2239   YZ=    -7.3447   ZZ=    34.1187
   Eigenvalues:    19.5755    28.5910    37.8717
     23  C    Isotropic =   126.5731   Anisotropy =    57.5643
   XX=   156.1697   YX=     2.7901   ZX=   -20.0848
   XY=    -0.1139   YY=   107.8087   ZY=    -8.6071
   XZ=   -20.4261   YZ=    -8.9712   ZZ=   115.7410
   Eigenvalues:    99.8041   114.9659   164.9493
     24  H    Isotropic =    27.8651   Anisotropy =     4.5185
   XX=    28.5959   YX=    -0.3107   ZX=    -1.5953
   XY=    -0.9398   YY=    25.8971   ZY=    -3.1528
   XZ=     0.7287   YZ=    -2.7911   ZZ=    29.1023
   Eigenvalues:    23.9979    28.7200    30.8775
     25  H    Isotropic =    27.6555   Anisotropy =     5.0276
   XX=    29.3396   YX=     1.0448   ZX=    -0.1727
   XY=    -0.4050   YY=    30.9078   ZY=     1.0278
   XZ=    -1.4963   YZ=     0.3867   ZZ=    22.7192
   Eigenvalues:    22.5498    29.4095    31.0073
     26  O    Isotropic =   314.3913   Anisotropy =    40.9977
   XX=   306.3085   YX=   -11.3002   ZX=    -3.3536
   XY=    -3.8921   YY=   340.0920   ZY=    -3.3494
   XZ=     4.0828   YZ=     2.9421   ZZ=   296.7734
   Eigenvalues:   296.7593   304.6916   341.7231
     27  H    Isotropic =    28.2022   Anisotropy =    20.1206
   XX=    27.0516   YX=     0.7046   ZX=    -2.8598
   XY=     0.4635   YY=    41.4535   ZY=     2.1937
   XZ=    -3.2045   YZ=     1.7679   ZZ=    16.1014
   Eigenvalues:    15.1558    27.8348    41.6159
 End of Minotr Frequency-dependent properties file   721 does not exist.
 End of Minotr Frequency-dependent properties file   722 does not exist.

 **********************************************************************

            Population analysis using the SCF density.

 **********************************************************************

 Orbital symmetries:
       Occupied  (A) (A) (A) (A) (A) (A) (A) (A) (A) (A) (A) (A)
                 (A) (A) (A) (A) (A) (A) (A) (A) (A) (A) (A) (A)
                 (A) (A) (A) (A) (A) (A) (A) (A) (A) (A) (A) (A)
                 (A) (A) (A) (A) (A) (A) (A) (A) (A) (A) (A)
       Virtual   (A) (A) (A) (A) (A) (A) (A) (A) (A) (A) (A) (A)
                 (A) (A) (A) (A) (A) (A) (A) (A) (A) (A) (A) (A)
                 (A) (A) (A) (A) (A) (A) (A) (A) (A) (A) (A) (A)
                 (A) (A) (A) (A) (A) (A) (A) (A) (A) (A) (A) (A)
                 (A) (A) (A) (A) (A) (A) (A) (A) (A) (A) (A) (A)
                 (A) (A) (A) (A) (A) (A) (A) (A) (A) (A) (A) (A)
                 (A) (A) (A) (A) (A) (A) (A) (A) (A) (A) (A) (A)
                 (A) (A) (A) (A) (A) (A) (A) (A) (A) (A) (A) (A)
                 (A) (A) (A) (A) (A) (A) (A) (A) (A) (A) (A) (A)
                 (A) (A) (A) (A) (A) (A) (A) (A) (A) (A) (A) (A)
                 (A) (A) (A) (A) (A) (A) (A) (A) (A) (A) (A) (A)
                 (A) (A) (A) (A) (A) (A) (A) (A) (A) (A) (A) (A)
                 (A) (A) (A) (A) (A) (A) (A) (A) (A) (A) (A) (A)
                 (A) (A) (A) (A) (A) (A) (A) (A) (A) (A) (A) (A)
                 (A) (A) (A) (A) (A) (A) (A) (A) (A) (A) (A) (A)
                 (A) (A) (A) (A) (A) (A) (A) (A) (A) (A) (A) (A)
                 (A) (A) (A) (A) (A) (A) (A) (A) (A) (A) (A) (A)
                 (A) (A) (A) (A) (A) (A) (A) (A) (A) (A) (A) (A)
                 (A) (A) (A) (A) (A) (A) (A) (A) (A) (A) (A) (A)
                 (A) (A) (A) (A) (A) (A) (A) (A) (A) (A) (A) (A)
                 (A) (A) (A) (A) (A) (A) (A) (A) (A) (A) (A) (A)
                 (A) (A) (A) (A)
 The electronic state is 1-A.
 Alpha  occ. eigenvalues --  -19.26951 -19.26567 -19.24783 -14.41436 -10.31030
 Alpha  occ. eigenvalues --  -10.30893 -10.29265 -10.28016 -10.27935 -10.26912
 Alpha  occ. eigenvalues --  -10.24738 -10.24713  -1.08532  -1.05998  -1.04735
 Alpha  occ. eigenvalues --   -0.96674  -0.83171  -0.79662  -0.74786  -0.71852
 Alpha  occ. eigenvalues --   -0.66881  -0.62461  -0.60641  -0.58410  -0.55832
 Alpha  occ. eigenvalues --   -0.53387  -0.51904  -0.50912  -0.49414  -0.46701
 Alpha  occ. eigenvalues --   -0.45106  -0.45037  -0.43335  -0.42709  -0.40736
 Alpha  occ. eigenvalues --   -0.40181  -0.39382  -0.38052  -0.36937  -0.35829
 Alpha  occ. eigenvalues --   -0.35290  -0.34673  -0.33435  -0.30993  -0.29581
 Alpha  occ. eigenvalues --   -0.29354  -0.23254
 Alpha virt. eigenvalues --    0.00381   0.01651   0.01970   0.02285   0.03887
 Alpha virt. eigenvalues --    0.04449   0.04850   0.04951   0.05556   0.07063
 Alpha virt. eigenvalues --    0.07510   0.08023   0.08577   0.09269   0.09451
 Alpha virt. eigenvalues --    0.09927   0.11398   0.12031   0.12453   0.13015
 Alpha virt. eigenvalues --    0.13436   0.14275   0.14428   0.14723   0.15385
 Alpha virt. eigenvalues --    0.15966   0.16389   0.16865   0.18279   0.18803
 Alpha virt. eigenvalues --    0.19120   0.19357   0.20349   0.20760   0.21060
 Alpha virt. eigenvalues --    0.21317   0.21938   0.22323   0.22543   0.23403
 Alpha virt. eigenvalues --    0.24261   0.24798   0.25007   0.25270   0.25640
 Alpha virt. eigenvalues --    0.26147   0.27010   0.27316   0.28189   0.28601
 Alpha virt. eigenvalues --    0.29003   0.30217   0.30560   0.31574   0.32090
 Alpha virt. eigenvalues --    0.32416   0.32758   0.33291   0.33760   0.34536
 Alpha virt. eigenvalues --    0.34929   0.35284   0.35770   0.36676   0.37777
 Alpha virt. eigenvalues --    0.38043   0.39799   0.40701   0.40839   0.41521
 Alpha virt. eigenvalues --    0.41740   0.43201   0.44233   0.44918   0.48000
 Alpha virt. eigenvalues --    0.48860   0.63989   0.65229   0.67744   0.68153
 Alpha virt. eigenvalues --    0.68745   0.71511   0.71981   0.72635   0.73710
 Alpha virt. eigenvalues --    0.74591   0.75657   0.77419   0.79346   0.81660
 Alpha virt. eigenvalues --    0.82204   0.84924   0.86176   0.86712   0.89327
 Alpha virt. eigenvalues --    0.91267   0.91409   0.92297   0.94636   0.95774
 Alpha virt. eigenvalues --    0.99074   0.99900   1.01681   1.02251   1.04984
 Alpha virt. eigenvalues --    1.05405   1.06568   1.08930   1.09651   1.10504
 Alpha virt. eigenvalues --    1.11465   1.13079   1.13750   1.14703   1.16937
 Alpha virt. eigenvalues --    1.17187   1.17661   1.19813   1.23175   1.25090
 Alpha virt. eigenvalues --    1.25746   1.28388   1.29760   1.30774   1.32073
 Alpha virt. eigenvalues --    1.33849   1.36516   1.37874   1.39727   1.40220
 Alpha virt. eigenvalues --    1.42417   1.44844   1.46727   1.47988   1.50502
 Alpha virt. eigenvalues --    1.53360   1.55849   1.57919   1.60288   1.62759
 Alpha virt. eigenvalues --    1.63507   1.64923   1.65886   1.66845   1.69881
 Alpha virt. eigenvalues --    1.72884   1.74751   1.75558   1.76976   1.79915
 Alpha virt. eigenvalues --    1.80371   1.83014   1.84312   1.85262   1.86560
 Alpha virt. eigenvalues --    1.87858   1.91007   1.92787   1.94293   1.95226
 Alpha virt. eigenvalues --    1.95412   1.98286   2.01461   2.03359   2.03790
 Alpha virt. eigenvalues --    2.05778   2.06594   2.08010   2.09144   2.10267
 Alpha virt. eigenvalues --    2.13255   2.14470   2.16171   2.16747   2.17742
 Alpha virt. eigenvalues --    2.20424   2.21851   2.24123   2.26158   2.28474
 Alpha virt. eigenvalues --    2.29539   2.32655   2.36174   2.36544   2.39946
 Alpha virt. eigenvalues --    2.42404   2.43496   2.44137   2.46246   2.47054
 Alpha virt. eigenvalues --    2.49188   2.50521   2.51765   2.52961   2.54600
 Alpha virt. eigenvalues --    2.55975   2.57170   2.60980   2.61438   2.62493
 Alpha virt. eigenvalues --    2.64716   2.65236   2.67792   2.68141   2.69672
 Alpha virt. eigenvalues --    2.70202   2.73877   2.76396   2.77096   2.78977
 Alpha virt. eigenvalues --    2.79459   2.80178   2.82465   2.83650   2.85068
 Alpha virt. eigenvalues --    2.86534   2.89093   2.90555   2.92163   2.94260
 Alpha virt. eigenvalues --    2.97503   2.99530   3.01148   3.02978   3.03977
 Alpha virt. eigenvalues --    3.06999   3.11288   3.13263   3.14640   3.32113
 Alpha virt. eigenvalues --    3.34038   3.36153   3.36796   3.41612   3.45950
 Alpha virt. eigenvalues --    3.48039   3.49905   3.51720   3.54112   3.55858
 Alpha virt. eigenvalues --    3.57425   3.58267   3.60963   3.65186   4.28999
 Alpha virt. eigenvalues --    4.32085   4.39708   4.46002   4.49082   4.51664
 Alpha virt. eigenvalues --    4.58697   4.69452   4.77688   4.79677   4.86749
 Alpha virt. eigenvalues --    5.01171
          Condensed to atoms (all electrons):
              1          2          3          4          5          6
     1  C    5.841565  -0.491616   0.024320  -0.228748   0.220521   0.088745
     2  C   -0.491616   8.320419  -0.205353  -0.270934   0.201439  -0.192872
     3  N    0.024320  -0.205353   7.367137   0.242613  -0.166137   0.053809
     4  C   -0.228748  -0.270934   0.242613   5.749278   0.056896  -0.112639
     5  C    0.220521   0.201439  -0.166137   0.056896   5.573368   0.014914
     6  C    0.088745  -0.192872   0.053809  -0.112639   0.014914   8.762238
     7  C    0.066619  -0.094057  -0.132945  -0.188266  -0.087629  -1.900571
     8  C    0.020351  -0.949387  -0.076441   0.159074  -0.039494   0.134652
     9  H    0.371461  -0.048858   0.011146   0.026189  -0.029508   0.004797
    10  H    0.485536  -0.201288   0.026878   0.017559  -0.059527   0.004043
    11  H    0.041911   0.132948  -0.008262   0.014163  -0.023742   0.033665
    12  H    0.025374   0.012204  -0.046129   0.371078  -0.028493  -0.010483
    13  H    0.016440  -0.013511  -0.091681   0.434535  -0.043103   0.011943
    14  H   -0.026885  -0.045550   0.014592  -0.030872   0.398841   0.006424
    15  H   -0.065022   0.044321   0.005646  -0.019210   0.380154  -0.006270
    16  H    0.000323   0.018384  -0.068705   0.027533   0.006321   0.369227
    17  H    0.010663  -0.010405   0.035459   0.011229   0.000129  -0.071844
    18  H   -0.001163  -0.041282   0.017435   0.003396  -0.001110   0.017400
    19  O    0.037578  -0.128829   0.036294   0.027715  -0.018644   0.100114
    20  H    0.006478  -0.064054  -0.002158  -0.001903  -0.001165  -0.005276
    21  O    0.003120   0.016663   0.011462  -0.001349   0.003007  -0.083225
    22  H    0.003728   0.003792   0.004131   0.002115  -0.000322  -0.044486
    23  C   -0.019606   0.017868   0.043724  -0.128545   0.038375  -0.772461
    24  H    0.002273  -0.002924   0.019037   0.012818  -0.002699  -0.002528
    25  H   -0.000093   0.005442  -0.007633   0.000255   0.005060  -0.117451
    26  O    0.000862   0.006549  -0.001062   0.003941  -0.001866   0.027607
    27  H   -0.000170   0.004181   0.000778  -0.001964   0.000542  -0.077325
              7          8          9         10         11         12
     1  C    0.066619   0.020351   0.371461   0.485536   0.041911   0.025374
     2  C   -0.094057  -0.949387  -0.048858  -0.201288   0.132948   0.012204
     3  N   -0.132945  -0.076441   0.011146   0.026878  -0.008262  -0.046129
     4  C   -0.188266   0.159074   0.026189   0.017559   0.014163   0.371078
     5  C   -0.087629  -0.039494  -0.029508  -0.059527  -0.023742  -0.028493
     6  C   -1.900571   0.134652   0.004797   0.004043   0.033665  -0.010483
     7  C    8.418421  -0.342256  -0.008455  -0.001899  -0.037482   0.007610
     8  C   -0.342256   6.307615   0.015908   0.038795   0.103770  -0.010770
     9  H   -0.008455   0.015908   0.513352  -0.024843  -0.004503  -0.000099
    10  H   -0.001899   0.038795  -0.024843   0.526645   0.004296  -0.000023
    11  H   -0.037482   0.103770  -0.004503   0.004296   0.562312   0.000213
    12  H    0.007610  -0.010770  -0.000099  -0.000023   0.000213   0.543870
    13  H    0.008123   0.003564  -0.000158   0.001264  -0.000477  -0.042449
    14  H    0.000317   0.010813  -0.005010   0.004119   0.000846  -0.005880
    15  H    0.003620  -0.001875   0.000467  -0.005435  -0.000099   0.000747
    16  H   -0.033673  -0.019660  -0.000011  -0.000201  -0.000624  -0.001016
    17  H    0.385213  -0.040840   0.000002  -0.000012   0.000134   0.000008
    18  H   -0.019022   0.343454   0.000239   0.000210  -0.002035   0.000004
    19  O   -0.241782   0.176229  -0.001302   0.010856   0.006545   0.000085
    20  H    0.025819   0.058700   0.000042   0.000529   0.000089  -0.000001
    21  O    0.206181  -0.076101   0.000017  -0.000172  -0.000709   0.000010
    22  H    0.054822  -0.049850   0.000000  -0.000001  -0.000011   0.000000
    23  C    0.240206  -0.073973   0.000426  -0.000380   0.006061   0.017114
    24  H   -0.074338   0.000621   0.000000   0.000000  -0.000035   0.000086
    25  H    0.012984  -0.007630   0.000000   0.000001   0.000008  -0.000328
    26  O   -0.042401  -0.008870  -0.000001  -0.000008  -0.000059   0.000059
    27  H    0.028313   0.002869   0.000000   0.000000   0.000001  -0.000002
             13         14         15         16         17         18
     1  C    0.016440  -0.026885  -0.065022   0.000323   0.010663  -0.001163
     2  C   -0.013511  -0.045550   0.044321   0.018384  -0.010405  -0.041282
     3  N   -0.091681   0.014592   0.005646  -0.068705   0.035459   0.017435
     4  C    0.434535  -0.030872  -0.019210   0.027533   0.011229   0.003396
     5  C   -0.043103   0.398841   0.380154   0.006321   0.000129  -0.001110
     6  C    0.011943   0.006424  -0.006270   0.369227  -0.071844   0.017400
     7  C    0.008123   0.000317   0.003620  -0.033673   0.385213  -0.019022
     8  C    0.003564   0.010813  -0.001875  -0.019660  -0.040840   0.343454
     9  H   -0.000158  -0.005010   0.000467  -0.000011   0.000002   0.000239
    10  H    0.001264   0.004119  -0.005435  -0.000201  -0.000012   0.000210
    11  H   -0.000477   0.000846  -0.000099  -0.000624   0.000134  -0.002035
    12  H   -0.042449  -0.005880   0.000747  -0.001016   0.000008   0.000004
    13  H    0.577605   0.004075  -0.004810   0.013133  -0.000016  -0.000014
    14  H    0.004075   0.520094  -0.024463  -0.000011  -0.000002  -0.000001
    15  H   -0.004810  -0.024463   0.513064  -0.000016   0.000000   0.000002
    16  H    0.013133  -0.000011  -0.000016   0.575504   0.004179  -0.000200
    17  H   -0.000016  -0.000002   0.000000   0.004179   0.516569  -0.004226
    18  H   -0.000014  -0.000001   0.000002  -0.000200  -0.004226   0.547321
    19  O    0.000337   0.000097   0.000164   0.006723   0.008781  -0.037440
    20  H    0.000021   0.000000   0.000002  -0.000009  -0.000177  -0.007939
    21  O   -0.000027  -0.000008  -0.000007   0.000065  -0.046330   0.001632
    22  H   -0.000004   0.000000   0.000000   0.002397   0.005761  -0.000131
    23  C   -0.025098  -0.000852   0.000685  -0.074700  -0.002419   0.009650
    24  H    0.000023  -0.000001   0.000000   0.004724   0.004173  -0.000001
    25  H    0.000073   0.000003   0.000000  -0.004990   0.000058   0.000002
    26  O    0.000081  -0.000003  -0.000001   0.008610  -0.000765  -0.000033
    27  H    0.000001   0.000000   0.000000  -0.002620  -0.000868   0.000010
             19         20         21         22         23         24
     1  C    0.037578   0.006478   0.003120   0.003728  -0.019606   0.002273
     2  C   -0.128829  -0.064054   0.016663   0.003792   0.017868  -0.002924
     3  N    0.036294  -0.002158   0.011462   0.004131   0.043724   0.019037
     4  C    0.027715  -0.001903  -0.001349   0.002115  -0.128545   0.012818
     5  C   -0.018644  -0.001165   0.003007  -0.000322   0.038375  -0.002699
     6  C    0.100114  -0.005276  -0.083225  -0.044486  -0.772461  -0.002528
     7  C   -0.241782   0.025819   0.206181   0.054822   0.240206  -0.074338
     8  C    0.176229   0.058700  -0.076101  -0.049850  -0.073973   0.000621
     9  H   -0.001302   0.000042   0.000017   0.000000   0.000426   0.000000
    10  H    0.010856   0.000529  -0.000172  -0.000001  -0.000380   0.000000
    11  H    0.006545   0.000089  -0.000709  -0.000011   0.006061  -0.000035
    12  H    0.000085  -0.000001   0.000010   0.000000   0.017114   0.000086
    13  H    0.000337   0.000021  -0.000027  -0.000004  -0.025098   0.000023
    14  H    0.000097   0.000000  -0.000008   0.000000  -0.000852  -0.000001
    15  H    0.000164   0.000002  -0.000007   0.000000   0.000685   0.000000
    16  H    0.006723  -0.000009   0.000065   0.002397  -0.074700   0.004724
    17  H    0.008781  -0.000177  -0.046330   0.005761  -0.002419   0.004173
    18  H   -0.037440  -0.007939   0.001632  -0.000131   0.009650  -0.000001
    19  O    8.373939   0.243383  -0.000008   0.021477   0.024588   0.000183
    20  H    0.243383   0.348155  -0.000593  -0.000322  -0.003123   0.000000
    21  O   -0.000008  -0.000593   8.261262   0.258764   0.008893   0.003368
    22  H    0.021477  -0.000322   0.258764   0.338945  -0.000146  -0.000036
    23  C    0.024588  -0.003123   0.008893  -0.000146   5.791547   0.399796
    24  H    0.000183   0.000000   0.003368  -0.000036   0.399796   0.576741
    25  H    0.000035   0.000000  -0.001231   0.000016   0.497707  -0.040998
    26  O    0.000115   0.000017  -0.005970  -0.000517   0.152234  -0.052148
    27  H   -0.000586  -0.000002   0.018849  -0.002642   0.025060  -0.003253
             25         26         27
     1  C   -0.000093   0.000862  -0.000170
     2  C    0.005442   0.006549   0.004181
     3  N   -0.007633  -0.001062   0.000778
     4  C    0.000255   0.003941  -0.001964
     5  C    0.005060  -0.001866   0.000542
     6  C   -0.117451   0.027607  -0.077325
     7  C    0.012984  -0.042401   0.028313
     8  C   -0.007630  -0.008870   0.002869
     9  H    0.000000  -0.000001   0.000000
    10  H    0.000001  -0.000008   0.000000
    11  H    0.000008  -0.000059   0.000001
    12  H   -0.000328   0.000059  -0.000002
    13  H    0.000073   0.000081   0.000001
    14  H    0.000003  -0.000003   0.000000
    15  H    0.000000  -0.000001   0.000000
    16  H   -0.004990   0.008610  -0.002620
    17  H    0.000058  -0.000765  -0.000868
    18  H    0.000002  -0.000033   0.000010
    19  O    0.000035   0.000115  -0.000586
    20  H    0.000000   0.000017  -0.000002
    21  O   -0.001231  -0.005970   0.018849
    22  H    0.000016  -0.000517  -0.002642
    23  C    0.497707   0.152234   0.025060
    24  H   -0.040998  -0.052148  -0.003253
    25  H    0.548169  -0.058193   0.005796
    26  O   -0.058193   8.276132   0.251982
    27  H    0.005796   0.251982   0.355715
 Mulliken atomic charges:
              1
     1  C   -0.434565
     2  C   -0.023294
     3  N   -0.107956
     4  C   -0.175958
     5  C   -0.396127
     6  C   -0.232150
     7  C   -0.253470
     8  C    0.320733
     9  H    0.178703
    10  H    0.173056
    11  H    0.171076
    12  H    0.167210
    13  H    0.150132
    14  H    0.179317
    15  H    0.178335
    16  H    0.169313
    17  H    0.195545
    18  H    0.173842
    19  O   -0.646648
    20  H    0.403486
    21  O   -0.577567
    22  H    0.402518
    23  C   -0.172630
    24  H    0.155121
    25  H    0.162937
    26  O   -0.556292
    27  H    0.395334
 Sum of Mulliken atomic charges =   0.00000
 Mulliken charges with hydrogens summed into heavy atoms:
              1
     1  C   -0.082807
     2  C    0.147782
     3  N   -0.107956
     4  C    0.141383
     5  C   -0.038474
     6  C   -0.062838
     7  C   -0.057925
     8  C    0.494575
    19  O   -0.243162
    21  O   -0.175048
    23  C    0.145428
    26  O   -0.160958
 Sum of Mulliken charges with hydrogens summed into heavy atoms =   0.00000
 Electronic spatial extent (au):  <R**2>=           2079.0427
 Charge=              0.0000 electrons
 Dipole moment (field-independent basis, Debye):
    X=             -5.8995    Y=              3.0288    Z=              0.4063  Tot=              6.6440
 Quadrupole moment (field-independent basis, Debye-Ang):
   XX=            -82.3921   YY=            -69.9188   ZZ=            -72.6012
   XY=              0.7789   XZ=              2.3366   YZ=             -0.3522
 Traceless Quadrupole moment (field-independent basis, Debye-Ang):
   XX=             -7.4213   YY=              5.0519   ZZ=              2.3695
   XY=              0.7789   XZ=              2.3366   YZ=             -0.3522
 Octapole moment (field-independent basis, Debye-Ang**2):
  XXX=            -50.9932  YYY=             25.3992  ZZZ=             -1.6514  XYY=            -23.0266
  XXY=             26.1085  XXZ=              1.1761  XZZ=              3.9168  YZZ=             10.4282
  YYZ=             -7.3287  XYZ=             -8.5541
 Hexadecapole moment (field-independent basis, Debye-Ang**3):
 XXXX=          -1746.1871 YYYY=           -773.7382 ZZZZ=           -233.4277 XXXY=             72.1776
 XXXZ=             11.4297 YYYX=            -34.3279 YYYZ=            -23.9868 ZZZX=              2.9817
 ZZZY=             -5.3649 XXYY=           -442.3390 XXZZ=           -295.6743 YYZZ=           -175.0482
 XXYZ=            -32.7438 YYXZ=              7.3410 ZZXY=              4.1030
 N-N= 8.072925798408D+02 E-N=-3.000237829408D+03  KE= 5.886708222165D+02
 1\1\GINC-COMPUTE-3-1\SP\RmPW1PW91\6-31+G(d,p)\C8H15N1O3\MAMICHETTI.IQU
 IR\17-May-2024\0\\# mpw1pw91/6-31+G** nmr scrf=(pcm,solvent=water)\\co
 mment\\0,1\C,0,-2.599772,0.417449,0.018903\C,0,-1.259847,0.452809,0.76
 6346\N,0,-0.569698,-0.853305,0.447514\C,0,-1.442555,-1.621634,-0.46184
 4\C,0,-2.848861,-1.087084,-0.179023\C,0,0.766284,-0.549264,-0.075413\C
 ,0,1.080585,0.818538,0.557395\C,0,-0.2519,1.565199,0.413321\H,0,-3.399
 115,0.92052,0.571244\H,0,-2.500397,0.905356,-0.956532\H,0,-1.439071,0.
 502997,1.848191\H,0,-1.356287,-2.699459,-0.282584\H,0,-1.173611,-1.441
 443,-1.516576\H,0,-3.24808,-1.533986,0.739591\H,0,-3.547932,-1.305008,
 -0.992437\H,0,0.75049,-0.42163,-1.173159\H,0,1.309287,0.687242,1.62026
 8\H,0,-0.332481,2.425785,1.085825\O,0,-0.309757,2.004399,-0.95037\H,0,
 -1.025699,2.656282,-1.022894\O,0,2.206439,1.481864,-0.011813\H,0,1.923
 166,1.775337,-0.897375\C,0,1.825545,-1.60277,0.241329\H,0,1.944814,-1.
 69803,1.331781\H,0,1.528705,-2.582693,-0.14893\O,0,3.07322,-1.270377,-
 0.381453\H,0,3.178019,-0.304682,-0.276009\\Version=AM64L-G09RevC.01\St
 ate=1-A\HF=-594.201237\RMSD=6.307e-09\Dipole=-2.3210408,1.1916237,0.15
 98636\Quadrupole=-5.5175872,3.7559486,1.7616385,0.5790786,1.7371943,-0
 .2618607\PG=C01 [X(C8H15N1O3)]\\@


 THERE'S SMALL CHOICE IN A BOWL OF ROTTEN APPLES.
                     SHAKESPEARE
 Job cpu time:  0 days  0 hours  8 minutes 43.8 seconds.
 File lengths (MBytes):  RWF=    114 Int=      0 D2E=      0 Chk=      7 Scr=      1
 Normal termination of Gaussian 09 at Fri May 17 12:47:37 2024.
