 Entering Gaussian System, Link 0=g09
 Input=/home/mamichetti.iquir/Linux/01_Cardona_A1A3_R__S_R_R_003_OptB.gjc
 Output=/home/mamichetti.iquir/Linux/01_Cardona_A1A3_R__S_R_R_003_OptB.log
 Initial command:
 /opt/ohpc/pub/apps/software/Gaussian/09/AMD64.SSE4a-enabled/g09/l1.exe /local/mamichetti.iquir/Gau-404226.inp -scrdir=/local/mamichetti.iquir/
 Entering Link 1 = /opt/ohpc/pub/apps/software/Gaussian/09/AMD64.SSE4a-enabled/g09/l1.exe PID=    404227.
  
 Copyright (c) 1988,1990,1992,1993,1995,1998,2003,2009,2011,
            Gaussian, Inc.  All Rights Reserved.
  
 This is part of the Gaussian(R) 09 program.  It is based on
 the Gaussian(R) 03 system (copyright 2003, Gaussian, Inc.),
 the Gaussian(R) 98 system (copyright 1998, Gaussian, Inc.),
 the Gaussian(R) 94 system (copyright 1995, Gaussian, Inc.),
 the Gaussian 92(TM) system (copyright 1992, Gaussian, Inc.),
 the Gaussian 90(TM) system (copyright 1990, Gaussian, Inc.),
 the Gaussian 88(TM) system (copyright 1988, Gaussian, Inc.),
 the Gaussian 86(TM) system (copyright 1986, Carnegie Mellon
 University), and the Gaussian 82(TM) system (copyright 1983,
 Carnegie Mellon University). Gaussian is a federally registered
 trademark of Gaussian, Inc.
  
 This software contains proprietary and confidential information,
 including trade secrets, belonging to Gaussian, Inc.
  
 This software is provided under written license and may be
 used, copied, transmitted, or stored only in accord with that
 written license.
  
 The following legend is applicable only to US Government
 contracts under FAR:
  
                    RESTRICTED RIGHTS LEGEND
  
 Use, reproduction and disclosure by the US Government is
 subject to restrictions as set forth in subparagraphs (a)
 and (c) of the Commercial Computer Software - Restricted
 Rights clause in FAR 52.227-19.
  
 Gaussian, Inc.
 340 Quinnipiac St., Bldg. 40, Wallingford CT 06492
  
  
 ---------------------------------------------------------------
 Warning -- This program may not be used in any manner that
 competes with the business of Gaussian, Inc. or will provide
 assistance to any competitor of Gaussian, Inc.  The licensee
 of this program is prohibited from giving any competitor of
 Gaussian, Inc. access to this program.  By using this program,
 the user acknowledges that Gaussian, Inc. is engaged in the
 business of creating and licensing software in the field of
 computational chemistry and represents and warrants to the
 licensee that it is not a competitor of Gaussian, Inc. and that
 it will not use this program in any manner prohibited above.
 ---------------------------------------------------------------
  

 Cite this work as:
 Gaussian 09, Revision C.01,
 M. J. Frisch, G. W. Trucks, H. B. Schlegel, G. E. Scuseria, 
 M. A. Robb, J. R. Cheeseman, G. Scalmani, V. Barone, B. Mennucci, 
 G. A. Petersson, H. Nakatsuji, M. Caricato, X. Li, H. P. Hratchian, 
 A. F. Izmaylov, J. Bloino, G. Zheng, J. L. Sonnenberg, M. Hada, 
 M. Ehara, K. Toyota, R. Fukuda, J. Hasegawa, M. Ishida, T. Nakajima, 
 Y. Honda, O. Kitao, H. Nakai, T. Vreven, J. A. Montgomery, Jr., 
 J. E. Peralta, F. Ogliaro, M. Bearpark, J. J. Heyd, E. Brothers, 
 K. N. Kudin, V. N. Staroverov, T. Keith, R. Kobayashi, J. Normand, 
 K. Raghavachari, A. Rendell, J. C. Burant, S. S. Iyengar, J. Tomasi, 
 M. Cossi, N. Rega, J. M. Millam, M. Klene, J. E. Knox, J. B. Cross, 
 V. Bakken, C. Adamo, J. Jaramillo, R. Gomperts, R. E. Stratmann, 
 O. Yazyev, A. J. Austin, R. Cammi, C. Pomelli, J. W. Ochterski, 
 R. L. Martin, K. Morokuma, V. G. Zakrzewski, G. A. Voth, 
 P. Salvador, J. J. Dannenberg, S. Dapprich, A. D. Daniels, 
 O. Farkas, J. B. Foresman, J. V. Ortiz, J. Cioslowski, 
 and D. J. Fox, Gaussian, Inc., Wallingford CT, 2010.
 
 ******************************************
 Gaussian 09:  AM64L-G09RevC.01 23-Sep-2011
                17-May-2024 
 ******************************************
 %nprocshared=4
 Will use up to    4 processors via shared memory.
 ------------------------------------------------
 # mpw1pw91/6-31+G** nmr scrf=(pcm,solvent=water)
 ------------------------------------------------
 1/38=1/1;
 2/12=2,17=6,18=5,40=1/2;
 3/5=1,6=6,7=111,11=2,16=1,25=1,30=1,70=2201,72=1,74=-7/1,2,8,3;
 4//1;
 5/5=2,38=5,53=1/2;
 8/6=1,10=90,11=11/1;
 10/13=100,45=16/2;
 6/7=2,8=2,9=2,10=2,28=1/1;
 99/9=1/99;
 -------
 comment
 -------
 Charge =  0 Multiplicity = 1
 Symbolic Z-Matrix:
 6                    -2.61892   0.42557   0.02686 
 6                    -1.27236   0.46017   0.76524 
 7                    -0.58369  -0.84466   0.44007 
 6                    -1.45526  -1.60505  -0.47705 
 6                    -2.86224  -1.07858  -0.18257 
 6                     0.7519   -0.53066  -0.07837 
 6                     1.06622   0.83378   0.55437 
 6                    -0.27054   1.57292   0.41361 
 1                    -3.41533   0.91763   0.59329 
 1                    -2.53216   0.92496  -0.94273 
 1                    -1.44516   0.50613   1.84803 
 1                    -1.36426  -2.68452  -0.31056 
 1                    -1.19     -1.41115  -1.53035 
 1                    -3.25438  -1.53611   0.73392 
 1                    -3.56468  -1.29265  -0.99413 
 1                     0.73458  -0.39207  -1.1739 
 1                     1.30045   0.70199   1.62109 
 1                    -0.35459   2.42788   1.09733 
 8                    -0.42208   2.01666  -0.93808 
 1                     0.48424   2.22256  -1.23721 
 8                     2.11254   1.54315  -0.10374 
 1                     2.78661   0.86294  -0.30876 
 6                     1.80633  -1.58364   0.23262 
 1                     1.92399  -1.69958   1.31694 
 1                     1.52606  -2.55878  -0.18967 
 8                     3.03567  -1.11937  -0.36073 
 1                     3.77057  -1.56704   0.0883 
 
                          Input orientation:                          
 ---------------------------------------------------------------------
 Center     Atomic      Atomic             Coordinates (Angstroms)
 Number     Number       Type             X           Y           Z
 ---------------------------------------------------------------------
      1          6           0       -2.618922    0.425570    0.026862
      2          6           0       -1.272358    0.460167    0.765239
      3          7           0       -0.583686   -0.844663    0.440065
      4          6           0       -1.455256   -1.605053   -0.477046
      5          6           0       -2.862244   -1.078584   -0.182568
      6          6           0        0.751902   -0.530656   -0.078365
      7          6           0        1.066216    0.833775    0.554370
      8          6           0       -0.270537    1.572915    0.413613
      9          1           0       -3.415329    0.917632    0.593289
     10          1           0       -2.532157    0.924958   -0.942727
     11          1           0       -1.445162    0.506126    1.848032
     12          1           0       -1.364261   -2.684515   -0.310559
     13          1           0       -1.189996   -1.411148   -1.530352
     14          1           0       -3.254384   -1.536105    0.733922
     15          1           0       -3.564679   -1.292651   -0.994130
     16          1           0        0.734577   -0.392069   -1.173897
     17          1           0        1.300453    0.701985    1.621088
     18          1           0       -0.354588    2.427884    1.097334
     19          8           0       -0.422083    2.016662   -0.938084
     20          1           0        0.484239    2.222564   -1.237210
     21          8           0        2.112545    1.543145   -0.103736
     22          1           0        2.786612    0.862937   -0.308761
     23          6           0        1.806329   -1.583640    0.232615
     24          1           0        1.923991   -1.699575    1.316940
     25          1           0        1.526056   -2.558782   -0.189669
     26          8           0        3.035673   -1.119373   -0.360727
     27          1           0        3.770567   -1.567036    0.088302
 ---------------------------------------------------------------------
                    Distance matrix (angstroms):
                    1          2          3          4          5
     1  C    0.000000
     2  C    1.536109   0.000000
     3  N    2.434423   1.510824   0.000000
     4  C    2.394049   2.416993   1.476116   0.000000
     5  C    1.538033   2.407038   2.373651   1.530850   0.000000
     6  C    3.505409   2.406455   1.466685   2.486930   3.656930
     7  C    3.745015   2.377599   2.356352   3.656436   4.430913
     8  C    2.642137   1.538016   2.437918   3.506610   3.755373
     9  H    1.094179   2.197991   3.338767   3.369190   2.211953
    10  H    1.094084   2.172619   2.973249   2.788822   2.168174
    11  H    2.168147   1.097458   2.132872   3.140568   2.939858
    12  H    3.370557   3.324878   2.134898   1.096009   2.199852
    13  H    2.800050   2.962827   2.138004   1.103366   2.173369
    14  H    2.179889   2.813274   2.774360   2.169806   1.096838
    15  H    2.211145   3.379717   3.338252   2.194228   1.094474
    16  H    3.654629   2.917935   2.132494   2.598519   3.793568
    17  H    4.240220   2.722188   2.708674   4.161553   4.873566
    18  H    3.206615   2.196474   3.345751   4.467071   4.496866
    19  O    2.879027   2.459055   3.180030   3.794314   4.013195
    20  H    3.802193   3.193975   3.655352   4.357768   4.817551
    21  O    4.863415   3.658624   3.642390   4.772810   5.623896
    22  H    5.433574   4.217930   3.851694   4.910472   5.974529
    23  C    4.864371   3.733517   2.510238   3.337966   4.714131
    24  H    5.178668   3.896859   2.790740   3.827092   5.053929
    25  H    5.112151   4.225757   2.790301   3.143311   4.631222
    26  O    5.874651   4.724603   3.717054   4.518612   5.900748
    27  H    6.693267   5.477124   4.427762   5.256452   6.656286
                    6          7          8          9         10
     6  C    0.000000
     7  C    1.536496   0.000000
     8  C    2.390070   1.533965   0.000000
     9  H    4.462563   4.482498   3.217359   0.000000
    10  H    3.694723   3.898449   2.715590   1.771833   0.000000
    11  H    3.100486   2.843929   2.139005   2.371766   3.024122
    12  H    3.028394   4.362761   4.454926   4.242556   3.846026
    13  H    2.579632   3.804765   3.678184   3.858131   2.757552
    14  H    4.209640   4.931141   4.321105   2.463028   3.064245
    15  H    4.477961   5.325855   4.587437   2.725354   2.446739
    16  H    1.104399   2.144664   2.718750   4.696806   3.529809
    17  H    2.169897   1.100056   2.164376   4.831302   4.616467
    18  H    3.370393   2.203333   1.097958   3.450081   3.341024
    19  O    2.933630   2.416956   1.430721   3.537300   2.375763
    20  H    2.999131   2.340340   1.927939   4.501134   3.296839
    21  O    2.480452   1.425171   2.438773   5.606648   4.760180
    22  H    2.476939   1.924996   3.220567   6.267436   5.356777
    23  C    1.522268   2.548566   3.782852   5.801048   5.147519
    24  H    2.164957   2.781214   4.042418   5.990140   5.643715
    25  H    2.173706   3.503497   4.545615   6.092271   5.401170
    26  O    2.375274   2.920779   4.333479   6.831908   5.959760
    27  H    3.195966   3.646180   5.127928   7.620085   6.855464
                   11         12         13         14         15
    11  H    0.000000
    12  H    3.853083   0.000000
    13  H    3.892882   1.771927   0.000000
    14  H    2.947072   2.445885   3.066635   0.000000
    15  H    3.975655   2.691913   2.437354   1.772489   0.000000
    16  H    3.832763   3.225799   2.206709   4.567319   4.396245
    17  H    2.761932   4.722324   4.538639   5.151956   5.872601
    18  H    2.333678   5.397983   4.726606   4.924845   5.340532
    19  O    3.330293   4.835551   3.562352   4.841455   4.564056
    20  H    4.023365   5.324947   4.011590   5.655993   5.367454
    21  O    4.188327   5.477597   4.655089   6.243987   6.408230
    22  H    4.763085   5.460235   4.741008   6.583025   6.742046
    23  C    4.189139   3.399942   3.480771   5.085704   5.517001
    24  H    4.061818   3.798876   4.229323   5.213655   5.969265
    25  H    4.730119   2.895575   3.239048   4.975087   5.307149
    26  O    5.253451   4.670290   4.394250   6.398182   6.632938
    27  H    5.882047   5.270134   5.220300   7.054624   7.419756
                   16         17         18         19         20
    16  H    0.000000
    17  H    3.054359   0.000000
    18  H    3.781125   2.447898   0.000000
    19  O    2.682435   3.353337   2.077639   0.000000
    20  H    2.627353   3.338897   2.489153   0.976367   0.000000
    21  O    2.605589   2.083761   2.883067   2.710110   2.097082
    22  H    2.556237   2.441084   3.780648   3.467399   2.830464
    23  C    2.132316   2.721736   4.637847   4.393009   4.288997
    24  H    3.054267   2.499759   4.719753   4.939597   4.896912
    25  H    2.507945   3.736621   5.482703   5.028922   5.004398
    26  O    2.546617   3.202487   5.118871   4.703630   4.294948
    27  H    3.491551   3.687730   5.830475   5.610229   5.188256
                   21         22         23         24         25
    21  O    0.000000
    22  H    0.979329   0.000000
    23  C    3.159697   2.690684   0.000000
    24  H    3.545293   3.154915   1.096835   0.000000
    25  H    4.144534   3.648472   1.098990   1.779455   0.000000
    26  O    2.829702   1.998571   1.441834   2.094526   2.092869
    27  H    3.529751   2.651527   1.969602   2.221927   2.469546
                   26         27
    26  O    0.000000
    27  H    0.970618   0.000000
 Stoichiometry    C8H15NO3
 Framework group  C1[X(C8H15NO3)]
 Deg. of freedom    75
 Full point group                 C1      NOp   1
 Largest Abelian subgroup         C1      NOp   1
 Largest concise Abelian subgroup C1      NOp   1
                         Standard orientation:                         
 ---------------------------------------------------------------------
 Center     Atomic      Atomic             Coordinates (Angstroms)
 Number     Number       Type             X           Y           Z
 ---------------------------------------------------------------------
      1          6           0       -2.618922    0.425570    0.026862
      2          6           0       -1.272358    0.460167    0.765239
      3          7           0       -0.583686   -0.844663    0.440065
      4          6           0       -1.455256   -1.605053   -0.477046
      5          6           0       -2.862244   -1.078584   -0.182568
      6          6           0        0.751902   -0.530656   -0.078365
      7          6           0        1.066216    0.833775    0.554370
      8          6           0       -0.270537    1.572915    0.413613
      9          1           0       -3.415329    0.917632    0.593289
     10          1           0       -2.532157    0.924958   -0.942727
     11          1           0       -1.445162    0.506126    1.848032
     12          1           0       -1.364261   -2.684515   -0.310559
     13          1           0       -1.189996   -1.411148   -1.530352
     14          1           0       -3.254384   -1.536105    0.733922
     15          1           0       -3.564679   -1.292651   -0.994130
     16          1           0        0.734577   -0.392069   -1.173897
     17          1           0        1.300453    0.701985    1.621088
     18          1           0       -0.354588    2.427884    1.097334
     19          8           0       -0.422083    2.016662   -0.938084
     20          1           0        0.484239    2.222564   -1.237210
     21          8           0        2.112545    1.543145   -0.103736
     22          1           0        2.786612    0.862937   -0.308761
     23          6           0        1.806329   -1.583640    0.232615
     24          1           0        1.923991   -1.699575    1.316940
     25          1           0        1.526056   -2.558782   -0.189669
     26          8           0        3.035673   -1.119373   -0.360727
     27          1           0        3.770567   -1.567036    0.088302
 ---------------------------------------------------------------------
 Rotational constants (GHZ):      1.4573791      0.7857892      0.5717258
 Standard basis: 6-31+G(d,p) (6D, 7F)
 There are   303 symmetry adapted basis functions of A   symmetry.
 Integral buffers will be    131072 words long.
 Raffenetti 2 integral format.
 Two-electron integral symmetry is turned on.
   303 basis functions,   489 primitive gaussians,   303 cartesian basis functions
    47 alpha electrons       47 beta electrons
       nuclear repulsion energy       808.7232987404 Hartrees.
 NAtoms=   27 NActive=   27 NUniq=   27 SFac= 1.00D+00 NAtFMM=   60 NAOKFM=F Big=F
 ------------------------------------------------------------------------------
 Polarizable Continuum Model (PCM)
 =================================
 Model                : PCM.
 Atomic radii         : UFF (Universal Force Field).
 Polarization charges : Total charges.
 Charge compensation  : None.
 Solution method      : Matrix inversion.
 Cavity type          : Scaled VdW (van der Waals Surface) (Alpha=1.100).
 Cavity algorithm     : GePol (No added spheres)
                        Default sphere list used, NSphG=   27.
                        Lebedev-Laikov grids with approx.  5.0 points / Ang**2.
                        Smoothing algorithm: Karplus/York (Gamma=1.0000).
                        Polarization charges: spherical gaussians, with
                                              point-specific exponents (IZeta= 3).
                        Self-potential: point-specific (ISelfS= 7).
                        Self-field    : sphere-specific E.n sum rule (ISelfD= 2).
 Solvent              : Water, Eps=  78.355300 Eps(inf)=   1.777849
 ------------------------------------------------------------------------------
 One-electron integrals computed using PRISM.
 NBasis=   303 RedAO= T  NBF=   303
 NBsUse=   303 1.00D-06 NBFU=   303
 Harris functional with IExCor=  908 diagonalized for initial guess.
 ExpMin= 4.38D-02 ExpMax= 5.48D+03 ExpMxC= 8.25D+02 IAcc=2 IRadAn=         4 AccDes= 0.00D+00
 HarFok:  IExCor=  908 AccDes= 0.00D+00 IRadAn=         4 IDoV= 1
 ScaDFX=  1.000000  1.000000  1.000000  1.000000
 FoFCou: FMM=F IPFlag=           0 FMFlag=      100000 FMFlg1=           0
         NFxFlg=           0 DoJE=T BraDBF=F KetDBF=T FulRan=T
         Omega=  0.000000  0.000000  1.000000  0.000000  0.000000 ICntrl=     500 IOpCl=  0
         NMat0=    1 NMatS0=    1 NMatT0=    0 NMatD0=    1 NMtDS0=    0 NMtDT0=    0
         I1Cent=           4 NGrid=           0.
 Petite list used in FoFCou.
 Initial guess orbital symmetries:
       Occupied  (A) (A) (A) (A) (A) (A) (A) (A) (A) (A) (A) (A)
                 (A) (A) (A) (A) (A) (A) (A) (A) (A) (A) (A) (A)
                 (A) (A) (A) (A) (A) (A) (A) (A) (A) (A) (A) (A)
                 (A) (A) (A) (A) (A) (A) (A) (A) (A) (A) (A)
       Virtual   (A) (A) (A) (A) (A) (A) (A) (A) (A) (A) (A) (A)
                 (A) (A) (A) (A) (A) (A) (A) (A) (A) (A) (A) (A)
                 (A) (A) (A) (A) (A) (A) (A) (A) (A) (A) (A) (A)
                 (A) (A) (A) (A) (A) (A) (A) (A) (A) (A) (A) (A)
                 (A) (A) (A) (A) (A) (A) (A) (A) (A) (A) (A) (A)
                 (A) (A) (A) (A) (A) (A) (A) (A) (A) (A) (A) (A)
                 (A) (A) (A) (A) (A) (A) (A) (A) (A) (A) (A) (A)
                 (A) (A) (A) (A) (A) (A) (A) (A) (A) (A) (A) (A)
                 (A) (A) (A) (A) (A) (A) (A) (A) (A) (A) (A) (A)
                 (A) (A) (A) (A) (A) (A) (A) (A) (A) (A) (A) (A)
                 (A) (A) (A) (A) (A) (A) (A) (A) (A) (A) (A) (A)
                 (A) (A) (A) (A) (A) (A) (A) (A) (A) (A) (A) (A)
                 (A) (A) (A) (A) (A) (A) (A) (A) (A) (A) (A) (A)
                 (A) (A) (A) (A) (A) (A) (A) (A) (A) (A) (A) (A)
                 (A) (A) (A) (A) (A) (A) (A) (A) (A) (A) (A) (A)
                 (A) (A) (A) (A) (A) (A) (A) (A) (A) (A) (A) (A)
                 (A) (A) (A) (A) (A) (A) (A) (A) (A) (A) (A) (A)
                 (A) (A) (A) (A) (A) (A) (A) (A) (A) (A) (A) (A)
                 (A) (A) (A) (A) (A) (A) (A) (A) (A) (A) (A) (A)
                 (A) (A) (A) (A) (A) (A) (A) (A) (A) (A) (A) (A)
                 (A) (A) (A) (A) (A) (A) (A) (A) (A) (A) (A) (A)
                 (A) (A) (A) (A)
 The electronic state of the initial guess is 1-A.
 Requested convergence on RMS density matrix=1.00D-08 within 128 cycles.
 Requested convergence on MAX density matrix=1.00D-06.
 Requested convergence on             energy=1.00D-06.
 No special actions if energy rises.
 Error on total polarization charges =  0.01443
 SCF Done:  E(RmPW1PW91) =  -594.201688210     A.U. after   13 cycles
             Convg  =    0.5410D-08             -V/T =  2.0094
 Range of M.O.s used for correlation:     1   303
 NBasis=   303 NAE=    47 NBE=    47 NFC=     0 NFV=     0
 NROrb=    303 NOA=    47 NOB=    47 NVA=   256 NVB=   256

 **** Warning!!: The largest alpha MO coefficient is  0.80951698D+02

 NEqPCM:  Using equilibrium solvation (IEInf=0, Eps=  78.3553, EpsInf=   1.7778)
          Differentiating once with respect to magnetic field using GIAOs.
          Electric field/nuclear overlap derivatives assumed to be zero.
 FoFCou: FMM=F IPFlag=           0 FMFlag=    10101102 FMFlg1=           0
         NFxFlg=    40000000 DoJE=F BraDBF=F KetDBF=T FulRan=T
         Omega=  0.000000  0.000000  1.000000  0.000000  0.000000 ICntrl=    6100 IOpCl=  0
         NMat0=    1 NMatS0=    1 NMatT0=    0 NMatD0=    1 NMtDS0=    0 NMtDT0=    0
         I1Cent=           7 NGrid=        1856.
 Symmetry not used in FoFCou.
          There are     3 degrees of freedom in the 1st order CPHF.  IDoFFX=0.
      3 vectors produced by pass  0 Test12= 4.01D-13 3.33D-08 XBig12= 4.11D+01 1.03D+00.
 AX will form     3 AO Fock derivatives at one time.
      3 vectors produced by pass  1 Test12= 4.01D-13 3.33D-08 XBig12= 1.04D-01 4.58D-02.
      3 vectors produced by pass  2 Test12= 4.01D-13 3.33D-08 XBig12= 2.48D-04 2.65D-03.
      3 vectors produced by pass  3 Test12= 4.01D-13 3.33D-08 XBig12= 1.05D-06 1.65D-04.
      3 vectors produced by pass  4 Test12= 4.01D-13 3.33D-08 XBig12= 3.39D-09 9.79D-06.
      3 vectors produced by pass  5 Test12= 4.01D-13 3.33D-08 XBig12= 9.97D-12 4.02D-07.
 Inverted reduced A of dimension    18 with in-core refinement.
 Calculating GIAO nuclear magnetic shielding tensors.
 SCF GIAO Magnetic shielding tensor (ppm):
      1  C    Isotropic =   170.5590   Anisotropy =    20.4416
   XX=   176.5992   YX=     2.8556   ZX=     8.3049
   XY=    -6.9653   YY=   181.9093   ZY=    11.1283
   XZ=     7.9285   YZ=     5.6675   ZZ=   153.1684
   Eigenvalues:   148.4084   179.0819   184.1867
      2  C    Isotropic =   127.0495   Anisotropy =    50.9963
   XX=   134.1010   YX=    -9.8371   ZX=     3.2144
   XY=   -10.6163   YY=   155.9936   ZY=    11.2449
   XZ=     1.4056   YZ=     8.5987   ZZ=    91.0541
   Eigenvalues:    89.2405   130.8610   161.0471
      3  N    Isotropic =   197.5962   Anisotropy =    77.6006
   XX=   247.4989   YX=   -11.1357   ZX=    -3.9023
   XY=     0.9044   YY=   216.1343   ZY=    38.7830
   XZ=    -3.7850   YZ=    31.8102   ZZ=   129.1556
   Eigenvalues:   116.6064   226.8523   249.3300
      4  C    Isotropic =   138.4138   Anisotropy =    57.1159
   XX=   150.2571   YX=    12.9270   ZX=    18.2707
   XY=    23.2978   YY=   126.3655   ZY=    17.1485
   XZ=    15.6011   YZ=    23.1353   ZZ=   138.6189
   Eigenvalues:   110.6628   128.0876   176.4911
      5  C    Isotropic =   164.4587   Anisotropy =    22.9849
   XX=   179.1897   YX=    -2.0413   ZX=     7.2087
   XY=    -0.2736   YY=   174.7364   ZY=    16.5023
   XZ=    -3.3576   YZ=    10.5009   ZZ=   139.4500
   Eigenvalues:   134.7682   178.8260   179.7819
      6  C    Isotropic =   127.1106   Anisotropy =    59.3723
   XX=   152.3391   YX=    21.6925   ZX=    -8.7375
   XY=    20.9291   YY=   110.8514   ZY=    -7.5096
   XZ=   -22.8174   YZ=    -0.6008   ZZ=   118.1414
   Eigenvalues:   101.3916   113.2481   166.6921
      7  C    Isotropic =   112.2455   Anisotropy =    41.8982
   XX=   129.3866   YX=    16.8971   ZX=   -13.5960
   XY=     9.9015   YY=   121.8770   ZY=    -0.2143
   XZ=    -1.8529   YZ=     1.3131   ZZ=    85.4729
   Eigenvalues:    83.9255   112.6333   140.1776
      8  C    Isotropic =   123.6615   Anisotropy =    29.2433
   XX=   114.1428   YX=     2.6659   ZX=     0.7375
   XY=     1.5052   YY=   119.5551   ZY=   -11.4482
   XZ=     7.8106   YZ=   -11.3392   ZZ=   137.2865
   Eigenvalues:   110.1814   117.6460   143.1571
      9  H    Isotropic =    29.9692   Anisotropy =    11.6196
   XX=    33.7473   YX=    -3.4842   ZX=    -3.0219
   XY=    -4.5390   YY=    29.5459   ZY=     2.8294
   XZ=    -3.4225   YZ=     2.4727   ZZ=    26.6145
   Eigenvalues:    24.9331    27.2590    37.7157
     10  H    Isotropic =    29.3698   Anisotropy =     7.0696
   XX=    29.4299   YX=     1.0175   ZX=     2.0205
   XY=     1.4750   YY=    29.3293   ZY=    -4.6895
   XZ=     2.3010   YZ=    -4.5878   ZZ=    29.3503
   Eigenvalues:    23.6843    30.3422    34.0829
     11  H    Isotropic =    27.9221   Anisotropy =     8.9368
   XX=    26.4061   YX=    -1.6956   ZX=    -2.2814
   XY=    -0.9630   YY=    25.3369   ZY=     3.0918
   XZ=    -2.4963   YZ=     2.0852   ZZ=    32.0233
   Eigenvalues:    24.2706    25.6157    33.8800
     12  H    Isotropic =    28.4866   Anisotropy =     9.6602
   XX=    27.0969   YX=     1.2947   ZX=     1.1679
   XY=     0.5485   YY=    34.6588   ZY=     1.0629
   XZ=     0.8930   YZ=     1.3545   ZZ=    23.7043
   Eigenvalues:    23.3393    27.1938    34.9268
     13  H    Isotropic =    29.1967   Anisotropy =     7.8756
   XX=    28.0498   YX=     0.2496   ZX=     1.3838
   XY=     0.7404   YY=    26.7091   ZY=     3.7160
   XZ=    -0.6132   YZ=     3.2280   ZZ=    32.8313
   Eigenvalues:    25.1119    28.0311    34.4471
     14  H    Isotropic =    29.5880   Anisotropy =    10.9651
   XX=    30.5419   YX=     3.0752   ZX=    -4.1172
   XY=     3.4173   YY=    29.9047   ZY=    -3.1119
   XZ=    -4.6179   YZ=    -3.3393   ZZ=    28.3174
   Eigenvalues:    24.8139    27.0519    36.8981
     15  H    Isotropic =    29.4981   Anisotropy =    11.6676
   XX=    32.6904   YX=     2.4025   ZX=     5.0738
   XY=     3.1306   YY=    27.5787   ZY=     2.6719
   XZ=     4.8622   YZ=     2.1900   ZZ=    28.2252
   Eigenvalues:    24.8249    26.3929    37.2765
     16  H    Isotropic =    28.7251   Anisotropy =     3.6757
   XX=    29.6046   YX=    -1.5971   ZX=    -1.3649
   XY=    -1.1596   YY=    28.1251   ZY=     0.0519
   XZ=    -1.3522   YZ=     0.9482   ZZ=    28.4455
   Eigenvalues:    27.1870    27.8127    31.1756
     17  H    Isotropic =    27.2987   Anisotropy =     4.2170
   XX=    27.7263   YX=     1.4688   ZX=    -0.2229
   XY=     1.1096   YY=    24.8076   ZY=    -0.1815
   XZ=     2.7452   YZ=     0.0361   ZZ=    29.3622
   Eigenvalues:    24.2641    27.5219    30.1101
     18  H    Isotropic =    27.6040   Anisotropy =     8.9978
   XX=    23.3086   YX=    -0.5446   ZX=     0.3429
   XY=    -0.0387   YY=    29.1170   ZY=     3.0371
   XZ=    -0.3410   YZ=     4.5522   ZZ=    30.3865
   Eigenvalues:    23.2861    25.9234    33.6025
     19  O    Isotropic =   309.3495   Anisotropy =    43.7763
   XX=   321.0642   YX=    14.7546   ZX=   -23.6559
   XY=    13.9574   YY=   302.8175   ZY=    22.3498
   XZ=   -22.5036   YZ=    -3.6725   ZZ=   304.1670
   Eigenvalues:   277.7113   311.8035   338.5338
     20  H    Isotropic =    28.4928   Anisotropy =    17.9040
   XX=    37.8597   YX=     3.3405   ZX=    -3.3701
   XY=     2.5754   YY=    22.1042   ZY=    -6.8686
   XZ=    -4.8769   YZ=    -5.8855   ZZ=    25.5144
   Eigenvalues:    17.2067    27.8428    40.4287
     21  O    Isotropic =   293.1546   Anisotropy =    40.5610
   XX=   308.5846   YX=    -6.7147   ZX=   -14.7507
   XY=     7.0525   YY=   318.6587   ZY=     5.2431
   XZ=    10.5771   YZ=    15.1852   ZZ=   252.2206
   Eigenvalues:   250.6105   308.6581   320.1953
     22  H    Isotropic =    27.2664   Anisotropy =    21.8797
   XX=    32.0802   YX=    -7.9781   ZX=    -5.1301
   XY=    -8.2959   YY=    33.4048   ZY=     1.6436
   XZ=    -6.2249   YZ=     1.1023   ZZ=    16.3144
   Eigenvalues:    14.3916    25.5548    41.8529
     23  C    Isotropic =   126.6902   Anisotropy =    58.9046
   XX=   155.1021   YX=     5.8242   ZX=   -22.9216
   XY=     1.9772   YY=   113.3151   ZY=    -5.6284
   XZ=   -23.8812   YZ=    -5.7234   ZZ=   111.6533
   Eigenvalues:   100.3775   113.7331   165.9599
     24  H    Isotropic =    27.8577   Anisotropy =     4.2136
   XX=    28.7377   YX=    -0.3518   ZX=    -1.7543
   XY=    -0.3748   YY=    26.2044   ZY=    -3.1364
   XZ=     0.5520   YZ=    -2.7898   ZZ=    28.6311
   Eigenvalues:    24.1277    28.7787    30.6668
     25  H    Isotropic =    27.3849   Anisotropy =     5.5184
   XX=    29.2498   YX=     1.0742   ZX=    -0.0555
   XY=    -0.0996   YY=    30.8433   ZY=     1.5473
   XZ=    -1.6445   YZ=     0.6656   ZZ=    22.0615
   Eigenvalues:    21.8143    29.2766    31.0638
     26  O    Isotropic =   317.8984   Anisotropy =    79.7697
   XX=   342.4023   YX=   -21.6273   ZX=     9.2903
   XY=   -50.3024   YY=   305.2036   ZY=   -14.3241
   XZ=    20.7305   YZ=   -16.9162   ZZ=   306.0893
   Eigenvalues:   281.7050   300.9119   371.0782
     27  H    Isotropic =    29.8706   Anisotropy =    21.5670
   XX=    39.0111   YX=    -7.5465   ZX=     5.5296
   XY=    -6.4758   YY=    25.9275   ZY=    -5.3474
   XZ=     4.2300   YZ=    -4.7651   ZZ=    24.6734
   Eigenvalues:    20.1236    25.2397    44.2486
 End of Minotr Frequency-dependent properties file   721 does not exist.
 End of Minotr Frequency-dependent properties file   722 does not exist.

 **********************************************************************

            Population analysis using the SCF density.

 **********************************************************************

 Orbital symmetries:
       Occupied  (A) (A) (A) (A) (A) (A) (A) (A) (A) (A) (A) (A)
                 (A) (A) (A) (A) (A) (A) (A) (A) (A) (A) (A) (A)
                 (A) (A) (A) (A) (A) (A) (A) (A) (A) (A) (A) (A)
                 (A) (A) (A) (A) (A) (A) (A) (A) (A) (A) (A)
       Virtual   (A) (A) (A) (A) (A) (A) (A) (A) (A) (A) (A) (A)
                 (A) (A) (A) (A) (A) (A) (A) (A) (A) (A) (A) (A)
                 (A) (A) (A) (A) (A) (A) (A) (A) (A) (A) (A) (A)
                 (A) (A) (A) (A) (A) (A) (A) (A) (A) (A) (A) (A)
                 (A) (A) (A) (A) (A) (A) (A) (A) (A) (A) (A) (A)
                 (A) (A) (A) (A) (A) (A) (A) (A) (A) (A) (A) (A)
                 (A) (A) (A) (A) (A) (A) (A) (A) (A) (A) (A) (A)
                 (A) (A) (A) (A) (A) (A) (A) (A) (A) (A) (A) (A)
                 (A) (A) (A) (A) (A) (A) (A) (A) (A) (A) (A) (A)
                 (A) (A) (A) (A) (A) (A) (A) (A) (A) (A) (A) (A)
                 (A) (A) (A) (A) (A) (A) (A) (A) (A) (A) (A) (A)
                 (A) (A) (A) (A) (A) (A) (A) (A) (A) (A) (A) (A)
                 (A) (A) (A) (A) (A) (A) (A) (A) (A) (A) (A) (A)
                 (A) (A) (A) (A) (A) (A) (A) (A) (A) (A) (A) (A)
                 (A) (A) (A) (A) (A) (A) (A) (A) (A) (A) (A) (A)
                 (A) (A) (A) (A) (A) (A) (A) (A) (A) (A) (A) (A)
                 (A) (A) (A) (A) (A) (A) (A) (A) (A) (A) (A) (A)
                 (A) (A) (A) (A) (A) (A) (A) (A) (A) (A) (A) (A)
                 (A) (A) (A) (A) (A) (A) (A) (A) (A) (A) (A) (A)
                 (A) (A) (A) (A) (A) (A) (A) (A) (A) (A) (A) (A)
                 (A) (A) (A) (A) (A) (A) (A) (A) (A) (A) (A) (A)
                 (A) (A) (A) (A)
 The electronic state is 1-A.
 Alpha  occ. eigenvalues --  -19.26883 -19.25837 -19.25054 -14.41368 -10.30568
 Alpha  occ. eigenvalues --  -10.30212 -10.30059 -10.28069 -10.27859 -10.26841
 Alpha  occ. eigenvalues --  -10.24574 -10.24342  -1.07922  -1.06463  -1.04462
 Alpha  occ. eigenvalues --   -0.96553  -0.83047  -0.79387  -0.75277  -0.71617
 Alpha  occ. eigenvalues --   -0.66564  -0.61205  -0.60354  -0.58154  -0.54980
 Alpha  occ. eigenvalues --   -0.53716  -0.52836  -0.51238  -0.48622  -0.48053
 Alpha  occ. eigenvalues --   -0.46619  -0.43707  -0.43022  -0.42586  -0.41212
 Alpha  occ. eigenvalues --   -0.39719  -0.38481  -0.37822  -0.36138  -0.35720
 Alpha  occ. eigenvalues --   -0.35219  -0.33826  -0.33333  -0.30993  -0.30205
 Alpha  occ. eigenvalues --   -0.29179  -0.23242
 Alpha virt. eigenvalues --    0.00720   0.01222   0.02100   0.02307   0.03825
 Alpha virt. eigenvalues --    0.04406   0.04978   0.05027   0.05605   0.07010
 Alpha virt. eigenvalues --    0.07536   0.08101   0.08971   0.09275   0.09681
 Alpha virt. eigenvalues --    0.10051   0.11392   0.12015   0.12306   0.13266
 Alpha virt. eigenvalues --    0.13448   0.14311   0.14627   0.15144   0.15696
 Alpha virt. eigenvalues --    0.15931   0.16615   0.16731   0.18087   0.18705
 Alpha virt. eigenvalues --    0.18946   0.19736   0.20226   0.20660   0.20747
 Alpha virt. eigenvalues --    0.21313   0.22058   0.22537   0.22996   0.23062
 Alpha virt. eigenvalues --    0.24229   0.24525   0.25081   0.25325   0.25607
 Alpha virt. eigenvalues --    0.26114   0.27450   0.28149   0.28297   0.28571
 Alpha virt. eigenvalues --    0.29160   0.29828   0.30441   0.31719   0.31915
 Alpha virt. eigenvalues --    0.32886   0.33107   0.33437   0.34035   0.34775
 Alpha virt. eigenvalues --    0.35091   0.35199   0.36377   0.36882   0.38420
 Alpha virt. eigenvalues --    0.38963   0.39873   0.40396   0.40838   0.41671
 Alpha virt. eigenvalues --    0.42065   0.43833   0.44504   0.45085   0.45337
 Alpha virt. eigenvalues --    0.48619   0.64198   0.65340   0.68060   0.68285
 Alpha virt. eigenvalues --    0.68811   0.70959   0.72171   0.72615   0.73247
 Alpha virt. eigenvalues --    0.74968   0.75239   0.78024   0.79610   0.80912
 Alpha virt. eigenvalues --    0.82291   0.84752   0.86028   0.86691   0.88329
 Alpha virt. eigenvalues --    0.90197   0.91573   0.92694   0.94298   0.95672
 Alpha virt. eigenvalues --    0.98808   0.99987   1.01685   1.02958   1.04186
 Alpha virt. eigenvalues --    1.05735   1.05974   1.09089   1.09424   1.10705
 Alpha virt. eigenvalues --    1.12371   1.13201   1.13598   1.14105   1.16491
 Alpha virt. eigenvalues --    1.17053   1.18515   1.20533   1.23303   1.23799
 Alpha virt. eigenvalues --    1.25467   1.28376   1.29131   1.31296   1.33055
 Alpha virt. eigenvalues --    1.34370   1.34964   1.37370   1.38558   1.40498
 Alpha virt. eigenvalues --    1.43225   1.46857   1.47692   1.50112   1.50985
 Alpha virt. eigenvalues --    1.54540   1.57295   1.59512   1.60412   1.62745
 Alpha virt. eigenvalues --    1.63225   1.64981   1.66087   1.67277   1.68732
 Alpha virt. eigenvalues --    1.72087   1.73106   1.76527   1.79563   1.79720
 Alpha virt. eigenvalues --    1.81605   1.83459   1.84653   1.87057   1.87798
 Alpha virt. eigenvalues --    1.88867   1.91217   1.92438   1.94465   1.94919
 Alpha virt. eigenvalues --    1.97444   1.98900   2.01823   2.02345   2.04041
 Alpha virt. eigenvalues --    2.05200   2.06737   2.07206   2.09339   2.11689
 Alpha virt. eigenvalues --    2.12296   2.14106   2.14584   2.16710   2.17102
 Alpha virt. eigenvalues --    2.18829   2.21117   2.24387   2.25898   2.29043
 Alpha virt. eigenvalues --    2.30638   2.33903   2.35417   2.37119   2.39627
 Alpha virt. eigenvalues --    2.42163   2.43547   2.44837   2.47839   2.48542
 Alpha virt. eigenvalues --    2.49528   2.50848   2.52035   2.53271   2.54288
 Alpha virt. eigenvalues --    2.55074   2.58894   2.60018   2.62010   2.64594
 Alpha virt. eigenvalues --    2.65100   2.65906   2.68699   2.69757   2.70493
 Alpha virt. eigenvalues --    2.72921   2.74526   2.75818   2.76516   2.78531
 Alpha virt. eigenvalues --    2.78953   2.80757   2.82997   2.83667   2.84767
 Alpha virt. eigenvalues --    2.87370   2.88544   2.91087   2.92155   2.93835
 Alpha virt. eigenvalues --    2.95960   2.99036   3.00527   3.03067   3.03410
 Alpha virt. eigenvalues --    3.07377   3.11159   3.13900   3.15435   3.32366
 Alpha virt. eigenvalues --    3.33941   3.36325   3.37197   3.39920   3.45218
 Alpha virt. eigenvalues --    3.47937   3.49381   3.51571   3.54183   3.55819
 Alpha virt. eigenvalues --    3.56580   3.58304   3.60092   3.62524   4.29852
 Alpha virt. eigenvalues --    4.35783   4.43227   4.46264   4.49905   4.52226
 Alpha virt. eigenvalues --    4.60456   4.69592   4.77873   4.79642   4.86436
 Alpha virt. eigenvalues --    5.02374
          Condensed to atoms (all electrons):
              1          2          3          4          5          6
     1  C    5.933115  -0.506884   0.020982  -0.159402   0.120512   0.159872
     2  C   -0.506884   8.810256  -0.226919  -0.238605   0.158318  -0.842462
     3  N    0.020982  -0.226919   7.369966   0.217135  -0.143553  -0.041864
     4  C   -0.159402  -0.238605   0.217135   5.744043   0.005628  -0.041037
     5  C    0.120512   0.158318  -0.143553   0.005628   5.701995  -0.064313
     6  C    0.159872  -0.842462  -0.041864  -0.041037  -0.064313   9.493039
     7  C   -0.116346   0.514697  -0.068413  -0.209438   0.022751  -1.709151
     8  C    0.135665  -1.081171  -0.091177   0.232145  -0.145356   0.418943
     9  H    0.354681  -0.041602   0.011934   0.021264  -0.017514   0.007977
    10  H    0.511075  -0.216570   0.027441   0.016135  -0.072882   0.016228
    11  H    0.045941   0.133300  -0.009760   0.010265  -0.021563   0.050464
    12  H    0.026764   0.011649  -0.046948   0.373166  -0.027742  -0.009244
    13  H    0.014401  -0.005813  -0.092228   0.434943  -0.044667   0.005129
    14  H   -0.020632  -0.050528   0.015540  -0.031425   0.393032   0.008618
    15  H   -0.065781   0.044114   0.005800  -0.018425   0.379873  -0.006170
    16  H    0.000439   0.034996  -0.056954   0.027175   0.004149   0.296456
    17  H    0.008908  -0.024494   0.046594   0.011218   0.003903  -0.056169
    18  H   -0.005071  -0.086584   0.019936  -0.002169   0.004323   0.047034
    19  O    0.060336  -0.354118   0.044454  -0.001396  -0.007048   0.070608
    20  H   -0.011203   0.069058  -0.001533  -0.001965   0.004848  -0.016005
    21  O   -0.004802   0.052205   0.008568   0.000543   0.010017  -0.015023
    22  H    0.001484  -0.008724   0.001849  -0.000252  -0.001052  -0.061295
    23  C   -0.025694  -0.241714   0.105644  -0.196582   0.088174  -1.219226
    24  H    0.001703  -0.000275   0.015062   0.007428  -0.003352  -0.076542
    25  H   -0.000121   0.005886  -0.005941  -0.003126   0.005543  -0.112628
    26  O    0.000684   0.026567   0.005350   0.001805  -0.000246  -0.021931
    27  H   -0.000109  -0.001376  -0.000031   0.000688   0.000301   0.027660
              7          8          9         10         11         12
     1  C   -0.116346   0.135665   0.354681   0.511075   0.045941   0.026764
     2  C    0.514697  -1.081171  -0.041602  -0.216570   0.133300   0.011649
     3  N   -0.068413  -0.091177   0.011934   0.027441  -0.009760  -0.046948
     4  C   -0.209438   0.232145   0.021264   0.016135   0.010265   0.373166
     5  C    0.022751  -0.145356  -0.017514  -0.072882  -0.021563  -0.027742
     6  C   -1.709151   0.418943   0.007977   0.016228   0.050464  -0.009244
     7  C    7.621211  -0.707315  -0.004195  -0.010718  -0.045389   0.003578
     8  C   -0.707315   6.699741   0.005936   0.052098   0.087344  -0.009031
     9  H   -0.004195   0.005936   0.520936  -0.024482  -0.004532  -0.000101
    10  H   -0.010718   0.052098  -0.024482   0.507284   0.004004  -0.000037
    11  H   -0.045389   0.087344  -0.004532   0.004004   0.563666   0.000200
    12  H    0.003578  -0.009031  -0.000101  -0.000037   0.000200   0.545626
    13  H    0.011361   0.002148  -0.000150   0.000993  -0.000500  -0.042814
    14  H   -0.001674   0.014110  -0.005095   0.004062   0.000863  -0.005974
    15  H    0.002927  -0.001103   0.000473  -0.005285  -0.000105   0.000704
    16  H   -0.009746  -0.025436  -0.000012  -0.000226  -0.000645  -0.001051
    17  H    0.291328  -0.017329   0.000003  -0.000013   0.000499   0.000011
    18  H    0.010406   0.315634   0.000351   0.000096  -0.001422   0.000004
    19  O   -0.134925   0.367130   0.000195   0.001378   0.007243   0.000119
    20  H   -0.054216  -0.011716   0.000002   0.000033  -0.000222  -0.000001
    21  O    0.219821  -0.186867   0.000024  -0.000226  -0.000606   0.000030
    22  H    0.058715   0.028061   0.000000   0.000001   0.000006   0.000000
    23  C    0.465798  -0.243110   0.001030   0.000928   0.012793   0.014772
    24  H   -0.006725   0.003647   0.000000   0.000000  -0.000042   0.000081
    25  H    0.007193  -0.012687   0.000000   0.000001   0.000008  -0.000255
    26  O    0.056130  -0.024120  -0.000002  -0.000006  -0.000082   0.000006
    27  H   -0.016318   0.002146   0.000000   0.000000   0.000000   0.000000
             13         14         15         16         17         18
     1  C    0.014401  -0.020632  -0.065781   0.000439   0.008908  -0.005071
     2  C   -0.005813  -0.050528   0.044114   0.034996  -0.024494  -0.086584
     3  N   -0.092228   0.015540   0.005800  -0.056954   0.046594   0.019936
     4  C    0.434943  -0.031425  -0.018425   0.027175   0.011218  -0.002169
     5  C   -0.044667   0.393032   0.379873   0.004149   0.003903   0.004323
     6  C    0.005129   0.008618  -0.006170   0.296456  -0.056169   0.047034
     7  C    0.011361  -0.001674   0.002927  -0.009746   0.291328   0.010406
     8  C    0.002148   0.014110  -0.001103  -0.025436  -0.017329   0.315634
     9  H   -0.000150  -0.005095   0.000473  -0.000012   0.000003   0.000351
    10  H    0.000993   0.004062  -0.005285  -0.000226  -0.000013   0.000096
    11  H   -0.000500   0.000863  -0.000105  -0.000645   0.000499  -0.001422
    12  H   -0.042814  -0.005974   0.000704  -0.001051   0.000011   0.000004
    13  H    0.578257   0.004045  -0.004700   0.013411  -0.000021  -0.000013
    14  H    0.004045   0.523085  -0.024718  -0.000012  -0.000002  -0.000001
    15  H   -0.004700  -0.024718   0.515235  -0.000014   0.000000   0.000002
    16  H    0.013411  -0.000012  -0.000014   0.576308   0.004243  -0.000212
    17  H   -0.000021  -0.000002   0.000000   0.004243   0.565176  -0.003337
    18  H   -0.000013  -0.000001   0.000002  -0.000212  -0.003337   0.574074
    19  O   -0.000285   0.000002   0.000133   0.005862   0.006140  -0.046136
    20  H    0.000058   0.000001  -0.000001   0.001327   0.000864   0.000259
    21  O   -0.000199  -0.000010  -0.000009   0.008623  -0.032238  -0.000420
    22  H    0.000001   0.000000   0.000000  -0.001856  -0.002724  -0.000166
    23  C   -0.023487  -0.000534   0.000475  -0.055264   0.021009   0.015473
    24  H    0.000021  -0.000001   0.000000   0.004767   0.003158  -0.000011
    25  H    0.000080   0.000003   0.000000  -0.005468   0.000101   0.000003
    26  O    0.000153  -0.000002  -0.000001   0.008552  -0.001786  -0.000038
    27  H    0.000000   0.000000   0.000000  -0.000052   0.000057   0.000000
             19         20         21         22         23         24
     1  C    0.060336  -0.011203  -0.004802   0.001484  -0.025694   0.001703
     2  C   -0.354118   0.069058   0.052205  -0.008724  -0.241714  -0.000275
     3  N    0.044454  -0.001533   0.008568   0.001849   0.105644   0.015062
     4  C   -0.001396  -0.001965   0.000543  -0.000252  -0.196582   0.007428
     5  C   -0.007048   0.004848   0.010017  -0.001052   0.088174  -0.003352
     6  C    0.070608  -0.016005  -0.015023  -0.061295  -1.219226  -0.076542
     7  C   -0.134925  -0.054216   0.219821   0.058715   0.465798  -0.006725
     8  C    0.367130  -0.011716  -0.186867   0.028061  -0.243110   0.003647
     9  H    0.000195   0.000002   0.000024   0.000000   0.001030   0.000000
    10  H    0.001378   0.000033  -0.000226   0.000001   0.000928   0.000000
    11  H    0.007243  -0.000222  -0.000606   0.000006   0.012793  -0.000042
    12  H    0.000119  -0.000001   0.000030   0.000000   0.014772   0.000081
    13  H   -0.000285   0.000058  -0.000199   0.000001  -0.023487   0.000021
    14  H    0.000002   0.000001  -0.000010   0.000000  -0.000534  -0.000001
    15  H    0.000133  -0.000001  -0.000009   0.000000   0.000475   0.000000
    16  H    0.005862   0.001327   0.008623  -0.001856  -0.055264   0.004767
    17  H    0.006140   0.000864  -0.032238  -0.002724   0.021009   0.003158
    18  H   -0.046136   0.000259  -0.000420  -0.000166   0.015473  -0.000011
    19  O    8.278028   0.243332  -0.015967   0.000036   0.051485   0.000093
    20  H    0.243332   0.359291   0.030235  -0.001402   0.000101   0.000000
    21  O   -0.015967   0.030235   8.319498   0.238229  -0.011708   0.001342
    22  H    0.000036  -0.001402   0.238229   0.339094  -0.022509   0.000431
    23  C    0.051485   0.000101  -0.011708  -0.022509   6.398603   0.426433
    24  H    0.000093   0.000000   0.001342   0.000431   0.426433   0.548806
    25  H    0.000092   0.000002  -0.000702  -0.000057   0.487281  -0.041257
    26  O   -0.000495  -0.000167  -0.025394   0.023209   0.017630  -0.049095
    27  H   -0.000026   0.000000   0.001860  -0.001303  -0.005333  -0.006169
             25         26         27
     1  C   -0.000121   0.000684  -0.000109
     2  C    0.005886   0.026567  -0.001376
     3  N   -0.005941   0.005350  -0.000031
     4  C   -0.003126   0.001805   0.000688
     5  C    0.005543  -0.000246   0.000301
     6  C   -0.112628  -0.021931   0.027660
     7  C    0.007193   0.056130  -0.016318
     8  C   -0.012687  -0.024120   0.002146
     9  H    0.000000  -0.000002   0.000000
    10  H    0.000001  -0.000006   0.000000
    11  H    0.000008  -0.000082   0.000000
    12  H   -0.000255   0.000006   0.000000
    13  H    0.000080   0.000153   0.000000
    14  H    0.000003  -0.000002   0.000000
    15  H    0.000000  -0.000001   0.000000
    16  H   -0.005468   0.008552  -0.000052
    17  H    0.000101  -0.001786   0.000057
    18  H    0.000003  -0.000038   0.000000
    19  O    0.000092  -0.000495  -0.000026
    20  H    0.000002  -0.000167   0.000000
    21  O   -0.000702  -0.025394   0.001860
    22  H   -0.000057   0.023209  -0.001303
    23  C    0.487281   0.017630  -0.005333
    24  H   -0.041257  -0.049095  -0.006169
    25  H    0.556138  -0.044619  -0.001732
    26  O   -0.044619   8.385958   0.239786
    27  H   -0.001732   0.239786   0.358967
 Mulliken atomic charges:
              1
     1  C   -0.480519
     2  C    0.066792
     3  N   -0.130934
     4  C   -0.199758
     5  C   -0.354077
     6  C   -0.308967
     7  C   -0.191346
     8  C    0.191672
     9  H    0.172879
    10  H    0.188687
    11  H    0.168274
    12  H    0.166489
    13  H    0.149874
    14  H    0.177249
    15  H    0.176577
    16  H    0.170642
    17  H    0.174902
    18  H    0.157986
    19  O   -0.576272
    20  H    0.389020
    21  O   -0.596827
    22  H    0.410224
    23  C   -0.062467
    24  H    0.170497
    25  H    0.166262
    26  O   -0.597844
    27  H    0.400984
 Sum of Mulliken atomic charges =   0.00000
 Mulliken charges with hydrogens summed into heavy atoms:
              1
     1  C   -0.118953
     2  C    0.235066
     3  N   -0.130934
     4  C    0.116605
     5  C   -0.000251
     6  C   -0.138325
     7  C   -0.016445
     8  C    0.349658
    19  O   -0.187252
    21  O   -0.186602
    23  C    0.274293
    26  O   -0.196860
 Sum of Mulliken charges with hydrogens summed into heavy atoms =   0.00000
 Electronic spatial extent (au):  <R**2>=           2068.8185
 Charge=              0.0000 electrons
 Dipole moment (field-independent basis, Debye):
    X=              1.1626    Y=             -3.4310    Z=              1.9379  Tot=              4.1084
 Quadrupole moment (field-independent basis, Debye-Ang):
   XX=            -63.7111   YY=            -75.2531   ZZ=            -73.6685
   XY=             -5.7977   XZ=              2.8086   YZ=              2.4907
 Traceless Quadrupole moment (field-independent basis, Debye-Ang):
   XX=              7.1665   YY=             -4.3755   ZZ=             -2.7909
   XY=             -5.7977   XZ=              2.8086   YZ=              2.4907
 Octapole moment (field-independent basis, Debye-Ang**2):
  XXX=             48.4481  YYY=            -17.5318  ZZZ=             -1.9312  XYY=             14.4134
  XXY=            -29.3512  XXZ=             13.3344  XZZ=              6.3146  YZZ=              5.7623
  YYZ=              3.0577  XYZ=            -14.1550
 Hexadecapole moment (field-independent basis, Debye-Ang**3):
 XXXX=          -1371.1752 YYYY=           -838.1833 ZZZZ=           -232.3612 XXXY=           -104.0652
 XXXZ=             36.9472 YYYX=            -33.6512 YYYZ=              2.4868 ZZZX=              0.4636
 ZZZY=             -5.6690 XXYY=           -384.1529 XXZZ=           -304.2092 YYZZ=           -179.3944
 XXYZ=            -22.5386 YYXZ=             -3.8909 ZZXY=              5.4629
 N-N= 8.087232987404D+02 E-N=-3.003634248172D+03  KE= 5.886771450733D+02
 1\1\GINC-COMPUTE-3-1\SP\RmPW1PW91\6-31+G(d,p)\C8H15N1O3\MAMICHETTI.IQU
 IR\17-May-2024\0\\# mpw1pw91/6-31+G** nmr scrf=(pcm,solvent=water)\\co
 mment\\0,1\C,0,-2.618922,0.42557,0.026862\C,0,-1.272358,0.460167,0.765
 239\N,0,-0.583686,-0.844663,0.440065\C,0,-1.455256,-1.605053,-0.477046
 \C,0,-2.862244,-1.078584,-0.182568\C,0,0.751902,-0.530656,-0.078365\C,
 0,1.066216,0.833775,0.55437\C,0,-0.270537,1.572915,0.413613\H,0,-3.415
 329,0.917632,0.593289\H,0,-2.532157,0.924958,-0.942727\H,0,-1.445162,0
 .506126,1.848032\H,0,-1.364261,-2.684515,-0.310559\H,0,-1.189996,-1.41
 1148,-1.530352\H,0,-3.254384,-1.536105,0.733922\H,0,-3.564679,-1.29265
 1,-0.99413\H,0,0.734577,-0.392069,-1.173897\H,0,1.300453,0.701985,1.62
 1088\H,0,-0.354588,2.427884,1.097334\O,0,-0.422083,2.016662,-0.938084\
 H,0,0.484239,2.222564,-1.23721\O,0,2.112545,1.543145,-0.103736\H,0,2.7
 86612,0.862937,-0.308761\C,0,1.806329,-1.58364,0.232615\H,0,1.923991,-
 1.699575,1.31694\H,0,1.526056,-2.558782,-0.189669\O,0,3.035673,-1.1193
 73,-0.360727\H,0,3.770567,-1.567036,0.088302\\Version=AM64L-G09RevC.01
 \State=1-A\HF=-594.2016882\RMSD=5.410e-09\Dipole=0.4574096,-1.3498707,
 0.7624328\Quadrupole=5.3280842,-3.2530921,-2.0749921,-4.3104204,2.0881
 444,1.8517972\PG=C01 [X(C8H15N1O3)]\\@


 GROWING OLD ISN'T SO BAD -- WHEN YOU CONSIDER THE ALTERNATIVE.

                     -- MAURICE CHEVALIER
 Job cpu time:  0 days  0 hours  8 minutes 21.2 seconds.
 File lengths (MBytes):  RWF=    115 Int=      0 D2E=      0 Chk=      7 Scr=      1
 Normal termination of Gaussian 09 at Fri May 17 12:14:41 2024.
