 Entering Gaussian System, Link 0=g09
 Input=/home/mamichetti.iquir/Linux/02_Cardona_A1A3_R__R_R_R_001_OptB.gjc
 Output=/home/mamichetti.iquir/Linux/02_Cardona_A1A3_R__R_R_R_001_OptB.log
 Initial command:
 /opt/ohpc/pub/apps/software/Gaussian/09/AMD64.SSE4a-enabled/g09/l1.exe /local/mamichetti.iquir/Gau-710360.inp -scrdir=/local/mamichetti.iquir/
 Entering Link 1 = /opt/ohpc/pub/apps/software/Gaussian/09/AMD64.SSE4a-enabled/g09/l1.exe PID=    710361.
  
 Copyright (c) 1988,1990,1992,1993,1995,1998,2003,2009,2011,
            Gaussian, Inc.  All Rights Reserved.
  
 This is part of the Gaussian(R) 09 program.  It is based on
 the Gaussian(R) 03 system (copyright 2003, Gaussian, Inc.),
 the Gaussian(R) 98 system (copyright 1998, Gaussian, Inc.),
 the Gaussian(R) 94 system (copyright 1995, Gaussian, Inc.),
 the Gaussian 92(TM) system (copyright 1992, Gaussian, Inc.),
 the Gaussian 90(TM) system (copyright 1990, Gaussian, Inc.),
 the Gaussian 88(TM) system (copyright 1988, Gaussian, Inc.),
 the Gaussian 86(TM) system (copyright 1986, Carnegie Mellon
 University), and the Gaussian 82(TM) system (copyright 1983,
 Carnegie Mellon University). Gaussian is a federally registered
 trademark of Gaussian, Inc.
  
 This software contains proprietary and confidential information,
 including trade secrets, belonging to Gaussian, Inc.
  
 This software is provided under written license and may be
 used, copied, transmitted, or stored only in accord with that
 written license.
  
 The following legend is applicable only to US Government
 contracts under FAR:
  
                    RESTRICTED RIGHTS LEGEND
  
 Use, reproduction and disclosure by the US Government is
 subject to restrictions as set forth in subparagraphs (a)
 and (c) of the Commercial Computer Software - Restricted
 Rights clause in FAR 52.227-19.
  
 Gaussian, Inc.
 340 Quinnipiac St., Bldg. 40, Wallingford CT 06492
  
  
 ---------------------------------------------------------------
 Warning -- This program may not be used in any manner that
 competes with the business of Gaussian, Inc. or will provide
 assistance to any competitor of Gaussian, Inc.  The licensee
 of this program is prohibited from giving any competitor of
 Gaussian, Inc. access to this program.  By using this program,
 the user acknowledges that Gaussian, Inc. is engaged in the
 business of creating and licensing software in the field of
 computational chemistry and represents and warrants to the
 licensee that it is not a competitor of Gaussian, Inc. and that
 it will not use this program in any manner prohibited above.
 ---------------------------------------------------------------
  

 Cite this work as:
 Gaussian 09, Revision C.01,
 M. J. Frisch, G. W. Trucks, H. B. Schlegel, G. E. Scuseria, 
 M. A. Robb, J. R. Cheeseman, G. Scalmani, V. Barone, B. Mennucci, 
 G. A. Petersson, H. Nakatsuji, M. Caricato, X. Li, H. P. Hratchian, 
 A. F. Izmaylov, J. Bloino, G. Zheng, J. L. Sonnenberg, M. Hada, 
 M. Ehara, K. Toyota, R. Fukuda, J. Hasegawa, M. Ishida, T. Nakajima, 
 Y. Honda, O. Kitao, H. Nakai, T. Vreven, J. A. Montgomery, Jr., 
 J. E. Peralta, F. Ogliaro, M. Bearpark, J. J. Heyd, E. Brothers, 
 K. N. Kudin, V. N. Staroverov, T. Keith, R. Kobayashi, J. Normand, 
 K. Raghavachari, A. Rendell, J. C. Burant, S. S. Iyengar, J. Tomasi, 
 M. Cossi, N. Rega, J. M. Millam, M. Klene, J. E. Knox, J. B. Cross, 
 V. Bakken, C. Adamo, J. Jaramillo, R. Gomperts, R. E. Stratmann, 
 O. Yazyev, A. J. Austin, R. Cammi, C. Pomelli, J. W. Ochterski, 
 R. L. Martin, K. Morokuma, V. G. Zakrzewski, G. A. Voth, 
 P. Salvador, J. J. Dannenberg, S. Dapprich, A. D. Daniels, 
 O. Farkas, J. B. Foresman, J. V. Ortiz, J. Cioslowski, 
 and D. J. Fox, Gaussian, Inc., Wallingford CT, 2010.
 
 ******************************************
 Gaussian 09:  AM64L-G09RevC.01 23-Sep-2011
                17-May-2024 
 ******************************************
 %nprocshared=4
 Will use up to    4 processors via shared memory.
 ------------------------------------------------
 # mpw1pw91/6-31+G** nmr scrf=(pcm,solvent=water)
 ------------------------------------------------
 1/38=1/1;
 2/12=2,17=6,18=5,40=1/2;
 3/5=1,6=6,7=111,11=2,16=1,25=1,30=1,70=2201,72=1,74=-7/1,2,8,3;
 4//1;
 5/5=2,38=5,53=1/2;
 8/6=1,10=90,11=11/1;
 10/13=100,45=16/2;
 6/7=2,8=2,9=2,10=2,28=1/1;
 99/9=1/99;
 -------
 comment
 -------
 Charge =  0 Multiplicity = 1
 Symbolic Z-Matrix:
 6                    -2.54442   0.04522   0.20295 
 6                    -1.11182   0.33107   0.70173 
 7                    -0.29926  -0.90936   0.41562 
 6                    -1.2237   -1.89908  -0.19041 
 6                    -2.35658  -1.08218  -0.8233 
 6                     0.81899  -0.51951  -0.48047 
 6                     1.04651   0.95804  -0.13791 
 6                    -0.37994   1.47763  -0.00716 
 1                    -3.16806  -0.3055    1.03326 
 1                    -3.01535   0.94299  -0.2106 
 1                    -1.1082    0.54313   1.77738 
 1                    -1.62657  -2.5526    0.59405 
 1                    -0.68413  -2.53319  -0.90008 
 1                    -3.265    -1.66987  -0.98943 
 1                    -2.03495  -0.67486  -1.7898 
 1                     0.54074  -0.58058  -1.54527 
 1                     1.55088   1.04237   0.83405 
 1                    -0.78296   1.6189   -1.02167 
 8                    -0.51607   2.68359   0.74164 
 1                    -0.0614    3.37996   0.23829 
 8                     1.75866   1.68886  -1.13266 
 1                     2.69261   1.42786  -1.07094 
 6                     2.03244  -1.4176   -0.25133 
 1                     1.81802  -2.43113  -0.62338 
 1                     2.89312  -1.03334  -0.81111 
 8                     2.39731  -1.45624   1.12845 
 1                     1.53809  -1.49988   1.5919 
 
                          Input orientation:                          
 ---------------------------------------------------------------------
 Center     Atomic      Atomic             Coordinates (Angstroms)
 Number     Number       Type             X           Y           Z
 ---------------------------------------------------------------------
      1          6           0       -2.544423    0.045221    0.202945
      2          6           0       -1.111821    0.331066    0.701728
      3          7           0       -0.299259   -0.909361    0.415623
      4          6           0       -1.223704   -1.899077   -0.190414
      5          6           0       -2.356577   -1.082176   -0.823300
      6          6           0        0.818988   -0.519507   -0.480473
      7          6           0        1.046509    0.958035   -0.137905
      8          6           0       -0.379944    1.477633   -0.007155
      9          1           0       -3.168064   -0.305502    1.033258
     10          1           0       -3.015349    0.942985   -0.210598
     11          1           0       -1.108198    0.543126    1.777375
     12          1           0       -1.626569   -2.552599    0.594046
     13          1           0       -0.684126   -2.533187   -0.900077
     14          1           0       -3.265000   -1.669868   -0.989430
     15          1           0       -2.034953   -0.674861   -1.789795
     16          1           0        0.540736   -0.580578   -1.545269
     17          1           0        1.550875    1.042371    0.834051
     18          1           0       -0.782961    1.618904   -1.021671
     19          8           0       -0.516074    2.683587    0.741636
     20          1           0       -0.061399    3.379962    0.238293
     21          8           0        1.758660    1.688862   -1.132660
     22          1           0        2.692607    1.427863   -1.070936
     23          6           0        2.032440   -1.417601   -0.251328
     24          1           0        1.818020   -2.431127   -0.623375
     25          1           0        2.893123   -1.033341   -0.811111
     26          8           0        2.397311   -1.456239    1.128448
     27          1           0        1.538086   -1.499877    1.591897
 ---------------------------------------------------------------------
                    Distance matrix (angstroms):
                    1          2          3          4          5
     1  C    0.000000
     2  C    1.543645   0.000000
     3  N    2.448922   1.510223   0.000000
     4  C    2.383133   2.404573   1.483717   0.000000
     5  C    1.536063   2.423300   2.407769   1.533386   0.000000
     6  C    3.478291   2.418491   1.485076   2.481922   3.243199
     7  C    3.720780   2.399263   2.367415   3.649618   4.026564
     8  C    2.604019   1.533876   2.425488   3.485353   3.335535
     9  H    1.096063   2.177904   2.996024   2.795960   2.169917
    10  H    1.094883   2.197772   3.346712   3.359720   2.216001
    11  H    2.188488   1.096357   2.149062   3.138454   3.311128
    12  H    2.782820   2.931226   2.119863   1.097620   2.168853
    13  H    3.365345   3.309478   2.125088   1.094012   2.215495
    14  H    2.209642   3.391155   3.368704   2.204054   1.094629
    15  H    2.179241   2.841082   2.816291   2.171370   1.097023
    16  H    3.600845   2.934456   2.158422   2.585985   3.027749
    17  H    4.261932   2.759242   2.721642   4.171323   4.746440
    18  H    2.660622   2.176414   2.948204   3.641625   3.132324
    19  O    3.371255   2.427110   3.614218   4.729722   4.474086
    20  H    4.157782   3.257902   4.299572   5.422453   5.128889
    21  O    4.796032   3.667186   3.658275   4.759793   4.970868
    22  H    5.564257   4.338084   4.077222   5.213573   5.644101
    23  C    4.826374   3.721899   2.477893   3.292112   4.438821
    24  H    5.083897   4.239054   2.806806   3.118111   4.391685
    25  H    5.635469   4.493313   3.422214   4.252414   5.249941
    26  O    5.247063   3.961131   2.842303   3.879079   5.152543
    27  H    4.580764   3.341670   2.260125   3.311114   4.601744
                    6          7          8          9         10
     6  C    0.000000
     7  C    1.533704   0.000000
     8  C    2.376980   1.523760   0.000000
     9  H    4.270101   4.553106   3.469242   0.000000
    10  H    4.112646   4.062536   2.696775   1.768960   0.000000
    11  H    3.152953   2.912595   2.142009   2.348814   2.783729
    12  H    3.356904   4.472768   4.261254   2.760174   3.846462
    13  H    2.547612   3.970470   4.120256   3.856204   4.241904
    14  H    4.273327   5.120555   4.381230   2.441753   2.737865
    15  H    3.143794   3.858821   3.248090   3.064310   2.464237
    16  H    1.102245   2.145649   2.729410   4.525446   4.092473
    17  H    2.168662   1.098270   2.150614   4.911703   4.685250
    18  H    2.726158   2.136528   1.100737   3.689822   2.469466
    19  O    3.679097   2.488531   1.426024   4.006588   3.191053
    20  H    4.061719   2.689743   1.944369   4.885282   3.855669
    21  O    2.487011   1.425063   2.425903   5.739451   4.919115
    22  H    2.766106   1.949596   3.251873   6.463718   5.792758
    23  C    1.526940   2.574601   3.776453   5.471030   5.572629
    24  H    2.161661   3.509605   4.526497   5.667782   5.909016
    25  H    2.162263   2.797994   4.202892   6.377259   6.259115
    26  O    2.440737   3.042538   4.196468   5.683894   6.070108
    27  H    2.402695   3.045520   3.886048   4.887377   5.472690
                   11         12         13         14         15
    11  H    0.000000
    12  H    3.354473   0.000000
    13  H    4.100279   1.766629   0.000000
    14  H    4.147812   2.443577   2.722905   0.000000
    15  H    3.881632   3.061923   2.463678   1.773031   0.000000
    16  H    3.875778   3.628050   2.393583   3.997391   2.588987
    17  H    2.865270   4.803911   4.559281   5.820135   4.763572
    18  H    3.016245   4.552324   4.155047   4.120386   2.723758
    19  O    2.450498   5.354683   5.471581   5.431920   4.471500
    20  H    3.392963   6.145860   6.053842   6.105010   4.944658
    21  O    4.242628   5.694847   4.883339   6.044728   4.517800
    22  H    4.831330   6.105041   5.207824   6.715330   5.223795
    23  C    4.221812   3.923165   3.007514   5.354559   4.411602
    24  H    4.813786   3.655416   2.519467   5.152728   4.392085
    25  H    5.019569   4.970938   3.879970   6.193500   5.037089
    26  O    4.087439   4.204664   3.843174   6.049199   5.363922
    27  H    3.348295   3.481231   3.495124   5.455436   4.988296
                   16         17         18         19         20
    16  H    0.000000
    17  H    3.052132   0.000000
    18  H    2.619933   3.036920   0.000000
    19  O    4.123294   2.640911   2.077024   0.000000
    20  H    4.385150   2.901497   2.282430   0.972122   0.000000
    21  O    2.608437   2.080644   2.545005   3.110768   2.837595
    22  H    2.981506   2.254137   3.481163   3.893314   3.620680
    23  C    2.144778   2.731559   4.211920   4.929568   5.257423
    24  H    2.430201   3.776327   4.829751   5.785460   6.167937
    25  H    2.505535   2.969304   4.537878   5.277234   5.413658
    26  O    3.370818   2.654463   4.918704   5.076967   5.497861
    27  H    3.417840   2.652832   4.684527   4.737498   5.310690
                   21         22         23         24         25
    21  O    0.000000
    22  H    0.971693   0.000000
    23  C    3.240650   3.033850   0.000000
    24  H    4.151771   3.982087   1.100741   0.000000
    25  H    2.966612   2.482990   1.096261   1.773386   0.000000
    26  O    3.925830   3.639029   1.427727   2.086832   2.046109
    27  H    4.199990   4.122531   1.910140   2.419301   2.797897
                   26         27
    26  O    0.000000
    27  H    0.977219   0.000000
 Stoichiometry    C8H15NO3
 Framework group  C1[X(C8H15NO3)]
 Deg. of freedom    75
 Full point group                 C1      NOp   1
 Largest Abelian subgroup         C1      NOp   1
 Largest concise Abelian subgroup C1      NOp   1
                         Standard orientation:                         
 ---------------------------------------------------------------------
 Center     Atomic      Atomic             Coordinates (Angstroms)
 Number     Number       Type             X           Y           Z
 ---------------------------------------------------------------------
      1          6           0        2.544423    0.045222   -0.202945
      2          6           0        1.111821    0.331066   -0.701728
      3          7           0        0.299259   -0.909361   -0.415623
      4          6           0        1.223704   -1.899077    0.190414
      5          6           0        2.356577   -1.082175    0.823300
      6          6           0       -0.818988   -0.519507    0.480473
      7          6           0       -1.046509    0.958035    0.137905
      8          6           0        0.379944    1.477633    0.007155
      9          1           0        3.168064   -0.305501   -1.033258
     10          1           0        3.015349    0.942986    0.210598
     11          1           0        1.108198    0.543126   -1.777375
     12          1           0        1.626570   -2.552598   -0.594046
     13          1           0        0.684127   -2.533187    0.900077
     14          1           0        3.265000   -1.669867    0.989430
     15          1           0        2.034953   -0.674860    1.789795
     16          1           0       -0.540736   -0.580578    1.545269
     17          1           0       -1.550875    1.042371   -0.834051
     18          1           0        0.782961    1.618904    1.021671
     19          8           0        0.516073    2.683587   -0.741636
     20          1           0        0.061398    3.379962   -0.238293
     21          8           0       -1.758660    1.688862    1.132660
     22          1           0       -2.692607    1.427862    1.070936
     23          6           0       -2.032440   -1.417601    0.251328
     24          1           0       -1.818019   -2.431127    0.623375
     25          1           0       -2.893123   -1.033342    0.811111
     26          8           0       -2.397311   -1.456239   -1.128448
     27          1           0       -1.538086   -1.499877   -1.591897
 ---------------------------------------------------------------------
 Rotational constants (GHZ):      1.0909994      0.9198592      0.6061134
 Standard basis: 6-31+G(d,p) (6D, 7F)
 There are   303 symmetry adapted basis functions of A   symmetry.
 Integral buffers will be    131072 words long.
 Raffenetti 2 integral format.
 Two-electron integral symmetry is turned on.
   303 basis functions,   489 primitive gaussians,   303 cartesian basis functions
    47 alpha electrons       47 beta electrons
       nuclear repulsion energy       805.1629990534 Hartrees.
 NAtoms=   27 NActive=   27 NUniq=   27 SFac= 1.00D+00 NAtFMM=   60 NAOKFM=F Big=F
 ------------------------------------------------------------------------------
 Polarizable Continuum Model (PCM)
 =================================
 Model                : PCM.
 Atomic radii         : UFF (Universal Force Field).
 Polarization charges : Total charges.
 Charge compensation  : None.
 Solution method      : Matrix inversion.
 Cavity type          : Scaled VdW (van der Waals Surface) (Alpha=1.100).
 Cavity algorithm     : GePol (No added spheres)
                        Default sphere list used, NSphG=   27.
                        Lebedev-Laikov grids with approx.  5.0 points / Ang**2.
                        Smoothing algorithm: Karplus/York (Gamma=1.0000).
                        Polarization charges: spherical gaussians, with
                                              point-specific exponents (IZeta= 3).
                        Self-potential: point-specific (ISelfS= 7).
                        Self-field    : sphere-specific E.n sum rule (ISelfD= 2).
 Solvent              : Water, Eps=  78.355300 Eps(inf)=   1.777849
 ------------------------------------------------------------------------------
 One-electron integrals computed using PRISM.
 NBasis=   303 RedAO= T  NBF=   303
 NBsUse=   303 1.00D-06 NBFU=   303
 Harris functional with IExCor=  908 diagonalized for initial guess.
 ExpMin= 4.38D-02 ExpMax= 5.48D+03 ExpMxC= 8.25D+02 IAcc=2 IRadAn=         4 AccDes= 0.00D+00
 HarFok:  IExCor=  908 AccDes= 0.00D+00 IRadAn=         4 IDoV= 1
 ScaDFX=  1.000000  1.000000  1.000000  1.000000
 FoFCou: FMM=F IPFlag=           0 FMFlag=      100000 FMFlg1=           0
         NFxFlg=           0 DoJE=T BraDBF=F KetDBF=T FulRan=T
         Omega=  0.000000  0.000000  1.000000  0.000000  0.000000 ICntrl=     500 IOpCl=  0
         NMat0=    1 NMatS0=    1 NMatT0=    0 NMatD0=    1 NMtDS0=    0 NMtDT0=    0
         I1Cent=           4 NGrid=           0.
 Petite list used in FoFCou.
 Initial guess orbital symmetries:
       Occupied  (A) (A) (A) (A) (A) (A) (A) (A) (A) (A) (A) (A)
                 (A) (A) (A) (A) (A) (A) (A) (A) (A) (A) (A) (A)
                 (A) (A) (A) (A) (A) (A) (A) (A) (A) (A) (A) (A)
                 (A) (A) (A) (A) (A) (A) (A) (A) (A) (A) (A)
       Virtual   (A) (A) (A) (A) (A) (A) (A) (A) (A) (A) (A) (A)
                 (A) (A) (A) (A) (A) (A) (A) (A) (A) (A) (A) (A)
                 (A) (A) (A) (A) (A) (A) (A) (A) (A) (A) (A) (A)
                 (A) (A) (A) (A) (A) (A) (A) (A) (A) (A) (A) (A)
                 (A) (A) (A) (A) (A) (A) (A) (A) (A) (A) (A) (A)
                 (A) (A) (A) (A) (A) (A) (A) (A) (A) (A) (A) (A)
                 (A) (A) (A) (A) (A) (A) (A) (A) (A) (A) (A) (A)
                 (A) (A) (A) (A) (A) (A) (A) (A) (A) (A) (A) (A)
                 (A) (A) (A) (A) (A) (A) (A) (A) (A) (A) (A) (A)
                 (A) (A) (A) (A) (A) (A) (A) (A) (A) (A) (A) (A)
                 (A) (A) (A) (A) (A) (A) (A) (A) (A) (A) (A) (A)
                 (A) (A) (A) (A) (A) (A) (A) (A) (A) (A) (A) (A)
                 (A) (A) (A) (A) (A) (A) (A) (A) (A) (A) (A) (A)
                 (A) (A) (A) (A) (A) (A) (A) (A) (A) (A) (A) (A)
                 (A) (A) (A) (A) (A) (A) (A) (A) (A) (A) (A) (A)
                 (A) (A) (A) (A) (A) (A) (A) (A) (A) (A) (A) (A)
                 (A) (A) (A) (A) (A) (A) (A) (A) (A) (A) (A) (A)
                 (A) (A) (A) (A) (A) (A) (A) (A) (A) (A) (A) (A)
                 (A) (A) (A) (A) (A) (A) (A) (A) (A) (A) (A) (A)
                 (A) (A) (A) (A) (A) (A) (A) (A) (A) (A) (A) (A)
                 (A) (A) (A) (A) (A) (A) (A) (A) (A) (A) (A) (A)
                 (A) (A) (A) (A)
 The electronic state of the initial guess is 1-A.
 Requested convergence on RMS density matrix=1.00D-08 within 128 cycles.
 Requested convergence on MAX density matrix=1.00D-06.
 Requested convergence on             energy=1.00D-06.
 No special actions if energy rises.
 Error on total polarization charges =  0.01433
 SCF Done:  E(RmPW1PW91) =  -594.202612318     A.U. after   13 cycles
             Convg  =    0.2057D-08             -V/T =  2.0094
 Range of M.O.s used for correlation:     1   303
 NBasis=   303 NAE=    47 NBE=    47 NFC=     0 NFV=     0
 NROrb=    303 NOA=    47 NOB=    47 NVA=   256 NVB=   256

 **** Warning!!: The largest alpha MO coefficient is  0.60839695D+02

 NEqPCM:  Using equilibrium solvation (IEInf=0, Eps=  78.3553, EpsInf=   1.7778)
          Differentiating once with respect to magnetic field using GIAOs.
          Electric field/nuclear overlap derivatives assumed to be zero.
 FoFCou: FMM=F IPFlag=           0 FMFlag=    10101102 FMFlg1=           0
         NFxFlg=    40000000 DoJE=F BraDBF=F KetDBF=T FulRan=T
         Omega=  0.000000  0.000000  1.000000  0.000000  0.000000 ICntrl=    6100 IOpCl=  0
         NMat0=    1 NMatS0=    1 NMatT0=    0 NMatD0=    1 NMtDS0=    0 NMtDT0=    0
         I1Cent=           7 NGrid=        1838.
 Symmetry not used in FoFCou.
          There are     3 degrees of freedom in the 1st order CPHF.  IDoFFX=0.
      3 vectors produced by pass  0 Test12= 4.01D-13 3.33D-08 XBig12= 2.85D+01 9.00D-01.
 AX will form     3 AO Fock derivatives at one time.
      3 vectors produced by pass  1 Test12= 4.01D-13 3.33D-08 XBig12= 7.48D-02 4.46D-02.
      3 vectors produced by pass  2 Test12= 4.01D-13 3.33D-08 XBig12= 1.55D-04 2.28D-03.
      3 vectors produced by pass  3 Test12= 4.01D-13 3.33D-08 XBig12= 7.51D-07 1.71D-04.
      3 vectors produced by pass  4 Test12= 4.01D-13 3.33D-08 XBig12= 2.68D-09 8.93D-06.
      3 vectors produced by pass  5 Test12= 4.01D-13 3.33D-08 XBig12= 7.87D-12 5.40D-07.
 Inverted reduced A of dimension    18 with in-core refinement.
 Calculating GIAO nuclear magnetic shielding tensors.
 SCF GIAO Magnetic shielding tensor (ppm):
      1  C    Isotropic =   162.7541   Anisotropy =    25.7704
   XX=   174.8430   YX=     2.3539   ZX=    11.6540
   XY=    -2.1922   YY=   162.0188   ZY=    -5.5292
   XZ=     8.8781   YZ=   -18.4893   ZZ=   151.4004
   Eigenvalues:   141.2781   167.0498   179.9343
      2  C    Isotropic =   128.5438   Anisotropy =    55.9752
   XX=   124.9978   YX=    11.4672   ZX=     5.7700
   XY=    15.9310   YY=   159.0731   ZY=   -14.4114
   XZ=    -7.5350   YZ=    -8.7536   ZZ=   101.5606
   Eigenvalues:    99.1830   120.5879   165.8606
      3  N    Isotropic =   204.5443   Anisotropy =    66.9592
   XX=   233.3874   YX=    10.3144   ZX=   -14.2809
   XY=    -2.2526   YY=   237.0338   ZY=   -34.1317
   XZ=   -15.5526   YZ=   -22.1901   ZZ=   143.2119
   Eigenvalues:   133.6257   230.8235   249.1838
      4  C    Isotropic =   142.7359   Anisotropy =    52.3723
   XX=   148.7646   YX=   -20.6251   ZX=    13.2444
   XY=   -11.8738   YY=   152.5239   ZY=   -18.3051
   XZ=    27.2627   YZ=    -7.2395   ZZ=   126.9190
   Eigenvalues:   114.5892   135.9676   177.6507
      5  C    Isotropic =   171.3380   Anisotropy =    18.7337
   XX=   175.2558   YX=     4.9393   ZX=    11.0831
   XY=     6.8834   YY=   179.5170   ZY=    -7.3289
   XZ=    16.6375   YZ=   -13.2131   ZZ=   159.2411
   Eigenvalues:   146.9316   183.2552   183.8271
      6  C    Isotropic =   124.9269   Anisotropy =    41.7459
   XX=   127.5695   YX=   -18.9295   ZX=   -10.2021
   XY=   -14.2310   YY=   128.3264   ZY=    11.3422
   XZ=   -26.7123   YZ=    -2.4727   ZZ=   118.8848
   Eigenvalues:   101.9642   120.0590   152.7575
      7  C    Isotropic =   119.8947   Anisotropy =    42.2320
   XX=   127.6430   YX=    -7.8814   ZX=   -29.8363
   XY=    -6.0935   YY=   122.2511   ZY=    13.6190
   XZ=   -18.3077   YZ=     0.2836   ZZ=   109.7899
   Eigenvalues:    92.9356   118.6991   148.0493
      8  C    Isotropic =   113.9031   Anisotropy =    29.3362
   XX=   119.6150   YX=     8.7046   ZX=   -11.1570
   XY=    -0.8764   YY=   127.7000   ZY=   -18.6662
   XZ=    -3.4044   YZ=    -2.8299   ZZ=    94.3945
   Eigenvalues:    90.0261   118.2227   133.4606
      9  H    Isotropic =    29.7030   Anisotropy =    11.7181
   XX=    33.0850   YX=    -1.3106   ZX=    -5.1151
   XY=    -2.4263   YY=    25.3082   ZY=     0.3672
   XZ=    -5.5373   YZ=    -0.6095   ZZ=    30.7158
   Eigenvalues:    24.3855    27.2085    37.5151
     10  H    Isotropic =    29.6890   Anisotropy =     9.5177
   XX=    31.3938   YX=     3.6923   ZX=     1.9224
   XY=     4.1296   YY=    32.2843   ZY=     0.8763
   XZ=     1.2496   YZ=     0.7320   ZZ=    25.3889
   Eigenvalues:    24.9906    28.0423    36.0342
     11  H    Isotropic =    28.2539   Anisotropy =     6.8807
   XX=    26.8347   YX=     0.6377   ZX=    -1.1635
   XY=     0.6997   YY=    26.4158   ZY=    -2.7629
   XZ=    -0.7811   YZ=    -2.4780   ZZ=    31.5112
   Eigenvalues:    25.2680    26.6527    32.8410
     12  H    Isotropic =    28.9526   Anisotropy =    12.0452
   XX=    27.6749   YX=    -4.4918   ZX=    -0.5725
   XY=    -3.9517   YY=    32.9019   ZY=     4.8411
   XZ=     0.5548   YZ=     4.7800   ZZ=    26.2810
   Eigenvalues:    22.7500    27.1251    36.9828
     13  H    Isotropic =    28.8334   Anisotropy =     8.6989
   XX=    28.7362   YX=     1.1511   ZX=     0.6954
   XY=     1.0456   YY=    32.4963   ZY=    -4.7210
   XZ=    -0.0103   YZ=    -3.9045   ZZ=    25.2678
   Eigenvalues:    23.1465    28.7211    34.6327
     14  H    Isotropic =    30.0161   Anisotropy =    12.7321
   XX=    34.2032   YX=    -4.4501   ZX=     3.1559
   XY=    -4.9458   YY=    29.2811   ZY=    -2.6961
   XZ=     3.4410   YZ=    -2.5081   ZZ=    26.5639
   Eigenvalues:    24.9468    26.5973    38.5041
     15  H    Isotropic =    29.8533   Anisotropy =     9.0624
   XX=    27.2838   YX=     0.2549   ZX=     0.2021
   XY=     0.0602   YY=    26.5960   ZY=     1.5566
   XZ=     1.0786   YZ=     0.9131   ZZ=    35.6801
   Eigenvalues:    26.4248    27.2402    35.8949
     16  H    Isotropic =    29.0916   Anisotropy =     4.1257
   XX=    29.9715   YX=    -0.0771   ZX=    -1.8695
   XY=    -0.2095   YY=    26.4041   ZY=     0.2164
   XZ=    -0.7281   YZ=     0.5284   ZZ=    30.8991
   Eigenvalues:    26.3730    29.0597    31.8420
     17  H    Isotropic =    27.5324   Anisotropy =     2.4718
   XX=    26.8764   YX=    -1.2622   ZX=     0.3486
   XY=    -0.7366   YY=    27.8913   ZY=     1.9180
   XZ=     1.2461   YZ=     0.6915   ZZ=    27.8294
   Eigenvalues:    25.4341    27.9828    29.1803
     18  H    Isotropic =    27.8487   Anisotropy =     3.3571
   XX=    26.3015   YX=    -0.3252   ZX=     0.8961
   XY=    -0.9972   YY=    29.9000   ZY=    -1.1298
   XZ=     1.1096   YZ=     0.6400   ZZ=    27.3445
   Eigenvalues:    25.6461    27.8132    30.0867
     19  O    Isotropic =   297.0233   Anisotropy =    44.7166
   XX=   274.6520   YX=   -27.3479   ZX=    15.2173
   XY=   -15.4624   YY=   317.1694   ZY=     1.6234
   XZ=    -3.2330   YZ=    -6.4634   ZZ=   299.2486
   Eigenvalues:   265.1159   299.1196   326.8344
     20  H    Isotropic =    29.3538   Anisotropy =    19.0760
   XX=    24.2086   YX=    -4.3110   ZX=    -5.4276
   XY=    -5.5716   YY=    38.8055   ZY=     4.2339
   XZ=    -4.3317   YZ=     3.9829   ZZ=    25.0474
   Eigenvalues:    19.6808    26.3095    42.0711
     21  O    Isotropic =   304.6473   Anisotropy =    36.8034
   XX=   327.6956   YX=     6.6505   ZX=    -0.0058
   XY=     5.1075   YY=   270.6405   ZY=    -2.3286
   XZ=    -8.6933   YZ=    25.7116   ZZ=   315.6058
   Eigenvalues:   267.0307   317.7283   329.1829
     22  H    Isotropic =    29.7512   Anisotropy =    19.8754
   XX=    42.6881   YX=     1.2249   ZX=    -2.3600
   XY=     1.0046   YY=    24.5368   ZY=     3.7081
   XZ=    -2.5131   YZ=     2.7958   ZZ=    22.0286
   Eigenvalues:    19.4964    26.7556    43.0014
     23  C    Isotropic =   136.0207   Anisotropy =    55.0199
   XX=   120.3524   YX=     3.7396   ZX=    14.1886
   XY=     3.4300   YY=   120.2412   ZY=     2.7087
   XZ=    18.5974   YZ=    -0.4163   ZZ=   167.4685
   Eigenvalues:   113.7361   121.6253   172.7006
     24  H    Isotropic =    27.9374   Anisotropy =     7.9291
   XX=    26.0228   YX=     1.4305   ZX=     1.7342
   XY=     1.8710   YY=    29.6176   ZY=    -3.2195
   XZ=     1.4111   YZ=    -5.2977   ZZ=    28.1717
   Eigenvalues:    22.9176    27.6712    33.2234
     25  H    Isotropic =    28.1188   Anisotropy =     6.6123
   XX=    29.6822   YX=     1.5845   ZX=    -2.0862
   XY=     0.4048   YY=    25.7030   ZY=     1.1557
   XZ=    -4.2735   YZ=     0.8829   ZZ=    28.9712
   Eigenvalues:    24.4762    27.3532    32.5270
     26  O    Isotropic =   331.3106   Anisotropy =    47.3715
   XX=   350.3990   YX=     0.8584   ZX=   -24.2184
   XY=     0.2769   YY=   317.2862   ZY=   -22.5425
   XZ=   -15.8972   YZ=    -4.0887   ZZ=   326.2466
   Eigenvalues:   304.3277   326.7125   362.8916
     27  H    Isotropic =    28.7567   Anisotropy =    16.4059
   XX=    37.5083   YX=     0.8153   ZX=    -4.0261
   XY=     2.4207   YY=    19.0906   ZY=     4.6038
   XZ=    -5.3313   YZ=     3.0758   ZZ=    29.6713
   Eigenvalues:    17.3749    29.2013    39.6940
 End of Minotr Frequency-dependent properties file   721 does not exist.
 End of Minotr Frequency-dependent properties file   722 does not exist.

 **********************************************************************

            Population analysis using the SCF density.

 **********************************************************************

 Orbital symmetries:
       Occupied  (A) (A) (A) (A) (A) (A) (A) (A) (A) (A) (A) (A)
                 (A) (A) (A) (A) (A) (A) (A) (A) (A) (A) (A) (A)
                 (A) (A) (A) (A) (A) (A) (A) (A) (A) (A) (A) (A)
                 (A) (A) (A) (A) (A) (A) (A) (A) (A) (A) (A)
       Virtual   (A) (A) (A) (A) (A) (A) (A) (A) (A) (A) (A) (A)
                 (A) (A) (A) (A) (A) (A) (A) (A) (A) (A) (A) (A)
                 (A) (A) (A) (A) (A) (A) (A) (A) (A) (A) (A) (A)
                 (A) (A) (A) (A) (A) (A) (A) (A) (A) (A) (A) (A)
                 (A) (A) (A) (A) (A) (A) (A) (A) (A) (A) (A) (A)
                 (A) (A) (A) (A) (A) (A) (A) (A) (A) (A) (A) (A)
                 (A) (A) (A) (A) (A) (A) (A) (A) (A) (A) (A) (A)
                 (A) (A) (A) (A) (A) (A) (A) (A) (A) (A) (A) (A)
                 (A) (A) (A) (A) (A) (A) (A) (A) (A) (A) (A) (A)
                 (A) (A) (A) (A) (A) (A) (A) (A) (A) (A) (A) (A)
                 (A) (A) (A) (A) (A) (A) (A) (A) (A) (A) (A) (A)
                 (A) (A) (A) (A) (A) (A) (A) (A) (A) (A) (A) (A)
                 (A) (A) (A) (A) (A) (A) (A) (A) (A) (A) (A) (A)
                 (A) (A) (A) (A) (A) (A) (A) (A) (A) (A) (A) (A)
                 (A) (A) (A) (A) (A) (A) (A) (A) (A) (A) (A) (A)
                 (A) (A) (A) (A) (A) (A) (A) (A) (A) (A) (A) (A)
                 (A) (A) (A) (A) (A) (A) (A) (A) (A) (A) (A) (A)
                 (A) (A) (A) (A) (A) (A) (A) (A) (A) (A) (A) (A)
                 (A) (A) (A) (A) (A) (A) (A) (A) (A) (A) (A) (A)
                 (A) (A) (A) (A) (A) (A) (A) (A) (A) (A) (A) (A)
                 (A) (A) (A) (A) (A) (A) (A) (A) (A) (A) (A) (A)
                 (A) (A) (A) (A)
 The electronic state is 1-A.
 Alpha  occ. eigenvalues --  -19.26427 -19.26056 -19.24971 -14.42185 -10.30525
 Alpha  occ. eigenvalues --  -10.30396 -10.29573 -10.28298 -10.28113 -10.27167
 Alpha  occ. eigenvalues --  -10.24777 -10.24647  -1.07545  -1.05797  -1.05384
 Alpha  occ. eigenvalues --   -0.96917  -0.82829  -0.79815  -0.75421  -0.71857
 Alpha  occ. eigenvalues --   -0.66761  -0.61962  -0.60349  -0.58496  -0.55928
 Alpha  occ. eigenvalues --   -0.53421  -0.51349  -0.50268  -0.49640  -0.48148
 Alpha  occ. eigenvalues --   -0.45470  -0.45281  -0.43807  -0.42035  -0.41443
 Alpha  occ. eigenvalues --   -0.40009  -0.38516  -0.37468  -0.36277  -0.35862
 Alpha  occ. eigenvalues --   -0.35294  -0.34632  -0.33522  -0.31047  -0.30172
 Alpha  occ. eigenvalues --   -0.28542  -0.24357
 Alpha virt. eigenvalues --    0.00622   0.01414   0.01699   0.02028   0.03668
 Alpha virt. eigenvalues --    0.04004   0.04190   0.05143   0.05427   0.07114
 Alpha virt. eigenvalues --    0.07867   0.08226   0.08580   0.09083   0.09349
 Alpha virt. eigenvalues --    0.10233   0.11153   0.11930   0.12103   0.12486
 Alpha virt. eigenvalues --    0.13138   0.13768   0.14072   0.14732   0.15352
 Alpha virt. eigenvalues --    0.15775   0.16050   0.16657   0.17476   0.17867
 Alpha virt. eigenvalues --    0.18886   0.19144   0.20030   0.20403   0.20479
 Alpha virt. eigenvalues --    0.20949   0.21619   0.21801   0.22104   0.23395
 Alpha virt. eigenvalues --    0.24228   0.24704   0.25385   0.25593   0.26062
 Alpha virt. eigenvalues --    0.26331   0.26642   0.27699   0.28038   0.29220
 Alpha virt. eigenvalues --    0.29569   0.30020   0.30634   0.31225   0.31812
 Alpha virt. eigenvalues --    0.32244   0.32846   0.33324   0.33806   0.34548
 Alpha virt. eigenvalues --    0.35384   0.36262   0.36551   0.37407   0.38396
 Alpha virt. eigenvalues --    0.38905   0.39532   0.40640   0.41442   0.42030
 Alpha virt. eigenvalues --    0.42357   0.43056   0.44705   0.45608   0.46371
 Alpha virt. eigenvalues --    0.47713   0.63455   0.64177   0.65894   0.69021
 Alpha virt. eigenvalues --    0.70107   0.71515   0.71804   0.73237   0.76404
 Alpha virt. eigenvalues --    0.76568   0.78117   0.78607   0.79842   0.82048
 Alpha virt. eigenvalues --    0.82685   0.83270   0.84176   0.86413   0.87932
 Alpha virt. eigenvalues --    0.88935   0.89936   0.92263   0.94223   0.97719
 Alpha virt. eigenvalues --    0.98371   1.00026   1.02138   1.03852   1.04921
 Alpha virt. eigenvalues --    1.06058   1.06871   1.08483   1.08736   1.10329
 Alpha virt. eigenvalues --    1.12061   1.13284   1.14249   1.14642   1.15787
 Alpha virt. eigenvalues --    1.17722   1.18369   1.20264   1.23846   1.25340
 Alpha virt. eigenvalues --    1.26626   1.28775   1.29845   1.31894   1.33249
 Alpha virt. eigenvalues --    1.33439   1.34288   1.35924   1.37513   1.39268
 Alpha virt. eigenvalues --    1.42153   1.46162   1.47631   1.52277   1.52967
 Alpha virt. eigenvalues --    1.53972   1.55203   1.56406   1.58900   1.61312
 Alpha virt. eigenvalues --    1.62671   1.63801   1.65858   1.70197   1.72550
 Alpha virt. eigenvalues --    1.72755   1.74055   1.75527   1.78811   1.79289
 Alpha virt. eigenvalues --    1.82096   1.83344   1.83649   1.85961   1.87200
 Alpha virt. eigenvalues --    1.88221   1.90378   1.91379   1.94851   1.95518
 Alpha virt. eigenvalues --    1.96334   1.99859   2.01689   2.03171   2.03692
 Alpha virt. eigenvalues --    2.04462   2.05110   2.06554   2.08563   2.11314
 Alpha virt. eigenvalues --    2.13312   2.15151   2.16585   2.17963   2.18746
 Alpha virt. eigenvalues --    2.21711   2.22631   2.24132   2.25798   2.31316
 Alpha virt. eigenvalues --    2.31476   2.33544   2.34323   2.36882   2.39432
 Alpha virt. eigenvalues --    2.41905   2.42211   2.43067   2.45031   2.47443
 Alpha virt. eigenvalues --    2.48548   2.48950   2.51562   2.52800   2.54832
 Alpha virt. eigenvalues --    2.56067   2.57153   2.59221   2.61671   2.63258
 Alpha virt. eigenvalues --    2.63860   2.65297   2.67015   2.68289   2.68765
 Alpha virt. eigenvalues --    2.70670   2.74175   2.75000   2.75322   2.77274
 Alpha virt. eigenvalues --    2.79093   2.80655   2.82348   2.83056   2.86511
 Alpha virt. eigenvalues --    2.88500   2.89067   2.91566   2.92741   2.95436
 Alpha virt. eigenvalues --    2.98312   3.00462   3.00813   3.01809   3.04301
 Alpha virt. eigenvalues --    3.06541   3.08011   3.09642   3.19866   3.32703
 Alpha virt. eigenvalues --    3.34002   3.36409   3.38937   3.39041   3.43779
 Alpha virt. eigenvalues --    3.47734   3.49677   3.53348   3.54191   3.55563
 Alpha virt. eigenvalues --    3.55886   3.58222   3.60450   3.63598   4.29571
 Alpha virt. eigenvalues --    4.37609   4.39689   4.43987   4.50016   4.54229
 Alpha virt. eigenvalues --    4.57448   4.69565   4.77951   4.82675   4.87280
 Alpha virt. eigenvalues --    4.94202
          Condensed to atoms (all electrons):
              1          2          3          4          5          6
     1  C    5.900892  -0.763009   0.080633  -0.033061   0.229152   0.136720
     2  C   -0.763009   8.523434  -0.315644  -0.249777   0.018513  -0.707840
     3  N    0.080633  -0.315644   7.556316   0.182373  -0.101520  -0.269142
     4  C   -0.033061  -0.249777   0.182373   5.846062   0.114512  -0.368723
     5  C    0.229152   0.018513  -0.101520   0.114512   5.397224   0.059895
     6  C    0.136720  -0.707840  -0.269142  -0.368723   0.059895   8.662003
     7  C   -0.118675   0.161183  -0.141820  -0.208387   0.007947  -0.540927
     8  C    0.053295  -0.380405  -0.115562   0.029643  -0.037995   0.465730
     9  H    0.430886  -0.073012   0.012828   0.001859  -0.047595   0.006399
    10  H    0.426950  -0.153518   0.017953   0.025895  -0.024436   0.007747
    11  H    0.062136   0.149541  -0.001546  -0.008639   0.012154   0.051860
    12  H    0.010704  -0.034479  -0.026043   0.379481  -0.036725   0.014556
    13  H    0.016759   0.028138  -0.063966   0.352365  -0.016627   0.047074
    14  H   -0.037370   0.027808   0.009903  -0.036615   0.365028   0.003328
    15  H   -0.054071  -0.001728   0.015345  -0.068588   0.423492   0.010159
    16  H    0.001944   0.072404  -0.021653   0.073162  -0.020376   0.139186
    17  H    0.011869  -0.010230   0.065195   0.013412  -0.001318  -0.209063
    18  H    0.066258  -0.218595   0.053456   0.012708  -0.013330   0.022240
    19  O    0.014824  -0.192660   0.029843   0.007257  -0.004481   0.014942
    20  H   -0.007305   0.047927  -0.003066  -0.001617   0.001655   0.008041
    21  O   -0.001972   0.035062   0.009656  -0.001587   0.005042  -0.126834
    22  H   -0.000565  -0.003469  -0.002312  -0.000076   0.000198   0.008371
    23  C    0.072993  -0.069335   0.239805   0.156304  -0.052262  -1.126351
    24  H    0.007210  -0.018133  -0.015244   0.025023  -0.008749  -0.060036
    25  H   -0.001120   0.014145   0.013971  -0.000178   0.001375  -0.121816
    26  O    0.013689  -0.024685   0.037953   0.006880  -0.008829  -0.200545
    27  H   -0.001170   0.026126   0.052734   0.013181  -0.001116  -0.087184
              7          8          9         10         11         12
     1  C   -0.118675   0.053295   0.430886   0.426950   0.062136   0.010704
     2  C    0.161183  -0.380405  -0.073012  -0.153518   0.149541  -0.034479
     3  N   -0.141820  -0.115562   0.012828   0.017953  -0.001546  -0.026043
     4  C   -0.208387   0.029643   0.001859   0.025895  -0.008639   0.379481
     5  C    0.007947  -0.037995  -0.047595  -0.024436   0.012154  -0.036725
     6  C   -0.540927   0.465730   0.006399   0.007747   0.051860   0.014556
     7  C    6.710348  -0.153848  -0.002765  -0.005361  -0.044461   0.002417
     8  C   -0.153848   5.904735   0.001920   0.033245   0.039423   0.003756
     9  H   -0.002765   0.001920   0.519702  -0.023703  -0.006632   0.001532
    10  H   -0.005361   0.033245  -0.023703   0.513230   0.002910  -0.000021
    11  H   -0.044461   0.039423  -0.006632   0.002910   0.549849   0.000809
    12  H    0.002417   0.003756   0.001532  -0.000021   0.000809   0.538803
    13  H    0.015290  -0.003238  -0.000114  -0.000140  -0.000161  -0.028311
    14  H    0.003214   0.005966  -0.005045   0.000588  -0.000057  -0.002674
    15  H    0.002440   0.003783   0.004133  -0.005156  -0.000114   0.003959
    16  H   -0.026323  -0.053152  -0.000001  -0.000058  -0.000540  -0.000259
    17  H    0.460566  -0.101078   0.000006  -0.000007   0.000580   0.000014
    18  H   -0.094334   0.457732   0.000233   0.000529   0.004226   0.000016
    19  O   -0.109906   0.333055  -0.000380   0.003679   0.008349   0.000068
    20  H   -0.044915   0.001718   0.000006  -0.000089   0.000008   0.000000
    21  O    0.411044  -0.230053   0.000028  -0.000108  -0.000560   0.000019
    22  H   -0.007787   0.047167   0.000000   0.000000   0.000006   0.000000
    23  C   -0.080911  -0.196380   0.000224   0.000050   0.007791   0.002168
    24  H   -0.004698   0.000990   0.000000   0.000000   0.000010  -0.000086
    25  H   -0.007623  -0.008792   0.000000   0.000000  -0.000003   0.000002
    26  O    0.024109  -0.028437   0.000024   0.000004   0.000903   0.000915
    27  H   -0.030530  -0.010793   0.000000  -0.000001  -0.000572  -0.000174
             13         14         15         16         17         18
     1  C    0.016759  -0.037370  -0.054071   0.001944   0.011869   0.066258
     2  C    0.028138   0.027808  -0.001728   0.072404  -0.010230  -0.218595
     3  N   -0.063966   0.009903   0.015345  -0.021653   0.065195   0.053456
     4  C    0.352365  -0.036615  -0.068588   0.073162   0.013412   0.012708
     5  C   -0.016627   0.365028   0.423492  -0.020376  -0.001318  -0.013330
     6  C    0.047074   0.003328   0.010159   0.139186  -0.209063   0.022240
     7  C    0.015290   0.003214   0.002440  -0.026323   0.460566  -0.094334
     8  C   -0.003238   0.005966   0.003783  -0.053152  -0.101078   0.457732
     9  H   -0.000114  -0.005045   0.004133  -0.000001   0.000006   0.000233
    10  H   -0.000140   0.000588  -0.005156  -0.000058  -0.000007   0.000529
    11  H   -0.000161  -0.000057  -0.000114  -0.000540   0.000580   0.004226
    12  H   -0.028311  -0.002674   0.003959  -0.000259   0.000014   0.000016
    13  H    0.526857   0.000920  -0.005534   0.000575  -0.000019  -0.000018
    14  H    0.000920   0.513956  -0.022963  -0.000155   0.000000  -0.000053
    15  H   -0.005534  -0.022963   0.519918   0.000223   0.000004  -0.000009
    16  H    0.000575  -0.000155   0.000223   0.568882   0.004223   0.000279
    17  H   -0.000019   0.000000   0.000004   0.004223   0.543941   0.004504
    18  H   -0.000018  -0.000053  -0.000009   0.000279   0.004504   0.558231
    19  O   -0.000012  -0.000007  -0.000045  -0.001029  -0.002337  -0.041014
    20  H    0.000000   0.000000  -0.000001   0.000013  -0.000211  -0.005477
    21  O   -0.000115  -0.000013   0.000042   0.003663  -0.038596   0.000163
    22  H   -0.000001   0.000000  -0.000001  -0.000396  -0.006426   0.000059
    23  C   -0.039374  -0.001332  -0.001339   0.070744   0.067811   0.017335
    24  H    0.001820   0.000001   0.000002  -0.001764   0.000076   0.000007
    25  H   -0.000058   0.000000  -0.000001   0.000553   0.000430  -0.000011
    26  O   -0.000296   0.000009   0.000056   0.008943   0.009822   0.000174
    27  H    0.000071  -0.000002   0.000000   0.000819   0.000114  -0.000010
             19         20         21         22         23         24
     1  C    0.014824  -0.007305  -0.001972  -0.000565   0.072993   0.007210
     2  C   -0.192660   0.047927   0.035062  -0.003469  -0.069335  -0.018133
     3  N    0.029843  -0.003066   0.009656  -0.002312   0.239805  -0.015244
     4  C    0.007257  -0.001617  -0.001587  -0.000076   0.156304   0.025023
     5  C   -0.004481   0.001655   0.005042   0.000198  -0.052262  -0.008749
     6  C    0.014942   0.008041  -0.126834   0.008371  -1.126351  -0.060036
     7  C   -0.109906  -0.044915   0.411044  -0.007787  -0.080911  -0.004698
     8  C    0.333055   0.001718  -0.230053   0.047167  -0.196380   0.000990
     9  H   -0.000380   0.000006   0.000028   0.000000   0.000224   0.000000
    10  H    0.003679  -0.000089  -0.000108   0.000000   0.000050   0.000000
    11  H    0.008349   0.000008  -0.000560   0.000006   0.007791   0.000010
    12  H    0.000068   0.000000   0.000019   0.000000   0.002168  -0.000086
    13  H   -0.000012   0.000000  -0.000115  -0.000001  -0.039374   0.001820
    14  H   -0.000007   0.000000  -0.000013   0.000000  -0.001332   0.000001
    15  H   -0.000045  -0.000001   0.000042  -0.000001  -0.001339   0.000002
    16  H   -0.001029   0.000013   0.003663  -0.000396   0.070744  -0.001764
    17  H   -0.002337  -0.000211  -0.038596  -0.006426   0.067811   0.000076
    18  H   -0.041014  -0.005477   0.000163   0.000059   0.017335   0.000007
    19  O    8.257598   0.235576  -0.006489   0.000487  -0.001096   0.000040
    20  H    0.235576   0.373892   0.009199  -0.000360   0.000118   0.000000
    21  O   -0.006489   0.009199   8.217149   0.236198   0.008117  -0.000196
    22  H    0.000487  -0.000360   0.236198   0.370984  -0.027782  -0.000096
    23  C   -0.001096   0.000118   0.008117  -0.027782   5.985155   0.431751
    24  H    0.000040   0.000000  -0.000196  -0.000096   0.431751   0.581398
    25  H   -0.000017   0.000000   0.003582   0.002169   0.486215  -0.039692
    26  O    0.001037   0.000027  -0.001251  -0.001517   0.292628  -0.050005
    27  H   -0.000108   0.000001   0.000421   0.000033   0.045960  -0.003289
             25         26         27
     1  C   -0.001120   0.013689  -0.001170
     2  C    0.014145  -0.024685   0.026126
     3  N    0.013971   0.037953   0.052734
     4  C   -0.000178   0.006880   0.013181
     5  C    0.001375  -0.008829  -0.001116
     6  C   -0.121816  -0.200545  -0.087184
     7  C   -0.007623   0.024109  -0.030530
     8  C   -0.008792  -0.028437  -0.010793
     9  H    0.000000   0.000024   0.000000
    10  H    0.000000   0.000004  -0.000001
    11  H   -0.000003   0.000903  -0.000572
    12  H    0.000002   0.000915  -0.000174
    13  H   -0.000058  -0.000296   0.000071
    14  H    0.000000   0.000009  -0.000002
    15  H   -0.000001   0.000056   0.000000
    16  H    0.000553   0.008943   0.000819
    17  H    0.000430   0.009822   0.000114
    18  H   -0.000011   0.000174  -0.000010
    19  O   -0.000017   0.001037  -0.000108
    20  H    0.000000   0.000027   0.000001
    21  O    0.003582  -0.001251   0.000421
    22  H    0.002169  -0.001517   0.000033
    23  C    0.486215   0.292628   0.045960
    24  H   -0.039692  -0.050005  -0.003289
    25  H    0.549512  -0.057073   0.006289
    26  O   -0.057073   8.286966   0.245182
    27  H    0.006289   0.245182   0.356069
 Mulliken atomic charges:
              1
     1  C   -0.518596
     2  C    0.112240
     3  N   -0.300446
     4  C   -0.262870
     5  C   -0.260830
     6  C    0.160209
     7  C   -0.175289
     8  C   -0.062419
     9  H    0.179468
    10  H    0.179819
    11  H    0.172731
    12  H    0.169553
    13  H    0.168117
    14  H    0.175565
    15  H    0.175995
    16  H    0.180093
    17  H    0.186720
    18  H    0.174700
    19  O   -0.547172
    20  H    0.384861
    21  O   -0.531615
    22  H    0.385114
    23  C   -0.289008
    24  H    0.153658
    25  H    0.158140
    26  O   -0.556685
    27  H    0.387948
 Sum of Mulliken atomic charges =   0.00000
 Mulliken charges with hydrogens summed into heavy atoms:
              1
     1  C   -0.159309
     2  C    0.284971
     3  N   -0.300446
     4  C    0.074800
     5  C    0.090729
     6  C    0.340302
     7  C    0.011431
     8  C    0.112281
    19  O   -0.162311
    21  O   -0.146501
    23  C    0.022790
    26  O   -0.168737
 Sum of Mulliken charges with hydrogens summed into heavy atoms =   0.00000
 Electronic spatial extent (au):  <R**2>=           2038.2157
 Charge=              0.0000 electrons
 Dipole moment (field-independent basis, Debye):
    X=              1.5365    Y=             -1.0696    Z=              2.8645  Tot=              3.4220
 Quadrupole moment (field-independent basis, Debye-Ang):
   XX=            -72.6413   YY=            -74.5117   ZZ=            -76.8851
   XY=             -7.4828   XZ=             -4.1899   YZ=             -1.1955
 Traceless Quadrupole moment (field-independent basis, Debye-Ang):
   XX=              2.0380   YY=              0.1677   ZZ=             -2.2057
   XY=             -7.4828   XZ=             -4.1899   YZ=             -1.1955
 Octapole moment (field-independent basis, Debye-Ang**2):
  XXX=             -4.7673  YYY=             13.9073  ZZZ=             -4.9156  XYY=              0.1836
  XXY=             15.1384  XXZ=             21.7544  XZZ=              2.3327  YZZ=             -6.0887
  YYZ=             12.0716  XYZ=             14.5887
 Hexadecapole moment (field-independent basis, Debye-Ang**3):
 XXXX=          -1260.6957 YYYY=           -930.3586 ZZZZ=           -318.1499 XXXY=            -82.9604
 XXXZ=            -80.2776 YYYX=            -30.9554 YYYZ=             16.1745 ZZZX=             -0.3673
 ZZZY=              7.2183 XXYY=           -407.8142 XXZZ=           -280.1560 YYZZ=           -245.6455
 XXYZ=            -16.2020 YYXZ=              4.3799 ZZXY=             -3.7544
 N-N= 8.051629990534D+02 E-N=-2.995928785448D+03  KE= 5.886645092132D+02
 1\1\GINC-COMPUTE-3-0\SP\RmPW1PW91\6-31+G(d,p)\C8H15N1O3\MAMICHETTI.IQU
 IR\17-May-2024\0\\# mpw1pw91/6-31+G** nmr scrf=(pcm,solvent=water)\\co
 mment\\0,1\C,0,-2.544423,0.045221,0.202945\C,0,-1.111821,0.331066,0.70
 1728\N,0,-0.299259,-0.909361,0.415623\C,0,-1.223704,-1.899077,-0.19041
 4\C,0,-2.356577,-1.082176,-0.8233\C,0,0.818988,-0.519507,-0.480473\C,0
 ,1.046509,0.958035,-0.137905\C,0,-0.379944,1.477633,-0.007155\H,0,-3.1
 68064,-0.305502,1.033258\H,0,-3.015349,0.942985,-0.210598\H,0,-1.10819
 8,0.543126,1.777375\H,0,-1.626569,-2.552599,0.594046\H,0,-0.684126,-2.
 533187,-0.900077\H,0,-3.265,-1.669868,-0.98943\H,0,-2.034953,-0.674861
 ,-1.789795\H,0,0.540736,-0.580578,-1.545269\H,0,1.550875,1.042371,0.83
 4051\H,0,-0.782961,1.618904,-1.021671\O,0,-0.516074,2.683587,0.741636\
 H,0,-0.061399,3.379962,0.238293\O,0,1.75866,1.688862,-1.13266\H,0,2.69
 2607,1.427863,-1.070936\C,0,2.03244,-1.417601,-0.251328\H,0,1.81802,-2
 .431127,-0.623375\H,0,2.893123,-1.033341,-0.811111\O,0,2.397311,-1.456
 239,1.128448\H,0,1.538086,-1.499877,1.591897\\Version=AM64L-G09RevC.01
 \State=1-A\HF=-594.2026123\RMSD=2.057e-09\Dipole=-0.6044947,-0.4208053
 ,-1.1269629\Quadrupole=1.5152361,0.1246838,-1.6399199,5.5632767,-3.115
 0707,0.8888589\PG=C01 [X(C8H15N1O3)]\\@


 YOU SHOULDN'T LET PEOPLE DRIVE YOU CRAZY
 WHEN YOU KNOW IT'S WITHIN WALKING DISTANCE.
 Job cpu time:  0 days  0 hours  8 minutes 52.9 seconds.
 File lengths (MBytes):  RWF=    113 Int=      0 D2E=      0 Chk=      7 Scr=      1
 Normal termination of Gaussian 09 at Fri May 17 12:12:27 2024.
