 Entering Gaussian System, Link 0=g09
 Input=/home/mamichetti.iquir/Linux/02_Cardona_A1A3_R__R_R_R_028_OptB.gjc
 Output=/home/mamichetti.iquir/Linux/02_Cardona_A1A3_R__R_R_R_028_OptB.log
 Initial command:
 /opt/ohpc/pub/apps/software/Gaussian/09/AMD64.SSE4a-enabled/g09/l1.exe /local/mamichetti.iquir/Gau-714262.inp -scrdir=/local/mamichetti.iquir/
 Entering Link 1 = /opt/ohpc/pub/apps/software/Gaussian/09/AMD64.SSE4a-enabled/g09/l1.exe PID=    714263.
  
 Copyright (c) 1988,1990,1992,1993,1995,1998,2003,2009,2011,
            Gaussian, Inc.  All Rights Reserved.
  
 This is part of the Gaussian(R) 09 program.  It is based on
 the Gaussian(R) 03 system (copyright 2003, Gaussian, Inc.),
 the Gaussian(R) 98 system (copyright 1998, Gaussian, Inc.),
 the Gaussian(R) 94 system (copyright 1995, Gaussian, Inc.),
 the Gaussian 92(TM) system (copyright 1992, Gaussian, Inc.),
 the Gaussian 90(TM) system (copyright 1990, Gaussian, Inc.),
 the Gaussian 88(TM) system (copyright 1988, Gaussian, Inc.),
 the Gaussian 86(TM) system (copyright 1986, Carnegie Mellon
 University), and the Gaussian 82(TM) system (copyright 1983,
 Carnegie Mellon University). Gaussian is a federally registered
 trademark of Gaussian, Inc.
  
 This software contains proprietary and confidential information,
 including trade secrets, belonging to Gaussian, Inc.
  
 This software is provided under written license and may be
 used, copied, transmitted, or stored only in accord with that
 written license.
  
 The following legend is applicable only to US Government
 contracts under FAR:
  
                    RESTRICTED RIGHTS LEGEND
  
 Use, reproduction and disclosure by the US Government is
 subject to restrictions as set forth in subparagraphs (a)
 and (c) of the Commercial Computer Software - Restricted
 Rights clause in FAR 52.227-19.
  
 Gaussian, Inc.
 340 Quinnipiac St., Bldg. 40, Wallingford CT 06492
  
  
 ---------------------------------------------------------------
 Warning -- This program may not be used in any manner that
 competes with the business of Gaussian, Inc. or will provide
 assistance to any competitor of Gaussian, Inc.  The licensee
 of this program is prohibited from giving any competitor of
 Gaussian, Inc. access to this program.  By using this program,
 the user acknowledges that Gaussian, Inc. is engaged in the
 business of creating and licensing software in the field of
 computational chemistry and represents and warrants to the
 licensee that it is not a competitor of Gaussian, Inc. and that
 it will not use this program in any manner prohibited above.
 ---------------------------------------------------------------
  

 Cite this work as:
 Gaussian 09, Revision C.01,
 M. J. Frisch, G. W. Trucks, H. B. Schlegel, G. E. Scuseria, 
 M. A. Robb, J. R. Cheeseman, G. Scalmani, V. Barone, B. Mennucci, 
 G. A. Petersson, H. Nakatsuji, M. Caricato, X. Li, H. P. Hratchian, 
 A. F. Izmaylov, J. Bloino, G. Zheng, J. L. Sonnenberg, M. Hada, 
 M. Ehara, K. Toyota, R. Fukuda, J. Hasegawa, M. Ishida, T. Nakajima, 
 Y. Honda, O. Kitao, H. Nakai, T. Vreven, J. A. Montgomery, Jr., 
 J. E. Peralta, F. Ogliaro, M. Bearpark, J. J. Heyd, E. Brothers, 
 K. N. Kudin, V. N. Staroverov, T. Keith, R. Kobayashi, J. Normand, 
 K. Raghavachari, A. Rendell, J. C. Burant, S. S. Iyengar, J. Tomasi, 
 M. Cossi, N. Rega, J. M. Millam, M. Klene, J. E. Knox, J. B. Cross, 
 V. Bakken, C. Adamo, J. Jaramillo, R. Gomperts, R. E. Stratmann, 
 O. Yazyev, A. J. Austin, R. Cammi, C. Pomelli, J. W. Ochterski, 
 R. L. Martin, K. Morokuma, V. G. Zakrzewski, G. A. Voth, 
 P. Salvador, J. J. Dannenberg, S. Dapprich, A. D. Daniels, 
 O. Farkas, J. B. Foresman, J. V. Ortiz, J. Cioslowski, 
 and D. J. Fox, Gaussian, Inc., Wallingford CT, 2010.
 
 ******************************************
 Gaussian 09:  AM64L-G09RevC.01 23-Sep-2011
                17-May-2024 
 ******************************************
 %nprocshared=4
 Will use up to    4 processors via shared memory.
 ------------------------------------------------
 # mpw1pw91/6-31+G** nmr scrf=(pcm,solvent=water)
 ------------------------------------------------
 1/38=1/1;
 2/12=2,17=6,18=5,40=1/2;
 3/5=1,6=6,7=111,11=2,16=1,25=1,30=1,70=2201,72=1,74=-7/1,2,8,3;
 4//1;
 5/5=2,38=5,53=1/2;
 8/6=1,10=90,11=11/1;
 10/13=100,45=16/2;
 6/7=2,8=2,9=2,10=2,28=1/1;
 99/9=1/99;
 -------
 comment
 -------
 Charge =  0 Multiplicity = 1
 Symbolic Z-Matrix:
 6                    -2.28793  -1.06766  -0.24699 
 6                    -1.29759  -0.12802   0.45838 
 7                     0.03683  -0.81403   0.40304 
 6                    -0.12905  -2.09708  -0.30593 
 6                    -1.60966  -2.44154  -0.1214 
 6                     1.03171   0.11421  -0.16585 
 6                     0.42891   1.49814   0.09409 
 6                    -1.06475   1.26181  -0.1517 
 1                    -3.28815  -1.03422   0.19538 
 1                    -2.37792  -0.79327  -1.30555 
 1                    -1.59458   0.00743   1.50968 
 1                     0.5379   -2.86405   0.1024 
 1                     0.10707  -1.99469  -1.37891 
 1                    -1.96411  -3.16914  -0.85811 
 1                    -1.77925  -2.86176   0.87763 
 1                     1.11519  -0.01553  -1.26013 
 1                     0.57381   1.78005   1.1497 
 1                    -1.23252   1.2384   -1.2345 
 8                    -1.91525   2.29398   0.341 
 1                    -1.8037    2.31936   1.30774 
 8                     1.02104   2.47321  -0.75834 
 1                     0.59739   3.32225  -0.54614 
 6                     2.42463  -0.04079   0.42338 
 1                     3.05662   0.78788   0.0721 
 1                     2.36803   0.01316   1.51967 
 8                     2.97019  -1.298     0.00468 
 1                     3.84103  -1.3856    0.42513 
 
                          Input orientation:                          
 ---------------------------------------------------------------------
 Center     Atomic      Atomic             Coordinates (Angstroms)
 Number     Number       Type             X           Y           Z
 ---------------------------------------------------------------------
      1          6           0       -2.287931   -1.067655   -0.246986
      2          6           0       -1.297592   -0.128021    0.458379
      3          7           0        0.036826   -0.814032    0.403043
      4          6           0       -0.129052   -2.097084   -0.305930
      5          6           0       -1.609662   -2.441540   -0.121404
      6          6           0        1.031705    0.114211   -0.165849
      7          6           0        0.428914    1.498144    0.094094
      8          6           0       -1.064754    1.261810   -0.151699
      9          1           0       -3.288149   -1.034215    0.195378
     10          1           0       -2.377919   -0.793274   -1.305548
     11          1           0       -1.594580    0.007432    1.509684
     12          1           0        0.537902   -2.864054    0.102397
     13          1           0        0.107074   -1.994689   -1.378907
     14          1           0       -1.964112   -3.169142   -0.858111
     15          1           0       -1.779249   -2.861763    0.877627
     16          1           0        1.115193   -0.015525   -1.260133
     17          1           0        0.573813    1.780047    1.149698
     18          1           0       -1.232521    1.238401   -1.234495
     19          8           0       -1.915252    2.293983    0.340997
     20          1           0       -1.803702    2.319363    1.307743
     21          8           0        1.021045    2.473208   -0.758343
     22          1           0        0.597388    3.322249   -0.546137
     23          6           0        2.424631   -0.040793    0.423379
     24          1           0        3.056622    0.787884    0.072101
     25          1           0        2.368033    0.013156    1.519667
     26          8           0        2.970186   -1.298000    0.004683
     27          1           0        3.841032   -1.385601    0.425129
 ---------------------------------------------------------------------
                    Distance matrix (angstroms):
                    1          2          3          4          5
     1  C    0.000000
     2  C    1.536627   0.000000
     3  N    2.427212   1.501447   0.000000
     4  C    2.392479   2.413890   1.475256   0.000000
     5  C    1.537329   2.405391   2.373763   1.531309   0.000000
     6  C    3.524681   2.423626   1.474808   2.501361   3.675685
     7  C    3.752453   2.399571   2.365447   3.660193   4.441097
     8  C    2.632802   1.535591   2.414609   3.490200   3.743347
     9  H    1.094185   2.202879   3.338722   3.370593   2.213195
    10  H    1.097240   2.172811   2.958159   2.785060   2.170068
    11  H    2.173117   1.100814   2.135636   3.142167   2.942472
    12  H    3.366667   3.313855   2.131679   1.095355   2.200145
    13  H    2.806543   2.972063   2.138745   1.103413   2.174436
    14  H    2.212370   3.380209   3.337785   2.195827   1.094430
    15  H    2.177690   2.807331   2.777870   2.169952   1.097000
    16  H    3.703336   2.964367   2.136971   2.606058   3.821922
    17  H    4.271968   2.760580   2.752289   4.200597   4.919864
    18  H    2.721573   2.176503   2.916377   3.633915   3.863052
    19  O    3.432961   2.502276   3.670724   4.784401   4.767848
    20  H    3.758131   2.639556   3.744888   4.991332   4.974566
    21  O    4.873245   3.690919   3.622630   4.734445   5.610798
    22  H    5.261731   4.062556   4.280653   5.473078   6.186496
    23  C    4.869505   3.723409   2.509965   3.358798   4.726087
    24  H    5.666488   4.466237   3.434360   4.314449   5.678101
    25  H    5.095804   3.818779   2.713967   3.744509   4.953857
    26  O    5.269174   4.448440   2.999586   3.215632   4.722138
    27  H    6.173898   5.290375   3.846968   4.099051   5.578868
                    6          7          8          9         10
     6  C    0.000000
     7  C    1.531730   0.000000
     8  C    2.390047   1.532094   0.000000
     9  H    4.484474   4.498851   3.214915   0.000000
    10  H    3.707827   3.884315   2.697988   1.771821   0.000000
    11  H    3.117080   2.884553   2.148109   2.383402   3.029898
    12  H    3.030818   4.363567   4.433489   4.242125   3.843495
    13  H    2.602674   3.804365   3.672057   3.863732   2.761154
    14  H    4.498283   5.330744   4.576155   2.724119   2.452791
    15  H    4.224539   4.949616   4.309741   2.466207   3.066481
    16  H    1.105106   2.143852   2.759054   4.748227   3.578937
    17  H    2.171483   1.102164   2.155715   4.872940   4.622006
    18  H    2.744545   2.143124   1.095966   3.381557   2.333386
    19  O    3.700386   2.487858   1.425299   3.603187   3.529352
    20  H    3.882487   2.670565   1.947931   3.832418   4.104574
    21  O    2.432289   1.424085   2.487179   5.637442   4.745766
    22  H    3.259564   1.940525   2.676510   5.884388   5.134850
    23  C    1.520348   2.541583   3.768726   5.802993   5.159448
    24  H    2.147264   2.722095   4.154568   6.602375   5.825136
    25  H    2.153358   2.828008   4.017042   5.902806   5.581777
    26  O    2.404398   3.779481   4.780986   6.266794   5.529347
    27  H    3.238983   4.479745   5.604307   7.141532   6.482395
                   11         12         13         14         15
    11  H    0.000000
    12  H    3.843614   0.000000
    13  H    3.904878   1.770782   0.000000
    14  H    3.979149   2.697356   2.437289   0.000000
    15  H    2.943786   2.443394   3.066264   1.772412   0.000000
    16  H    3.874956   3.209964   2.224298   4.425951   4.587906
    17  H    2.823771   4.760862   4.567310   5.913276   5.211269
    18  H    3.029338   4.663884   3.502605   4.483673   4.644493
    19  O    2.587851   5.716663   5.043866   5.593387   5.185382
    20  H    2.330137   5.814102   5.429567   5.902571   5.199006
    21  O    4.250352   5.427768   4.602450   6.384139   6.243393
    22  H    4.474275   6.220489   5.404049   6.985468   6.776246
    23  C    4.163705   3.410803   3.526615   5.539842   5.082993
    24  H    4.930459   4.436386   4.306735   6.459963   6.111828
    25  H    3.962630   3.692746   4.188688   5.877783   5.086976
    26  O    4.980589   2.894491   3.255320   5.347231   5.075876
    27  H    5.715127   3.633269   4.191417   6.207046   5.828496
                   16         17         18         19         20
    16  H    0.000000
    17  H    3.053597   0.000000
    18  H    2.661719   3.039835   0.000000
    19  O    4.132922   2.667128   2.015577   0.000000
    20  H    4.534935   2.443034   2.820940   0.973491   0.000000
    21  O    2.540561   2.078728   2.613432   3.140463   3.503081
    22  H    3.452339   2.292335   2.857416   2.856168   3.194978
    23  C    2.132951   2.696020   4.214219   4.928747   4.922523
    24  H    2.487863   2.882697   4.506318   5.201939   5.243566
    25  H    3.049216   2.545193   4.695809   4.993793   4.771465
    26  O    2.585634   4.065469   5.062770   6.073134   6.129705
    27  H    3.485314   4.606631   5.948166   6.832366   6.809463
                   21         22         23         24         25
    21  O    0.000000
    22  H    0.972310   0.000000
    23  C    3.112350   3.948269   0.000000
    24  H    2.770113   3.585116   1.099779   0.000000
    25  H    3.613248   4.284020   1.099073   1.780395   0.000000
    26  O    4.313162   5.223052   1.433006   2.088762   2.092103
    27  H    4.923753   5.799003   1.953127   2.337513   2.307436
                   26         27
    26  O    0.000000
    27  H    0.970990   0.000000
 Stoichiometry    C8H15NO3
 Framework group  C1[X(C8H15NO3)]
 Deg. of freedom    75
 Full point group                 C1      NOp   1
 Largest Abelian subgroup         C1      NOp   1
 Largest concise Abelian subgroup C1      NOp   1
                         Standard orientation:                         
 ---------------------------------------------------------------------
 Center     Atomic      Atomic             Coordinates (Angstroms)
 Number     Number       Type             X           Y           Z
 ---------------------------------------------------------------------
      1          6           0        2.287930   -1.067656    0.246986
      2          6           0        1.297592   -0.128022   -0.458379
      3          7           0       -0.036827   -0.814032   -0.403043
      4          6           0        0.129051   -2.097084    0.305930
      5          6           0        1.609660   -2.441541    0.121404
      6          6           0       -1.031705    0.114212    0.165849
      7          6           0       -0.428913    1.498144   -0.094094
      8          6           0        1.064755    1.261809    0.151699
      9          1           0        3.288148   -1.034217   -0.195378
     10          1           0        2.377918   -0.793276    1.305548
     11          1           0        1.594580    0.007431   -1.509684
     12          1           0       -0.537904   -2.864054   -0.102397
     13          1           0       -0.107075   -1.994689    1.378907
     14          1           0        1.964110   -3.169143    0.858111
     15          1           0        1.779247   -2.861764   -0.877627
     16          1           0       -1.115193   -0.015524    1.260133
     17          1           0       -0.573812    1.780047   -1.149698
     18          1           0        1.232522    1.238400    1.234495
     19          8           0        1.915253    2.293982   -0.340997
     20          1           0        1.803703    2.319362   -1.307743
     21          8           0       -1.021044    2.473209    0.758343
     22          1           0       -0.597386    3.322249    0.546137
     23          6           0       -2.424631   -0.040792   -0.423379
     24          1           0       -3.056622    0.787886   -0.072101
     25          1           0       -2.368033    0.013157   -1.519667
     26          8           0       -2.970187   -1.297998   -0.004683
     27          1           0       -3.841033   -1.385599   -0.425129
 ---------------------------------------------------------------------
 Rotational constants (GHZ):      1.0237242      0.9488742      0.5308981
 Standard basis: 6-31+G(d,p) (6D, 7F)
 There are   303 symmetry adapted basis functions of A   symmetry.
 Integral buffers will be    131072 words long.
 Raffenetti 2 integral format.
 Two-electron integral symmetry is turned on.
   303 basis functions,   489 primitive gaussians,   303 cartesian basis functions
    47 alpha electrons       47 beta electrons
       nuclear repulsion energy       794.6429863095 Hartrees.
 NAtoms=   27 NActive=   27 NUniq=   27 SFac= 1.00D+00 NAtFMM=   60 NAOKFM=F Big=F
 ------------------------------------------------------------------------------
 Polarizable Continuum Model (PCM)
 =================================
 Model                : PCM.
 Atomic radii         : UFF (Universal Force Field).
 Polarization charges : Total charges.
 Charge compensation  : None.
 Solution method      : Matrix inversion.
 Cavity type          : Scaled VdW (van der Waals Surface) (Alpha=1.100).
 Cavity algorithm     : GePol (No added spheres)
                        Default sphere list used, NSphG=   27.
                        Lebedev-Laikov grids with approx.  5.0 points / Ang**2.
                        Smoothing algorithm: Karplus/York (Gamma=1.0000).
                        Polarization charges: spherical gaussians, with
                                              point-specific exponents (IZeta= 3).
                        Self-potential: point-specific (ISelfS= 7).
                        Self-field    : sphere-specific E.n sum rule (ISelfD= 2).
 Solvent              : Water, Eps=  78.355300 Eps(inf)=   1.777849
 ------------------------------------------------------------------------------
 One-electron integrals computed using PRISM.
 NBasis=   303 RedAO= T  NBF=   303
 NBsUse=   303 1.00D-06 NBFU=   303
 Harris functional with IExCor=  908 diagonalized for initial guess.
 ExpMin= 4.38D-02 ExpMax= 5.48D+03 ExpMxC= 8.25D+02 IAcc=2 IRadAn=         4 AccDes= 0.00D+00
 HarFok:  IExCor=  908 AccDes= 0.00D+00 IRadAn=         4 IDoV= 1
 ScaDFX=  1.000000  1.000000  1.000000  1.000000
 FoFCou: FMM=F IPFlag=           0 FMFlag=      100000 FMFlg1=           0
         NFxFlg=           0 DoJE=T BraDBF=F KetDBF=T FulRan=T
         Omega=  0.000000  0.000000  1.000000  0.000000  0.000000 ICntrl=     500 IOpCl=  0
         NMat0=    1 NMatS0=    1 NMatT0=    0 NMatD0=    1 NMtDS0=    0 NMtDT0=    0
         I1Cent=           4 NGrid=           0.
 Petite list used in FoFCou.
 Initial guess orbital symmetries:
       Occupied  (A) (A) (A) (A) (A) (A) (A) (A) (A) (A) (A) (A)
                 (A) (A) (A) (A) (A) (A) (A) (A) (A) (A) (A) (A)
                 (A) (A) (A) (A) (A) (A) (A) (A) (A) (A) (A) (A)
                 (A) (A) (A) (A) (A) (A) (A) (A) (A) (A) (A)
       Virtual   (A) (A) (A) (A) (A) (A) (A) (A) (A) (A) (A) (A)
                 (A) (A) (A) (A) (A) (A) (A) (A) (A) (A) (A) (A)
                 (A) (A) (A) (A) (A) (A) (A) (A) (A) (A) (A) (A)
                 (A) (A) (A) (A) (A) (A) (A) (A) (A) (A) (A) (A)
                 (A) (A) (A) (A) (A) (A) (A) (A) (A) (A) (A) (A)
                 (A) (A) (A) (A) (A) (A) (A) (A) (A) (A) (A) (A)
                 (A) (A) (A) (A) (A) (A) (A) (A) (A) (A) (A) (A)
                 (A) (A) (A) (A) (A) (A) (A) (A) (A) (A) (A) (A)
                 (A) (A) (A) (A) (A) (A) (A) (A) (A) (A) (A) (A)
                 (A) (A) (A) (A) (A) (A) (A) (A) (A) (A) (A) (A)
                 (A) (A) (A) (A) (A) (A) (A) (A) (A) (A) (A) (A)
                 (A) (A) (A) (A) (A) (A) (A) (A) (A) (A) (A) (A)
                 (A) (A) (A) (A) (A) (A) (A) (A) (A) (A) (A) (A)
                 (A) (A) (A) (A) (A) (A) (A) (A) (A) (A) (A) (A)
                 (A) (A) (A) (A) (A) (A) (A) (A) (A) (A) (A) (A)
                 (A) (A) (A) (A) (A) (A) (A) (A) (A) (A) (A) (A)
                 (A) (A) (A) (A) (A) (A) (A) (A) (A) (A) (A) (A)
                 (A) (A) (A) (A) (A) (A) (A) (A) (A) (A) (A) (A)
                 (A) (A) (A) (A) (A) (A) (A) (A) (A) (A) (A) (A)
                 (A) (A) (A) (A) (A) (A) (A) (A) (A) (A) (A) (A)
                 (A) (A) (A) (A) (A) (A) (A) (A) (A) (A) (A) (A)
                 (A) (A) (A) (A)
 The electronic state of the initial guess is 1-A.
 Requested convergence on RMS density matrix=1.00D-08 within 128 cycles.
 Requested convergence on MAX density matrix=1.00D-06.
 Requested convergence on             energy=1.00D-06.
 No special actions if energy rises.
 Error on total polarization charges =  0.01439
 SCF Done:  E(RmPW1PW91) =  -594.197925133     A.U. after   13 cycles
             Convg  =    0.6256D-08             -V/T =  2.0094
 Range of M.O.s used for correlation:     1   303
 NBasis=   303 NAE=    47 NBE=    47 NFC=     0 NFV=     0
 NROrb=    303 NOA=    47 NOB=    47 NVA=   256 NVB=   256

 **** Warning!!: The largest alpha MO coefficient is  0.74924856D+02

 NEqPCM:  Using equilibrium solvation (IEInf=0, Eps=  78.3553, EpsInf=   1.7778)
          Differentiating once with respect to magnetic field using GIAOs.
          Electric field/nuclear overlap derivatives assumed to be zero.
 FoFCou: FMM=F IPFlag=           0 FMFlag=    10101102 FMFlg1=           0
         NFxFlg=    40000000 DoJE=F BraDBF=F KetDBF=T FulRan=T
         Omega=  0.000000  0.000000  1.000000  0.000000  0.000000 ICntrl=    6100 IOpCl=  0
         NMat0=    1 NMatS0=    1 NMatT0=    0 NMatD0=    1 NMtDS0=    0 NMtDT0=    0
         I1Cent=           7 NGrid=        1858.
 Symmetry not used in FoFCou.
          There are     3 degrees of freedom in the 1st order CPHF.  IDoFFX=0.
      3 vectors produced by pass  0 Test12= 4.01D-13 3.33D-08 XBig12= 3.88D+01 1.16D+00.
 AX will form     3 AO Fock derivatives at one time.
      3 vectors produced by pass  1 Test12= 4.01D-13 3.33D-08 XBig12= 1.04D-01 4.68D-02.
      3 vectors produced by pass  2 Test12= 4.01D-13 3.33D-08 XBig12= 2.22D-04 3.04D-03.
      3 vectors produced by pass  3 Test12= 4.01D-13 3.33D-08 XBig12= 1.10D-06 1.95D-04.
      3 vectors produced by pass  4 Test12= 4.01D-13 3.33D-08 XBig12= 3.52D-09 9.35D-06.
      3 vectors produced by pass  5 Test12= 4.01D-13 3.33D-08 XBig12= 1.02D-11 4.83D-07.
 Inverted reduced A of dimension    18 with in-core refinement.
 Calculating GIAO nuclear magnetic shielding tensors.
 SCF GIAO Magnetic shielding tensor (ppm):
      1  C    Isotropic =   162.5080   Anisotropy =    24.7496
   XX=   160.1492   YX=    -9.5574   ZX=     8.7838
   XY=     0.0889   YY=   174.6649   ZY=    -6.0576
   XZ=    13.9546   YZ=    -3.8972   ZZ=   152.7100
   Eigenvalues:   144.4122   164.1041   179.0078
      2  C    Isotropic =   126.1485   Anisotropy =    53.9271
   XX=   141.3903   YX=    16.4893   ZX=    -0.2686
   XY=    24.9871   YY=   141.2031   ZY=    -2.9344
   XZ=    -2.5457   YZ=    -0.1137   ZZ=    95.8521
   Eigenvalues:    95.7869   120.5586   162.0999
      3  N    Isotropic =   193.7756   Anisotropy =    92.4501
   XX=   246.4329   YX=   -15.2363   ZX=    -7.6478
   XY=   -25.4931   YY=   208.0339   ZY=    -6.4637
   XZ=    -7.7251   YZ=    -4.4972   ZZ=   126.8601
   Eigenvalues:   125.7874   200.1304   255.4091
      4  C    Isotropic =   137.0001   Anisotropy =    56.5943
   XX=   129.3494   YX=   -10.6893   ZX=     2.4850
   XY=   -20.0100   YY=   158.6026   ZY=   -22.8089
   XZ=    -3.8550   YZ=   -25.1952   ZZ=   123.0482
   Eigenvalues:   107.9144   128.3561   174.7296
      5  C    Isotropic =   164.3125   Anisotropy =    23.1103
   XX=   179.6564   YX=    -0.1493   ZX=     2.7460
   XY=    -0.4158   YY=   178.1098   ZY=   -10.3373
   XZ=    -3.0684   YZ=     1.1169   ZZ=   135.1713
   Eigenvalues:   134.6811   178.5370   179.7194
      6  C    Isotropic =   125.2476   Anisotropy =    40.6708
   XX=   120.9052   YX=   -13.9495   ZX=    -5.6932
   XY=   -18.2793   YY=   139.0673   ZY=    12.4236
   XZ=   -15.4550   YZ=     2.5475   ZZ=   115.7702
   Eigenvalues:   106.5937   116.7876   152.3614
      7  C    Isotropic =   113.4680   Anisotropy =    37.5902
   XX=   126.7827   YX=    -8.5807   ZX=   -10.6065
   XY=   -10.4567   YY=   122.3131   ZY=    23.8208
   XZ=    -3.2144   YZ=     3.2853   ZZ=    91.3083
   Eigenvalues:    85.9606   115.9153   138.5281
      8  C    Isotropic =   110.3049   Anisotropy =    18.3325
   XX=   120.0889   YX=     1.9845   ZX=   -10.2166
   XY=    -0.5008   YY=   116.9322   ZY=    -7.6051
   XZ=    -4.6448   YZ=     0.7946   ZZ=    93.8935
   Eigenvalues:    91.5518   116.8363   122.5265
      9  H    Isotropic =    29.5151   Anisotropy =     9.7056
   XX=    35.4998   YX=    -0.4441   ZX=    -2.1318
   XY=     0.1973   YY=    27.5161   ZY=    -0.4105
   XZ=    -2.3732   YZ=    -0.1697   ZZ=    25.5295
   Eigenvalues:    25.0061    27.5538    35.9855
     10  H    Isotropic =    30.0295   Anisotropy =     8.1908
   XX=    28.0405   YX=     0.1009   ZX=     4.2851
   XY=    -0.3691   YY=    29.1965   ZY=     1.2512
   XZ=     4.0733   YZ=     1.6192   ZZ=    32.8516
   Eigenvalues:    25.4319    29.1667    35.4901
     11  H    Isotropic =    28.4212   Anisotropy =     6.9887
   XX=    28.9813   YX=     1.3619   ZX=    -3.2007
   XY=     0.8342   YY=    26.4513   ZY=    -1.9132
   XZ=    -2.5091   YZ=    -2.2097   ZZ=    29.8311
   Eigenvalues:    25.4465    26.7368    33.0804
     12  H    Isotropic =    28.1795   Anisotropy =     8.3089
   XX=    29.1561   YX=     2.2427   ZX=     1.3635
   XY=     2.7464   YY=    32.2189   ZY=     0.7026
   XZ=     1.5595   YZ=     0.0419   ZZ=    23.1634
   Eigenvalues:    22.8213    27.9983    33.7188
     13  H    Isotropic =    28.9828   Anisotropy =     7.5347
   XX=    27.8889   YX=    -0.3624   ZX=    -1.4099
   XY=    -0.3503   YY=    28.0879   ZY=    -4.6762
   XZ=    -2.5146   YZ=    -3.0844   ZZ=    30.9716
   Eigenvalues:    24.7144    28.2280    34.0059
     14  H    Isotropic =    29.4997   Anisotropy =    11.4724
   XX=    27.9904   YX=    -2.9739   ZX=     2.1686
   XY=    -3.4270   YY=    33.2978   ZY=    -4.6927
   XZ=     2.0839   YZ=    -3.9792   ZZ=    27.2110
   Eigenvalues:    24.8615    26.4897    37.1480
     15  H    Isotropic =    29.5593   Anisotropy =    10.5168
   XX=    27.9146   YX=    -1.5582   ZX=    -2.0277
   XY=    -1.6763   YY=    30.9919   ZY=     5.1097
   XZ=    -2.0686   YZ=     5.6692   ZZ=    29.7714
   Eigenvalues:    24.8746    27.2329    36.5705
     16  H    Isotropic =    28.7148   Anisotropy =     4.4154
   XX=    29.8380   YX=    -0.4063   ZX=    -1.8789
   XY=    -0.3763   YY=    27.1139   ZY=     2.3549
   XZ=    -1.5836   YZ=     0.7248   ZZ=    29.1924
   Eigenvalues:    26.2188    28.2671    31.6584
     17  H    Isotropic =    27.9270   Anisotropy =     1.5722
   XX=    26.5444   YX=    -1.5245   ZX=    -0.2441
   XY=    -0.1915   YY=    28.4520   ZY=     0.9977
   XZ=     0.1697   YZ=    -0.6148   ZZ=    28.7845
   Eigenvalues:    26.2148    28.5910    28.9751
     18  H    Isotropic =    27.9875   Anisotropy =     2.4540
   XX=    26.8199   YX=     1.2677   ZX=     0.1039
   XY=     1.0108   YY=    29.1439   ZY=    -0.7661
   XZ=     0.6758   YZ=     0.1259   ZZ=    27.9987
   Eigenvalues:    26.2233    28.1157    29.6234
     19  O    Isotropic =   293.3466   Anisotropy =    96.7519
   XX=   257.3545   YX=    11.1101   ZX=    14.0449
   XY=    16.1624   YY=   270.3229   ZY=   -12.4679
   XZ=    -8.2993   YZ=   -31.3437   ZZ=   352.3623
   Eigenvalues:   246.6758   275.5160   357.8478
     20  H    Isotropic =    30.9437   Anisotropy =    16.2522
   XX=    25.3310   YX=     3.4397   ZX=    -1.1511
   XY=     2.5657   YY=    26.8643   ZY=    -4.3017
   XZ=    -0.7247   YZ=    -3.2673   ZZ=    40.6358
   Eigenvalues:    22.8404    28.2121    41.7785
     21  O    Isotropic =   297.0680   Anisotropy =    42.7561
   XX=   272.3314   YX=    15.0750   ZX=    12.6598
   XY=     4.3155   YY=   312.1759   ZY=     6.1694
   XZ=   -13.7635   YZ=    23.6604   ZZ=   306.6968
   Eigenvalues:   269.6317   296.0003   325.5721
     22  H    Isotropic =    29.3218   Anisotropy =    18.7522
   XX=    25.3587   YX=     3.0573   ZX=    -3.9998
   XY=     4.2206   YY=    40.9506   ZY=    -0.4848
   XZ=    -2.3378   YZ=    -0.4277   ZZ=    21.6562
   Eigenvalues:    19.7356    26.4066    41.8233
     23  C    Isotropic =   125.6768   Anisotropy =    48.2034
   XX=   128.6580   YX=    18.4561   ZX=    -0.4256
   XY=    23.6896   YY=   137.5683   ZY=   -14.6043
   XZ=    -4.3006   YZ=   -12.6176   ZZ=   110.8039
   Eigenvalues:   102.8169   116.4010   157.8124
     24  H    Isotropic =    27.5181   Anisotropy =     5.1090
   XX=    30.0447   YX=     0.3053   ZX=     0.1978
   XY=    -1.3812   YY=    30.5811   ZY=     0.6717
   XZ=    -0.7940   YZ=    -0.3346   ZZ=    21.9284
   Eigenvalues:    21.9149    29.7153    30.9240
     25  H    Isotropic =    27.9799   Anisotropy =     5.0154
   XX=    27.0648   YX=     1.7414   ZX=     1.2673
   XY=     2.4976   YY=    27.6392   ZY=    -3.8760
   XZ=     2.0178   YZ=    -1.6700   ZZ=    29.2356
   Eigenvalues:    23.5223    29.0938    31.3235
     26  O    Isotropic =   312.4881   Anisotropy =    90.2489
   XX=   353.8933   YX=    34.6076   ZX=    24.3615
   XY=    13.8960   YY=   284.3812   ZY=    -4.0178
   XZ=    35.1838   YZ=     4.3047   ZZ=   299.1899
   Eigenvalues:   272.3930   292.4173   372.6540
     27  H    Isotropic =    30.2939   Anisotropy =    21.6137
   XX=    40.5898   YX=     4.6529   ZX=     7.8011
   XY=     5.9886   YY=    25.9354   ZY=    -0.1788
   XZ=     7.1254   YZ=    -1.1432   ZZ=    24.3565
   Eigenvalues:    20.1133    26.0654    44.7031
 End of Minotr Frequency-dependent properties file   721 does not exist.
 End of Minotr Frequency-dependent properties file   722 does not exist.

 **********************************************************************

            Population analysis using the SCF density.

 **********************************************************************

 Orbital symmetries:
       Occupied  (A) (A) (A) (A) (A) (A) (A) (A) (A) (A) (A) (A)
                 (A) (A) (A) (A) (A) (A) (A) (A) (A) (A) (A) (A)
                 (A) (A) (A) (A) (A) (A) (A) (A) (A) (A) (A) (A)
                 (A) (A) (A) (A) (A) (A) (A) (A) (A) (A) (A)
       Virtual   (A) (A) (A) (A) (A) (A) (A) (A) (A) (A) (A) (A)
                 (A) (A) (A) (A) (A) (A) (A) (A) (A) (A) (A) (A)
                 (A) (A) (A) (A) (A) (A) (A) (A) (A) (A) (A) (A)
                 (A) (A) (A) (A) (A) (A) (A) (A) (A) (A) (A) (A)
                 (A) (A) (A) (A) (A) (A) (A) (A) (A) (A) (A) (A)
                 (A) (A) (A) (A) (A) (A) (A) (A) (A) (A) (A) (A)
                 (A) (A) (A) (A) (A) (A) (A) (A) (A) (A) (A) (A)
                 (A) (A) (A) (A) (A) (A) (A) (A) (A) (A) (A) (A)
                 (A) (A) (A) (A) (A) (A) (A) (A) (A) (A) (A) (A)
                 (A) (A) (A) (A) (A) (A) (A) (A) (A) (A) (A) (A)
                 (A) (A) (A) (A) (A) (A) (A) (A) (A) (A) (A) (A)
                 (A) (A) (A) (A) (A) (A) (A) (A) (A) (A) (A) (A)
                 (A) (A) (A) (A) (A) (A) (A) (A) (A) (A) (A) (A)
                 (A) (A) (A) (A) (A) (A) (A) (A) (A) (A) (A) (A)
                 (A) (A) (A) (A) (A) (A) (A) (A) (A) (A) (A) (A)
                 (A) (A) (A) (A) (A) (A) (A) (A) (A) (A) (A) (A)
                 (A) (A) (A) (A) (A) (A) (A) (A) (A) (A) (A) (A)
                 (A) (A) (A) (A) (A) (A) (A) (A) (A) (A) (A) (A)
                 (A) (A) (A) (A) (A) (A) (A) (A) (A) (A) (A) (A)
                 (A) (A) (A) (A) (A) (A) (A) (A) (A) (A) (A) (A)
                 (A) (A) (A) (A) (A) (A) (A) (A) (A) (A) (A) (A)
                 (A) (A) (A) (A)
 The electronic state is 1-A.
 Alpha  occ. eigenvalues --  -19.26344 -19.26218 -19.25383 -14.41194 -10.30789
 Alpha  occ. eigenvalues --  -10.30364 -10.29371 -10.28256 -10.27927 -10.26628
 Alpha  occ. eigenvalues --  -10.24663 -10.24554  -1.07580  -1.05837  -1.05458
 Alpha  occ. eigenvalues --   -0.96625  -0.83273  -0.79237  -0.75491  -0.71535
 Alpha  occ. eigenvalues --   -0.66245  -0.62303  -0.60480  -0.57943  -0.55807
 Alpha  occ. eigenvalues --   -0.53463  -0.53033  -0.49970  -0.48707  -0.46919
 Alpha  occ. eigenvalues --   -0.45556  -0.45185  -0.43738  -0.42747  -0.40478
 Alpha  occ. eigenvalues --   -0.39154  -0.38278  -0.37442  -0.36680  -0.35727
 Alpha  occ. eigenvalues --   -0.35146  -0.34466  -0.33823  -0.32330  -0.29581
 Alpha  occ. eigenvalues --   -0.28147  -0.22926
 Alpha virt. eigenvalues --    0.00747   0.01352   0.01877   0.02072   0.03526
 Alpha virt. eigenvalues --    0.04186   0.04647   0.04896   0.05453   0.06843
 Alpha virt. eigenvalues --    0.07702   0.08002   0.08701   0.09228   0.09421
 Alpha virt. eigenvalues --    0.10296   0.11157   0.12055   0.12434   0.12494
 Alpha virt. eigenvalues --    0.13188   0.13980   0.14247   0.14606   0.15322
 Alpha virt. eigenvalues --    0.15567   0.16464   0.17465   0.18406   0.18436
 Alpha virt. eigenvalues --    0.18909   0.19379   0.19454   0.20634   0.20966
 Alpha virt. eigenvalues --    0.21362   0.21900   0.22955   0.23267   0.23631
 Alpha virt. eigenvalues --    0.24824   0.25042   0.25085   0.26051   0.26452
 Alpha virt. eigenvalues --    0.26714   0.26813   0.27241   0.27928   0.28473
 Alpha virt. eigenvalues --    0.29742   0.30154   0.30655   0.31268   0.31767
 Alpha virt. eigenvalues --    0.32961   0.33453   0.33825   0.34288   0.34714
 Alpha virt. eigenvalues --    0.35538   0.35971   0.36754   0.37216   0.37901
 Alpha virt. eigenvalues --    0.38563   0.38915   0.39587   0.40255   0.40981
 Alpha virt. eigenvalues --    0.41442   0.41878   0.44331   0.45172   0.45748
 Alpha virt. eigenvalues --    0.46448   0.63064   0.65102   0.66785   0.68024
 Alpha virt. eigenvalues --    0.70204   0.70894   0.71321   0.72269   0.74544
 Alpha virt. eigenvalues --    0.75332   0.77103   0.79291   0.80675   0.80876
 Alpha virt. eigenvalues --    0.83245   0.85238   0.85809   0.86891   0.87751
 Alpha virt. eigenvalues --    0.88651   0.90404   0.92425   0.95474   0.97034
 Alpha virt. eigenvalues --    0.97905   0.99696   1.02154   1.04390   1.04724
 Alpha virt. eigenvalues --    1.05884   1.07039   1.07728   1.08740   1.10120
 Alpha virt. eigenvalues --    1.12051   1.12727   1.13243   1.14789   1.15322
 Alpha virt. eigenvalues --    1.18549   1.19561   1.20543   1.22824   1.24899
 Alpha virt. eigenvalues --    1.25830   1.27484   1.29082   1.30576   1.31032
 Alpha virt. eigenvalues --    1.32845   1.35805   1.36477   1.38092   1.41270
 Alpha virt. eigenvalues --    1.44040   1.45393   1.49281   1.50682   1.52538
 Alpha virt. eigenvalues --    1.53915   1.56005   1.57592   1.59770   1.60365
 Alpha virt. eigenvalues --    1.61046   1.62595   1.63492   1.64900   1.69534
 Alpha virt. eigenvalues --    1.71463   1.74052   1.77015   1.78624   1.80354
 Alpha virt. eigenvalues --    1.82246   1.82638   1.84243   1.86321   1.87575
 Alpha virt. eigenvalues --    1.88651   1.89299   1.92520   1.93911   1.96810
 Alpha virt. eigenvalues --    1.97635   1.98756   2.00523   2.00970   2.03058
 Alpha virt. eigenvalues --    2.04063   2.04291   2.08377   2.09284   2.10518
 Alpha virt. eigenvalues --    2.12539   2.13088   2.14762   2.17609   2.18256
 Alpha virt. eigenvalues --    2.19570   2.23300   2.24112   2.25814   2.29965
 Alpha virt. eigenvalues --    2.30008   2.32849   2.34408   2.36781   2.37879
 Alpha virt. eigenvalues --    2.39576   2.43068   2.44152   2.45084   2.46585
 Alpha virt. eigenvalues --    2.48887   2.49760   2.51140   2.51901   2.54783
 Alpha virt. eigenvalues --    2.55790   2.57633   2.61301   2.62200   2.64905
 Alpha virt. eigenvalues --    2.65925   2.66678   2.67454   2.68177   2.68289
 Alpha virt. eigenvalues --    2.70273   2.72997   2.74262   2.76638   2.77984
 Alpha virt. eigenvalues --    2.78974   2.79532   2.81564   2.84647   2.85479
 Alpha virt. eigenvalues --    2.87983   2.89075   2.91291   2.92672   2.94419
 Alpha virt. eigenvalues --    2.96312   2.99631   3.00872   3.01390   3.02789
 Alpha virt. eigenvalues --    3.05136   3.10787   3.12769   3.16862   3.31634
 Alpha virt. eigenvalues --    3.34860   3.35693   3.36408   3.37847   3.42988
 Alpha virt. eigenvalues --    3.48544   3.51808   3.53277   3.54228   3.54531
 Alpha virt. eigenvalues --    3.56364   3.57257   3.58370   3.61836   4.34299
 Alpha virt. eigenvalues --    4.35905   4.38526   4.42937   4.47016   4.48289
 Alpha virt. eigenvalues --    4.57419   4.66011   4.76405   4.78831   4.85455
 Alpha virt. eigenvalues --    4.94407
          Condensed to atoms (all electrons):
              1          2          3          4          5          6
     1  C    6.209182  -1.457553   0.231265  -0.273559   0.163519   0.150083
     2  C   -1.457553  10.539287  -0.736557  -0.306638   0.378094  -0.406316
     3  N    0.231265  -0.736557   7.515459   0.234594  -0.187833  -0.152614
     4  C   -0.273559  -0.306638   0.234594   5.637744   0.135974  -0.247729
     5  C    0.163519   0.378094  -0.187833   0.135974   5.574603  -0.023098
     6  C    0.150083  -0.406316  -0.152614  -0.247729  -0.023098   8.795131
     7  C   -0.166842   0.867048  -0.198537  -0.010511  -0.032583  -1.001415
     8  C    0.451060  -2.148264   0.226525   0.219107  -0.233212  -0.036385
     9  H    0.398389  -0.080182   0.014738   0.032848  -0.031385   0.001245
    10  H    0.503324  -0.224809   0.031705   0.020218  -0.072037   0.018158
    11  H    0.107217   0.058533   0.013692   0.011885  -0.020261   0.043696
    12  H    0.044102  -0.021797  -0.041577   0.377731  -0.026875   0.008447
    13  H   -0.012807   0.032205  -0.106172   0.423995  -0.037631  -0.004063
    14  H   -0.067515   0.047844   0.004872  -0.021520   0.381336  -0.006029
    15  H   -0.022126  -0.045412   0.013434  -0.032549   0.390162   0.008710
    16  H   -0.020746   0.073506  -0.075158   0.026015   0.006840   0.196570
    17  H    0.009910  -0.031321   0.049703   0.010912   0.000502  -0.181852
    18  H    0.055707  -0.268921   0.049808   0.009729  -0.002044   0.026328
    19  O   -0.013458  -0.005054   0.017994  -0.009921   0.006542  -0.017007
    20  H    0.020990  -0.129963   0.009214   0.001177  -0.000498   0.012769
    21  O   -0.004318   0.057006   0.009130  -0.001099   0.004093  -0.114015
    22  H   -0.000535   0.005206  -0.004130  -0.000400  -0.000080   0.049694
    23  C    0.077464  -0.251533   0.194710  -0.009202  -0.010812  -0.868779
    24  H    0.000315   0.005396   0.002181  -0.013391  -0.001006  -0.164838
    25  H   -0.001329   0.013954   0.013294   0.015244   0.003099  -0.145755
    26  O   -0.000825   0.007069  -0.016431  -0.014310  -0.006627  -0.007864
    27  H   -0.000003  -0.002125  -0.000371   0.000755  -0.000156   0.049182
              7          8          9         10         11         12
     1  C   -0.166842   0.451060   0.398389   0.503324   0.107217   0.044102
     2  C    0.867048  -2.148264  -0.080182  -0.224809   0.058533  -0.021797
     3  N   -0.198537   0.226525   0.014738   0.031705   0.013692  -0.041577
     4  C   -0.010511   0.219107   0.032848   0.020218   0.011885   0.377731
     5  C   -0.032583  -0.233212  -0.031385  -0.072037  -0.020261  -0.026875
     6  C   -1.001415  -0.036385   0.001245   0.018158   0.043696   0.008447
     7  C    6.566665  -0.513929  -0.003219  -0.009642  -0.059764  -0.004017
     8  C   -0.513929   7.399407   0.007910   0.045680   0.074157   0.002719
     9  H   -0.003219   0.007910   0.513041  -0.024015  -0.003460  -0.000097
    10  H   -0.009642   0.045680  -0.024015   0.530811   0.004367  -0.000029
    11  H   -0.059764   0.074157  -0.003460   0.004367   0.585540   0.000247
    12  H   -0.004017   0.002719  -0.000097  -0.000029   0.000247   0.542794
    13  H    0.014483  -0.002239  -0.000159   0.000939  -0.000579  -0.041694
    14  H    0.000706   0.002158   0.000336  -0.005280  -0.000120   0.000804
    15  H   -0.001595   0.016394  -0.004918   0.004182   0.000894  -0.005990
    16  H    0.063643  -0.060279  -0.000007  -0.000197  -0.000657  -0.001056
    17  H    0.409060  -0.030903   0.000005  -0.000008   0.001057   0.000012
    18  H   -0.134767   0.570795   0.000326   0.003817   0.004610   0.000014
    19  O   -0.036536   0.190631   0.000663   0.001578   0.004475   0.000048
    20  H   -0.076950   0.145748   0.000060   0.000045   0.005327   0.000000
    21  O    0.259705  -0.146821   0.000016  -0.000274  -0.000580   0.000026
    22  H    0.007496  -0.039882   0.000000   0.000001  -0.000002   0.000000
    23  C    0.065046   0.010018   0.000286   0.001403   0.013559   0.000752
    24  H    0.073070  -0.005449   0.000000   0.000000  -0.000009  -0.000037
    25  H   -0.007092  -0.015143   0.000000   0.000000  -0.000039   0.000040
    26  O    0.026185  -0.007117  -0.000001  -0.000011  -0.000190  -0.002326
    27  H   -0.006734   0.002680   0.000000   0.000000   0.000000   0.000059
             13         14         15         16         17         18
     1  C   -0.012807  -0.067515  -0.022126  -0.020746   0.009910   0.055707
     2  C    0.032205   0.047844  -0.045412   0.073506  -0.031321  -0.268921
     3  N   -0.106172   0.004872   0.013434  -0.075158   0.049703   0.049808
     4  C    0.423995  -0.021520  -0.032549   0.026015   0.010912   0.009729
     5  C   -0.037631   0.381336   0.390162   0.006840   0.000502  -0.002044
     6  C   -0.004063  -0.006029   0.008710   0.196570  -0.181852   0.026328
     7  C    0.014483   0.000706  -0.001595   0.063643   0.409060  -0.134767
     8  C   -0.002239   0.002158   0.016394  -0.060279  -0.030903   0.570795
     9  H   -0.000159   0.000336  -0.004918  -0.000007   0.000005   0.000326
    10  H    0.000939  -0.005280   0.004182  -0.000197  -0.000008   0.003817
    11  H   -0.000579  -0.000120   0.000894  -0.000657   0.001057   0.004610
    12  H   -0.041694   0.000804  -0.005990  -0.001056   0.000012   0.000014
    13  H    0.579890  -0.004442   0.003955   0.012282  -0.000029  -0.000304
    14  H   -0.004442   0.514741  -0.024382  -0.000008   0.000000  -0.000023
    15  H    0.003955  -0.024382   0.521702  -0.000015  -0.000003  -0.000006
    16  H    0.012282  -0.000008  -0.000015   0.574583   0.004085   0.000535
    17  H   -0.000029   0.000000  -0.000003   0.004085   0.565020   0.004515
    18  H   -0.000304  -0.000023  -0.000006   0.000535   0.004515   0.534546
    19  O   -0.000231   0.000000   0.000010  -0.001117  -0.008409  -0.056872
    20  H   -0.000001   0.000000   0.000000  -0.000003   0.004379   0.006934
    21  O   -0.000179  -0.000007  -0.000008   0.001657  -0.042368  -0.003541
    22  H    0.000001   0.000000   0.000000   0.000029  -0.005650  -0.000340
    23  C   -0.006572  -0.000093  -0.000755   0.028170   0.068357   0.017920
    24  H    0.000039   0.000000   0.000000  -0.002366  -0.000093  -0.000013
    25  H    0.000009   0.000000  -0.000001   0.004868   0.002670   0.000000
    26  O    0.000691   0.000000  -0.000049   0.006404   0.000349   0.000035
    27  H    0.000002   0.000000   0.000000  -0.000097  -0.000011   0.000000
             19         20         21         22         23         24
     1  C   -0.013458   0.020990  -0.004318  -0.000535   0.077464   0.000315
     2  C   -0.005054  -0.129963   0.057006   0.005206  -0.251533   0.005396
     3  N    0.017994   0.009214   0.009130  -0.004130   0.194710   0.002181
     4  C   -0.009921   0.001177  -0.001099  -0.000400  -0.009202  -0.013391
     5  C    0.006542  -0.000498   0.004093  -0.000080  -0.010812  -0.001006
     6  C   -0.017007   0.012769  -0.114015   0.049694  -0.868779  -0.164838
     7  C   -0.036536  -0.076950   0.259705   0.007496   0.065046   0.073070
     8  C    0.190631   0.145748  -0.146821  -0.039882   0.010018  -0.005449
     9  H    0.000663   0.000060   0.000016   0.000000   0.000286   0.000000
    10  H    0.001578   0.000045  -0.000274   0.000001   0.001403   0.000000
    11  H    0.004475   0.005327  -0.000580  -0.000002   0.013559  -0.000009
    12  H    0.000048   0.000000   0.000026   0.000000   0.000752  -0.000037
    13  H   -0.000231  -0.000001  -0.000179   0.000001  -0.006572   0.000039
    14  H    0.000000   0.000000  -0.000007   0.000000  -0.000093   0.000000
    15  H    0.000010   0.000000  -0.000008   0.000000  -0.000755   0.000000
    16  H   -0.001117  -0.000003   0.001657   0.000029   0.028170  -0.002366
    17  H   -0.008409   0.004379  -0.042368  -0.005650   0.068357  -0.000093
    18  H   -0.056872   0.006934  -0.003541  -0.000340   0.017920  -0.000013
    19  O    8.205916   0.252319  -0.005505   0.007417  -0.003114  -0.000029
    20  H    0.252319   0.370494  -0.001853   0.000068   0.005813   0.000000
    21  O   -0.005505  -0.001853   8.275117   0.232995   0.026016   0.006460
    22  H    0.007417   0.000068   0.232995   0.371440  -0.013043  -0.000073
    23  C   -0.003114   0.005813   0.026016  -0.013043   5.909605   0.470182
    24  H   -0.000029   0.000000   0.006460  -0.000073   0.470182   0.575716
    25  H   -0.000087   0.000001   0.000267  -0.000024   0.485679  -0.045403
    26  O    0.000008   0.000002  -0.000985   0.000011   0.091132  -0.058201
    27  H    0.000001   0.000000   0.000006   0.000000  -0.035153  -0.004029
             25         26         27
     1  C   -0.001329  -0.000825  -0.000003
     2  C    0.013954   0.007069  -0.002125
     3  N    0.013294  -0.016431  -0.000371
     4  C    0.015244  -0.014310   0.000755
     5  C    0.003099  -0.006627  -0.000156
     6  C   -0.145755  -0.007864   0.049182
     7  C   -0.007092   0.026185  -0.006734
     8  C   -0.015143  -0.007117   0.002680
     9  H    0.000000  -0.000001   0.000000
    10  H    0.000000  -0.000011   0.000000
    11  H   -0.000039  -0.000190   0.000000
    12  H    0.000040  -0.002326   0.000059
    13  H    0.000009   0.000691   0.000002
    14  H    0.000000   0.000000   0.000000
    15  H   -0.000001  -0.000049   0.000000
    16  H    0.004868   0.006404  -0.000097
    17  H    0.002670   0.000349  -0.000011
    18  H    0.000000   0.000035   0.000000
    19  O   -0.000087   0.000008   0.000001
    20  H    0.000001   0.000002   0.000000
    21  O    0.000267  -0.000985   0.000006
    22  H   -0.000024   0.000011   0.000000
    23  C    0.485679   0.091132  -0.035153
    24  H   -0.045403  -0.058201  -0.004029
    25  H    0.567103  -0.047424  -0.004771
    26  O   -0.047424   8.386214   0.229320
    27  H   -0.004771   0.229320   0.378618
 Mulliken atomic charges:
              1
     1  C   -0.380911
     2  C    0.031298
     3  N   -0.112937
     4  C   -0.217099
     5  C   -0.358625
     6  C    0.017745
     7  C   -0.088972
     8  C   -0.125367
     9  H    0.177579
    10  H    0.170074
    11  H    0.156407
    12  H    0.167703
    13  H    0.148611
    14  H    0.176623
    15  H    0.178368
    16  H    0.162521
    17  H    0.170111
    18  H    0.181212
    19  O   -0.530261
    20  H    0.373927
    21  O   -0.550943
    22  H    0.389801
    23  C   -0.267057
    24  H    0.161580
    25  H    0.160843
    26  O   -0.585059
    27  H    0.392828
 Sum of Mulliken atomic charges =   0.00000
 Mulliken charges with hydrogens summed into heavy atoms:
              1
     1  C   -0.033258
     2  C    0.187705
     3  N   -0.112937
     4  C    0.099215
     5  C   -0.003634
     6  C    0.180266
     7  C    0.081139
     8  C    0.055845
    19  O   -0.156334
    21  O   -0.161142
    23  C    0.055366
    26  O   -0.192231
 Sum of Mulliken charges with hydrogens summed into heavy atoms =   0.00000
 Electronic spatial extent (au):  <R**2>=           2164.8338
 Charge=              0.0000 electrons
 Dipole moment (field-independent basis, Debye):
    X=              0.0822    Y=              0.4332    Z=             -2.6202  Tot=              2.6570
 Quadrupole moment (field-independent basis, Debye-Ang):
   XX=            -69.7459   YY=            -73.0159   ZZ=            -71.4887
   XY=             -4.1517   XZ=              4.0257   YZ=             -6.0178
 Traceless Quadrupole moment (field-independent basis, Debye-Ang):
   XX=              1.6709   YY=             -1.5990   ZZ=             -0.0719
   XY=             -4.1517   XZ=              4.0257   YZ=             -6.0178
 Octapole moment (field-independent basis, Debye-Ang**2):
  XXX=            -59.2348  YYY=             24.0728  ZZZ=             -6.0656  XYY=             -3.5138
  XXY=            -20.0710  XXZ=            -24.3224  XZZ=              6.3201  YZZ=              9.3834
  YYZ=            -12.0322  XYZ=             -6.3580
 Hexadecapole moment (field-independent basis, Debye-Ang**3):
 XXXX=          -1134.1240 YYYY=          -1140.8521 ZZZZ=           -190.8766 XXXY=             40.7943
 XXXZ=             53.2432 YYYX=            -16.9233 YYYZ=            -16.8864 ZZZX=             -4.9593
 ZZZY=            -16.7608 XXYY=           -466.3318 XXZZ=           -240.6304 YYZZ=           -227.3395
 XXYZ=              6.7551 YYXZ=              2.3522 ZZXY=             22.2436
 N-N= 7.946429863095D+02 E-N=-2.975433802933D+03  KE= 5.886632371166D+02
 1\1\GINC-COMPUTE-3-0\SP\RmPW1PW91\6-31+G(d,p)\C8H15N1O3\MAMICHETTI.IQU
 IR\17-May-2024\0\\# mpw1pw91/6-31+G** nmr scrf=(pcm,solvent=water)\\co
 mment\\0,1\C,0,-2.287931,-1.067655,-0.246986\C,0,-1.297592,-0.128021,0
 .458379\N,0,0.036826,-0.814032,0.403043\C,0,-0.129052,-2.097084,-0.305
 93\C,0,-1.609662,-2.44154,-0.121404\C,0,1.031705,0.114211,-0.165849\C,
 0,0.428914,1.498144,0.094094\C,0,-1.064754,1.26181,-0.151699\H,0,-3.28
 8149,-1.034215,0.195378\H,0,-2.377919,-0.793274,-1.305548\H,0,-1.59458
 ,0.007432,1.509684\H,0,0.537902,-2.864054,0.102397\H,0,0.107074,-1.994
 689,-1.378907\H,0,-1.964112,-3.169142,-0.858111\H,0,-1.779249,-2.86176
 3,0.877627\H,0,1.115193,-0.015525,-1.260133\H,0,0.573813,1.780047,1.14
 9698\H,0,-1.232521,1.238401,-1.234495\O,0,-1.915252,2.293983,0.340997\
 H,0,-1.803702,2.319363,1.307743\O,0,1.021045,2.473208,-0.758343\H,0,0.
 597388,3.322249,-0.546137\C,0,2.424631,-0.040793,0.423379\H,0,3.056622
 ,0.787884,0.072101\H,0,2.368033,0.013156,1.519667\O,0,2.970186,-1.298,
 0.004683\H,0,3.841032,-1.385601,0.425129\\Version=AM64L-G09RevC.01\Sta
 te=1-A\HF=-594.1979251\RMSD=6.256e-09\Dipole=-0.0323379,0.1704353,1.03
 08498\Quadrupole=1.2422754,-1.1888245,-0.0534509,3.0866759,2.9929794,4
 .4740759\PG=C01 [X(C8H15N1O3)]\\@


 HE THAT FOLLOWS NATURE IS NEVER LOST.

                             -- BACON
 Job cpu time:  0 days  0 hours  8 minutes 41.3 seconds.
 File lengths (MBytes):  RWF=    115 Int=      0 D2E=      0 Chk=      7 Scr=      1
 Normal termination of Gaussian 09 at Fri May 17 12:46:40 2024.
