 Entering Gaussian System, Link 0=g09
 Input=/home/mamichetti.iquir/Linux/02_Cardona_A1A3_R__R_R_R_029_OptB.gjc
 Output=/home/mamichetti.iquir/Linux/02_Cardona_A1A3_R__R_R_R_029_OptB.log
 Initial command:
 /opt/ohpc/pub/apps/software/Gaussian/09/AMD64.SSE4a-enabled/g09/l1.exe /local/mamichetti.iquir/Gau-714627.inp -scrdir=/local/mamichetti.iquir/
 Entering Link 1 = /opt/ohpc/pub/apps/software/Gaussian/09/AMD64.SSE4a-enabled/g09/l1.exe PID=    714628.
  
 Copyright (c) 1988,1990,1992,1993,1995,1998,2003,2009,2011,
            Gaussian, Inc.  All Rights Reserved.
  
 This is part of the Gaussian(R) 09 program.  It is based on
 the Gaussian(R) 03 system (copyright 2003, Gaussian, Inc.),
 the Gaussian(R) 98 system (copyright 1998, Gaussian, Inc.),
 the Gaussian(R) 94 system (copyright 1995, Gaussian, Inc.),
 the Gaussian 92(TM) system (copyright 1992, Gaussian, Inc.),
 the Gaussian 90(TM) system (copyright 1990, Gaussian, Inc.),
 the Gaussian 88(TM) system (copyright 1988, Gaussian, Inc.),
 the Gaussian 86(TM) system (copyright 1986, Carnegie Mellon
 University), and the Gaussian 82(TM) system (copyright 1983,
 Carnegie Mellon University). Gaussian is a federally registered
 trademark of Gaussian, Inc.
  
 This software contains proprietary and confidential information,
 including trade secrets, belonging to Gaussian, Inc.
  
 This software is provided under written license and may be
 used, copied, transmitted, or stored only in accord with that
 written license.
  
 The following legend is applicable only to US Government
 contracts under FAR:
  
                    RESTRICTED RIGHTS LEGEND
  
 Use, reproduction and disclosure by the US Government is
 subject to restrictions as set forth in subparagraphs (a)
 and (c) of the Commercial Computer Software - Restricted
 Rights clause in FAR 52.227-19.
  
 Gaussian, Inc.
 340 Quinnipiac St., Bldg. 40, Wallingford CT 06492
  
  
 ---------------------------------------------------------------
 Warning -- This program may not be used in any manner that
 competes with the business of Gaussian, Inc. or will provide
 assistance to any competitor of Gaussian, Inc.  The licensee
 of this program is prohibited from giving any competitor of
 Gaussian, Inc. access to this program.  By using this program,
 the user acknowledges that Gaussian, Inc. is engaged in the
 business of creating and licensing software in the field of
 computational chemistry and represents and warrants to the
 licensee that it is not a competitor of Gaussian, Inc. and that
 it will not use this program in any manner prohibited above.
 ---------------------------------------------------------------
  

 Cite this work as:
 Gaussian 09, Revision C.01,
 M. J. Frisch, G. W. Trucks, H. B. Schlegel, G. E. Scuseria, 
 M. A. Robb, J. R. Cheeseman, G. Scalmani, V. Barone, B. Mennucci, 
 G. A. Petersson, H. Nakatsuji, M. Caricato, X. Li, H. P. Hratchian, 
 A. F. Izmaylov, J. Bloino, G. Zheng, J. L. Sonnenberg, M. Hada, 
 M. Ehara, K. Toyota, R. Fukuda, J. Hasegawa, M. Ishida, T. Nakajima, 
 Y. Honda, O. Kitao, H. Nakai, T. Vreven, J. A. Montgomery, Jr., 
 J. E. Peralta, F. Ogliaro, M. Bearpark, J. J. Heyd, E. Brothers, 
 K. N. Kudin, V. N. Staroverov, T. Keith, R. Kobayashi, J. Normand, 
 K. Raghavachari, A. Rendell, J. C. Burant, S. S. Iyengar, J. Tomasi, 
 M. Cossi, N. Rega, J. M. Millam, M. Klene, J. E. Knox, J. B. Cross, 
 V. Bakken, C. Adamo, J. Jaramillo, R. Gomperts, R. E. Stratmann, 
 O. Yazyev, A. J. Austin, R. Cammi, C. Pomelli, J. W. Ochterski, 
 R. L. Martin, K. Morokuma, V. G. Zakrzewski, G. A. Voth, 
 P. Salvador, J. J. Dannenberg, S. Dapprich, A. D. Daniels, 
 O. Farkas, J. B. Foresman, J. V. Ortiz, J. Cioslowski, 
 and D. J. Fox, Gaussian, Inc., Wallingford CT, 2010.
 
 ******************************************
 Gaussian 09:  AM64L-G09RevC.01 23-Sep-2011
                17-May-2024 
 ******************************************
 %nprocshared=4
 Will use up to    4 processors via shared memory.
 ------------------------------------------------
 # mpw1pw91/6-31+G** nmr scrf=(pcm,solvent=water)
 ------------------------------------------------
 1/38=1/1;
 2/12=2,17=6,18=5,40=1/2;
 3/5=1,6=6,7=111,11=2,16=1,25=1,30=1,70=2201,72=1,74=-7/1,2,8,3;
 4//1;
 5/5=2,38=5,53=1/2;
 8/6=1,10=90,11=11/1;
 10/13=100,45=16/2;
 6/7=2,8=2,9=2,10=2,28=1/1;
 99/9=1/99;
 -------
 comment
 -------
 Charge =  0 Multiplicity = 1
 Symbolic Z-Matrix:
 6                     2.3058   -0.38528  -0.37491 
 6                     0.97461   0.1846   -0.96313 
 7                    -0.11845  -0.75922  -0.56768 
 6                     0.5554   -2.03425  -0.2456 
 6                     1.89441  -1.65193   0.40209 
 6                    -0.8649   -0.15778   0.58 
 6                    -0.25416   1.22633   0.84924 
 6                     0.53452   1.55641  -0.43773 
 1                     2.98853  -0.63526  -1.19371 
 1                     2.81539   0.34262   0.26263 
 1                     1.05132   0.2331   -2.05457 
 1                     0.73112  -2.58644  -1.17776 
 1                    -0.08785  -2.65368   0.38507 
 1                     2.63836  -2.45244   0.33808 
 1                     1.74242  -1.41777   1.46139 
 1                    -0.75378  -0.77991   1.47568 
 1                    -1.01856   1.99229   1.03483 
 1                     1.38612   2.20548  -0.21519 
 8                    -0.25751   2.2861   -1.38335 
 1                    -0.90171   1.67535  -1.77823 
 8                     0.61492   1.11243   1.98404 
 1                     1.05515   1.97241   2.09672 
 6                    -2.35536  -0.08642   0.23412 
 1                    -2.93604   0.20943   1.114 
 1                    -2.52745   0.66419  -0.55273 
 8                    -2.84285  -1.3631   -0.17829 
 1                    -2.21221  -1.64838  -0.86608 
 
                          Input orientation:                          
 ---------------------------------------------------------------------
 Center     Atomic      Atomic             Coordinates (Angstroms)
 Number     Number       Type             X           Y           Z
 ---------------------------------------------------------------------
      1          6           0        2.305800   -0.385278   -0.374914
      2          6           0        0.974614    0.184600   -0.963126
      3          7           0       -0.118454   -0.759216   -0.567679
      4          6           0        0.555399   -2.034251   -0.245600
      5          6           0        1.894405   -1.651932    0.402092
      6          6           0       -0.864904   -0.157784    0.580001
      7          6           0       -0.254162    1.226330    0.849236
      8          6           0        0.534521    1.556410   -0.437732
      9          1           0        2.988527   -0.635262   -1.193706
     10          1           0        2.815393    0.342615    0.262633
     11          1           0        1.051320    0.233099   -2.054565
     12          1           0        0.731115   -2.586440   -1.177757
     13          1           0       -0.087845   -2.653681    0.385069
     14          1           0        2.638360   -2.452440    0.338076
     15          1           0        1.742423   -1.417772    1.461385
     16          1           0       -0.753783   -0.779905    1.475678
     17          1           0       -1.018563    1.992291    1.034834
     18          1           0        1.386118    2.205479   -0.215190
     19          8           0       -0.257512    2.286098   -1.383349
     20          1           0       -0.901710    1.675349   -1.778225
     21          8           0        0.614923    1.112429    1.984036
     22          1           0        1.055152    1.972409    2.096717
     23          6           0       -2.355357   -0.086416    0.234117
     24          1           0       -2.936041    0.209429    1.113995
     25          1           0       -2.527452    0.664187   -0.552731
     26          8           0       -2.842853   -1.363095   -0.178290
     27          1           0       -2.212211   -1.648380   -0.866081
 ---------------------------------------------------------------------
                    Distance matrix (angstroms):
                    1          2          3          4          5
     1  C    0.000000
     2  C    1.562949   0.000000
     3  N    2.460487   1.497319   0.000000
     4  C    2.408264   2.369364   1.477676   0.000000
     5  C    1.541881   2.466310   2.406034   1.535777   0.000000
     6  C    3.319184   2.425344   1.495352   2.493994   3.142915
     7  C    3.263316   2.424819   2.443043   3.533475   3.619485
     8  C    2.628978   1.533487   2.409437   3.595858   3.584417
     9  H    1.095002   2.186592   3.171846   2.962463   2.185702
    10  H    1.093608   2.217188   3.242053   3.318940   2.201337
    11  H    2.185712   1.095205   2.136326   2.942646   3.209252
    12  H    2.822996   2.789986   2.105400   1.097591   2.173125
    13  H    3.384193   3.316970   2.120770   1.093252   2.221060
    14  H    2.211811   3.378632   3.359676   2.203244   1.094706
    15  H    2.180695   3.005891   2.830841   2.168610   1.095459
    16  H    3.597425   3.140922   2.139948   2.500028   2.987627
    17  H    4.323380   3.351469   3.308933   4.508870   4.708089
    18  H    2.753788   2.193786   3.343262   4.320455   3.939418
    19  O    3.837155   2.472047   3.155724   4.541003   4.829765
    20  H    4.062461   2.531267   2.829491   4.270040   4.862390
    21  O    3.266012   3.110628   3.248407   3.856996   3.432392
    22  H    3.637550   3.544769   3.992259   4.667925   4.088025
    23  C    4.710268   3.549021   2.469670   3.535066   4.532056
    24  H    5.481553   4.428123   3.421271   4.367236   5.225388
    25  H    4.949073   3.558496   2.798137   4.108512   5.082215
    26  O    5.244370   4.193374   2.817560   3.464549   4.781410
    27  H    4.716895   3.677647   2.294226   2.862439   4.297973
                    6          7          8          9         10
     6  C    0.000000
     7  C    1.536641   0.000000
     8  C    2.435699   1.545076   0.000000
     9  H    4.268835   4.260771   3.375954   0.000000
    10  H    3.727695   3.247649   2.676973   1.762709   0.000000
    11  H    3.281104   3.335094   2.152297   2.290830   2.914336
    12  H    3.396375   4.429073   4.213015   2.983833   3.872764
    13  H    2.621320   3.911214   4.334652   4.003824   4.173916
    14  H    4.194858   4.707581   4.593353   2.402313   2.801672
    15  H    3.026972   3.369325   3.729803   3.035557   2.384792
    16  H    1.096184   2.160331   3.283174   4.599067   3.933262
    17  H    2.203022   1.097931   2.184150   5.284619   4.244637
    18  H    3.359232   2.186837   1.093633   3.405146   2.396123
    19  O    3.193153   2.471347   1.433162   4.371164   3.991131
    20  H    2.987133   2.743080   1.968204   4.562294   4.445012
    21  O    2.403049   1.433894   2.463441   4.334335   2.897915
    22  H    3.244189   1.956309   2.620600   4.622204   3.019692
    23  C    1.531724   2.552782   3.391409   5.558508   5.188597
    24  H    2.170162   2.880392   4.033239   6.414008   5.815630
    25  H    2.173197   2.729352   3.191389   5.703108   5.414261
    26  O    2.437224   3.802927   4.471854   5.963707   5.926180
    27  H    2.475533   3.878173   4.242487   5.308618   5.524026
                   11         12         13         14         15
    11  H    0.000000
    12  H    2.970038   0.000000
    13  H    3.947532   1.765685   0.000000
    14  H    3.931354   2.439936   2.734026   0.000000
    15  H    3.945238   3.058365   2.456788   1.770611   0.000000
    16  H    4.092333   3.536836   2.268025   3.949449   2.576456
    17  H    4.113825   5.377891   4.782623   5.797775   4.408347
    18  H    2.717659   4.931334   5.113151   4.854938   4.008217
    19  O    2.525545   4.976071   5.249524   5.814045   5.080443
    20  H    2.443517   4.603208   4.907415   5.835192   5.201337
    21  O    4.156196   4.867450   4.151405   4.417213   2.818925
    22  H    4.500928   5.622302   5.063288   5.017834   3.517004
    23  C    4.116504   4.215426   3.428593   5.526851   4.480011
    24  H    5.093072   5.149470   4.103773   6.225877   4.965530
    25  H    3.904991   4.644943   4.223671   6.098567   5.159753
    26  O    4.607909   3.907525   3.094035   5.612219   4.869936
    27  H    3.950075   3.104878   2.662506   5.062069   4.594498
                   16         17         18         19         20
    16  H    0.000000
    17  H    2.819490   0.000000
    18  H    4.043603   2.718547   0.000000
    19  O    4.221456   2.552084   2.018072   0.000000
    20  H    4.078975   2.833268   2.821041   0.971562   0.000000
    21  O    2.390128   2.084087   2.574120   3.671229   4.095322
    22  H    3.351592   2.329868   2.347078   3.732606   4.351176
    23  C    2.141831   2.597920   4.410589   3.556118   3.044080
    24  H    2.423189   2.619463   4.942874   4.209964   3.827840
    25  H    3.057081   2.561439   4.219662   2.910867   2.273174
    26  O    2.727624   4.007283   5.533559   4.631713   3.944613
    27  H    2.892248   4.277003   5.312613   4.423633   3.687356
                   21         22         23         24         25
    21  O    0.000000
    22  H    0.972658   0.000000
    23  C    3.649933   4.397682   0.000000
    24  H    3.765863   4.472523   1.094945   0.000000
    25  H    4.063327   4.643928   1.100977   1.775310   0.000000
    26  O    4.770753   5.612102   1.427460   2.037527   2.085559
    27  H    4.872158   5.706483   1.915896   2.809997   2.354895
                   26         27
    26  O    0.000000
    27  H    0.975783   0.000000
 Stoichiometry    C8H15NO3
 Framework group  C1[X(C8H15NO3)]
 Deg. of freedom    75
 Full point group                 C1      NOp   1
 Largest Abelian subgroup         C1      NOp   1
 Largest concise Abelian subgroup C1      NOp   1
                         Standard orientation:                         
 ---------------------------------------------------------------------
 Center     Atomic      Atomic             Coordinates (Angstroms)
 Number     Number       Type             X           Y           Z
 ---------------------------------------------------------------------
      1          6           0        2.305800   -0.385276   -0.374914
      2          6           0        0.974614    0.184601   -0.963126
      3          7           0       -0.118453   -0.759216   -0.567679
      4          6           0        0.555401   -2.034251   -0.245600
      5          6           0        1.894406   -1.651931    0.402092
      6          6           0       -0.864904   -0.157785    0.580001
      7          6           0       -0.254163    1.226330    0.849236
      8          6           0        0.534520    1.556410   -0.437732
      9          1           0        2.988528   -0.635260   -1.193706
     10          1           0        2.815393    0.342617    0.262633
     11          1           0        1.051320    0.233100   -2.054565
     12          1           0        0.731117   -2.586439   -1.177757
     13          1           0       -0.087843   -2.653681    0.385069
     14          1           0        2.638362   -2.452438    0.338076
     15          1           0        1.742424   -1.417771    1.461385
     16          1           0       -0.753782   -0.779905    1.475678
     17          1           0       -1.018564    1.992290    1.034834
     18          1           0        1.386117    2.205480   -0.215190
     19          8           0       -0.257513    2.286098   -1.383349
     20          1           0       -0.901711    1.675348   -1.778225
     21          8           0        0.614922    1.112429    1.984036
     22          1           0        1.055151    1.972410    2.096717
     23          6           0       -2.355357   -0.086418    0.234117
     24          1           0       -2.936041    0.209427    1.113995
     25          1           0       -2.527452    0.664185   -0.552731
     26          8           0       -2.842852   -1.363097   -0.178290
     27          1           0       -2.212210   -1.648381   -0.866081
 ---------------------------------------------------------------------
 Rotational constants (GHZ):      1.0821623      0.9260078      0.7140646
 Standard basis: 6-31+G(d,p) (6D, 7F)
 There are   303 symmetry adapted basis functions of A   symmetry.
 Integral buffers will be    131072 words long.
 Raffenetti 2 integral format.
 Two-electron integral symmetry is turned on.
   303 basis functions,   489 primitive gaussians,   303 cartesian basis functions
    47 alpha electrons       47 beta electrons
       nuclear repulsion energy       815.2926577677 Hartrees.
 NAtoms=   27 NActive=   27 NUniq=   27 SFac= 1.00D+00 NAtFMM=   60 NAOKFM=F Big=F
 ------------------------------------------------------------------------------
 Polarizable Continuum Model (PCM)
 =================================
 Model                : PCM.
 Atomic radii         : UFF (Universal Force Field).
 Polarization charges : Total charges.
 Charge compensation  : None.
 Solution method      : Matrix inversion.
 Cavity type          : Scaled VdW (van der Waals Surface) (Alpha=1.100).
 Cavity algorithm     : GePol (No added spheres)
                        Default sphere list used, NSphG=   27.
                        Lebedev-Laikov grids with approx.  5.0 points / Ang**2.
                        Smoothing algorithm: Karplus/York (Gamma=1.0000).
                        Polarization charges: spherical gaussians, with
                                              point-specific exponents (IZeta= 3).
                        Self-potential: point-specific (ISelfS= 7).
                        Self-field    : sphere-specific E.n sum rule (ISelfD= 2).
 Solvent              : Water, Eps=  78.355300 Eps(inf)=   1.777849
 ------------------------------------------------------------------------------
 One-electron integrals computed using PRISM.
 NBasis=   303 RedAO= T  NBF=   303
 NBsUse=   303 1.00D-06 NBFU=   303
 Harris functional with IExCor=  908 diagonalized for initial guess.
 ExpMin= 4.38D-02 ExpMax= 5.48D+03 ExpMxC= 8.25D+02 IAcc=2 IRadAn=         4 AccDes= 0.00D+00
 HarFok:  IExCor=  908 AccDes= 0.00D+00 IRadAn=         4 IDoV= 1
 ScaDFX=  1.000000  1.000000  1.000000  1.000000
 FoFCou: FMM=F IPFlag=           0 FMFlag=      100000 FMFlg1=           0
         NFxFlg=           0 DoJE=T BraDBF=F KetDBF=T FulRan=T
         Omega=  0.000000  0.000000  1.000000  0.000000  0.000000 ICntrl=     500 IOpCl=  0
         NMat0=    1 NMatS0=    1 NMatT0=    0 NMatD0=    1 NMtDS0=    0 NMtDT0=    0
         I1Cent=           4 NGrid=           0.
 Petite list used in FoFCou.
 Initial guess orbital symmetries:
       Occupied  (A) (A) (A) (A) (A) (A) (A) (A) (A) (A) (A) (A)
                 (A) (A) (A) (A) (A) (A) (A) (A) (A) (A) (A) (A)
                 (A) (A) (A) (A) (A) (A) (A) (A) (A) (A) (A) (A)
                 (A) (A) (A) (A) (A) (A) (A) (A) (A) (A) (A)
       Virtual   (A) (A) (A) (A) (A) (A) (A) (A) (A) (A) (A) (A)
                 (A) (A) (A) (A) (A) (A) (A) (A) (A) (A) (A) (A)
                 (A) (A) (A) (A) (A) (A) (A) (A) (A) (A) (A) (A)
                 (A) (A) (A) (A) (A) (A) (A) (A) (A) (A) (A) (A)
                 (A) (A) (A) (A) (A) (A) (A) (A) (A) (A) (A) (A)
                 (A) (A) (A) (A) (A) (A) (A) (A) (A) (A) (A) (A)
                 (A) (A) (A) (A) (A) (A) (A) (A) (A) (A) (A) (A)
                 (A) (A) (A) (A) (A) (A) (A) (A) (A) (A) (A) (A)
                 (A) (A) (A) (A) (A) (A) (A) (A) (A) (A) (A) (A)
                 (A) (A) (A) (A) (A) (A) (A) (A) (A) (A) (A) (A)
                 (A) (A) (A) (A) (A) (A) (A) (A) (A) (A) (A) (A)
                 (A) (A) (A) (A) (A) (A) (A) (A) (A) (A) (A) (A)
                 (A) (A) (A) (A) (A) (A) (A) (A) (A) (A) (A) (A)
                 (A) (A) (A) (A) (A) (A) (A) (A) (A) (A) (A) (A)
                 (A) (A) (A) (A) (A) (A) (A) (A) (A) (A) (A) (A)
                 (A) (A) (A) (A) (A) (A) (A) (A) (A) (A) (A) (A)
                 (A) (A) (A) (A) (A) (A) (A) (A) (A) (A) (A) (A)
                 (A) (A) (A) (A) (A) (A) (A) (A) (A) (A) (A) (A)
                 (A) (A) (A) (A) (A) (A) (A) (A) (A) (A) (A) (A)
                 (A) (A) (A) (A) (A) (A) (A) (A) (A) (A) (A) (A)
                 (A) (A) (A) (A) (A) (A) (A) (A) (A) (A) (A) (A)
                 (A) (A) (A) (A)
 The electronic state of the initial guess is 1-A.
 Requested convergence on RMS density matrix=1.00D-08 within 128 cycles.
 Requested convergence on MAX density matrix=1.00D-06.
 Requested convergence on             energy=1.00D-06.
 No special actions if energy rises.
 Error on total polarization charges =  0.01426
 SCF Done:  E(RmPW1PW91) =  -594.195786154     A.U. after   13 cycles
             Convg  =    0.4243D-08             -V/T =  2.0094
 Range of M.O.s used for correlation:     1   303
 NBasis=   303 NAE=    47 NBE=    47 NFC=     0 NFV=     0
 NROrb=    303 NOA=    47 NOB=    47 NVA=   256 NVB=   256

 **** Warning!!: The largest alpha MO coefficient is  0.68241264D+02

 NEqPCM:  Using equilibrium solvation (IEInf=0, Eps=  78.3553, EpsInf=   1.7778)
          Differentiating once with respect to magnetic field using GIAOs.
          Electric field/nuclear overlap derivatives assumed to be zero.
 FoFCou: FMM=F IPFlag=           0 FMFlag=    10101102 FMFlg1=           0
         NFxFlg=    40000000 DoJE=F BraDBF=F KetDBF=T FulRan=T
         Omega=  0.000000  0.000000  1.000000  0.000000  0.000000 ICntrl=    6100 IOpCl=  0
         NMat0=    1 NMatS0=    1 NMatT0=    0 NMatD0=    1 NMtDS0=    0 NMtDT0=    0
         I1Cent=           7 NGrid=        1796.
 Symmetry not used in FoFCou.
          There are     3 degrees of freedom in the 1st order CPHF.  IDoFFX=0.
      3 vectors produced by pass  0 Test12= 4.01D-13 3.33D-08 XBig12= 2.96D+01 8.33D-01.
 AX will form     3 AO Fock derivatives at one time.
      3 vectors produced by pass  1 Test12= 4.01D-13 3.33D-08 XBig12= 7.04D-02 4.11D-02.
      3 vectors produced by pass  2 Test12= 4.01D-13 3.33D-08 XBig12= 1.46D-04 3.15D-03.
      3 vectors produced by pass  3 Test12= 4.01D-13 3.33D-08 XBig12= 6.98D-07 1.95D-04.
      3 vectors produced by pass  4 Test12= 4.01D-13 3.33D-08 XBig12= 2.12D-09 9.05D-06.
      3 vectors produced by pass  5 Test12= 4.01D-13 3.33D-08 XBig12= 7.37D-12 6.87D-07.
 Inverted reduced A of dimension    18 with in-core refinement.
 Calculating GIAO nuclear magnetic shielding tensors.
 SCF GIAO Magnetic shielding tensor (ppm):
      1  C    Isotropic =   163.7163   Anisotropy =    31.8772
   XX=   177.6296   YX=    -1.4563   ZX=    10.5937
   XY=    -0.2906   YY=   169.4001   ZY=   -15.7184
   XZ=    12.0673   YZ=   -19.5914   ZZ=   144.1193
   Eigenvalues:   132.9142   173.2670   184.9678
      2  C    Isotropic =   121.2610   Anisotropy =    47.2461
   XX=   124.5076   YX=    20.9045   ZX=   -10.8213
   XY=     7.3543   YY=   142.4635   ZY=    -8.4739
   XZ=     1.6099   YZ=   -13.6159   ZZ=    96.8118
   Eigenvalues:    94.2117   116.8128   152.7584
      3  N    Isotropic =   186.9649   Anisotropy =    67.1430
   XX=   187.9620   YX=    14.2858   ZX=   -33.3482
   XY=     4.4218   YY=   205.8704   ZY=   -14.5952
   XZ=   -55.6497   YZ=    -9.4318   ZZ=   167.0624
   Eigenvalues:   131.6217   197.5462   231.7269
      4  C    Isotropic =   137.6024   Anisotropy =    60.4181
   XX=   140.3590   YX=   -22.1124   ZX=     3.9304
   XY=   -12.0761   YY=   165.6315   ZY=   -14.8100
   XZ=    21.3244   YZ=    -8.2168   ZZ=   106.8168
   Eigenvalues:   102.0380   132.8881   177.8812
      5  C    Isotropic =   169.9632   Anisotropy =    21.4505
   XX=   177.6049   YX=     1.8802   ZX=     9.9524
   XY=     5.0197   YY=   180.1758   ZY=    -7.3168
   XZ=    12.9001   YZ=   -15.2679   ZZ=   152.1088
   Eigenvalues:   143.9095   181.7165   184.2635
      6  C    Isotropic =   119.7530   Anisotropy =    33.5988
   XX=   109.3983   YX=     3.7786   ZX=   -15.4191
   XY=     0.5638   YY=   128.0827   ZY=    17.6519
   XZ=   -20.4384   YZ=     8.9786   ZZ=   121.7781
   Eigenvalues:    93.8053   123.3016   142.1522
      7  C    Isotropic =   113.0650   Anisotropy =    24.9467
   XX=   111.0629   YX=     3.7829   ZX=     6.7950
   XY=    -2.9964   YY=    99.6696   ZY=   -11.5748
   XZ=     1.3174   YZ=     4.9140   ZZ=   128.4624
   Eigenvalues:    99.2254   110.2734   129.6961
      8  C    Isotropic =   108.0902   Anisotropy =    18.1571
   XX=   105.0184   YX=   -15.8128   ZX=     6.6932
   XY=     0.5158   YY=   104.2876   ZY=     2.5010
   XZ=     1.1585   YZ=   -12.7988   ZZ=   114.9645
   Eigenvalues:    96.9284   107.1472   120.1949
      9  H    Isotropic =    29.6030   Anisotropy =    11.5146
   XX=    33.3080   YX=    -1.8542   ZX=    -5.5105
   XY=    -2.4325   YY=    25.9795   ZY=    -0.4172
   XZ=    -5.2607   YZ=    -1.1019   ZZ=    29.5214
   Eigenvalues:    23.9176    27.6119    37.2794
     10  H    Isotropic =    29.8191   Anisotropy =     8.2041
   XX=    32.2650   YX=     2.6334   ZX=     2.2037
   XY=     2.4373   YY=    30.3571   ZY=     2.2673
   XZ=     2.5718   YZ=     2.3129   ZZ=    26.8350
   Eigenvalues:    25.4949    28.6738    35.2885
     11  H    Isotropic =    28.0816   Anisotropy =     8.1649
   XX=    27.3000   YX=    -0.7294   ZX=    -2.3210
   XY=    -0.1504   YY=    24.6536   ZY=    -2.2062
   XZ=    -1.5740   YZ=    -2.7675   ZZ=    32.2913
   Eigenvalues:    23.6306    27.0893    33.5249
     12  H    Isotropic =    28.6083   Anisotropy =    11.5449
   XX=    26.0833   YX=    -2.5183   ZX=     0.0299
   XY=    -1.7460   YY=    32.1944   ZY=     6.1629
   XZ=     1.6938   YZ=     5.4815   ZZ=    27.5472
   Eigenvalues:    22.5375    26.9826    36.3049
     13  H    Isotropic =    28.5771   Anisotropy =     8.7307
   XX=    29.0563   YX=     1.4091   ZX=    -0.1011
   XY=     2.2287   YY=    32.9856   ZY=    -3.2175
   XZ=    -0.7560   YZ=    -2.3077   ZZ=    23.6895
   Eigenvalues:    22.9297    28.4041    34.3976
     14  H    Isotropic =    30.0690   Anisotropy =    12.6246
   XX=    31.9239   YX=    -5.5808   ZX=     0.6991
   XY=    -6.0002   YY=    33.0155   ZY=    -1.4961
   XZ=     0.9363   YZ=    -1.4054   ZZ=    25.2676
   Eigenvalues:    24.9865    26.7351    38.4854
     15  H    Isotropic =    29.6379   Anisotropy =     8.4604
   XX=    26.8075   YX=    -0.7708   ZX=     0.8104
   XY=    -0.5762   YY=    27.0274   ZY=    -0.1025
   XZ=     1.2692   YZ=    -1.2648   ZZ=    35.0789
   Eigenvalues:    26.2194    27.4162    35.2782
     16  H    Isotropic =    28.7661   Anisotropy =     6.0858
   XX=    28.8449   YX=     0.1260   ZX=    -2.5106
   XY=    -0.0637   YY=    26.1050   ZY=     0.1253
   XZ=    -2.2457   YZ=    -1.2854   ZZ=    31.3485
   Eigenvalues:    26.0128    27.4622    32.8234
     17  H    Isotropic =    27.7970   Anisotropy =     4.8029
   XX=    27.9443   YX=    -3.1053   ZX=     0.6677
   XY=    -1.8012   YY=    28.3219   ZY=     2.3831
   XZ=     1.2583   YZ=     2.3409   ZZ=    27.1247
   Eigenvalues:    23.9134    28.4786    30.9989
     18  H    Isotropic =    27.7444   Anisotropy =     5.0558
   XX=    27.8136   YX=     1.9227   ZX=     1.9901
   XY=     1.7409   YY=    30.0778   ZY=    -1.6259
   XZ=     1.9611   YZ=    -1.1829   ZZ=    25.3417
   Eigenvalues:    23.5447    28.5734    31.1149
     19  O    Isotropic =   269.7412   Anisotropy =    30.6856
   XX=   260.4902   YX=   -28.0204   ZX=    17.6516
   XY=    -8.4350   YY=   274.8953   ZY=     9.1467
   XZ=    14.0552   YZ=    -1.1019   ZZ=   273.8382
   Eigenvalues:   240.7949   278.2305   290.1983
     20  H    Isotropic =    30.1768   Anisotropy =    13.0398
   XX=    31.2434   YX=     3.7879   ZX=     7.5840
   XY=     4.4184   YY=    30.2654   ZY=    -0.7576
   XZ=     7.7313   YZ=    -0.0485   ZZ=    29.0216
   Eigenvalues:    21.3358    30.3245    38.8700
     21  O    Isotropic =   280.7339   Anisotropy =    89.4979
   XX=   273.8484   YX=    49.5639   ZX=    23.8302
   XY=    56.0926   YY=   294.9047   ZY=     5.9880
   XZ=     7.5520   YZ=    -0.8907   ZZ=   273.4488
   Eigenvalues:   228.0055   273.7972   340.3992
     22  H    Isotropic =    30.2391   Anisotropy =    19.1287
   XX=    27.0084   YX=     8.8635   ZX=     4.6668
   XY=     6.9912   YY=    35.9767   ZY=     3.4923
   XZ=     5.1696   YZ=     4.6489   ZZ=    27.7322
   Eigenvalues:    21.3224    26.4033    42.9915
     23  C    Isotropic =   129.1399   Anisotropy =    47.9114
   XX=   127.4954   YX=    10.0895   ZX=     6.3891
   XY=    16.9732   YY=   150.3175   ZY=     7.3470
   XZ=    10.8076   YZ=    18.0801   ZZ=   109.6068
   Eigenvalues:   104.8110   121.5279   161.0809
     24  H    Isotropic =    27.9940   Anisotropy =     6.8203
   XX=    30.0211   YX=     0.2633   ZX=    -2.4380
   XY=    -1.0235   YY=    27.1598   ZY=     3.1831
   XZ=    -3.5298   YZ=     2.7711   ZZ=    26.8010
   Eigenvalues:    23.3711    28.0700    32.5409
     25  H    Isotropic =    28.4394   Anisotropy =     6.3291
   XX=    29.3609   YX=     1.4030   ZX=     2.1719
   XY=    -0.0230   YY=    32.0717   ZY=    -3.3586
   XZ=     2.4405   YZ=    -1.1675   ZZ=    23.8857
   Eigenvalues:    22.4628    30.1967    32.6588
     26  O    Isotropic =   311.3490   Anisotropy =    30.7308
   XX=   321.4422   YX=    -8.9821   ZX=   -15.4467
   XY=     2.8846   YY=   315.6654   ZY=    10.8672
   XZ=   -20.3766   YZ=    -5.6821   ZZ=   296.9394
   Eigenvalues:   287.4628   314.7480   331.8362
     27  H    Isotropic =    29.0192   Anisotropy =    14.7265
   XX=    32.9812   YX=     1.0597   ZX=    -6.4162
   XY=    -1.1461   YY=    25.0256   ZY=     6.5932
   XZ=    -5.7762   YZ=     7.1013   ZZ=    29.0508
   Eigenvalues:    18.8584    29.3624    38.8369
 End of Minotr Frequency-dependent properties file   721 does not exist.
 End of Minotr Frequency-dependent properties file   722 does not exist.

 **********************************************************************

            Population analysis using the SCF density.

 **********************************************************************

 Orbital symmetries:
       Occupied  (A) (A) (A) (A) (A) (A) (A) (A) (A) (A) (A) (A)
                 (A) (A) (A) (A) (A) (A) (A) (A) (A) (A) (A) (A)
                 (A) (A) (A) (A) (A) (A) (A) (A) (A) (A) (A) (A)
                 (A) (A) (A) (A) (A) (A) (A) (A) (A) (A) (A)
       Virtual   (A) (A) (A) (A) (A) (A) (A) (A) (A) (A) (A) (A)
                 (A) (A) (A) (A) (A) (A) (A) (A) (A) (A) (A) (A)
                 (A) (A) (A) (A) (A) (A) (A) (A) (A) (A) (A) (A)
                 (A) (A) (A) (A) (A) (A) (A) (A) (A) (A) (A) (A)
                 (A) (A) (A) (A) (A) (A) (A) (A) (A) (A) (A) (A)
                 (A) (A) (A) (A) (A) (A) (A) (A) (A) (A) (A) (A)
                 (A) (A) (A) (A) (A) (A) (A) (A) (A) (A) (A) (A)
                 (A) (A) (A) (A) (A) (A) (A) (A) (A) (A) (A) (A)
                 (A) (A) (A) (A) (A) (A) (A) (A) (A) (A) (A) (A)
                 (A) (A) (A) (A) (A) (A) (A) (A) (A) (A) (A) (A)
                 (A) (A) (A) (A) (A) (A) (A) (A) (A) (A) (A) (A)
                 (A) (A) (A) (A) (A) (A) (A) (A) (A) (A) (A) (A)
                 (A) (A) (A) (A) (A) (A) (A) (A) (A) (A) (A) (A)
                 (A) (A) (A) (A) (A) (A) (A) (A) (A) (A) (A) (A)
                 (A) (A) (A) (A) (A) (A) (A) (A) (A) (A) (A) (A)
                 (A) (A) (A) (A) (A) (A) (A) (A) (A) (A) (A) (A)
                 (A) (A) (A) (A) (A) (A) (A) (A) (A) (A) (A) (A)
                 (A) (A) (A) (A) (A) (A) (A) (A) (A) (A) (A) (A)
                 (A) (A) (A) (A) (A) (A) (A) (A) (A) (A) (A) (A)
                 (A) (A) (A) (A) (A) (A) (A) (A) (A) (A) (A) (A)
                 (A) (A) (A) (A) (A) (A) (A) (A) (A) (A) (A) (A)
                 (A) (A) (A) (A)
 The electronic state is 1-A.
 Alpha  occ. eigenvalues --  -19.26202 -19.26112 -19.25240 -14.42044 -10.30859
 Alpha  occ. eigenvalues --  -10.30834 -10.29610 -10.28283 -10.28080 -10.27042
 Alpha  occ. eigenvalues --  -10.24572 -10.24193  -1.07298  -1.05870  -1.05603
 Alpha  occ. eigenvalues --   -0.96550  -0.82289  -0.79223  -0.75828  -0.71421
 Alpha  occ. eigenvalues --   -0.67088  -0.62347  -0.60651  -0.58808  -0.55430
 Alpha  occ. eigenvalues --   -0.54192  -0.51206  -0.49575  -0.49127  -0.47448
 Alpha  occ. eigenvalues --   -0.45622  -0.44267  -0.43523  -0.42480  -0.41492
 Alpha  occ. eigenvalues --   -0.39909  -0.38730  -0.37528  -0.37152  -0.35766
 Alpha  occ. eigenvalues --   -0.34998  -0.33901  -0.33319  -0.31832  -0.29870
 Alpha  occ. eigenvalues --   -0.28400  -0.24405
 Alpha virt. eigenvalues --    0.00688   0.01461   0.01916   0.02614   0.03502
 Alpha virt. eigenvalues --    0.03776   0.04232   0.04748   0.05094   0.07154
 Alpha virt. eigenvalues --    0.07481   0.07762   0.08287   0.09057   0.09821
 Alpha virt. eigenvalues --    0.10151   0.11244   0.11652   0.12298   0.12436
 Alpha virt. eigenvalues --    0.13031   0.13302   0.14005   0.14216   0.15615
 Alpha virt. eigenvalues --    0.16407   0.16699   0.16873   0.17283   0.18378
 Alpha virt. eigenvalues --    0.18537   0.19159   0.19650   0.20028   0.20323
 Alpha virt. eigenvalues --    0.21116   0.21381   0.21461   0.22395   0.22987
 Alpha virt. eigenvalues --    0.23756   0.25041   0.25409   0.25614   0.25721
 Alpha virt. eigenvalues --    0.26355   0.27124   0.27325   0.27822   0.28671
 Alpha virt. eigenvalues --    0.29255   0.30189   0.30993   0.31493   0.31989
 Alpha virt. eigenvalues --    0.32285   0.33115   0.33891   0.33975   0.34965
 Alpha virt. eigenvalues --    0.35837   0.36698   0.37242   0.38044   0.38687
 Alpha virt. eigenvalues --    0.39072   0.39465   0.40345   0.41824   0.42146
 Alpha virt. eigenvalues --    0.43542   0.43821   0.44592   0.45884   0.46493
 Alpha virt. eigenvalues --    0.48424   0.64649   0.65942   0.67715   0.68329
 Alpha virt. eigenvalues --    0.69913   0.70945   0.72344   0.73347   0.74982
 Alpha virt. eigenvalues --    0.76417   0.77086   0.79056   0.79572   0.81525
 Alpha virt. eigenvalues --    0.83807   0.84901   0.86227   0.87422   0.88719
 Alpha virt. eigenvalues --    0.89832   0.92258   0.93975   0.94146   0.95719
 Alpha virt. eigenvalues --    0.97974   0.99460   1.01816   1.02761   1.03049
 Alpha virt. eigenvalues --    1.05540   1.06327   1.07401   1.07964   1.08603
 Alpha virt. eigenvalues --    1.10380   1.12130   1.13093   1.14510   1.15585
 Alpha virt. eigenvalues --    1.16228   1.19340   1.20713   1.22559   1.25660
 Alpha virt. eigenvalues --    1.27044   1.27697   1.29204   1.31020   1.32832
 Alpha virt. eigenvalues --    1.34952   1.36729   1.38755   1.40376   1.41888
 Alpha virt. eigenvalues --    1.43768   1.45601   1.47904   1.48738   1.51332
 Alpha virt. eigenvalues --    1.53419   1.55053   1.56422   1.60663   1.61350
 Alpha virt. eigenvalues --    1.62783   1.64837   1.68868   1.70451   1.70804
 Alpha virt. eigenvalues --    1.73755   1.75041   1.76606   1.77808   1.79509
 Alpha virt. eigenvalues --    1.80285   1.80647   1.82850   1.83927   1.86328
 Alpha virt. eigenvalues --    1.88553   1.89219   1.91507   1.92951   1.94223
 Alpha virt. eigenvalues --    1.94994   1.96186   2.00547   2.01947   2.03824
 Alpha virt. eigenvalues --    2.04981   2.06022   2.07899   2.08413   2.11155
 Alpha virt. eigenvalues --    2.13638   2.17184   2.17288   2.19049   2.20875
 Alpha virt. eigenvalues --    2.23789   2.24102   2.26667   2.27988   2.29075
 Alpha virt. eigenvalues --    2.32396   2.34911   2.36046   2.36604   2.38129
 Alpha virt. eigenvalues --    2.40414   2.43032   2.45629   2.45654   2.48465
 Alpha virt. eigenvalues --    2.49268   2.52219   2.52533   2.54605   2.55959
 Alpha virt. eigenvalues --    2.57099   2.59190   2.60840   2.62407   2.63274
 Alpha virt. eigenvalues --    2.64956   2.65564   2.67289   2.67695   2.68789
 Alpha virt. eigenvalues --    2.70229   2.70550   2.75016   2.75441   2.76504
 Alpha virt. eigenvalues --    2.78460   2.79936   2.81999   2.83459   2.84856
 Alpha virt. eigenvalues --    2.86944   2.89522   2.90059   2.90864   2.93757
 Alpha virt. eigenvalues --    2.96492   2.99022   3.01620   3.02401   3.05313
 Alpha virt. eigenvalues --    3.06411   3.09817   3.10915   3.15985   3.32795
 Alpha virt. eigenvalues --    3.34253   3.36692   3.39304   3.41802   3.42981
 Alpha virt. eigenvalues --    3.45807   3.49300   3.53025   3.54123   3.55953
 Alpha virt. eigenvalues --    3.57287   3.59546   3.60624   3.63141   4.30741
 Alpha virt. eigenvalues --    4.31616   4.37499   4.44732   4.54508   4.57724
 Alpha virt. eigenvalues --    4.59025   4.69730   4.75568   4.87573   4.91163
 Alpha virt. eigenvalues --    4.98186
          Condensed to atoms (all electrons):
              1          2          3          4          5          6
     1  C    6.505219  -0.873974   0.237225   0.340884  -0.449780  -0.118878
     2  C   -0.873974   8.577770  -0.243758  -0.532336   0.586865  -1.603967
     3  N    0.237225  -0.243758   7.559513   0.191021  -0.310386  -0.199477
     4  C    0.340884  -0.532336   0.191021   5.921302  -0.180228  -0.131600
     5  C   -0.449780   0.586865  -0.310386  -0.180228   5.980740   0.081766
     6  C   -0.118878  -1.603967  -0.199477  -0.131600   0.081766  10.135300
     7  C   -0.071464   1.404473  -0.021915  -0.111228   0.073623  -2.560114
     8  C   -0.255946  -1.304594  -0.134926  -0.071348   0.095983   1.759623
     9  H    0.412865  -0.091937   0.013256   0.004319  -0.041011   0.023221
    10  H    0.458411  -0.131805   0.019238   0.029035  -0.051522   0.001443
    11  H    0.017118   0.297469  -0.027179  -0.013833   0.003410   0.018989
    12  H    0.018263  -0.029024  -0.035673   0.402630  -0.060104   0.015286
    13  H    0.020413   0.013576  -0.049800   0.395823  -0.034332   0.010023
    14  H   -0.011831   0.005160   0.016162  -0.030899   0.351289   0.001171
    15  H   -0.053128  -0.013565   0.005466  -0.066701   0.433048   0.030847
    16  H   -0.004653   0.047890  -0.052577   0.041966  -0.012081   0.255468
    17  H    0.013076   0.010282   0.020019   0.001804  -0.007951  -0.167250
    18  H    0.034941  -0.132237   0.018125   0.003856  -0.002800   0.030840
    19  O    0.035115  -0.092534   0.019599   0.013882  -0.013053   0.062193
    20  H    0.014418  -0.066956   0.019832   0.006884  -0.001395   0.024379
    21  O    0.081785  -0.097024   0.040329   0.022351  -0.085622   0.004366
    22  H   -0.009528   0.002503  -0.003582   0.000846   0.003579  -0.000737
    23  C    0.174855   0.045170   0.139735   0.054307  -0.152059  -1.093731
    24  H    0.001029   0.010924   0.008567  -0.002427   0.000249  -0.148221
    25  H   -0.004160   0.004843   0.025281   0.001943   0.002050  -0.131336
    26  O    0.004656   0.004075   0.014905  -0.017603  -0.000201  -0.089564
    27  H   -0.004901   0.033137   0.046715  -0.005718   0.007870  -0.092395
              7          8          9         10         11         12
     1  C   -0.071464  -0.255946   0.412865   0.458411   0.017118   0.018263
     2  C    1.404473  -1.304594  -0.091937  -0.131805   0.297469  -0.029024
     3  N   -0.021915  -0.134926   0.013256   0.019238  -0.027179  -0.035673
     4  C   -0.111228  -0.071348   0.004319   0.029035  -0.013833   0.402630
     5  C    0.073623   0.095983  -0.041011  -0.051522   0.003410  -0.060104
     6  C   -2.560114   1.759623   0.023221   0.001443   0.018989   0.015286
     7  C    8.002926  -1.627318  -0.022080  -0.005278   0.002210   0.002249
     8  C   -1.627318   7.537769   0.036076   0.014560  -0.032309  -0.004037
     9  H   -0.022080   0.036076   0.524443  -0.026141  -0.007705   0.001090
    10  H   -0.005278   0.014560  -0.026141   0.517878   0.003648  -0.000038
    11  H    0.002210  -0.032309  -0.007705   0.003648   0.545402   0.001523
    12  H    0.002249  -0.004037   0.001090  -0.000038   0.001523   0.534791
    13  H   -0.003704  -0.002497  -0.000119  -0.000125  -0.000126  -0.025370
    14  H    0.002197   0.004159  -0.005980   0.001764   0.000011  -0.003474
    15  H   -0.009036   0.006157   0.003819  -0.007008  -0.000127   0.003890
    16  H    0.069503  -0.024505   0.000001  -0.000041  -0.000283  -0.000041
    17  H    0.385060  -0.016264   0.000004  -0.000070  -0.000140   0.000004
    18  H   -0.044536   0.434114   0.000178   0.000982   0.001256   0.000004
    19  O   -0.178786   0.334272  -0.000710   0.001104   0.004599   0.000107
    20  H   -0.034323   0.044925   0.000002  -0.000008  -0.001543   0.000004
    21  O    0.102979   0.030576   0.000788  -0.001332   0.000549   0.000110
    22  H    0.069452  -0.046037  -0.000011   0.000005  -0.000017  -0.000001
    23  C    0.257517  -0.404219   0.001003  -0.000871   0.010111   0.007204
    24  H    0.014556  -0.010241   0.000000   0.000000   0.000001   0.000000
    25  H    0.095126  -0.013106   0.000000   0.000000  -0.000071   0.000016
    26  O    0.033053  -0.010614   0.000004   0.000018   0.000421   0.000577
    27  H    0.015864  -0.016338  -0.000001  -0.000001  -0.000145  -0.000377
             13         14         15         16         17         18
     1  C    0.020413  -0.011831  -0.053128  -0.004653   0.013076   0.034941
     2  C    0.013576   0.005160  -0.013565   0.047890   0.010282  -0.132237
     3  N   -0.049800   0.016162   0.005466  -0.052577   0.020019   0.018125
     4  C    0.395823  -0.030899  -0.066701   0.041966   0.001804   0.003856
     5  C   -0.034332   0.351289   0.433048  -0.012081  -0.007951  -0.002800
     6  C    0.010023   0.001171   0.030847   0.255468  -0.167250   0.030840
     7  C   -0.003704   0.002197  -0.009036   0.069503   0.385060  -0.044536
     8  C   -0.002497   0.004159   0.006157  -0.024505  -0.016264   0.434114
     9  H   -0.000119  -0.005980   0.003819   0.000001   0.000004   0.000178
    10  H   -0.000125   0.001764  -0.007008  -0.000041  -0.000070   0.000982
    11  H   -0.000126   0.000011  -0.000127  -0.000283  -0.000140   0.001256
    12  H   -0.025370  -0.003474   0.003890  -0.000041   0.000004   0.000004
    13  H    0.520754   0.001277  -0.005390   0.000619  -0.000006   0.000006
    14  H    0.001277   0.522972  -0.024931  -0.000151   0.000000  -0.000009
    15  H   -0.005390  -0.024931   0.509466   0.000741   0.000022   0.000011
    16  H    0.000619  -0.000151   0.000741   0.529163   0.001000  -0.000163
    17  H   -0.000006   0.000000   0.000022   0.001000   0.554918  -0.001837
    18  H    0.000006  -0.000009   0.000011  -0.000163  -0.001837   0.535897
    19  O   -0.000023   0.000012  -0.000030  -0.000226  -0.000681  -0.055066
    20  H    0.000005   0.000000   0.000001   0.000006  -0.000625   0.006134
    21  O    0.000115   0.000209  -0.001033  -0.009374  -0.039287  -0.011460
    22  H   -0.000001  -0.000004  -0.000074   0.000481  -0.005262   0.004516
    23  C   -0.016428  -0.000161   0.006372  -0.029327   0.075531   0.000325
    24  H   -0.000039   0.000000  -0.000002  -0.004363   0.001098   0.000003
    25  H   -0.000025   0.000000   0.000001   0.004690  -0.000580  -0.000029
    26  O    0.001823   0.000039  -0.000089   0.001513   0.000856   0.000017
    27  H   -0.000132  -0.000006   0.000002   0.000352   0.000000   0.000001
             19         20         21         22         23         24
     1  C    0.035115   0.014418   0.081785  -0.009528   0.174855   0.001029
     2  C   -0.092534  -0.066956  -0.097024   0.002503   0.045170   0.010924
     3  N    0.019599   0.019832   0.040329  -0.003582   0.139735   0.008567
     4  C    0.013882   0.006884   0.022351   0.000846   0.054307  -0.002427
     5  C   -0.013053  -0.001395  -0.085622   0.003579  -0.152059   0.000249
     6  C    0.062193   0.024379   0.004366  -0.000737  -1.093731  -0.148221
     7  C   -0.178786  -0.034323   0.102979   0.069452   0.257517   0.014556
     8  C    0.334272   0.044925   0.030576  -0.046037  -0.404219  -0.010241
     9  H   -0.000710   0.000002   0.000788  -0.000011   0.001003   0.000000
    10  H    0.001104  -0.000008  -0.001332   0.000005  -0.000871   0.000000
    11  H    0.004599  -0.001543   0.000549  -0.000017   0.010111   0.000001
    12  H    0.000107   0.000004   0.000110  -0.000001   0.007204   0.000000
    13  H   -0.000023   0.000005   0.000115  -0.000001  -0.016428  -0.000039
    14  H    0.000012   0.000000   0.000209  -0.000004  -0.000161   0.000000
    15  H   -0.000030   0.000001  -0.001033  -0.000074   0.006372  -0.000002
    16  H   -0.000226   0.000006  -0.009374   0.000481  -0.029327  -0.004363
    17  H   -0.000681  -0.000625  -0.039287  -0.005262   0.075531   0.001098
    18  H   -0.055066   0.006134  -0.011460   0.004516   0.000325   0.000003
    19  O    8.149547   0.256932   0.003186   0.000158  -0.029279   0.000006
    20  H    0.256932   0.362384  -0.000659   0.000021  -0.009651   0.000004
    21  O    0.003186  -0.000659   8.243841   0.225204   0.026413  -0.000018
    22  H    0.000158   0.000021   0.225204   0.384028  -0.005563  -0.000005
    23  C   -0.029279  -0.009651   0.026413  -0.005563   6.053828   0.512677
    24  H    0.000006   0.000004  -0.000018  -0.000005   0.512677   0.534172
    25  H    0.002466   0.001859  -0.000107   0.000018   0.363445  -0.038064
    26  O   -0.000199  -0.000482   0.000463  -0.000002   0.190664  -0.058359
    27  H   -0.000105   0.000079  -0.000112   0.000000   0.028069   0.006660
             25         26         27
     1  C   -0.004160   0.004656  -0.004901
     2  C    0.004843   0.004075   0.033137
     3  N    0.025281   0.014905   0.046715
     4  C    0.001943  -0.017603  -0.005718
     5  C    0.002050  -0.000201   0.007870
     6  C   -0.131336  -0.089564  -0.092395
     7  C    0.095126   0.033053   0.015864
     8  C   -0.013106  -0.010614  -0.016338
     9  H    0.000000   0.000004  -0.000001
    10  H    0.000000   0.000018  -0.000001
    11  H   -0.000071   0.000421  -0.000145
    12  H    0.000016   0.000577  -0.000377
    13  H   -0.000025   0.001823  -0.000132
    14  H    0.000000   0.000039  -0.000006
    15  H    0.000001  -0.000089   0.000002
    16  H    0.004690   0.001513   0.000352
    17  H   -0.000580   0.000856   0.000000
    18  H   -0.000029   0.000017   0.000001
    19  O    0.002466  -0.000199  -0.000105
    20  H    0.001859  -0.000482   0.000079
    21  O   -0.000107   0.000463  -0.000112
    22  H    0.000018  -0.000002   0.000000
    23  C    0.363445   0.190664   0.028069
    24  H   -0.038064  -0.058359   0.006660
    25  H    0.603793  -0.050915  -0.004739
    26  O   -0.050915   8.265397   0.237642
    27  H   -0.004739   0.237642   0.365887
 Mulliken atomic charges:
              1
     1  C   -0.512028
     2  C    0.169571
     3  N   -0.315714
     4  C   -0.268933
     5  C   -0.217948
     6  C   -0.117648
     7  C    0.158993
     8  C   -0.323915
     9  H    0.174624
    10  H    0.176153
    11  H    0.176760
    12  H    0.170390
    13  H    0.173684
    14  H    0.171026
    15  H    0.181269
    16  H    0.184393
    17  H    0.176277
    18  H    0.176930
    19  O   -0.512486
    20  H    0.377771
    21  O   -0.537236
    22  H    0.380013
    23  C   -0.205940
    24  H    0.171794
    25  H    0.137604
    26  O   -0.528095
    27  H    0.382690
 Sum of Mulliken atomic charges =   0.00000
 Mulliken charges with hydrogens summed into heavy atoms:
              1
     1  C   -0.161251
     2  C    0.346331
     3  N   -0.315714
     4  C    0.075141
     5  C    0.134347
     6  C    0.066745
     7  C    0.335270
     8  C   -0.146985
    19  O   -0.134714
    21  O   -0.157223
    23  C    0.103458
    26  O   -0.145405
 Sum of Mulliken charges with hydrogens summed into heavy atoms =   0.00000
 Electronic spatial extent (au):  <R**2>=           1915.1856
 Charge=              0.0000 electrons
 Dipole moment (field-independent basis, Debye):
    X=              3.1895    Y=              0.7478    Z=             -0.0544  Tot=              3.2764
 Quadrupole moment (field-independent basis, Debye-Ang):
   XX=            -78.5896   YY=            -74.4330   ZZ=            -74.7657
   XY=             -4.5581   XZ=              0.2030   YZ=              7.3071
 Traceless Quadrupole moment (field-independent basis, Debye-Ang):
   XX=             -2.6602   YY=              1.4964   ZZ=              1.1637
   XY=             -4.5581   XZ=              0.2030   YZ=              7.3071
 Octapole moment (field-independent basis, Debye-Ang**2):
  XXX=             34.1377  YYY=             -7.5486  ZZZ=             -9.1986  XYY=             17.2338
  XXY=             29.7687  XXZ=              0.6413  XZZ=             -6.5975  YZZ=              0.4248
  YYZ=             20.9777  XYZ=              5.1253
 Hexadecapole moment (field-independent basis, Debye-Ang**3):
 XXXX=          -1248.7390 YYYY=           -914.5620 ZZZZ=           -471.5413 XXXY=            -64.8563
 XXXZ=             -3.6217 YYYX=             23.8842 YYYZ=             80.2007 ZZZX=             16.7654
 ZZZY=             15.6724 XXYY=           -344.6021 XXZZ=           -241.2577 YYZZ=           -218.3493
 XXYZ=             12.9213 YYXZ=             21.9204 ZZXY=              9.6052
 N-N= 8.152926577677D+02 E-N=-3.016074933188D+03  KE= 5.886572606792D+02
 1\1\GINC-COMPUTE-3-0\SP\RmPW1PW91\6-31+G(d,p)\C8H15N1O3\MAMICHETTI.IQU
 IR\17-May-2024\0\\# mpw1pw91/6-31+G** nmr scrf=(pcm,solvent=water)\\co
 mment\\0,1\C,0,2.3058,-0.385278,-0.374914\C,0,0.974614,0.1846,-0.96312
 6\N,0,-0.118454,-0.759216,-0.567679\C,0,0.555399,-2.034251,-0.2456\C,0
 ,1.894405,-1.651932,0.402092\C,0,-0.864904,-0.157784,0.580001\C,0,-0.2
 54162,1.22633,0.849236\C,0,0.534521,1.55641,-0.437732\H,0,2.988527,-0.
 635262,-1.193706\H,0,2.815393,0.342615,0.262633\H,0,1.05132,0.233099,-
 2.054565\H,0,0.731115,-2.58644,-1.177757\H,0,-0.087845,-2.653681,0.385
 069\H,0,2.63836,-2.45244,0.338076\H,0,1.742423,-1.417772,1.461385\H,0,
 -0.753783,-0.779905,1.475678\H,0,-1.018563,1.992291,1.034834\H,0,1.386
 118,2.205479,-0.21519\O,0,-0.257512,2.286098,-1.383349\H,0,-0.90171,1.
 675349,-1.778225\O,0,0.614923,1.112429,1.984036\H,0,1.055152,1.972409,
 2.096717\C,0,-2.355357,-0.086416,0.234117\H,0,-2.936041,0.209429,1.113
 995\H,0,-2.527452,0.664187,-0.552731\O,0,-2.842853,-1.363095,-0.17829\
 H,0,-2.212211,-1.64838,-0.866081\\Version=AM64L-G09RevC.01\State=1-A\H
 F=-594.1957862\RMSD=4.243e-09\Dipole=1.254837,0.2942088,-0.0213908\Qua
 drupole=-1.9777647,1.112552,0.8652127,-3.388852,0.1509175,5.4326506\PG
 =C01 [X(C8H15N1O3)]\\@


 BUT 'GLORY' DOESN'T MEAN 'A NICE KNOCK DOWN ARGUMENT', ALICE OBJECTED.
 WHEN I USE A WORD, HUMPTY DUMPTY SAID, IN A RATHER SCORNFUL TONE,
 IT MEANS JUST WHAT I CHOOSE IT TO MEAN....
 NEITHER MORE NOR LESS....
 THE QUESTION IS, SAID ALICE,
 WHETHER YOU CAN MAKE WORDS MEAN SO MANY DIFFERENT THINGS...
 THE QUESTION IS, SAID HUMPTY DUMPTY,
 WHICH IS TO BE MASTER....
 THAT IS ALL.....

 ALICE THROUGH THE LOOKING GLASS
 Job cpu time:  0 days  0 hours  9 minutes 10.3 seconds.
 File lengths (MBytes):  RWF=    111 Int=      0 D2E=      0 Chk=      7 Scr=      1
 Normal termination of Gaussian 09 at Fri May 17 12:49:48 2024.
