 Entering Gaussian System, Link 0=g09
 Input=/home/mamichetti.iquir/Linux/02_Cardona_A1A3_R__R_R_R_014_OptB.gjc
 Output=/home/mamichetti.iquir/Linux/02_Cardona_A1A3_R__R_R_R_014_OptB.log
 Initial command:
 /opt/ohpc/pub/apps/software/Gaussian/09/AMD64.SSE4a-enabled/g09/l1.exe /local/mamichetti.iquir/Gau-714595.inp -scrdir=/local/mamichetti.iquir/
 Entering Link 1 = /opt/ohpc/pub/apps/software/Gaussian/09/AMD64.SSE4a-enabled/g09/l1.exe PID=    714596.
  
 Copyright (c) 1988,1990,1992,1993,1995,1998,2003,2009,2011,
            Gaussian, Inc.  All Rights Reserved.
  
 This is part of the Gaussian(R) 09 program.  It is based on
 the Gaussian(R) 03 system (copyright 2003, Gaussian, Inc.),
 the Gaussian(R) 98 system (copyright 1998, Gaussian, Inc.),
 the Gaussian(R) 94 system (copyright 1995, Gaussian, Inc.),
 the Gaussian 92(TM) system (copyright 1992, Gaussian, Inc.),
 the Gaussian 90(TM) system (copyright 1990, Gaussian, Inc.),
 the Gaussian 88(TM) system (copyright 1988, Gaussian, Inc.),
 the Gaussian 86(TM) system (copyright 1986, Carnegie Mellon
 University), and the Gaussian 82(TM) system (copyright 1983,
 Carnegie Mellon University). Gaussian is a federally registered
 trademark of Gaussian, Inc.
  
 This software contains proprietary and confidential information,
 including trade secrets, belonging to Gaussian, Inc.
  
 This software is provided under written license and may be
 used, copied, transmitted, or stored only in accord with that
 written license.
  
 The following legend is applicable only to US Government
 contracts under FAR:
  
                    RESTRICTED RIGHTS LEGEND
  
 Use, reproduction and disclosure by the US Government is
 subject to restrictions as set forth in subparagraphs (a)
 and (c) of the Commercial Computer Software - Restricted
 Rights clause in FAR 52.227-19.
  
 Gaussian, Inc.
 340 Quinnipiac St., Bldg. 40, Wallingford CT 06492
  
  
 ---------------------------------------------------------------
 Warning -- This program may not be used in any manner that
 competes with the business of Gaussian, Inc. or will provide
 assistance to any competitor of Gaussian, Inc.  The licensee
 of this program is prohibited from giving any competitor of
 Gaussian, Inc. access to this program.  By using this program,
 the user acknowledges that Gaussian, Inc. is engaged in the
 business of creating and licensing software in the field of
 computational chemistry and represents and warrants to the
 licensee that it is not a competitor of Gaussian, Inc. and that
 it will not use this program in any manner prohibited above.
 ---------------------------------------------------------------
  

 Cite this work as:
 Gaussian 09, Revision C.01,
 M. J. Frisch, G. W. Trucks, H. B. Schlegel, G. E. Scuseria, 
 M. A. Robb, J. R. Cheeseman, G. Scalmani, V. Barone, B. Mennucci, 
 G. A. Petersson, H. Nakatsuji, M. Caricato, X. Li, H. P. Hratchian, 
 A. F. Izmaylov, J. Bloino, G. Zheng, J. L. Sonnenberg, M. Hada, 
 M. Ehara, K. Toyota, R. Fukuda, J. Hasegawa, M. Ishida, T. Nakajima, 
 Y. Honda, O. Kitao, H. Nakai, T. Vreven, J. A. Montgomery, Jr., 
 J. E. Peralta, F. Ogliaro, M. Bearpark, J. J. Heyd, E. Brothers, 
 K. N. Kudin, V. N. Staroverov, T. Keith, R. Kobayashi, J. Normand, 
 K. Raghavachari, A. Rendell, J. C. Burant, S. S. Iyengar, J. Tomasi, 
 M. Cossi, N. Rega, J. M. Millam, M. Klene, J. E. Knox, J. B. Cross, 
 V. Bakken, C. Adamo, J. Jaramillo, R. Gomperts, R. E. Stratmann, 
 O. Yazyev, A. J. Austin, R. Cammi, C. Pomelli, J. W. Ochterski, 
 R. L. Martin, K. Morokuma, V. G. Zakrzewski, G. A. Voth, 
 P. Salvador, J. J. Dannenberg, S. Dapprich, A. D. Daniels, 
 O. Farkas, J. B. Foresman, J. V. Ortiz, J. Cioslowski, 
 and D. J. Fox, Gaussian, Inc., Wallingford CT, 2010.
 
 ******************************************
 Gaussian 09:  AM64L-G09RevC.01 23-Sep-2011
                17-May-2024 
 ******************************************
 %nprocshared=4
 Will use up to    4 processors via shared memory.
 ------------------------------------------------
 # mpw1pw91/6-31+G** nmr scrf=(pcm,solvent=water)
 ------------------------------------------------
 1/38=1/1;
 2/12=2,17=6,18=5,40=1/2;
 3/5=1,6=6,7=111,11=2,16=1,25=1,30=1,70=2201,72=1,74=-7/1,2,8,3;
 4//1;
 5/5=2,38=5,53=1/2;
 8/6=1,10=90,11=11/1;
 10/13=100,45=16/2;
 6/7=2,8=2,9=2,10=2,28=1/1;
 99/9=1/99;
 -------
 comment
 -------
 Charge =  0 Multiplicity = 1
 Symbolic Z-Matrix:
 6                     2.26355  -1.10783   0.22243 
 6                     1.27579  -0.15483  -0.46918 
 7                    -0.07096  -0.81323  -0.37881 
 6                     0.0841   -2.08503   0.35537 
 6                     1.55122  -2.46751   0.14306 
 6                    -1.03802   0.14556   0.19147 
 6                    -0.40391   1.51343  -0.08044 
 6                     1.0879    1.24304   0.13818 
 1                     3.25023  -1.10652  -0.25033 
 1                     2.3925   -0.81768   1.27263 
 1                     1.54978  -0.03258  -1.52816 
 1                    -0.60586  -2.84998  -0.01866 
 1                    -0.12416  -1.95327   1.43077 
 1                     1.68669  -2.9145   -0.84938 
 1                     1.90608  -3.18653   0.8879 
 1                    -1.11886   0.02      1.28592 
 1                    -0.55949   1.79758  -1.1342 
 1                     1.27715   1.22115   1.21744 
 8                     1.95396   2.25087  -0.37781 
 1                     1.8229    2.27323  -1.34217 
 8                    -0.96047   2.50283   0.77968 
 1                    -0.52241   3.34228   0.559 
 6                    -2.44024   0.01876  -0.39691 
 1                    -3.07964   0.7974    0.03244 
 1                    -2.40186   0.16981  -1.48493 
 8                    -3.07344  -1.22714  -0.0834 
 1                    -2.61911  -1.91366  -0.59829 
 
                          Input orientation:                          
 ---------------------------------------------------------------------
 Center     Atomic      Atomic             Coordinates (Angstroms)
 Number     Number       Type             X           Y           Z
 ---------------------------------------------------------------------
      1          6           0        2.263551   -1.107834    0.222434
      2          6           0        1.275790   -0.154833   -0.469178
      3          7           0       -0.070960   -0.813233   -0.378813
      4          6           0        0.084104   -2.085029    0.355368
      5          6           0        1.551222   -2.467509    0.143057
      6          6           0       -1.038023    0.145555    0.191467
      7          6           0       -0.403910    1.513427   -0.080441
      8          6           0        1.087896    1.243038    0.138177
      9          1           0        3.250228   -1.106524   -0.250329
     10          1           0        2.392496   -0.817682    1.272634
     11          1           0        1.549775   -0.032575   -1.528156
     12          1           0       -0.605863   -2.849979   -0.018658
     13          1           0       -0.124156   -1.953271    1.430769
     14          1           0        1.686692   -2.914501   -0.849383
     15          1           0        1.906076   -3.186531    0.887896
     16          1           0       -1.118860    0.019996    1.285916
     17          1           0       -0.559493    1.797579   -1.134202
     18          1           0        1.277147    1.221151    1.217438
     19          8           0        1.953961    2.250869   -0.377807
     20          1           0        1.822898    2.273229   -1.342169
     21          8           0       -0.960465    2.502829    0.779684
     22          1           0       -0.522411    3.342280    0.559000
     23          6           0       -2.440240    0.018762   -0.396907
     24          1           0       -3.079636    0.797403    0.032435
     25          1           0       -2.401858    0.169808   -1.484931
     26          8           0       -3.073438   -1.227142   -0.083396
     27          1           0       -2.619110   -1.913659   -0.598294
 ---------------------------------------------------------------------
                    Distance matrix (angstroms):
                    1          2          3          4          5
     1  C    0.000000
     2  C    1.536948   0.000000
     3  N    2.428627   1.501796   0.000000
     4  C    2.392190   2.413638   1.476662   0.000000
     5  C    1.537020   2.408146   2.374964   1.530948   0.000000
     6  C    3.531619   2.424957   1.476382   2.502306   3.678945
     7  C    3.752078   2.399083   2.369225   3.657454   4.440759
     8  C    2.629803   1.535652   2.416294   3.482930   3.739365
     9  H    1.094092   2.202729   3.336588   3.368781   2.212161
    10  H    1.097149   2.172627   2.965790   2.788587   2.169243
    11  H    2.174908   1.100659   2.134760   3.147765   2.953279
    12  H    3.365521   3.317740   2.136391   1.095946   2.196691
    13  H    2.806418   2.967158   2.139417   1.103277   2.174749
    14  H    2.178441   2.815877   2.779587   2.169732   1.096855
    15  H    2.211698   3.380844   3.338528   2.194647   1.094394
    16  H    3.720712   2.974100   2.136279   2.596954   3.824022
    17  H    4.272173   2.760875   2.761452   4.208050   4.927219
    18  H    2.717940   2.176696   2.916184   3.619025   3.851704
    19  O    3.425934   2.501133   3.672741   4.778485   4.764094
    20  H    3.751499   2.637598   3.747132   4.989935   4.975369
    21  O    4.872545   3.691024   3.623479   4.724363   5.605187
    22  H    5.261024   4.064539   4.283876   5.464889   6.182767
    23  C    4.876315   3.720784   2.511181   3.371078   4.733379
    24  H    5.675885   4.486436   3.437354   4.292080   5.667163
    25  H    5.129669   3.829131   2.760969   3.827662   5.023209
    26  O    5.347076   4.496049   3.045237   3.301296   4.793461
    27  H    5.016306   4.275557   2.784273   2.871621   4.271770
                    6          7          8          9         10
     6  C    0.000000
     7  C    1.532027   0.000000
     8  C    2.393082   1.531793   0.000000
     9  H    4.489096   4.499525   3.216684   0.000000
    10  H    3.723602   3.883911   2.689896   1.771595   0.000000
    11  H    3.112159   2.881473   2.148764   2.382803   3.028365
    12  H    3.033832   4.368514   4.432404   4.238248   3.845494
    13  H    2.603093   3.792099   3.654621   3.863876   2.765521
    14  H    4.227456   4.956656   4.314970   2.464202   3.065577
    15  H    4.500614   5.325722   4.566462   2.725570   2.448688
    16  H    1.104590   2.146723   2.771806   4.766343   3.609917
    17  H    2.171537   1.102434   2.154148   4.871244   4.620248
    18  H    2.751279   2.143798   1.095947   3.386068   2.324627
    19  O    3.702484   2.488333   1.425493   3.601201   3.511734
    20  H    3.881225   2.669818   1.947549   3.827808   4.088443
    21  O    2.430793   1.424249   2.488853   5.640770   4.744591
    22  H    3.258832   1.941039   2.678992   5.888945   5.129448
    23  C    1.525933   2.545744   3.772653   5.802515   5.180960
    24  H    2.149042   2.772173   4.192624   6.616047   5.838735
    25  H    2.161237   2.787418   3.995583   5.924470   5.618285
    26  O    2.470377   3.825847   4.844335   6.327019   5.646495
    27  H    2.713655   4.113417   4.924329   5.934785   5.460561
                   11         12         13         14         15
    11  H    0.000000
    12  H    3.855272   0.000000
    13  H    3.904658   1.771148   0.000000
    14  H    2.963946   2.439278   3.066305   0.000000
    15  H    3.988947   2.691644   2.436695   1.772080   0.000000
    16  H    3.878579   3.194031   2.214543   4.587145   4.426113
    17  H    2.820226   4.779789   4.564808   5.227826   5.916863
    18  H    3.030584   4.652715   3.476509   4.641454   4.464506
    19  O    2.588588   5.718421   5.026362   5.193733   5.582976
    20  H    2.329360   5.822184   5.416965   5.212862   5.898228
    21  O    4.249200   5.423619   4.580410   6.245700   6.371623
    22  H    4.476586   6.219705   5.381584   6.783140   6.973600
    23  C    4.147599   3.426031   3.548740   5.083339   5.551134
    24  H    4.955376   4.407444   4.272752   6.105220   6.439011
    25  H    3.957048   3.807186   4.265759   5.160729   5.954294
    26  O    4.988830   2.954102   3.393851   5.108107   5.438582
    27  H    4.667196   2.294741   3.216125   4.427715   4.930139
                   16         17         18         19         20
    16  H    0.000000
    17  H    3.054450   0.000000
    18  H    2.681103   3.039034   0.000000
    19  O    4.145720   2.663655   2.015739   0.000000
    20  H    4.542888   2.438295   2.820691   0.973484   0.000000
    21  O    2.538862   2.078729   2.615575   3.145973   3.507433
    22  H    3.452786   2.292250   2.858520   2.863774   3.202778
    23  C    2.139612   2.691654   4.227389   4.928658   4.914315
    24  H    2.453613   2.951697   4.534904   5.255279   5.301173
    25  H    3.057143   2.483336   4.684357   4.952746   4.721581
    26  O    2.692721   4.071001   5.158866   6.120292   6.149082
    27  H    3.088692   4.278143   5.320219   6.189094   6.149375
                   21         22         23         24         25
    21  O    0.000000
    22  H    0.972250   0.000000
    23  C    3.121648   3.954440   0.000000
    24  H    2.820947   3.645966   1.095191   0.000000
    25  H    3.556555   4.215988   1.099129   1.776417   0.000000
    26  O    4.372899   5.272573   1.432308   2.027865   2.089686
    27  H    4.914803   5.775844   1.951103   2.821305   2.274678
                   26         27
    26  O    0.000000
    27  H    0.970999   0.000000
 Stoichiometry    C8H15NO3
 Framework group  C1[X(C8H15NO3)]
 Deg. of freedom    75
 Full point group                 C1      NOp   1
 Largest Abelian subgroup         C1      NOp   1
 Largest concise Abelian subgroup C1      NOp   1
                         Standard orientation:                         
 ---------------------------------------------------------------------
 Center     Atomic      Atomic             Coordinates (Angstroms)
 Number     Number       Type             X           Y           Z
 ---------------------------------------------------------------------
      1          6           0        2.263551   -1.107833    0.222434
      2          6           0        1.275790   -0.154832   -0.469178
      3          7           0       -0.070960   -0.813233   -0.378813
      4          6           0        0.084105   -2.085029    0.355368
      5          6           0        1.551223   -2.467508    0.143057
      6          6           0       -1.038023    0.145554    0.191467
      7          6           0       -0.403911    1.513427   -0.080441
      8          6           0        1.087895    1.243038    0.138177
      9          1           0        3.250228   -1.106523   -0.250329
     10          1           0        2.392496   -0.817681    1.272634
     11          1           0        1.549775   -0.032574   -1.528156
     12          1           0       -0.605862   -2.849979   -0.018658
     13          1           0       -0.124155   -1.953271    1.430769
     14          1           0        1.686693   -2.914500   -0.849383
     15          1           0        1.906077   -3.186530    0.887896
     16          1           0       -1.118860    0.019995    1.285916
     17          1           0       -0.559494    1.797579   -1.134202
     18          1           0        1.277146    1.221152    1.217438
     19          8           0        1.953960    2.250870   -0.377807
     20          1           0        1.822897    2.273230   -1.342169
     21          8           0       -0.960466    2.502829    0.779684
     22          1           0       -0.522413    3.342280    0.559000
     23          6           0       -2.440240    0.018761   -0.396907
     24          1           0       -3.079636    0.797402    0.032435
     25          1           0       -2.401858    0.169807   -1.484931
     26          8           0       -3.073438   -1.227143   -0.083396
     27          1           0       -2.619109   -1.913660   -0.598294
 ---------------------------------------------------------------------
 Rotational constants (GHZ):      1.0203654      0.9474865      0.5310320
 Standard basis: 6-31+G(d,p) (6D, 7F)
 There are   303 symmetry adapted basis functions of A   symmetry.
 Integral buffers will be    131072 words long.
 Raffenetti 2 integral format.
 Two-electron integral symmetry is turned on.
   303 basis functions,   489 primitive gaussians,   303 cartesian basis functions
    47 alpha electrons       47 beta electrons
       nuclear repulsion energy       794.8411423111 Hartrees.
 NAtoms=   27 NActive=   27 NUniq=   27 SFac= 1.00D+00 NAtFMM=   60 NAOKFM=F Big=F
 ------------------------------------------------------------------------------
 Polarizable Continuum Model (PCM)
 =================================
 Model                : PCM.
 Atomic radii         : UFF (Universal Force Field).
 Polarization charges : Total charges.
 Charge compensation  : None.
 Solution method      : Matrix inversion.
 Cavity type          : Scaled VdW (van der Waals Surface) (Alpha=1.100).
 Cavity algorithm     : GePol (No added spheres)
                        Default sphere list used, NSphG=   27.
                        Lebedev-Laikov grids with approx.  5.0 points / Ang**2.
                        Smoothing algorithm: Karplus/York (Gamma=1.0000).
                        Polarization charges: spherical gaussians, with
                                              point-specific exponents (IZeta= 3).
                        Self-potential: point-specific (ISelfS= 7).
                        Self-field    : sphere-specific E.n sum rule (ISelfD= 2).
 Solvent              : Water, Eps=  78.355300 Eps(inf)=   1.777849
 ------------------------------------------------------------------------------
 One-electron integrals computed using PRISM.
 NBasis=   303 RedAO= T  NBF=   303
 NBsUse=   303 1.00D-06 NBFU=   303
 Harris functional with IExCor=  908 diagonalized for initial guess.
 ExpMin= 4.38D-02 ExpMax= 5.48D+03 ExpMxC= 8.25D+02 IAcc=2 IRadAn=         4 AccDes= 0.00D+00
 HarFok:  IExCor=  908 AccDes= 0.00D+00 IRadAn=         4 IDoV= 1
 ScaDFX=  1.000000  1.000000  1.000000  1.000000
 FoFCou: FMM=F IPFlag=           0 FMFlag=      100000 FMFlg1=           0
         NFxFlg=           0 DoJE=T BraDBF=F KetDBF=T FulRan=T
         Omega=  0.000000  0.000000  1.000000  0.000000  0.000000 ICntrl=     500 IOpCl=  0
         NMat0=    1 NMatS0=    1 NMatT0=    0 NMatD0=    1 NMtDS0=    0 NMtDT0=    0
         I1Cent=           4 NGrid=           0.
 Petite list used in FoFCou.
 Initial guess orbital symmetries:
       Occupied  (A) (A) (A) (A) (A) (A) (A) (A) (A) (A) (A) (A)
                 (A) (A) (A) (A) (A) (A) (A) (A) (A) (A) (A) (A)
                 (A) (A) (A) (A) (A) (A) (A) (A) (A) (A) (A) (A)
                 (A) (A) (A) (A) (A) (A) (A) (A) (A) (A) (A)
       Virtual   (A) (A) (A) (A) (A) (A) (A) (A) (A) (A) (A) (A)
                 (A) (A) (A) (A) (A) (A) (A) (A) (A) (A) (A) (A)
                 (A) (A) (A) (A) (A) (A) (A) (A) (A) (A) (A) (A)
                 (A) (A) (A) (A) (A) (A) (A) (A) (A) (A) (A) (A)
                 (A) (A) (A) (A) (A) (A) (A) (A) (A) (A) (A) (A)
                 (A) (A) (A) (A) (A) (A) (A) (A) (A) (A) (A) (A)
                 (A) (A) (A) (A) (A) (A) (A) (A) (A) (A) (A) (A)
                 (A) (A) (A) (A) (A) (A) (A) (A) (A) (A) (A) (A)
                 (A) (A) (A) (A) (A) (A) (A) (A) (A) (A) (A) (A)
                 (A) (A) (A) (A) (A) (A) (A) (A) (A) (A) (A) (A)
                 (A) (A) (A) (A) (A) (A) (A) (A) (A) (A) (A) (A)
                 (A) (A) (A) (A) (A) (A) (A) (A) (A) (A) (A) (A)
                 (A) (A) (A) (A) (A) (A) (A) (A) (A) (A) (A) (A)
                 (A) (A) (A) (A) (A) (A) (A) (A) (A) (A) (A) (A)
                 (A) (A) (A) (A) (A) (A) (A) (A) (A) (A) (A) (A)
                 (A) (A) (A) (A) (A) (A) (A) (A) (A) (A) (A) (A)
                 (A) (A) (A) (A) (A) (A) (A) (A) (A) (A) (A) (A)
                 (A) (A) (A) (A) (A) (A) (A) (A) (A) (A) (A) (A)
                 (A) (A) (A) (A) (A) (A) (A) (A) (A) (A) (A) (A)
                 (A) (A) (A) (A) (A) (A) (A) (A) (A) (A) (A) (A)
                 (A) (A) (A) (A) (A) (A) (A) (A) (A) (A) (A) (A)
                 (A) (A) (A) (A)
 The electronic state of the initial guess is 1-A.
 Requested convergence on RMS density matrix=1.00D-08 within 128 cycles.
 Requested convergence on MAX density matrix=1.00D-06.
 Requested convergence on             energy=1.00D-06.
 No special actions if energy rises.
 Error on total polarization charges =  0.01465
 SCF Done:  E(RmPW1PW91) =  -594.198697873     A.U. after   13 cycles
             Convg  =    0.7383D-08             -V/T =  2.0094
 Range of M.O.s used for correlation:     1   303
 NBasis=   303 NAE=    47 NBE=    47 NFC=     0 NFV=     0
 NROrb=    303 NOA=    47 NOB=    47 NVA=   256 NVB=   256

 **** Warning!!: The largest alpha MO coefficient is  0.80043232D+02

 NEqPCM:  Using equilibrium solvation (IEInf=0, Eps=  78.3553, EpsInf=   1.7778)
          Differentiating once with respect to magnetic field using GIAOs.
          Electric field/nuclear overlap derivatives assumed to be zero.
 FoFCou: FMM=F IPFlag=           0 FMFlag=    10101102 FMFlg1=           0
         NFxFlg=    40000000 DoJE=F BraDBF=F KetDBF=T FulRan=T
         Omega=  0.000000  0.000000  1.000000  0.000000  0.000000 ICntrl=    6100 IOpCl=  0
         NMat0=    1 NMatS0=    1 NMatT0=    0 NMatD0=    1 NMtDS0=    0 NMtDT0=    0
         I1Cent=           7 NGrid=        1850.
 Symmetry not used in FoFCou.
          There are     3 degrees of freedom in the 1st order CPHF.  IDoFFX=0.
      3 vectors produced by pass  0 Test12= 4.01D-13 3.33D-08 XBig12= 4.49D+01 1.35D+00.
 AX will form     3 AO Fock derivatives at one time.
      3 vectors produced by pass  1 Test12= 4.01D-13 3.33D-08 XBig12= 1.21D-01 6.67D-02.
      3 vectors produced by pass  2 Test12= 4.01D-13 3.33D-08 XBig12= 3.33D-04 4.09D-03.
      3 vectors produced by pass  3 Test12= 4.01D-13 3.33D-08 XBig12= 1.64D-06 2.32D-04.
      3 vectors produced by pass  4 Test12= 4.01D-13 3.33D-08 XBig12= 4.50D-09 1.13D-05.
      3 vectors produced by pass  5 Test12= 4.01D-13 3.33D-08 XBig12= 1.22D-11 7.78D-07.
 Inverted reduced A of dimension    18 with in-core refinement.
 Calculating GIAO nuclear magnetic shielding tensors.
 SCF GIAO Magnetic shielding tensor (ppm):
      1  C    Isotropic =   162.8401   Anisotropy =    24.8949
   XX=   160.8727   YX=    -9.3996   ZX=     8.6062
   XY=     0.1845   YY=   174.8982   ZY=    -6.6016
   XZ=    13.5780   YZ=    -4.3969   ZZ=   152.7494
   Eigenvalues:   144.8740   164.2096   179.4367
      2  C    Isotropic =   126.0135   Anisotropy =    54.9521
   XX=   142.6818   YX=    16.5450   ZX=    -1.4260
   XY=    24.8983   YY=   140.7363   ZY=    -4.0982
   XZ=    -3.9536   YZ=    -0.8081   ZZ=    94.6225
   Eigenvalues:    94.4275   120.9648   162.6482
      3  N    Isotropic =   196.1616   Anisotropy =    89.5978
   XX=   245.7578   YX=   -16.3019   ZX=    -9.5985
   XY=   -24.8883   YY=   211.8627   ZY=    -9.1469
   XZ=   -13.8563   YZ=    -7.3164   ZZ=   130.8643
   Eigenvalues:   128.3674   204.2239   255.8935
      4  C    Isotropic =   136.3665   Anisotropy =    57.0655
   XX=   127.8299   YX=   -10.4362   ZX=     2.3735
   XY=   -19.9743   YY=   158.2245   ZY=   -22.6021
   XZ=    -3.9959   YZ=   -25.9387   ZZ=   123.0451
   Eigenvalues:   107.3710   127.3183   174.4101
      5  C    Isotropic =   164.0914   Anisotropy =    23.8392
   XX=   179.8563   YX=    -0.2433   ZX=     1.5646
   XY=    -0.7520   YY=   178.0427   ZY=   -11.3695
   XZ=    -4.1535   YZ=     0.4743   ZZ=   134.3752
   Eigenvalues:   133.6667   178.6233   179.9841
      6  C    Isotropic =   123.7805   Anisotropy =    37.5537
   XX=   118.8185   YX=   -10.4109   ZX=    -4.3096
   XY=   -17.8093   YY=   137.5900   ZY=    12.8639
   XZ=   -14.6566   YZ=     2.0261   ZZ=   114.9330
   Eigenvalues:   106.6626   115.8626   148.8163
      7  C    Isotropic =   113.4067   Anisotropy =    37.3071
   XX=   126.0597   YX=    -8.5879   ZX=   -10.4240
   XY=    -9.9238   YY=   122.8086   ZY=    23.9556
   XZ=    -3.4379   YZ=     3.6824   ZZ=    91.3517
   Eigenvalues:    85.8649   116.0770   138.2781
      8  C    Isotropic =   110.2740   Anisotropy =    17.5838
   XX=   119.5342   YX=     1.6214   ZX=   -10.8251
   XY=    -0.9051   YY=   117.3603   ZY=    -7.5519
   XZ=    -4.5867   YZ=     1.2797   ZZ=    93.9274
   Eigenvalues:    91.4562   117.3691   121.9965
      9  H    Isotropic =    29.5020   Anisotropy =     9.7421
   XX=    35.3443   YX=    -0.6718   ZX=    -2.4392
   XY=    -0.0815   YY=    27.5045   ZY=    -0.3725
   XZ=    -2.7087   YZ=    -0.1351   ZZ=    25.6570
   Eigenvalues:    24.9705    27.5387    35.9967
     10  H    Isotropic =    30.0217   Anisotropy =     8.2416
   XX=    28.1970   YX=     0.2291   ZX=     4.4615
   XY=    -0.2061   YY=    29.2884   ZY=     1.2522
   XZ=     4.2758   YZ=     1.5962   ZZ=    32.5797
   Eigenvalues:    25.3568    29.1921    35.5161
     11  H    Isotropic =    28.4058   Anisotropy =     6.9856
   XX=    28.8972   YX=     1.2365   ZX=    -3.2331
   XY=     0.7775   YY=    26.3723   ZY=    -1.8537
   XZ=    -2.5109   YZ=    -2.1675   ZZ=    29.9480
   Eigenvalues:    25.4321    26.7225    33.0629
     12  H    Isotropic =    28.4016   Anisotropy =     8.3726
   XX=    29.4885   YX=     2.2266   ZX=     1.3104
   XY=     2.8410   YY=    32.5114   ZY=     0.3015
   XZ=     1.4891   YZ=    -0.5368   ZZ=    23.2049
   Eigenvalues:    22.8602    28.3613    33.9834
     13  H    Isotropic =    28.9227   Anisotropy =     7.5572
   XX=    27.5854   YX=    -0.3466   ZX=    -1.3458
   XY=    -0.4193   YY=    27.9475   ZY=    -4.5282
   XZ=    -2.4353   YZ=    -2.9014   ZZ=    31.2351
   Eigenvalues:    24.8139    27.9934    33.9608
     14  H    Isotropic =    29.5135   Anisotropy =    10.5420
   XX=    27.7254   YX=    -1.3814   ZX=    -1.8267
   XY=    -1.5202   YY=    31.2788   ZY=     5.2052
   XZ=    -1.8827   YZ=     5.7142   ZZ=    29.5363
   Eigenvalues:    24.7891    27.2098    36.5415
     15  H    Isotropic =    29.4590   Anisotropy =    11.5303
   XX=    27.9095   YX=    -2.8913   ZX=     2.1336
   XY=    -3.3757   YY=    33.2470   ZY=    -4.8213
   XZ=     2.0876   YZ=    -4.0964   ZZ=    27.2205
   Eigenvalues:    24.7678    26.4633    37.1459
     16  H    Isotropic =    28.7479   Anisotropy =     4.6606
   XX=    29.6679   YX=    -0.7908   ZX=    -1.8493
   XY=    -0.6012   YY=    27.3537   ZY=     2.5453
   XZ=    -1.7483   YZ=     0.7534   ZZ=    29.2221
   Eigenvalues:    26.3532    28.0355    31.8549
     17  H    Isotropic =    27.9530   Anisotropy =     1.6088
   XX=    26.6046   YX=    -1.3889   ZX=    -0.2315
   XY=    -0.2449   YY=    28.5708   ZY=     1.0332
   XZ=     0.3074   YZ=    -0.5132   ZZ=    28.6835
   Eigenvalues:    26.3030    28.5305    29.0255
     18  H    Isotropic =    27.9928   Anisotropy =     2.4962
   XX=    26.8822   YX=     1.3258   ZX=     0.1175
   XY=     1.0352   YY=    29.1343   ZY=    -0.7845
   XZ=     0.7014   YZ=     0.0705   ZZ=    27.9620
   Eigenvalues:    26.2225    28.0991    29.6570
     19  O    Isotropic =   293.3858   Anisotropy =    96.8677
   XX=   258.1354   YX=    10.6381   ZX=    15.5556
   XY=    16.0352   YY=   269.4591   ZY=   -12.9778
   XZ=    -7.0758   YZ=   -30.7133   ZZ=   352.5630
   Eigenvalues:   246.8208   275.3724   357.9643
     20  H    Isotropic =    30.9599   Anisotropy =    16.2251
   XX=    25.4496   YX=     3.4240   ZX=    -0.9657
   XY=     2.5037   YY=    26.7233   ZY=    -4.2683
   XZ=    -0.4590   YZ=    -3.2394   ZZ=    40.7067
   Eigenvalues:    22.8519    28.2511    41.7766
     21  O    Isotropic =   297.4293   Anisotropy =    42.0525
   XX=   272.6449   YX=    16.5496   ZX=    13.5609
   XY=     5.1551   YY=   312.8742   ZY=     5.6226
   XZ=   -12.6428   YZ=    22.0204   ZZ=   306.7688
   Eigenvalues:   269.6435   297.1802   325.4643
     22  H    Isotropic =    29.3463   Anisotropy =    18.7940
   XX=    25.3888   YX=     3.4257   ZX=    -4.0720
   XY=     4.5119   YY=    40.8388   ZY=    -0.4942
   XZ=    -2.4408   YZ=    -0.4536   ZZ=    21.8113
   Eigenvalues:    19.7500    26.4132    41.8756
     23  C    Isotropic =   125.0401   Anisotropy =    49.0708
   XX=   130.5355   YX=    18.1765   ZX=     5.9128
   XY=    24.1469   YY=   138.6747   ZY=   -16.4309
   XZ=     3.5202   YZ=   -14.0573   ZZ=   105.9102
   Eigenvalues:    94.8694   122.4971   157.7540
     24  H    Isotropic =    27.7504   Anisotropy =     5.3351
   XX=    30.7314   YX=     0.0790   ZX=     0.1338
   XY=    -1.5685   YY=    30.2655   ZY=     1.1390
   XZ=    -0.3903   YZ=     0.2085   ZZ=    22.2543
   Eigenvalues:    22.1975    29.7466    31.3071
     25  H    Isotropic =    27.9907   Anisotropy =     5.5313
   XX=    27.1111   YX=     2.3230   ZX=     2.0191
   XY=     2.2423   YY=    28.2527   ZY=    -4.4064
   XZ=     2.4348   YZ=    -2.0779   ZZ=    28.6082
   Eigenvalues:    22.8161    29.4777    31.6782
     26  O    Isotropic =   306.9656   Anisotropy =    22.4310
   XX=   302.0359   YX=   -15.5364   ZX=     2.0738
   XY=    -0.6489   YY=   315.4785   ZY=     2.4680
   XZ=   -12.9104   YZ=     7.7769   ZZ=   303.3823
   Eigenvalues:   296.6287   302.3484   321.9195
     27  H    Isotropic =    30.0663   Anisotropy =    14.7667
   XX=    29.2678   YX=    -1.5326   ZX=    -3.7101
   XY=    -2.2333   YY=    35.8143   ZY=     6.7426
   XZ=    -2.8630   YZ=     6.4968   ZZ=    25.1169
   Eigenvalues:    21.3273    28.9609    39.9108
 End of Minotr Frequency-dependent properties file   721 does not exist.
 End of Minotr Frequency-dependent properties file   722 does not exist.

 **********************************************************************

            Population analysis using the SCF density.

 **********************************************************************

 Orbital symmetries:
       Occupied  (A) (A) (A) (A) (A) (A) (A) (A) (A) (A) (A) (A)
                 (A) (A) (A) (A) (A) (A) (A) (A) (A) (A) (A) (A)
                 (A) (A) (A) (A) (A) (A) (A) (A) (A) (A) (A) (A)
                 (A) (A) (A) (A) (A) (A) (A) (A) (A) (A) (A)
       Virtual   (A) (A) (A) (A) (A) (A) (A) (A) (A) (A) (A) (A)
                 (A) (A) (A) (A) (A) (A) (A) (A) (A) (A) (A) (A)
                 (A) (A) (A) (A) (A) (A) (A) (A) (A) (A) (A) (A)
                 (A) (A) (A) (A) (A) (A) (A) (A) (A) (A) (A) (A)
                 (A) (A) (A) (A) (A) (A) (A) (A) (A) (A) (A) (A)
                 (A) (A) (A) (A) (A) (A) (A) (A) (A) (A) (A) (A)
                 (A) (A) (A) (A) (A) (A) (A) (A) (A) (A) (A) (A)
                 (A) (A) (A) (A) (A) (A) (A) (A) (A) (A) (A) (A)
                 (A) (A) (A) (A) (A) (A) (A) (A) (A) (A) (A) (A)
                 (A) (A) (A) (A) (A) (A) (A) (A) (A) (A) (A) (A)
                 (A) (A) (A) (A) (A) (A) (A) (A) (A) (A) (A) (A)
                 (A) (A) (A) (A) (A) (A) (A) (A) (A) (A) (A) (A)
                 (A) (A) (A) (A) (A) (A) (A) (A) (A) (A) (A) (A)
                 (A) (A) (A) (A) (A) (A) (A) (A) (A) (A) (A) (A)
                 (A) (A) (A) (A) (A) (A) (A) (A) (A) (A) (A) (A)
                 (A) (A) (A) (A) (A) (A) (A) (A) (A) (A) (A) (A)
                 (A) (A) (A) (A) (A) (A) (A) (A) (A) (A) (A) (A)
                 (A) (A) (A) (A) (A) (A) (A) (A) (A) (A) (A) (A)
                 (A) (A) (A) (A) (A) (A) (A) (A) (A) (A) (A) (A)
                 (A) (A) (A) (A) (A) (A) (A) (A) (A) (A) (A) (A)
                 (A) (A) (A) (A) (A) (A) (A) (A) (A) (A) (A) (A)
                 (A) (A) (A) (A)
 The electronic state is 1-A.
 Alpha  occ. eigenvalues --  -19.26391 -19.26268 -19.25645 -14.41578 -10.30853
 Alpha  occ. eigenvalues --  -10.30443 -10.29461 -10.28237 -10.28114 -10.27148
 Alpha  occ. eigenvalues --  -10.24807 -10.24770  -1.07624  -1.05903  -1.05662
 Alpha  occ. eigenvalues --   -0.96852  -0.83381  -0.79399  -0.75570  -0.71749
 Alpha  occ. eigenvalues --   -0.66560  -0.62601  -0.60711  -0.58243  -0.56073
 Alpha  occ. eigenvalues --   -0.54575  -0.51704  -0.49963  -0.48960  -0.46840
 Alpha  occ. eigenvalues --   -0.45767  -0.45407  -0.43510  -0.43227  -0.40362
 Alpha  occ. eigenvalues --   -0.39677  -0.39018  -0.37424  -0.36661  -0.35969
 Alpha  occ. eigenvalues --   -0.35169  -0.34909  -0.33833  -0.32409  -0.30230
 Alpha  occ. eigenvalues --   -0.28087  -0.23227
 Alpha virt. eigenvalues --    0.00706   0.01177   0.02031   0.02213   0.03523
 Alpha virt. eigenvalues --    0.04173   0.04752   0.04776   0.05405   0.06495
 Alpha virt. eigenvalues --    0.07616   0.08140   0.08697   0.09234   0.09396
 Alpha virt. eigenvalues --    0.10205   0.10776   0.11967   0.12196   0.12432
 Alpha virt. eigenvalues --    0.13314   0.13759   0.14123   0.14410   0.15265
 Alpha virt. eigenvalues --    0.15338   0.16207   0.17010   0.18334   0.18393
 Alpha virt. eigenvalues --    0.18637   0.19309   0.19473   0.20312   0.20900
 Alpha virt. eigenvalues --    0.21664   0.22088   0.22744   0.23079   0.23794
 Alpha virt. eigenvalues --    0.24067   0.24786   0.25021   0.25906   0.26106
 Alpha virt. eigenvalues --    0.26507   0.26689   0.27514   0.28124   0.29072
 Alpha virt. eigenvalues --    0.29198   0.30084   0.30742   0.31460   0.31878
 Alpha virt. eigenvalues --    0.32317   0.33205   0.33579   0.34137   0.34500
 Alpha virt. eigenvalues --    0.35064   0.35317   0.36193   0.37352   0.37912
 Alpha virt. eigenvalues --    0.38392   0.38710   0.39197   0.40360   0.40615
 Alpha virt. eigenvalues --    0.41004   0.41974   0.43421   0.44682   0.45755
 Alpha virt. eigenvalues --    0.46157   0.62766   0.64580   0.66309   0.68397
 Alpha virt. eigenvalues --    0.69941   0.70494   0.71100   0.71872   0.74408
 Alpha virt. eigenvalues --    0.75029   0.76896   0.78963   0.80755   0.80784
 Alpha virt. eigenvalues --    0.83488   0.84896   0.85949   0.86760   0.87693
 Alpha virt. eigenvalues --    0.88659   0.90261   0.91792   0.94431   0.97198
 Alpha virt. eigenvalues --    0.97657   0.99199   1.01458   1.04135   1.04655
 Alpha virt. eigenvalues --    1.05746   1.06923   1.07008   1.08841   1.10009
 Alpha virt. eigenvalues --    1.11625   1.12387   1.13501   1.14076   1.15152
 Alpha virt. eigenvalues --    1.18247   1.19768   1.20615   1.22392   1.23895
 Alpha virt. eigenvalues --    1.25800   1.26911   1.29148   1.29787   1.31524
 Alpha virt. eigenvalues --    1.33743   1.35113   1.36952   1.39801   1.42395
 Alpha virt. eigenvalues --    1.43031   1.45638   1.47344   1.49525   1.50582
 Alpha virt. eigenvalues --    1.53653   1.55058   1.57036   1.59466   1.60078
 Alpha virt. eigenvalues --    1.61039   1.62546   1.64938   1.66027   1.70317
 Alpha virt. eigenvalues --    1.72159   1.72628   1.76442   1.77497   1.79670
 Alpha virt. eigenvalues --    1.81135   1.81489   1.83228   1.85166   1.87366
 Alpha virt. eigenvalues --    1.87566   1.88108   1.90408   1.92257   1.96070
 Alpha virt. eigenvalues --    1.96603   1.99281   2.00841   2.02237   2.03756
 Alpha virt. eigenvalues --    2.03994   2.06661   2.08074   2.09157   2.10230
 Alpha virt. eigenvalues --    2.12476   2.13542   2.14892   2.17350   2.18057
 Alpha virt. eigenvalues --    2.21166   2.22994   2.25797   2.25893   2.29474
 Alpha virt. eigenvalues --    2.29836   2.33803   2.34757   2.35978   2.38207
 Alpha virt. eigenvalues --    2.39762   2.42463   2.43267   2.44292   2.44749
 Alpha virt. eigenvalues --    2.47316   2.49919   2.51320   2.51840   2.52708
 Alpha virt. eigenvalues --    2.55099   2.56613   2.59052   2.62283   2.63095
 Alpha virt. eigenvalues --    2.63652   2.66432   2.67013   2.68403   2.69952
 Alpha virt. eigenvalues --    2.71530   2.72291   2.75649   2.76119   2.76933
 Alpha virt. eigenvalues --    2.78838   2.81298   2.82702   2.84836   2.86103
 Alpha virt. eigenvalues --    2.87647   2.89935   2.91474   2.93052   2.94306
 Alpha virt. eigenvalues --    2.95997   2.99280   3.00291   3.01802   3.03722
 Alpha virt. eigenvalues --    3.04913   3.09879   3.12364   3.16722   3.31378
 Alpha virt. eigenvalues --    3.34047   3.35564   3.36041   3.37637   3.42620
 Alpha virt. eigenvalues --    3.47901   3.50569   3.52660   3.53839   3.55771
 Alpha virt. eigenvalues --    3.57226   3.57274   3.59881   3.61653   4.31045
 Alpha virt. eigenvalues --    4.34890   4.37551   4.41235   4.47066   4.47989
 Alpha virt. eigenvalues --    4.56950   4.66439   4.76274   4.78211   4.85129
 Alpha virt. eigenvalues --    4.93887
          Condensed to atoms (all electrons):
              1          2          3          4          5          6
     1  C    6.222932  -1.476187   0.236676  -0.264532   0.175752   0.156426
     2  C   -1.476187  11.020094  -0.773085  -0.526146   0.554846  -0.743041
     3  N    0.236676  -0.773085   7.538356   0.275500  -0.194923  -0.263336
     4  C   -0.264532  -0.526146   0.275500   5.859351  -0.100974  -0.160988
     5  C    0.175752   0.554846  -0.194923  -0.100974   5.815581  -0.182556
     6  C    0.156426  -0.743041  -0.263336  -0.160988  -0.182556   9.022289
     7  C   -0.193627   1.044725  -0.186056  -0.011847   0.007209  -0.795751
     8  C    0.419272  -2.374486   0.244277   0.312518  -0.312643   0.155733
     9  H    0.400025  -0.086035   0.015877   0.036509  -0.035566   0.002560
    10  H    0.504562  -0.229012   0.032203   0.021949  -0.073388   0.019696
    11  H    0.108597   0.055329   0.017336   0.016957  -0.021625   0.046121
    12  H    0.044029  -0.009361  -0.039061   0.365258  -0.013023  -0.009711
    13  H   -0.013708   0.023415  -0.101753   0.425341  -0.044290   0.008333
    14  H   -0.022065  -0.047308   0.013736  -0.027511   0.387160   0.009090
    15  H   -0.068168   0.047705   0.005197  -0.020311   0.380920  -0.006077
    16  H   -0.018554   0.065197  -0.068343   0.017027   0.006353   0.216883
    17  H    0.010876  -0.032304   0.050961   0.010775   0.000856  -0.190803
    18  H    0.058248  -0.277820   0.050935   0.010506  -0.002190   0.025802
    19  O   -0.013691   0.004829   0.017527  -0.009805   0.006934  -0.018359
    20  H    0.021987  -0.133563   0.009527   0.001246  -0.000639   0.010935
    21  O   -0.003460   0.055205   0.009697  -0.001621   0.004637  -0.111278
    22  H   -0.000748   0.007343  -0.003973  -0.000296  -0.000078   0.051347
    23  C    0.089122  -0.215240   0.233500  -0.023522   0.011782  -0.865502
    24  H    0.000070   0.013758   0.013014  -0.002477   0.001204  -0.159866
    25  H   -0.000600   0.011665   0.008414   0.010872   0.003736  -0.112068
    26  O   -0.003318   0.037752   0.023763  -0.015544   0.026100  -0.144525
    27  H   -0.000440   0.012974   0.023254   0.003631   0.009749  -0.095164
              7          8          9         10         11         12
     1  C   -0.193627   0.419272   0.400025   0.504562   0.108597   0.044029
     2  C    1.044725  -2.374486  -0.086035  -0.229012   0.055329  -0.009361
     3  N   -0.186056   0.244277   0.015877   0.032203   0.017336  -0.039061
     4  C   -0.011847   0.312518   0.036509   0.021949   0.016957   0.365258
     5  C    0.007209  -0.312643  -0.035566  -0.073388  -0.021625  -0.013023
     6  C   -0.795751   0.155733   0.002560   0.019696   0.046121  -0.009711
     7  C    6.354970  -0.628353  -0.002317  -0.010519  -0.064109  -0.007985
     8  C   -0.628353   7.572802   0.009750   0.047050   0.069440  -0.000025
     9  H   -0.002317   0.009750   0.510754  -0.023790  -0.003626  -0.000103
    10  H   -0.010519   0.047050  -0.023790   0.529331   0.004315  -0.000033
    11  H   -0.064109   0.069440  -0.003626   0.004315   0.579643   0.000241
    12  H   -0.007985  -0.000025  -0.000103  -0.000033   0.000241   0.559048
    13  H    0.015953   0.002907  -0.000140   0.000954  -0.000553  -0.043325
    14  H   -0.001656   0.015970  -0.004959   0.004148   0.000842  -0.006003
    15  H    0.000535   0.002405   0.000372  -0.005335  -0.000122   0.000732
    16  H    0.078041  -0.044314  -0.000005  -0.000178  -0.000618  -0.001068
    17  H    0.413812  -0.025160   0.000005  -0.000008   0.001105   0.000012
    18  H   -0.136732   0.579589   0.000320   0.003818   0.004569   0.000015
    19  O   -0.035306   0.171149   0.000532   0.001621   0.004487   0.000054
    20  H   -0.076432   0.150627   0.000065   0.000047   0.005343   0.000000
    21  O    0.267590  -0.149062   0.000014  -0.000276  -0.000536   0.000028
    22  H    0.001871  -0.042044   0.000000   0.000001  -0.000002   0.000000
    23  C   -0.040579  -0.005490   0.000366   0.001422   0.017791   0.002987
    24  H    0.033299  -0.012784   0.000000   0.000000  -0.000007  -0.000048
    25  H   -0.001369  -0.013291   0.000000   0.000000  -0.000037   0.000035
    26  O    0.024428  -0.026350   0.000001  -0.000002  -0.000068  -0.000890
    27  H    0.001553  -0.003284   0.000000   0.000000  -0.000007   0.000574
             13         14         15         16         17         18
     1  C   -0.013708  -0.022065  -0.068168  -0.018554   0.010876   0.058248
     2  C    0.023415  -0.047308   0.047705   0.065197  -0.032304  -0.277820
     3  N   -0.101753   0.013736   0.005197  -0.068343   0.050961   0.050935
     4  C    0.425341  -0.027511  -0.020311   0.017027   0.010775   0.010506
     5  C   -0.044290   0.387160   0.380920   0.006353   0.000856  -0.002190
     6  C    0.008333   0.009090  -0.006077   0.216883  -0.190803   0.025802
     7  C    0.015953  -0.001656   0.000535   0.078041   0.413812  -0.136732
     8  C    0.002907   0.015970   0.002405  -0.044314  -0.025160   0.579589
     9  H   -0.000140  -0.004959   0.000372  -0.000005   0.000005   0.000320
    10  H    0.000954   0.004148  -0.005335  -0.000178  -0.000008   0.003818
    11  H   -0.000553   0.000842  -0.000122  -0.000618   0.001105   0.004569
    12  H   -0.043325  -0.006003   0.000732  -0.001068   0.000012   0.000015
    13  H    0.572743   0.003886  -0.004364   0.011692  -0.000032  -0.000330
    14  H    0.003886   0.518401  -0.024054  -0.000015  -0.000003  -0.000007
    15  H   -0.004364  -0.024054   0.511868  -0.000009   0.000000  -0.000025
    16  H    0.011692  -0.000015  -0.000009   0.568275   0.003991   0.000473
    17  H   -0.000032  -0.000003   0.000000   0.003991   0.566342   0.004535
    18  H   -0.000330  -0.000007  -0.000025   0.000473   0.004535   0.533430
    19  O   -0.000244   0.000011   0.000000  -0.001106  -0.008385  -0.056656
    20  H   -0.000001   0.000000   0.000000  -0.000004   0.004408   0.006912
    21  O   -0.000214  -0.000008  -0.000007   0.001160  -0.042566  -0.003645
    22  H    0.000001   0.000000   0.000000   0.000077  -0.005521  -0.000292
    23  C   -0.011230  -0.000152  -0.000272  -0.005499   0.064356   0.016627
    24  H    0.000043   0.000000   0.000000  -0.001843   0.000233  -0.000006
    25  H   -0.000011  -0.000001   0.000000   0.004635   0.003337   0.000000
    26  O   -0.001802  -0.000027  -0.000003   0.001860  -0.000034   0.000021
    27  H    0.000117  -0.000004   0.000000   0.000123   0.000025   0.000000
             19         20         21         22         23         24
     1  C   -0.013691   0.021987  -0.003460  -0.000748   0.089122   0.000070
     2  C    0.004829  -0.133563   0.055205   0.007343  -0.215240   0.013758
     3  N    0.017527   0.009527   0.009697  -0.003973   0.233500   0.013014
     4  C   -0.009805   0.001246  -0.001621  -0.000296  -0.023522  -0.002477
     5  C    0.006934  -0.000639   0.004637  -0.000078   0.011782   0.001204
     6  C   -0.018359   0.010935  -0.111278   0.051347  -0.865502  -0.159866
     7  C   -0.035306  -0.076432   0.267590   0.001871  -0.040579   0.033299
     8  C    0.171149   0.150627  -0.149062  -0.042044  -0.005490  -0.012784
     9  H    0.000532   0.000065   0.000014   0.000000   0.000366   0.000000
    10  H    0.001621   0.000047  -0.000276   0.000001   0.001422   0.000000
    11  H    0.004487   0.005343  -0.000536  -0.000002   0.017791  -0.000007
    12  H    0.000054   0.000000   0.000028   0.000000   0.002987  -0.000048
    13  H   -0.000244  -0.000001  -0.000214   0.000001  -0.011230   0.000043
    14  H    0.000011   0.000000  -0.000008   0.000000  -0.000152   0.000000
    15  H    0.000000   0.000000  -0.000007   0.000000  -0.000272   0.000000
    16  H   -0.001106  -0.000004   0.001160   0.000077  -0.005499  -0.001843
    17  H   -0.008385   0.004408  -0.042566  -0.005521   0.064356   0.000233
    18  H   -0.056656   0.006912  -0.003645  -0.000292   0.016627  -0.000006
    19  O    8.207043   0.252104  -0.004534   0.007475   0.003016   0.000004
    20  H    0.252104   0.370270  -0.001916   0.000078   0.005047   0.000000
    21  O   -0.004534  -0.001916   8.272521   0.234133   0.019758   0.005021
    22  H    0.007475   0.000078   0.234133   0.370789  -0.010375  -0.000100
    23  C    0.003016   0.005047   0.019758  -0.010375   5.859025   0.486477
    24  H    0.000004   0.000000   0.005021  -0.000100   0.486477   0.539209
    25  H   -0.000060   0.000000   0.000152  -0.000013   0.443174  -0.032723
    26  O    0.000047   0.000000  -0.000418   0.000015   0.203923  -0.058788
    27  H    0.000002   0.000000   0.000035   0.000000   0.039052   0.006576
             25         26         27
     1  C   -0.000600  -0.003318  -0.000440
     2  C    0.011665   0.037752   0.012974
     3  N    0.008414   0.023763   0.023254
     4  C    0.010872  -0.015544   0.003631
     5  C    0.003736   0.026100   0.009749
     6  C   -0.112068  -0.144525  -0.095164
     7  C   -0.001369   0.024428   0.001553
     8  C   -0.013291  -0.026350  -0.003284
     9  H    0.000000   0.000001   0.000000
    10  H    0.000000  -0.000002   0.000000
    11  H   -0.000037  -0.000068  -0.000007
    12  H    0.000035  -0.000890   0.000574
    13  H   -0.000011  -0.001802   0.000117
    14  H   -0.000001  -0.000027  -0.000004
    15  H    0.000000  -0.000003   0.000000
    16  H    0.004635   0.001860   0.000123
    17  H    0.003337  -0.000034   0.000025
    18  H    0.000000   0.000021   0.000000
    19  O   -0.000060   0.000047   0.000002
    20  H    0.000000   0.000000   0.000000
    21  O    0.000152  -0.000418   0.000035
    22  H   -0.000013   0.000015   0.000000
    23  C    0.443174   0.203923   0.039052
    24  H   -0.032723  -0.058788   0.006576
    25  H    0.561209  -0.042268  -0.007181
    26  O   -0.042268   8.254904   0.257038
    27  H   -0.007181   0.257038   0.377461
 Mulliken atomic charges:
              1
     1  C   -0.369476
     2  C   -0.031248
     3  N   -0.189221
     4  C   -0.201867
     5  C   -0.410927
     6  C    0.133809
     7  C   -0.051350
     8  C   -0.116201
     9  H    0.179392
    10  H    0.171422
    11  H    0.159195
    12  H    0.157622
    13  H    0.156610
    14  H    0.180531
    15  H    0.179013
    16  H    0.165771
    17  H    0.169188
    18  H    0.181903
    19  O   -0.528691
    20  H    0.373959
    21  O   -0.550408
    22  H    0.390312
    23  C   -0.319564
    24  H    0.169735
    25  H    0.162392
    26  O   -0.535816
    27  H    0.373914
 Sum of Mulliken atomic charges =   0.00000
 Mulliken charges with hydrogens summed into heavy atoms:
              1
     1  C   -0.018661
     2  C    0.127947
     3  N   -0.189221
     4  C    0.112365
     5  C   -0.051383
     6  C    0.299581
     7  C    0.117838
     8  C    0.065702
    19  O   -0.154732
    21  O   -0.160096
    23  C    0.012563
    26  O   -0.161902
 Sum of Mulliken charges with hydrogens summed into heavy atoms =   0.00000
 Electronic spatial extent (au):  <R**2>=           2165.6815
 Charge=              0.0000 electrons
 Dipole moment (field-independent basis, Debye):
    X=              2.8904    Y=             -0.6140    Z=             -2.5943  Tot=              3.9321
 Quadrupole moment (field-independent basis, Debye-Ang):
   XX=            -87.3962   YY=            -68.4410   ZZ=            -70.8591
   XY=             -5.6414   XZ=              2.4884   YZ=             -5.1555
 Traceless Quadrupole moment (field-independent basis, Debye-Ang):
   XX=            -11.8308   YY=              7.1244   ZZ=              4.7063
   XY=             -5.6414   XZ=              2.4884   YZ=             -5.1555
 Octapole moment (field-independent basis, Debye-Ang**2):
  XXX=             30.9355  YYY=             12.2813  ZZZ=             -7.0608  XYY=             -7.1754
  XXY=             -1.4358  XXZ=            -13.9339  XZZ=              6.8030  YZZ=              8.0014
  YYZ=            -14.5274  XYZ=             -6.2046
 Hexadecapole moment (field-independent basis, Debye-Ang**3):
 XXXX=          -1533.0956 YYYY=          -1111.3889 ZZZZ=           -192.2648 XXXY=            -76.9297
 XXXZ=              5.0156 YYYX=              6.7997 YYYZ=             -8.1761 ZZZX=             -5.9407
 ZZZY=            -16.5377 XXYY=           -472.4572 XXZZ=           -239.8670 YYZZ=           -226.2417
 XXYZ=              1.3131 YYXZ=              8.7409 ZZXY=             23.2952
 N-N= 7.948411423111D+02 E-N=-2.975211837584D+03  KE= 5.886619639361D+02
 1\1\GINC-COMPUTE-3-0\SP\RmPW1PW91\6-31+G(d,p)\C8H15N1O3\MAMICHETTI.IQU
 IR\17-May-2024\0\\# mpw1pw91/6-31+G** nmr scrf=(pcm,solvent=water)\\co
 mment\\0,1\C,0,2.263551,-1.107834,0.222434\C,0,1.27579,-0.154833,-0.46
 9178\N,0,-0.07096,-0.813233,-0.378813\C,0,0.084104,-2.085029,0.355368\
 C,0,1.551222,-2.467509,0.143057\C,0,-1.038023,0.145555,0.191467\C,0,-0
 .40391,1.513427,-0.080441\C,0,1.087896,1.243038,0.138177\H,0,3.250228,
 -1.106524,-0.250329\H,0,2.392496,-0.817682,1.272634\H,0,1.549775,-0.03
 2575,-1.528156\H,0,-0.605863,-2.849979,-0.018658\H,0,-0.124156,-1.9532
 71,1.430769\H,0,1.686692,-2.914501,-0.849383\H,0,1.906076,-3.186531,0.
 887896\H,0,-1.11886,0.019996,1.285916\H,0,-0.559493,1.797579,-1.134202
 \H,0,1.277147,1.221151,1.217438\O,0,1.953961,2.250869,-0.377807\H,0,1.
 822898,2.273229,-1.342169\O,0,-0.960465,2.502829,0.779684\H,0,-0.52241
 1,3.34228,0.559\C,0,-2.44024,0.018762,-0.396907\H,0,-3.079636,0.797403
 ,0.032435\H,0,-2.401858,0.169808,-1.484931\O,0,-3.073438,-1.227142,-0.
 083396\H,0,-2.61911,-1.913659,-0.598294\\Version=AM64L-G09RevC.01\Stat
 e=1-A\HF=-594.1986979\RMSD=7.383e-09\Dipole=1.137157,-0.2415744,-1.020
 6658\Quadrupole=-8.7958923,5.2968435,3.4990488,-4.1942536,1.8500319,-3
 .8330109\PG=C01 [X(C8H15N1O3)]\\@


 REFRAIN FROM ILLUSIONS, INSIST ON WORK AND NOT WORDS,
 PATIENTLY SEEK DIVINE AND SCIENTIFIC TRUTH.
 LAST WORDS OF MARIA MENDELEEVA TO HER SON DMITRI, C. 1850
 Job cpu time:  0 days  0 hours  8 minutes 59.9 seconds.
 File lengths (MBytes):  RWF=    114 Int=      0 D2E=      0 Chk=      7 Scr=      1
 Normal termination of Gaussian 09 at Fri May 17 12:49:43 2024.
