 Entering Gaussian System, Link 0=g09
 Input=/home/mamichetti.iquir/Linux/02_Cardona_A1A3_R__R_R_R_006_OptB.gjc
 Output=/home/mamichetti.iquir/Linux/02_Cardona_A1A3_R__R_R_R_006_OptB.log
 Initial command:
 /opt/ohpc/pub/apps/software/Gaussian/09/AMD64.SSE4a-enabled/g09/l1.exe /local/mamichetti.iquir/Gau-711965.inp -scrdir=/local/mamichetti.iquir/
 Entering Link 1 = /opt/ohpc/pub/apps/software/Gaussian/09/AMD64.SSE4a-enabled/g09/l1.exe PID=    711966.
  
 Copyright (c) 1988,1990,1992,1993,1995,1998,2003,2009,2011,
            Gaussian, Inc.  All Rights Reserved.
  
 This is part of the Gaussian(R) 09 program.  It is based on
 the Gaussian(R) 03 system (copyright 2003, Gaussian, Inc.),
 the Gaussian(R) 98 system (copyright 1998, Gaussian, Inc.),
 the Gaussian(R) 94 system (copyright 1995, Gaussian, Inc.),
 the Gaussian 92(TM) system (copyright 1992, Gaussian, Inc.),
 the Gaussian 90(TM) system (copyright 1990, Gaussian, Inc.),
 the Gaussian 88(TM) system (copyright 1988, Gaussian, Inc.),
 the Gaussian 86(TM) system (copyright 1986, Carnegie Mellon
 University), and the Gaussian 82(TM) system (copyright 1983,
 Carnegie Mellon University). Gaussian is a federally registered
 trademark of Gaussian, Inc.
  
 This software contains proprietary and confidential information,
 including trade secrets, belonging to Gaussian, Inc.
  
 This software is provided under written license and may be
 used, copied, transmitted, or stored only in accord with that
 written license.
  
 The following legend is applicable only to US Government
 contracts under FAR:
  
                    RESTRICTED RIGHTS LEGEND
  
 Use, reproduction and disclosure by the US Government is
 subject to restrictions as set forth in subparagraphs (a)
 and (c) of the Commercial Computer Software - Restricted
 Rights clause in FAR 52.227-19.
  
 Gaussian, Inc.
 340 Quinnipiac St., Bldg. 40, Wallingford CT 06492
  
  
 ---------------------------------------------------------------
 Warning -- This program may not be used in any manner that
 competes with the business of Gaussian, Inc. or will provide
 assistance to any competitor of Gaussian, Inc.  The licensee
 of this program is prohibited from giving any competitor of
 Gaussian, Inc. access to this program.  By using this program,
 the user acknowledges that Gaussian, Inc. is engaged in the
 business of creating and licensing software in the field of
 computational chemistry and represents and warrants to the
 licensee that it is not a competitor of Gaussian, Inc. and that
 it will not use this program in any manner prohibited above.
 ---------------------------------------------------------------
  

 Cite this work as:
 Gaussian 09, Revision C.01,
 M. J. Frisch, G. W. Trucks, H. B. Schlegel, G. E. Scuseria, 
 M. A. Robb, J. R. Cheeseman, G. Scalmani, V. Barone, B. Mennucci, 
 G. A. Petersson, H. Nakatsuji, M. Caricato, X. Li, H. P. Hratchian, 
 A. F. Izmaylov, J. Bloino, G. Zheng, J. L. Sonnenberg, M. Hada, 
 M. Ehara, K. Toyota, R. Fukuda, J. Hasegawa, M. Ishida, T. Nakajima, 
 Y. Honda, O. Kitao, H. Nakai, T. Vreven, J. A. Montgomery, Jr., 
 J. E. Peralta, F. Ogliaro, M. Bearpark, J. J. Heyd, E. Brothers, 
 K. N. Kudin, V. N. Staroverov, T. Keith, R. Kobayashi, J. Normand, 
 K. Raghavachari, A. Rendell, J. C. Burant, S. S. Iyengar, J. Tomasi, 
 M. Cossi, N. Rega, J. M. Millam, M. Klene, J. E. Knox, J. B. Cross, 
 V. Bakken, C. Adamo, J. Jaramillo, R. Gomperts, R. E. Stratmann, 
 O. Yazyev, A. J. Austin, R. Cammi, C. Pomelli, J. W. Ochterski, 
 R. L. Martin, K. Morokuma, V. G. Zakrzewski, G. A. Voth, 
 P. Salvador, J. J. Dannenberg, S. Dapprich, A. D. Daniels, 
 O. Farkas, J. B. Foresman, J. V. Ortiz, J. Cioslowski, 
 and D. J. Fox, Gaussian, Inc., Wallingford CT, 2010.
 
 ******************************************
 Gaussian 09:  AM64L-G09RevC.01 23-Sep-2011
                17-May-2024 
 ******************************************
 %nprocshared=4
 Will use up to    4 processors via shared memory.
 ------------------------------------------------
 # mpw1pw91/6-31+G** nmr scrf=(pcm,solvent=water)
 ------------------------------------------------
 1/38=1/1;
 2/12=2,17=6,18=5,40=1/2;
 3/5=1,6=6,7=111,11=2,16=1,25=1,30=1,70=2201,72=1,74=-7/1,2,8,3;
 4//1;
 5/5=2,38=5,53=1/2;
 8/6=1,10=90,11=11/1;
 10/13=100,45=16/2;
 6/7=2,8=2,9=2,10=2,28=1/1;
 99/9=1/99;
 -------
 comment
 -------
 Charge =  0 Multiplicity = 1
 Symbolic Z-Matrix:
 6                    -2.54241   0.03918   0.22704 
 6                    -1.10467   0.32745   0.70615 
 7                    -0.29408  -0.91085   0.40905 
 6                    -1.22001  -1.89555  -0.20391 
 6                    -2.36128  -1.07424  -0.81561 
 6                     0.82814  -0.52106  -0.48484 
 6                     1.05045   0.95447  -0.15653 
 6                    -0.38047   1.47412  -0.02142 
 1                    -3.15196  -0.32608   1.06167 
 1                    -3.02422   0.9398   -0.16761 
 1                    -1.08832   0.53729   1.78334 
 1                    -1.61379  -2.56196   0.57427 
 1                    -0.68436  -2.51765  -0.92708 
 1                    -3.26954  -1.6625   -0.98052 
 1                    -2.05     -0.65354  -1.77984 
 1                     0.55383  -0.59189  -1.55023 
 1                     1.55833   1.04702   0.81561 
 1                    -0.79169   1.60821  -1.02882 
 8                    -0.50133   2.74878   0.60441 
 1                    -0.16487   2.6553    1.51313 
 8                     1.81933   1.58114  -1.17839 
 1                     1.92998   2.51049  -0.91521 
 6                     2.03991  -1.41946  -0.24383 
 1                     1.82042  -2.43503  -0.60717 
 1                     2.90327  -1.04335  -0.80273 
 8                     2.39896  -1.44801   1.13751 
 1                     1.53781  -1.49484   1.59715 
 
                          Input orientation:                          
 ---------------------------------------------------------------------
 Center     Atomic      Atomic             Coordinates (Angstroms)
 Number     Number       Type             X           Y           Z
 ---------------------------------------------------------------------
      1          6           0       -2.542405    0.039179    0.227042
      2          6           0       -1.104670    0.327445    0.706154
      3          7           0       -0.294080   -0.910850    0.409046
      4          6           0       -1.220006   -1.895554   -0.203906
      5          6           0       -2.361281   -1.074243   -0.815610
      6          6           0        0.828137   -0.521059   -0.484836
      7          6           0        1.050450    0.954466   -0.156527
      8          6           0       -0.380470    1.474123   -0.021415
      9          1           0       -3.151958   -0.326076    1.061675
     10          1           0       -3.024217    0.939801   -0.167612
     11          1           0       -1.088319    0.537286    1.783339
     12          1           0       -1.613789   -2.561963    0.574271
     13          1           0       -0.684361   -2.517653   -0.927084
     14          1           0       -3.269539   -1.662495   -0.980520
     15          1           0       -2.050003   -0.653540   -1.779835
     16          1           0        0.553829   -0.591890   -1.550225
     17          1           0        1.558326    1.047022    0.815613
     18          1           0       -0.791686    1.608212   -1.028822
     19          8           0       -0.501331    2.748781    0.604408
     20          1           0       -0.164871    2.655298    1.513128
     21          8           0        1.819330    1.581142   -1.178388
     22          1           0        1.929977    2.510488   -0.915213
     23          6           0        2.039913   -1.419461   -0.243826
     24          1           0        1.820423   -2.435029   -0.607169
     25          1           0        2.903271   -1.043353   -0.802733
     26          8           0        2.398957   -1.448010    1.137513
     27          1           0        1.537814   -1.494837    1.597147
 ---------------------------------------------------------------------
                    Distance matrix (angstroms):
                    1          2          3          4          5
     1  C    0.000000
     2  C    1.542637   0.000000
     3  N    2.447580   1.509538   0.000000
     4  C    2.382781   2.404836   1.484147   0.000000
     5  C    1.536111   2.420654   2.408277   1.533376   0.000000
     6  C    3.490156   2.423666   1.486719   2.482549   3.253892
     7  C    3.727396   2.404562   2.367918   3.644150   4.023675
     8  C    2.606676   1.539056   2.425048   3.477477   3.323932
     9  H    1.096165   2.178273   2.989206   2.792382   2.170051
    10  H    1.094995   2.196157   3.348297   3.360912   2.217151
    11  H    2.187358   1.097556   2.148626   3.144073   3.312400
    12  H    2.783673   2.936882   2.120166   1.097600   2.168830
    13  H    3.364777   3.307372   2.125883   1.094033   2.215382
    14  H    2.209666   3.389895   3.368860   2.204094   1.094609
    15  H    2.179421   2.834806   2.817920   2.171416   1.097094
    16  H    3.625409   2.947379   2.158571   2.580427   3.044699
    17  H    4.263585   2.760674   2.725797   4.173404   4.745943
    18  H    2.665347   2.179097   2.942915   3.624958   3.115229
    19  O    3.413258   2.497446   3.670697   4.768618   4.482341
    20  H    3.761750   2.636917   3.735385   4.977125   4.914948
    21  O    4.835040   3.697706   3.632695   4.719597   4.965902
    22  H    5.235868   4.074750   4.290180   5.462743   5.592416
    23  C    4.831872   3.720557   2.476378   3.294743   4.451586
    24  H    5.084475   4.232286   2.797666   3.114139   4.402480
    25  H    5.646919   4.496601   3.421844   4.252794   5.264658
    26  O    5.240014   3.951419   2.841066   3.885434   5.158901
    27  H    4.569308   3.331261   2.260190   3.318123   4.604480
                    6          7          8          9         10
     6  C    0.000000
     7  C    1.527869   0.000000
     8  C    2.378285   1.528342   0.000000
     9  H    4.274444   4.558951   3.477779   0.000000
    10  H    4.132236   4.074708   2.701161   1.769155   0.000000
    11  H    3.152383   2.917439   2.153103   2.350489   2.777756
    12  H    3.354102   4.471857   4.262148   2.757303   3.847343
    13  H    2.543545   3.957138   4.104493   3.853207   4.243314
    14  H    4.282467   5.117593   4.370924   2.443440   2.737325
    15  H    3.158839   3.851444   3.225885   3.065243   2.467203
    16  H    1.102414   2.140150   2.734700   4.541535   4.130389
    17  H    2.164075   1.100709   2.154521   4.912506   4.688062
    18  H    2.730118   2.140502   1.096334   3.698991   2.484482
    19  O    3.694021   2.491307   1.425137   4.085298   3.198965
    20  H    3.881645   2.675366   1.948456   4.244419   3.734123
    21  O    2.425433   1.424113   2.487802   5.776596   4.989282
    22  H    3.254159   1.941746   2.685348   6.146564   5.250715
    23  C    1.527617   2.573361   3.778961   5.464005   5.587248
    24  H    2.159370   3.504941   4.524213   5.653078   5.920576
    25  H    2.163338   2.800323   4.210831   6.376229   6.282626
    26  O    2.441051   3.043830   4.196092   5.663669   6.067603
    27  H    2.405522   3.051554   3.887709   4.862787   5.463878
                   11         12         13         14         15
    11  H    0.000000
    12  H    3.367983   0.000000
    13  H    4.103928   1.766314   0.000000
    14  H    4.151587   2.442934   2.723471   0.000000
    15  H    3.878029   3.061728   2.463144   1.773179   0.000000
    16  H    3.883856   3.618458   2.372758   4.011097   2.614663
    17  H    2.863748   4.810960   4.557801   5.820297   4.759023
    18  H    3.023760   4.542700   4.128514   4.103610   2.694978
    19  O    2.573935   5.426092   5.487649   5.443742   4.433823
    20  H    2.326316   5.495510   5.743163   5.873719   5.034455
    21  O    4.279706   5.658926   4.809547   6.037957   4.508578
    22  H    4.503978   6.364479   5.667196   6.667310   5.157411
    23  C    4.209999   3.914605   3.015715   5.365824   4.435467
    24  H    4.796870   3.633968   2.526483   5.161774   4.419168
    25  H    5.011884   4.960458   3.880738   6.206330   5.063754
    26  O    4.064429   4.202412   3.861806   6.055073   5.379159
    27  H    3.325773   3.481039   3.515104   5.457391   4.998422
                   16         17         18         19         20
    16  H    0.000000
    17  H    3.048317   0.000000
    18  H    2.631106   3.039643   0.000000
    19  O    4.112893   2.680071   2.013118   0.000000
    20  H    4.521603   2.458147   2.819716   0.973507   0.000000
    21  O    2.542012   2.080732   2.615436   3.150748   3.512139
    22  H    3.452792   2.296871   2.869575   2.877028   3.210327
    23  C    2.144761   2.727247   4.219120   4.954964   4.954959
    24  H    2.427092   3.770634   4.832050   5.807783   5.860758
    25  H    2.506480   2.966073   4.553528   5.286931   5.334485
    26  O    3.370664   2.652445   4.920742   5.129223   4.852982
    27  H    3.418990   2.659373   4.685210   4.811646   4.486626
                   21         22         23         24         25
    21  O    0.000000
    22  H    0.972208   0.000000
    23  C    3.150505   3.988401   0.000000
    24  H    4.056590   4.956312   1.100714   0.000000
    25  H    2.864266   3.686426   1.095090   1.774138   0.000000
    26  O    3.856829   4.483674   1.427524   2.086342   2.045149
    27  H    4.152649   4.744299   1.909703   2.413056   2.797809
                   26         27
    26  O    0.000000
    27  H    0.977253   0.000000
 Stoichiometry    C8H15NO3
 Framework group  C1[X(C8H15NO3)]
 Deg. of freedom    75
 Full point group                 C1      NOp   1
 Largest Abelian subgroup         C1      NOp   1
 Largest concise Abelian subgroup C1      NOp   1
                         Standard orientation:                         
 ---------------------------------------------------------------------
 Center     Atomic      Atomic             Coordinates (Angstroms)
 Number     Number       Type             X           Y           Z
 ---------------------------------------------------------------------
      1          6           0       -2.542405    0.039179    0.227042
      2          6           0       -1.104670    0.327445    0.706154
      3          7           0       -0.294080   -0.910850    0.409046
      4          6           0       -1.220006   -1.895554   -0.203906
      5          6           0       -2.361281   -1.074243   -0.815610
      6          6           0        0.828137   -0.521059   -0.484836
      7          6           0        1.050450    0.954466   -0.156527
      8          6           0       -0.380470    1.474123   -0.021415
      9          1           0       -3.151958   -0.326076    1.061675
     10          1           0       -3.024217    0.939801   -0.167612
     11          1           0       -1.088319    0.537286    1.783339
     12          1           0       -1.613789   -2.561963    0.574271
     13          1           0       -0.684361   -2.517653   -0.927084
     14          1           0       -3.269539   -1.662495   -0.980520
     15          1           0       -2.050003   -0.653540   -1.779835
     16          1           0        0.553829   -0.591890   -1.550225
     17          1           0        1.558326    1.047022    0.815613
     18          1           0       -0.791686    1.608212   -1.028822
     19          8           0       -0.501331    2.748781    0.604408
     20          1           0       -0.164871    2.655298    1.513128
     21          8           0        1.819330    1.581142   -1.178388
     22          1           0        1.929977    2.510488   -0.915213
     23          6           0        2.039913   -1.419461   -0.243826
     24          1           0        1.820423   -2.435029   -0.607169
     25          1           0        2.903271   -1.043353   -0.802733
     26          8           0        2.398957   -1.448010    1.137513
     27          1           0        1.537814   -1.494837    1.597147
 ---------------------------------------------------------------------
 Rotational constants (GHZ):      1.0907690      0.9173955      0.6065607
 Standard basis: 6-31+G(d,p) (6D, 7F)
 There are   303 symmetry adapted basis functions of A   symmetry.
 Integral buffers will be    131072 words long.
 Raffenetti 2 integral format.
 Two-electron integral symmetry is turned on.
   303 basis functions,   489 primitive gaussians,   303 cartesian basis functions
    47 alpha electrons       47 beta electrons
       nuclear repulsion energy       805.0294803335 Hartrees.
 NAtoms=   27 NActive=   27 NUniq=   27 SFac= 1.00D+00 NAtFMM=   60 NAOKFM=F Big=F
 ------------------------------------------------------------------------------
 Polarizable Continuum Model (PCM)
 =================================
 Model                : PCM.
 Atomic radii         : UFF (Universal Force Field).
 Polarization charges : Total charges.
 Charge compensation  : None.
 Solution method      : Matrix inversion.
 Cavity type          : Scaled VdW (van der Waals Surface) (Alpha=1.100).
 Cavity algorithm     : GePol (No added spheres)
                        Default sphere list used, NSphG=   27.
                        Lebedev-Laikov grids with approx.  5.0 points / Ang**2.
                        Smoothing algorithm: Karplus/York (Gamma=1.0000).
                        Polarization charges: spherical gaussians, with
                                              point-specific exponents (IZeta= 3).
                        Self-potential: point-specific (ISelfS= 7).
                        Self-field    : sphere-specific E.n sum rule (ISelfD= 2).
 Solvent              : Water, Eps=  78.355300 Eps(inf)=   1.777849
 ------------------------------------------------------------------------------
 One-electron integrals computed using PRISM.
 NBasis=   303 RedAO= T  NBF=   303
 NBsUse=   303 1.00D-06 NBFU=   303
 Harris functional with IExCor=  908 diagonalized for initial guess.
 ExpMin= 4.38D-02 ExpMax= 5.48D+03 ExpMxC= 8.25D+02 IAcc=2 IRadAn=         4 AccDes= 0.00D+00
 HarFok:  IExCor=  908 AccDes= 0.00D+00 IRadAn=         4 IDoV= 1
 ScaDFX=  1.000000  1.000000  1.000000  1.000000
 FoFCou: FMM=F IPFlag=           0 FMFlag=      100000 FMFlg1=           0
         NFxFlg=           0 DoJE=T BraDBF=F KetDBF=T FulRan=T
         Omega=  0.000000  0.000000  1.000000  0.000000  0.000000 ICntrl=     500 IOpCl=  0
         NMat0=    1 NMatS0=    1 NMatT0=    0 NMatD0=    1 NMtDS0=    0 NMtDT0=    0
         I1Cent=           4 NGrid=           0.
 Petite list used in FoFCou.
 Initial guess orbital symmetries:
       Occupied  (A) (A) (A) (A) (A) (A) (A) (A) (A) (A) (A) (A)
                 (A) (A) (A) (A) (A) (A) (A) (A) (A) (A) (A) (A)
                 (A) (A) (A) (A) (A) (A) (A) (A) (A) (A) (A) (A)
                 (A) (A) (A) (A) (A) (A) (A) (A) (A) (A) (A)
       Virtual   (A) (A) (A) (A) (A) (A) (A) (A) (A) (A) (A) (A)
                 (A) (A) (A) (A) (A) (A) (A) (A) (A) (A) (A) (A)
                 (A) (A) (A) (A) (A) (A) (A) (A) (A) (A) (A) (A)
                 (A) (A) (A) (A) (A) (A) (A) (A) (A) (A) (A) (A)
                 (A) (A) (A) (A) (A) (A) (A) (A) (A) (A) (A) (A)
                 (A) (A) (A) (A) (A) (A) (A) (A) (A) (A) (A) (A)
                 (A) (A) (A) (A) (A) (A) (A) (A) (A) (A) (A) (A)
                 (A) (A) (A) (A) (A) (A) (A) (A) (A) (A) (A) (A)
                 (A) (A) (A) (A) (A) (A) (A) (A) (A) (A) (A) (A)
                 (A) (A) (A) (A) (A) (A) (A) (A) (A) (A) (A) (A)
                 (A) (A) (A) (A) (A) (A) (A) (A) (A) (A) (A) (A)
                 (A) (A) (A) (A) (A) (A) (A) (A) (A) (A) (A) (A)
                 (A) (A) (A) (A) (A) (A) (A) (A) (A) (A) (A) (A)
                 (A) (A) (A) (A) (A) (A) (A) (A) (A) (A) (A) (A)
                 (A) (A) (A) (A) (A) (A) (A) (A) (A) (A) (A) (A)
                 (A) (A) (A) (A) (A) (A) (A) (A) (A) (A) (A) (A)
                 (A) (A) (A) (A) (A) (A) (A) (A) (A) (A) (A) (A)
                 (A) (A) (A) (A) (A) (A) (A) (A) (A) (A) (A) (A)
                 (A) (A) (A) (A) (A) (A) (A) (A) (A) (A) (A) (A)
                 (A) (A) (A) (A) (A) (A) (A) (A) (A) (A) (A) (A)
                 (A) (A) (A) (A) (A) (A) (A) (A) (A) (A) (A) (A)
                 (A) (A) (A) (A)
 The electronic state of the initial guess is 1-A.
 Requested convergence on RMS density matrix=1.00D-08 within 128 cycles.
 Requested convergence on MAX density matrix=1.00D-06.
 Requested convergence on             energy=1.00D-06.
 No special actions if energy rises.
 Error on total polarization charges =  0.01424
 SCF Done:  E(RmPW1PW91) =  -594.202695512     A.U. after   13 cycles
             Convg  =    0.2060D-08             -V/T =  2.0094
 Range of M.O.s used for correlation:     1   303
 NBasis=   303 NAE=    47 NBE=    47 NFC=     0 NFV=     0
 NROrb=    303 NOA=    47 NOB=    47 NVA=   256 NVB=   256

 **** Warning!!: The largest alpha MO coefficient is  0.63374876D+02

 NEqPCM:  Using equilibrium solvation (IEInf=0, Eps=  78.3553, EpsInf=   1.7778)
          Differentiating once with respect to magnetic field using GIAOs.
          Electric field/nuclear overlap derivatives assumed to be zero.
 FoFCou: FMM=F IPFlag=           0 FMFlag=    10101102 FMFlg1=           0
         NFxFlg=    40000000 DoJE=F BraDBF=F KetDBF=T FulRan=T
         Omega=  0.000000  0.000000  1.000000  0.000000  0.000000 ICntrl=    6100 IOpCl=  0
         NMat0=    1 NMatS0=    1 NMatT0=    0 NMatD0=    1 NMtDS0=    0 NMtDT0=    0
         I1Cent=           7 NGrid=        1834.
 Symmetry not used in FoFCou.
          There are     3 degrees of freedom in the 1st order CPHF.  IDoFFX=0.
      3 vectors produced by pass  0 Test12= 4.01D-13 3.33D-08 XBig12= 2.65D+01 8.94D-01.
 AX will form     3 AO Fock derivatives at one time.
      3 vectors produced by pass  1 Test12= 4.01D-13 3.33D-08 XBig12= 7.15D-02 4.64D-02.
      3 vectors produced by pass  2 Test12= 4.01D-13 3.33D-08 XBig12= 1.36D-04 2.18D-03.
      3 vectors produced by pass  3 Test12= 4.01D-13 3.33D-08 XBig12= 5.87D-07 1.56D-04.
      3 vectors produced by pass  4 Test12= 4.01D-13 3.33D-08 XBig12= 2.18D-09 7.05D-06.
      3 vectors produced by pass  5 Test12= 4.01D-13 3.33D-08 XBig12= 5.82D-12 4.40D-07.
 Inverted reduced A of dimension    18 with in-core refinement.
 Calculating GIAO nuclear magnetic shielding tensors.
 SCF GIAO Magnetic shielding tensor (ppm):
      1  C    Isotropic =   163.1461   Anisotropy =    24.8595
   XX=   175.0151   YX=    -2.4842   ZX=    11.1228
   XY=     1.8903   YY=   162.0554   ZY=     5.9992
   XZ=     7.8995   YZ=    19.1422   ZZ=   152.3677
   Eigenvalues:   141.7565   167.9627   179.7191
      2  C    Isotropic =   126.5759   Anisotropy =    56.1253
   XX=   119.5412   YX=    -9.0728   ZX=     5.9828
   XY=   -15.4625   YY=   158.1306   ZY=    15.8484
   XZ=    -8.0615   YZ=     8.3432   ZZ=   102.0559
   Eigenvalues:    99.4368   116.2982   163.9928
      3  N    Isotropic =   204.6019   Anisotropy =    65.6256
   XX=   232.5244   YX=   -10.1063   ZX=   -14.7343
   XY=     2.0386   YY=   235.4966   ZY=    34.0008
   XZ=   -17.2011   YZ=    21.8167   ZZ=   145.7849
   Eigenvalues:   135.7017   229.7519   248.3523
      4  C    Isotropic =   142.2800   Anisotropy =    53.1347
   XX=   148.8594   YX=    21.1305   ZX=    12.7457
   XY=    11.9694   YY=   151.5316   ZY=    19.1537
   XZ=    27.0663   YZ=     8.0273   ZZ=   126.4491
   Eigenvalues:   114.3950   134.7420   177.7032
      5  C    Isotropic =   171.4239   Anisotropy =    18.1656
   XX=   175.7282   YX=    -4.7469   ZX=    10.8698
   XY=    -6.9796   YY=   179.0453   ZY=     7.5950
   XZ=    16.0986   YZ=    13.1643   ZZ=   159.4983
   Eigenvalues:   147.3865   183.3510   183.5343
      6  C    Isotropic =   126.3764   Anisotropy =    40.2199
   XX=   132.5055   YX=    18.0257   ZX=   -10.8243
   XY=    10.6754   YY=   127.8570   ZY=   -10.4428
   XZ=   -25.4931   YZ=     1.9244   ZZ=   118.7668
   Eigenvalues:   105.0052   120.9344   153.1897
      7  C    Isotropic =   119.9922   Anisotropy =    43.4057
   XX=   132.0999   YX=     4.6346   ZX=   -28.9146
   XY=     4.6670   YY=   118.1294   ZY=   -17.7097
   XZ=   -15.0622   YZ=    -5.2671   ZZ=   109.7472
   Eigenvalues:    93.8361   117.2111   148.9293
      8  C    Isotropic =   111.0388   Anisotropy =    26.9222
   XX=   118.4801   YX=    -7.9727   ZX=   -14.0284
   XY=     1.0203   YY=   122.2683   ZY=    16.2492
   XZ=    -8.0750   YZ=     0.0330   ZZ=    92.3680
   Eigenvalues:    87.1003   117.0292   128.9869
      9  H    Isotropic =    29.7114   Anisotropy =    11.7155
   XX=    32.8784   YX=     1.3839   ZX=    -5.0896
   XY=     2.5109   YY=    25.3253   ZY=    -0.4334
   XZ=    -5.6015   YZ=     0.4561   ZZ=    30.9303
   Eigenvalues:    24.3943    27.2182    37.5217
     10  H    Isotropic =    29.6809   Anisotropy =     9.4475
   XX=    31.4421   YX=    -3.7139   ZX=     1.7834
   XY=    -4.1541   YY=    32.2304   ZY=    -0.6918
   XZ=     1.0072   YZ=    -0.5972   ZZ=    25.3701
   Eigenvalues:    25.0556    28.0078    35.9792
     11  H    Isotropic =    28.5713   Anisotropy =     6.8210
   XX=    27.2245   YX=    -0.7236   ZX=    -1.0319
   XY=    -0.6434   YY=    26.7791   ZY=     2.8077
   XZ=    -0.6785   YZ=     2.6646   ZZ=    31.7104
   Eigenvalues:    25.5125    27.0829    33.1187
     12  H    Isotropic =    28.9376   Anisotropy =    11.9767
   XX=    27.6532   YX=     4.4913   ZX=    -0.5196
   XY=     3.8596   YY=    33.0124   ZY=    -4.6991
   XZ=     0.6337   YZ=    -4.7030   ZZ=    26.1472
   Eigenvalues:    22.7675    27.1233    36.9221
     13  H    Isotropic =    28.8201   Anisotropy =     8.6388
   XX=    28.7140   YX=    -1.1046   ZX=     0.6867
   XY=    -1.0417   YY=    32.3350   ZY=     4.8411
   XZ=    -0.0312   YZ=     3.9363   ZZ=    25.4112
   Eigenvalues:    23.1770    28.7039    34.5793
     14  H    Isotropic =    30.0136   Anisotropy =    12.7364
   XX=    34.2498   YX=     4.4794   ZX=     3.1428
   XY=     4.9193   YY=    29.2152   ZY=     2.7101
   XZ=     3.4084   YZ=     2.4729   ZZ=    26.5756
   Eigenvalues:    24.9566    26.5796    38.5045
     15  H    Isotropic =    29.8543   Anisotropy =     9.0669
   XX=    27.2794   YX=    -0.2275   ZX=     0.2952
   XY=    -0.0911   YY=    26.6372   ZY=    -1.6018
   XZ=     1.1110   YZ=    -1.0613   ZZ=    35.6463
   Eigenvalues:    26.4404    27.2236    35.8989
     16  H    Isotropic =    28.9765   Anisotropy =     4.0899
   XX=    29.6117   YX=     0.1577   ZX=    -1.8715
   XY=     0.3655   YY=    26.4080   ZY=    -0.1807
   XZ=    -0.6449   YZ=    -0.3784   ZZ=    30.9100
   Eigenvalues:    26.3790    28.8475    31.7032
     17  H    Isotropic =    27.6697   Anisotropy =     2.3533
   XX=    27.3230   YX=     1.4672   ZX=     0.3347
   XY=     0.2409   YY=    27.7255   ZY=    -1.8325
   XZ=     1.2610   YZ=    -0.9485   ZZ=    27.9606
   Eigenvalues:    25.6373    28.1332    29.2386
     18  H    Isotropic =    28.1588   Anisotropy =     3.4628
   XX=    26.7077   YX=     0.7487   ZX=     0.8044
   XY=     1.1539   YY=    30.2207   ZY=     0.7980
   XZ=     0.7713   YZ=    -0.9434   ZZ=    27.5479
   Eigenvalues:    26.0562    27.9528    30.4673
     19  O    Isotropic =   291.5131   Anisotropy =    89.3916
   XX=   259.8928   YX=     6.5250   ZX=    37.3241
   XY=    -5.1575   YY=   277.8056   ZY=    -2.9047
   XZ=    29.5964   YZ=    26.5717   ZZ=   336.8409
   Eigenvalues:   246.9630   276.4688   351.1074
     20  H    Isotropic =    30.8508   Anisotropy =    16.0112
   XX=    24.4992   YX=    -0.9191   ZX=     4.9035
   XY=     0.0392   YY=    28.7572   ZY=     3.7240
   XZ=     5.0120   YZ=     2.8626   ZZ=    39.2958
   Eigenvalues:    22.6522    28.3752    41.5249
     21  O    Isotropic =   302.6058   Anisotropy =    41.8531
   XX=   277.0223   YX=     5.9817   ZX=    17.6625
   XY=    18.9912   YY=   318.7921   ZY=   -14.4284
   XZ=   -11.8633   YZ=   -12.3399   ZZ=   312.0031
   Eigenvalues:   272.4694   304.8403   330.5079
     22  H    Isotropic =    29.3767   Anisotropy =    19.1614
   XX=    24.7753   YX=     6.3147   ZX=    -3.5002
   XY=     5.3016   YY=    40.1682   ZY=     2.4898
   XZ=    -2.2589   YZ=     1.1826   ZZ=    23.1865
   Eigenvalues:    19.6752    26.3039    42.1510
     23  C    Isotropic =   135.3834   Anisotropy =    52.5000
   XX=   120.3427   YX=    -4.1414   ZX=    13.1079
   XY=    -3.6972   YY=   120.3950   ZY=    -3.0065
   XZ=    17.9557   YZ=    -0.0215   ZZ=   165.4126
   Eigenvalues:   113.8273   121.9395   170.3834
     24  H    Isotropic =    27.9846   Anisotropy =     7.8415
   XX=    26.0448   YX=    -1.5150   ZX=     1.7685
   XY=    -1.8817   YY=    29.7248   ZY=     3.2096
   XZ=     1.4387   YZ=     5.1412   ZZ=    28.1840
   Eigenvalues:    22.9606    27.7808    33.2122
     25  H    Isotropic =    27.9592   Anisotropy =     6.7008
   XX=    29.6583   YX=    -1.7070   ZX=    -2.1494
   XY=    -0.4728   YY=    25.4999   ZY=    -1.1658
   XZ=    -4.2506   YZ=    -0.9054   ZZ=    28.7194
   Eigenvalues:    24.2124    27.2388    32.4264
     26  O    Isotropic =   330.9877   Anisotropy =    47.3350
   XX=   349.4324   YX=    -1.6146   ZX=   -24.1341
   XY=    -1.1795   YY=   317.4605   ZY=    23.0998
   XZ=   -16.1096   YZ=     4.3238   ZZ=   326.0701
   Eigenvalues:   304.1787   326.2399   362.5443
     27  H    Isotropic =    28.7564   Anisotropy =    16.2805
   XX=    37.4632   YX=    -0.6668   ZX=    -3.9803
   XY=    -2.3469   YY=    19.1109   ZY=    -4.5449
   XZ=    -5.2390   YZ=    -3.0889   ZZ=    29.6952
   Eigenvalues:    17.4475    29.2117    39.6101
 End of Minotr Frequency-dependent properties file   721 does not exist.
 End of Minotr Frequency-dependent properties file   722 does not exist.

 **********************************************************************

            Population analysis using the SCF density.

 **********************************************************************

 Orbital symmetries:
       Occupied  (A) (A) (A) (A) (A) (A) (A) (A) (A) (A) (A) (A)
                 (A) (A) (A) (A) (A) (A) (A) (A) (A) (A) (A) (A)
                 (A) (A) (A) (A) (A) (A) (A) (A) (A) (A) (A) (A)
                 (A) (A) (A) (A) (A) (A) (A) (A) (A) (A) (A)
       Virtual   (A) (A) (A) (A) (A) (A) (A) (A) (A) (A) (A) (A)
                 (A) (A) (A) (A) (A) (A) (A) (A) (A) (A) (A) (A)
                 (A) (A) (A) (A) (A) (A) (A) (A) (A) (A) (A) (A)
                 (A) (A) (A) (A) (A) (A) (A) (A) (A) (A) (A) (A)
                 (A) (A) (A) (A) (A) (A) (A) (A) (A) (A) (A) (A)
                 (A) (A) (A) (A) (A) (A) (A) (A) (A) (A) (A) (A)
                 (A) (A) (A) (A) (A) (A) (A) (A) (A) (A) (A) (A)
                 (A) (A) (A) (A) (A) (A) (A) (A) (A) (A) (A) (A)
                 (A) (A) (A) (A) (A) (A) (A) (A) (A) (A) (A) (A)
                 (A) (A) (A) (A) (A) (A) (A) (A) (A) (A) (A) (A)
                 (A) (A) (A) (A) (A) (A) (A) (A) (A) (A) (A) (A)
                 (A) (A) (A) (A) (A) (A) (A) (A) (A) (A) (A) (A)
                 (A) (A) (A) (A) (A) (A) (A) (A) (A) (A) (A) (A)
                 (A) (A) (A) (A) (A) (A) (A) (A) (A) (A) (A) (A)
                 (A) (A) (A) (A) (A) (A) (A) (A) (A) (A) (A) (A)
                 (A) (A) (A) (A) (A) (A) (A) (A) (A) (A) (A) (A)
                 (A) (A) (A) (A) (A) (A) (A) (A) (A) (A) (A) (A)
                 (A) (A) (A) (A) (A) (A) (A) (A) (A) (A) (A) (A)
                 (A) (A) (A) (A) (A) (A) (A) (A) (A) (A) (A) (A)
                 (A) (A) (A) (A) (A) (A) (A) (A) (A) (A) (A) (A)
                 (A) (A) (A) (A) (A) (A) (A) (A) (A) (A) (A) (A)
                 (A) (A) (A) (A)
 The electronic state is 1-A.
 Alpha  occ. eigenvalues --  -19.26387 -19.26188 -19.24874 -14.42250 -10.30500
 Alpha  occ. eigenvalues --  -10.30432 -10.29321 -10.28494 -10.28229 -10.27202
 Alpha  occ. eigenvalues --  -10.24867 -10.24699  -1.07587  -1.05862  -1.05281
 Alpha  occ. eigenvalues --   -0.96954  -0.82933  -0.79591  -0.75513  -0.71672
 Alpha  occ. eigenvalues --   -0.66887  -0.62595  -0.60792  -0.58165  -0.55918
 Alpha  occ. eigenvalues --   -0.53543  -0.50874  -0.50200  -0.49501  -0.47813
 Alpha  occ. eigenvalues --   -0.45519  -0.44790  -0.44206  -0.42444  -0.41503
 Alpha  occ. eigenvalues --   -0.39950  -0.37903  -0.37516  -0.36480  -0.36037
 Alpha  occ. eigenvalues --   -0.35565  -0.34425  -0.33889  -0.32436  -0.29346
 Alpha  occ. eigenvalues --   -0.28216  -0.24360
 Alpha virt. eigenvalues --    0.00660   0.01496   0.01595   0.02275   0.03692
 Alpha virt. eigenvalues --    0.03991   0.04195   0.04859   0.05312   0.07233
 Alpha virt. eigenvalues --    0.08009   0.08135   0.08431   0.09185   0.09370
 Alpha virt. eigenvalues --    0.10025   0.11359   0.11964   0.12187   0.12419
 Alpha virt. eigenvalues --    0.13136   0.13436   0.13983   0.14651   0.15199
 Alpha virt. eigenvalues --    0.15640   0.15942   0.16728   0.17416   0.18388
 Alpha virt. eigenvalues --    0.18537   0.19385   0.19825   0.20344   0.20619
 Alpha virt. eigenvalues --    0.20854   0.21792   0.21884   0.22388   0.23435
 Alpha virt. eigenvalues --    0.23940   0.24859   0.25009   0.25647   0.25823
 Alpha virt. eigenvalues --    0.26784   0.26939   0.27535   0.27918   0.28943
 Alpha virt. eigenvalues --    0.29528   0.29927   0.30383   0.31268   0.31584
 Alpha virt. eigenvalues --    0.32152   0.33178   0.33364   0.34262   0.34662
 Alpha virt. eigenvalues --    0.35204   0.35406   0.36392   0.37471   0.38758
 Alpha virt. eigenvalues --    0.39045   0.39588   0.40521   0.40718   0.41828
 Alpha virt. eigenvalues --    0.42313   0.42804   0.45605   0.45730   0.46568
 Alpha virt. eigenvalues --    0.47848   0.63845   0.64141   0.66193   0.69187
 Alpha virt. eigenvalues --    0.69514   0.70864   0.72619   0.73419   0.74919
 Alpha virt. eigenvalues --    0.76507   0.78223   0.78691   0.80343   0.81347
 Alpha virt. eigenvalues --    0.82436   0.84002   0.85285   0.85414   0.87741
 Alpha virt. eigenvalues --    0.89310   0.90278   0.92718   0.94172   0.97894
 Alpha virt. eigenvalues --    0.98650   0.99964   1.02088   1.02995   1.05604
 Alpha virt. eigenvalues --    1.06202   1.06918   1.09101   1.09384   1.10782
 Alpha virt. eigenvalues --    1.12072   1.13239   1.13712   1.14393   1.15562
 Alpha virt. eigenvalues --    1.17754   1.18311   1.20475   1.24398   1.25529
 Alpha virt. eigenvalues --    1.27385   1.28287   1.29487   1.31150   1.31792
 Alpha virt. eigenvalues --    1.33569   1.34044   1.37488   1.38211   1.38802
 Alpha virt. eigenvalues --    1.40579   1.45804   1.48893   1.50744   1.51944
 Alpha virt. eigenvalues --    1.53947   1.54502   1.55649   1.58834   1.60788
 Alpha virt. eigenvalues --    1.63275   1.63709   1.66052   1.67927   1.72566
 Alpha virt. eigenvalues --    1.73387   1.74818   1.76188   1.77562   1.79716
 Alpha virt. eigenvalues --    1.82820   1.83750   1.84018   1.84509   1.87332
 Alpha virt. eigenvalues --    1.88304   1.90746   1.91896   1.93823   1.94614
 Alpha virt. eigenvalues --    1.95182   2.00042   2.01074   2.02983   2.03663
 Alpha virt. eigenvalues --    2.05204   2.05304   2.06031   2.09101   2.11913
 Alpha virt. eigenvalues --    2.13454   2.15375   2.16337   2.17673   2.18417
 Alpha virt. eigenvalues --    2.21120   2.22722   2.23300   2.27571   2.30032
 Alpha virt. eigenvalues --    2.31834   2.33258   2.34721   2.36721   2.40591
 Alpha virt. eigenvalues --    2.40810   2.44215   2.44488   2.45509   2.47158
 Alpha virt. eigenvalues --    2.49775   2.50304   2.51336   2.52990   2.54614
 Alpha virt. eigenvalues --    2.55498   2.56205   2.57389   2.60469   2.63402
 Alpha virt. eigenvalues --    2.64649   2.64871   2.66680   2.68842   2.68927
 Alpha virt. eigenvalues --    2.70229   2.71480   2.74232   2.75436   2.78143
 Alpha virt. eigenvalues --    2.79184   2.79987   2.81790   2.84756   2.85679
 Alpha virt. eigenvalues --    2.87004   2.89115   2.91254   2.93988   2.95035
 Alpha virt. eigenvalues --    2.97057   2.99645   3.00809   3.02478   3.05909
 Alpha virt. eigenvalues --    3.06636   3.08387   3.10847   3.20534   3.32659
 Alpha virt. eigenvalues --    3.34198   3.36368   3.37900   3.39179   3.43671
 Alpha virt. eigenvalues --    3.47638   3.50109   3.51962   3.55221   3.55814
 Alpha virt. eigenvalues --    3.57483   3.58087   3.61296   3.63569   4.30079
 Alpha virt. eigenvalues --    4.36739   4.38486   4.43765   4.49535   4.53484
 Alpha virt. eigenvalues --    4.57296   4.70655   4.78126   4.81926   4.86983
 Alpha virt. eigenvalues --    4.94648
          Condensed to atoms (all electrons):
              1          2          3          4          5          6
     1  C    6.150055  -1.144462   0.107851   0.076343   0.117250   0.222209
     2  C   -1.144462   9.180253  -0.382731  -0.312080   0.123835  -0.844117
     3  N    0.107851  -0.382731   7.619522   0.179770  -0.111229  -0.499929
     4  C    0.076343  -0.312080   0.179770   5.963626   0.000435  -0.389131
     5  C    0.117250   0.123835  -0.111229   0.000435   5.476145   0.027803
     6  C    0.222209  -0.844117  -0.499929  -0.389131   0.027803   9.635015
     7  C   -0.325465   0.858649  -0.158582  -0.214083   0.084446  -0.442858
     8  C    0.274628  -1.168203   0.007041  -0.027213  -0.024888   0.275241
     9  H    0.428062  -0.076833   0.013789  -0.002102  -0.040496   0.003662
    10  H    0.431173  -0.150956   0.017703   0.028288  -0.028155   0.009383
    11  H    0.076481   0.146762  -0.005137  -0.007178   0.008395   0.056752
    12  H    0.007196  -0.030571  -0.023815   0.373628  -0.033240   0.008560
    13  H    0.014761   0.027790  -0.064893   0.352021  -0.013661   0.048757
    14  H   -0.037964   0.027476   0.009829  -0.038400   0.367845   0.004427
    15  H   -0.056268  -0.002119   0.016458  -0.071649   0.426499   0.005859
    16  H   -0.002648   0.070850  -0.016197   0.074700  -0.019028   0.111526
    17  H    0.010069  -0.018764   0.063750   0.013240  -0.001460  -0.231349
    18  H    0.076189  -0.253687   0.052526   0.012388  -0.012309   0.016644
    19  O   -0.020991  -0.026689   0.017243   0.006112  -0.005834  -0.018344
    20  H    0.026426  -0.122874   0.009322   0.000868  -0.001608   0.011392
    21  O   -0.009513   0.046855   0.017489  -0.000879   0.005524  -0.154790
    22  H    0.000309   0.003969  -0.002996  -0.000385  -0.000226   0.053213
    23  C    0.093674  -0.138141   0.340488   0.196460  -0.069971  -1.595101
    24  H    0.007186  -0.018515  -0.018768   0.023330  -0.007918  -0.018947
    25  H   -0.000766   0.014588   0.017531   0.000709   0.000611  -0.191447
    26  O    0.010606  -0.017405   0.041605   0.004069  -0.007075  -0.172688
    27  H   -0.000208   0.024960   0.055313   0.015682  -0.002214  -0.109147
              7          8          9         10         11         12
     1  C   -0.325465   0.274628   0.428062   0.431173   0.076481   0.007196
     2  C    0.858649  -1.168203  -0.076833  -0.150956   0.146762  -0.030571
     3  N   -0.158582   0.007041   0.013789   0.017703  -0.005137  -0.023815
     4  C   -0.214083  -0.027213  -0.002102   0.028288  -0.007178   0.373628
     5  C    0.084446  -0.024888  -0.040496  -0.028155   0.008395  -0.033240
     6  C   -0.442858   0.275241   0.003662   0.009383   0.056752   0.008560
     7  C    6.266319  -0.278573  -0.001978  -0.009692  -0.062835   0.005547
     8  C   -0.278573   6.488641   0.006749   0.029085   0.043517   0.004333
     9  H   -0.001978   0.006749   0.519198  -0.023841  -0.006839   0.001575
    10  H   -0.009692   0.029085  -0.023841   0.513210   0.002956  -0.000023
    11  H   -0.062835   0.043517  -0.006839   0.002956   0.564169   0.000775
    12  H    0.005547   0.004333   0.001575  -0.000023   0.000775   0.539042
    13  H    0.014500  -0.002006  -0.000114  -0.000138  -0.000167  -0.028217
    14  H    0.002916   0.005393  -0.005045   0.000612  -0.000053  -0.002647
    15  H    0.005437   0.006047   0.004129  -0.005087  -0.000123   0.003972
    16  H    0.001111  -0.055800   0.000004  -0.000053  -0.000549  -0.000219
    17  H    0.447088  -0.057893   0.000008  -0.000008   0.000594   0.000013
    18  H   -0.140241   0.557338   0.000180   0.000745   0.004362   0.000014
    19  O   -0.046773   0.227767  -0.000511   0.004469   0.003033   0.000044
    20  H   -0.078687   0.139075   0.000011  -0.000008   0.004974   0.000000
    21  O    0.307126  -0.148120   0.000030  -0.000060  -0.000573   0.000024
    22  H   -0.004324  -0.032886   0.000000  -0.000001   0.000000   0.000000
    23  C   -0.143147  -0.031724   0.000108   0.000213   0.008392   0.003540
    24  H   -0.006219  -0.000963   0.000000   0.000000   0.000010  -0.000096
    25  H    0.000433  -0.007490   0.000000   0.000000  -0.000003   0.000002
    26  O    0.017365  -0.030606   0.000034   0.000003   0.000886   0.001074
    27  H   -0.028780  -0.010836   0.000000  -0.000001  -0.000586  -0.000186
             13         14         15         16         17         18
     1  C    0.014761  -0.037964  -0.056268  -0.002648   0.010069   0.076189
     2  C    0.027790   0.027476  -0.002119   0.070850  -0.018764  -0.253687
     3  N   -0.064893   0.009829   0.016458  -0.016197   0.063750   0.052526
     4  C    0.352021  -0.038400  -0.071649   0.074700   0.013240   0.012388
     5  C   -0.013661   0.367845   0.426499  -0.019028  -0.001460  -0.012309
     6  C    0.048757   0.004427   0.005859   0.111526  -0.231349   0.016644
     7  C    0.014500   0.002916   0.005437   0.001111   0.447088  -0.140241
     8  C   -0.002006   0.005393   0.006047  -0.055800  -0.057893   0.557338
     9  H   -0.000114  -0.005045   0.004129   0.000004   0.000008   0.000180
    10  H   -0.000138   0.000612  -0.005087  -0.000053  -0.000008   0.000745
    11  H   -0.000167  -0.000053  -0.000123  -0.000549   0.000594   0.004362
    12  H   -0.028217  -0.002647   0.003972  -0.000219   0.000013   0.000014
    13  H    0.526460   0.000902  -0.005522   0.000609  -0.000018  -0.000013
    14  H    0.000902   0.512777  -0.022785  -0.000156   0.000000  -0.000059
    15  H   -0.005522  -0.022785   0.519515   0.000369   0.000003   0.000007
    16  H    0.000609  -0.000156   0.000369   0.564709   0.004283   0.000473
    17  H   -0.000018   0.000000   0.000003   0.004283   0.553982   0.004366
    18  H   -0.000013  -0.000059   0.000007   0.000473   0.004366   0.531655
    19  O   -0.000024   0.000010  -0.000082  -0.000872  -0.009663  -0.057593
    20  H    0.000000   0.000000   0.000000  -0.000003   0.004372   0.007027
    21  O   -0.000140  -0.000012   0.000058   0.006024  -0.038137  -0.003317
    22  H    0.000000   0.000000   0.000000   0.000021  -0.005723  -0.000296
    23  C   -0.040765  -0.001254  -0.001061   0.074843   0.075637   0.018336
    24  H    0.001674   0.000001   0.000002  -0.002123   0.000095   0.000007
    25  H   -0.000041   0.000000  -0.000001   0.001325   0.000499  -0.000008
    26  O   -0.000389   0.000008   0.000065   0.008082   0.007185   0.000147
    27  H    0.000078  -0.000001   0.000000   0.000834   0.000360  -0.000008
             19         20         21         22         23         24
     1  C   -0.020991   0.026426  -0.009513   0.000309   0.093674   0.007186
     2  C   -0.026689  -0.122874   0.046855   0.003969  -0.138141  -0.018515
     3  N    0.017243   0.009322   0.017489  -0.002996   0.340488  -0.018768
     4  C    0.006112   0.000868  -0.000879  -0.000385   0.196460   0.023330
     5  C   -0.005834  -0.001608   0.005524  -0.000226  -0.069971  -0.007918
     6  C   -0.018344   0.011392  -0.154790   0.053213  -1.595101  -0.018947
     7  C   -0.046773  -0.078687   0.307126  -0.004324  -0.143147  -0.006219
     8  C    0.227767   0.139075  -0.148120  -0.032886  -0.031724  -0.000963
     9  H   -0.000511   0.000011   0.000030   0.000000   0.000108   0.000000
    10  H    0.004469  -0.000008  -0.000060  -0.000001   0.000213   0.000000
    11  H    0.003033   0.004974  -0.000573   0.000000   0.008392   0.000010
    12  H    0.000044   0.000000   0.000024   0.000000   0.003540  -0.000096
    13  H   -0.000024   0.000000  -0.000140   0.000000  -0.040765   0.001674
    14  H    0.000010   0.000000  -0.000012   0.000000  -0.001254   0.000001
    15  H   -0.000082   0.000000   0.000058   0.000000  -0.001061   0.000002
    16  H   -0.000872  -0.000003   0.006024   0.000021   0.074843  -0.002123
    17  H   -0.009663   0.004372  -0.038137  -0.005723   0.075637   0.000095
    18  H   -0.057593   0.007027  -0.003317  -0.000296   0.018336   0.000007
    19  O    8.209354   0.249629  -0.003935   0.006866  -0.003964   0.000034
    20  H    0.249629   0.372198  -0.001809   0.000083   0.005322   0.000000
    21  O   -0.003935  -0.001809   8.241761   0.237550   0.033871  -0.000902
    22  H    0.006866   0.000083   0.237550   0.370908  -0.014463   0.000006
    23  C   -0.003964   0.005322   0.033871  -0.014463   6.256826   0.399098
    24  H    0.000034   0.000000  -0.000902   0.000006   0.399098   0.588071
    25  H   -0.000039   0.000000   0.008216  -0.000156   0.538688  -0.039396
    26  O    0.000981   0.000026  -0.000275   0.000372   0.270629  -0.052183
    27  H   -0.000063  -0.000002   0.000575  -0.000005   0.061720  -0.003370
             25         26         27
     1  C   -0.000766   0.010606  -0.000208
     2  C    0.014588  -0.017405   0.024960
     3  N    0.017531   0.041605   0.055313
     4  C    0.000709   0.004069   0.015682
     5  C    0.000611  -0.007075  -0.002214
     6  C   -0.191447  -0.172688  -0.109147
     7  C    0.000433   0.017365  -0.028780
     8  C   -0.007490  -0.030606  -0.010836
     9  H    0.000000   0.000034   0.000000
    10  H    0.000000   0.000003  -0.000001
    11  H   -0.000003   0.000886  -0.000586
    12  H    0.000002   0.001074  -0.000186
    13  H   -0.000041  -0.000389   0.000078
    14  H    0.000000   0.000008  -0.000001
    15  H   -0.000001   0.000065   0.000000
    16  H    0.001325   0.008082   0.000834
    17  H    0.000499   0.007185   0.000360
    18  H   -0.000008   0.000147  -0.000008
    19  O   -0.000039   0.000981  -0.000063
    20  H    0.000000   0.000026  -0.000002
    21  O    0.008216  -0.000275   0.000575
    22  H   -0.000156   0.000372  -0.000005
    23  C    0.538688   0.270629   0.061720
    24  H   -0.039396  -0.052183  -0.003370
    25  H    0.535400  -0.052542   0.006142
    26  O   -0.052542   8.283696   0.245965
    27  H    0.006142   0.245965   0.356734
 Mulliken atomic charges:
              1
     1  C   -0.532181
     2  C    0.182159
     3  N   -0.302953
     4  C   -0.258569
     5  C   -0.259474
     6  C    0.177405
     7  C   -0.068700
     8  C   -0.187653
     9  H    0.180222
    10  H    0.180184
    11  H    0.161986
    12  H    0.169676
    13  H    0.168556
    14  H    0.176183
    15  H    0.176278
    16  H    0.177883
    17  H    0.177470
    18  H    0.185128
    19  O   -0.530167
    20  H    0.374264
    21  O   -0.542640
    22  H    0.388163
    23  C   -0.338258
    24  H    0.149886
    25  H    0.167744
    26  O   -0.559636
    27  H    0.387043
 Sum of Mulliken atomic charges =   0.00000
 Mulliken charges with hydrogens summed into heavy atoms:
              1
     1  C   -0.171775
     2  C    0.344145
     3  N   -0.302953
     4  C    0.079663
     5  C    0.092986
     6  C    0.355288
     7  C    0.108770
     8  C   -0.002525
    19  O   -0.155903
    21  O   -0.154477
    23  C   -0.020628
    26  O   -0.172593
 Sum of Mulliken charges with hydrogens summed into heavy atoms =   0.00000
 Electronic spatial extent (au):  <R**2>=           2038.8440
 Charge=              0.0000 electrons
 Dipole moment (field-independent basis, Debye):
    X=             -3.4345    Y=             -0.3439    Z=              0.2466  Tot=              3.4604
 Quadrupole moment (field-independent basis, Debye-Ang):
   XX=            -80.6585   YY=            -74.7811   ZZ=            -72.2598
   XY=              9.2610   XZ=             -1.9198   YZ=              7.0823
 Traceless Quadrupole moment (field-independent basis, Debye-Ang):
   XX=             -4.7587   YY=              1.1187   ZZ=              3.6400
   XY=              9.2610   XZ=             -1.9198   YZ=              7.0823
 Octapole moment (field-independent basis, Debye-Ang**2):
  XXX=            -26.3304  YYY=             -2.3894  ZZZ=             15.8007  XYY=             14.3443
  XXY=             13.2216  XXZ=            -11.1308  XZZ=             -7.4357  YZZ=              9.5910
  YYZ=             -0.8763  XYZ=             12.9376
 Hexadecapole moment (field-independent basis, Debye-Ang**3):
 XXXX=          -1357.2543 YYYY=          -1040.6438 ZZZZ=           -308.6478 XXXY=             58.9156
 XXXZ=            -42.9577 YYYX=             86.0006 YYYZ=              5.8507 ZZZX=              4.3564
 ZZZY=             19.4062 XXYY=           -383.2003 XXZZ=           -294.6083 YYZZ=           -198.8751
 XXYZ=             23.8064 YYXZ=            -11.5533 ZZXY=              0.4777
 N-N= 8.050294803335D+02 E-N=-2.995521064941D+03  KE= 5.886625562874D+02
 1\1\GINC-COMPUTE-3-0\SP\RmPW1PW91\6-31+G(d,p)\C8H15N1O3\MAMICHETTI.IQU
 IR\17-May-2024\0\\# mpw1pw91/6-31+G** nmr scrf=(pcm,solvent=water)\\co
 mment\\0,1\C,0,-2.542405,0.039179,0.227042\C,0,-1.10467,0.327445,0.706
 154\N,0,-0.29408,-0.91085,0.409046\C,0,-1.220006,-1.895554,-0.203906\C
 ,0,-2.361281,-1.074243,-0.81561\C,0,0.828137,-0.521059,-0.484836\C,0,1
 .05045,0.954466,-0.156527\C,0,-0.38047,1.474123,-0.021415\H,0,-3.15195
 8,-0.326076,1.061675\H,0,-3.024217,0.939801,-0.167612\H,0,-1.088319,0.
 537286,1.783339\H,0,-1.613789,-2.561963,0.574271\H,0,-0.684361,-2.5176
 53,-0.927084\H,0,-3.269539,-1.662495,-0.98052\H,0,-2.050003,-0.65354,-
 1.779835\H,0,0.553829,-0.59189,-1.550225\H,0,1.558326,1.047022,0.81561
 3\H,0,-0.791686,1.608212,-1.028822\O,0,-0.501331,2.748781,0.604408\H,0
 ,-0.164871,2.655298,1.513128\O,0,1.81933,1.581142,-1.178388\H,0,1.9299
 77,2.510488,-0.915213\C,0,2.039913,-1.419461,-0.243826\H,0,1.820423,-2
 .435029,-0.607169\H,0,2.903271,-1.043353,-0.802733\O,0,2.398957,-1.448
 01,1.137513\H,0,1.537814,-1.494837,1.597147\\Version=AM64L-G09RevC.01\
 State=1-A\HF=-594.2026955\RMSD=2.060e-09\Dipole=-1.3512273,-0.1352873,
 0.0970222\Quadrupole=-3.5379903,0.8317223,2.706268,6.8853259,-1.427306
 4,5.2655146\PG=C01 [X(C8H15N1O3)]\\@


 THEREFORE SHALL EVIL COME UPON THEE...
 THOU SHALT NOT KNOW FROM WHENCE IT RISETH...
 AND MISCHIEF SHALL FALL UPON THEE...
 THOU SHALT NOT BE ABLE TO PUT IT OFF...
 AND DESOLATION SHALL COME UPON THEE SUDDENLY...
 WHICH THOU SHALT NOT KNOW...

                                         ISAIAH 47.11
 Job cpu time:  0 days  0 hours  8 minutes 44.8 seconds.
 File lengths (MBytes):  RWF=    113 Int=      0 D2E=      0 Chk=      7 Scr=      1
 Normal termination of Gaussian 09 at Fri May 17 12:25:33 2024.
