 Entering Gaussian System, Link 0=g09
 Input=/home/mamichetti.iquir/Linux/02_Cardona_A1A3_R__R_R_R_013_OptB.gjc
 Output=/home/mamichetti.iquir/Linux/02_Cardona_A1A3_R__R_R_R_013_OptB.log
 Initial command:
 /opt/ohpc/pub/apps/software/Gaussian/09/AMD64.SSE4a-enabled/g09/l1.exe /local/mamichetti.iquir/Gau-714190.inp -scrdir=/local/mamichetti.iquir/
 Entering Link 1 = /opt/ohpc/pub/apps/software/Gaussian/09/AMD64.SSE4a-enabled/g09/l1.exe PID=    714191.
  
 Copyright (c) 1988,1990,1992,1993,1995,1998,2003,2009,2011,
            Gaussian, Inc.  All Rights Reserved.
  
 This is part of the Gaussian(R) 09 program.  It is based on
 the Gaussian(R) 03 system (copyright 2003, Gaussian, Inc.),
 the Gaussian(R) 98 system (copyright 1998, Gaussian, Inc.),
 the Gaussian(R) 94 system (copyright 1995, Gaussian, Inc.),
 the Gaussian 92(TM) system (copyright 1992, Gaussian, Inc.),
 the Gaussian 90(TM) system (copyright 1990, Gaussian, Inc.),
 the Gaussian 88(TM) system (copyright 1988, Gaussian, Inc.),
 the Gaussian 86(TM) system (copyright 1986, Carnegie Mellon
 University), and the Gaussian 82(TM) system (copyright 1983,
 Carnegie Mellon University). Gaussian is a federally registered
 trademark of Gaussian, Inc.
  
 This software contains proprietary and confidential information,
 including trade secrets, belonging to Gaussian, Inc.
  
 This software is provided under written license and may be
 used, copied, transmitted, or stored only in accord with that
 written license.
  
 The following legend is applicable only to US Government
 contracts under FAR:
  
                    RESTRICTED RIGHTS LEGEND
  
 Use, reproduction and disclosure by the US Government is
 subject to restrictions as set forth in subparagraphs (a)
 and (c) of the Commercial Computer Software - Restricted
 Rights clause in FAR 52.227-19.
  
 Gaussian, Inc.
 340 Quinnipiac St., Bldg. 40, Wallingford CT 06492
  
  
 ---------------------------------------------------------------
 Warning -- This program may not be used in any manner that
 competes with the business of Gaussian, Inc. or will provide
 assistance to any competitor of Gaussian, Inc.  The licensee
 of this program is prohibited from giving any competitor of
 Gaussian, Inc. access to this program.  By using this program,
 the user acknowledges that Gaussian, Inc. is engaged in the
 business of creating and licensing software in the field of
 computational chemistry and represents and warrants to the
 licensee that it is not a competitor of Gaussian, Inc. and that
 it will not use this program in any manner prohibited above.
 ---------------------------------------------------------------
  

 Cite this work as:
 Gaussian 09, Revision C.01,
 M. J. Frisch, G. W. Trucks, H. B. Schlegel, G. E. Scuseria, 
 M. A. Robb, J. R. Cheeseman, G. Scalmani, V. Barone, B. Mennucci, 
 G. A. Petersson, H. Nakatsuji, M. Caricato, X. Li, H. P. Hratchian, 
 A. F. Izmaylov, J. Bloino, G. Zheng, J. L. Sonnenberg, M. Hada, 
 M. Ehara, K. Toyota, R. Fukuda, J. Hasegawa, M. Ishida, T. Nakajima, 
 Y. Honda, O. Kitao, H. Nakai, T. Vreven, J. A. Montgomery, Jr., 
 J. E. Peralta, F. Ogliaro, M. Bearpark, J. J. Heyd, E. Brothers, 
 K. N. Kudin, V. N. Staroverov, T. Keith, R. Kobayashi, J. Normand, 
 K. Raghavachari, A. Rendell, J. C. Burant, S. S. Iyengar, J. Tomasi, 
 M. Cossi, N. Rega, J. M. Millam, M. Klene, J. E. Knox, J. B. Cross, 
 V. Bakken, C. Adamo, J. Jaramillo, R. Gomperts, R. E. Stratmann, 
 O. Yazyev, A. J. Austin, R. Cammi, C. Pomelli, J. W. Ochterski, 
 R. L. Martin, K. Morokuma, V. G. Zakrzewski, G. A. Voth, 
 P. Salvador, J. J. Dannenberg, S. Dapprich, A. D. Daniels, 
 O. Farkas, J. B. Foresman, J. V. Ortiz, J. Cioslowski, 
 and D. J. Fox, Gaussian, Inc., Wallingford CT, 2010.
 
 ******************************************
 Gaussian 09:  AM64L-G09RevC.01 23-Sep-2011
                17-May-2024 
 ******************************************
 %nprocshared=4
 Will use up to    4 processors via shared memory.
 ------------------------------------------------
 # mpw1pw91/6-31+G** nmr scrf=(pcm,solvent=water)
 ------------------------------------------------
 1/38=1/1;
 2/12=2,17=6,18=5,40=1/2;
 3/5=1,6=6,7=111,11=2,16=1,25=1,30=1,70=2201,72=1,74=-7/1,2,8,3;
 4//1;
 5/5=2,38=5,53=1/2;
 8/6=1,10=90,11=11/1;
 10/13=100,45=16/2;
 6/7=2,8=2,9=2,10=2,28=1/1;
 99/9=1/99;
 -------
 comment
 -------
 Charge =  0 Multiplicity = 1
 Symbolic Z-Matrix:
 6                     2.31641  -0.99211   0.22965 
 6                     1.28619  -0.09154  -0.47025 
 7                    -0.02659  -0.81822  -0.38694 
 6                     0.19106  -2.08539   0.33905 
 6                     1.67857  -2.38753   0.1384 
 6                    -1.03741   0.08957   0.18733 
 6                    -0.47101   1.49127  -0.10003 
 6                     1.02534   1.29285   0.12874 
 1                     3.306    -0.93659  -0.23384 
 1                     2.41975  -0.69879   1.28168 
 1                     1.56102   0.04641  -1.52547 
 1                    -0.45215  -2.88385  -0.04818 
 1                    -0.03494  -1.97404   1.41318 
 1                     1.84638  -2.82154  -0.8549 
 1                     2.06519  -3.09018   0.88302 
 1                    -1.10088  -0.03213   1.28332 
 1                    -0.63684   1.75829  -1.15377 
 1                     1.20147   1.27824   1.21491 
 8                     1.85441   2.27505  -0.48832 
 1                     1.62872   3.1276   -0.0792 
 8                    -0.97152   2.5195    0.75091 
 1                    -1.85388   2.76452   0.42711 
 6                    -2.43662  -0.1096   -0.38453 
 1                    -3.10771   0.64325   0.04479 
 1                    -2.41856   0.03251  -1.47434 
 8                    -3.01086  -1.37969  -0.05217 
 1                    -2.52883  -2.0501   -0.5632 
 
                          Input orientation:                          
 ---------------------------------------------------------------------
 Center     Atomic      Atomic             Coordinates (Angstroms)
 Number     Number       Type             X           Y           Z
 ---------------------------------------------------------------------
      1          6           0        2.316410   -0.992108    0.229651
      2          6           0        1.286185   -0.091535   -0.470250
      3          7           0       -0.026585   -0.818223   -0.386941
      4          6           0        0.191060   -2.085392    0.339050
      5          6           0        1.678568   -2.387529    0.138399
      6          6           0       -1.037414    0.089568    0.187327
      7          6           0       -0.471007    1.491269   -0.100031
      8          6           0        1.025335    1.292846    0.128740
      9          1           0        3.306000   -0.936590   -0.233835
     10          1           0        2.419750   -0.698794    1.281676
     11          1           0        1.561019    0.046412   -1.525466
     12          1           0       -0.452145   -2.883848   -0.048176
     13          1           0       -0.034937   -1.974040    1.413184
     14          1           0        1.846377   -2.821544   -0.854900
     15          1           0        2.065188   -3.090182    0.883022
     16          1           0       -1.100876   -0.032125    1.283317
     17          1           0       -0.636842    1.758287   -1.153774
     18          1           0        1.201470    1.278242    1.214915
     19          8           0        1.854414    2.275052   -0.488324
     20          1           0        1.628722    3.127597   -0.079195
     21          8           0       -0.971521    2.519496    0.750910
     22          1           0       -1.853876    2.764518    0.427108
     23          6           0       -2.436624   -0.109598   -0.384533
     24          1           0       -3.107713    0.643246    0.044785
     25          1           0       -2.418561    0.032510   -1.474337
     26          8           0       -3.010861   -1.379693   -0.052166
     27          1           0       -2.528828   -2.050096   -0.563202
 ---------------------------------------------------------------------
                    Distance matrix (angstroms):
                    1          2          3          4          5
     1  C    0.000000
     2  C    1.536963   0.000000
     3  N    2.429001   1.502791   0.000000
     4  C    2.392562   2.414484   1.476533   0.000000
     5  C    1.537000   2.407490   2.376184   1.531087   0.000000
     6  C    3.524195   2.421635   1.475006   2.502523   3.676270
     7  C    3.747739   2.393753   2.369300   3.663827   4.441013
     8  C    2.626418   1.530798   2.414348   3.486078   3.737909
     9  H    1.094162   2.202195   3.338199   3.369094   2.211858
    10  H    1.097027   2.173241   2.963630   2.788953   2.169852
    11  H    2.174759   1.099111   2.136427   3.146076   2.950650
    12  H    3.364634   3.316165   2.136041   1.095988   2.195696
    13  H    2.809586   2.972627   2.139260   1.103285   2.175350
    14  H    2.178077   2.813311   2.782134   2.169680   1.096892
    15  H    2.211769   3.380839   3.339179   2.194963   1.094376
    16  H    3.702651   2.962531   2.135840   2.603199   3.818910
    17  H    4.266173   2.754465   2.756601   4.205688   4.921242
    18  H    2.714466   2.173303   2.910194   3.619683   3.850245
    19  O    3.376872   2.433916   3.621710   4.739701   4.707798
    20  H    4.188111   3.260838   4.290017   5.423749   5.519642
    21  O    4.838756   3.661414   3.650750   4.767202   5.610440
    22  H    5.616272   4.338464   4.103377   5.264138   6.253407
    23  C    4.873128   3.723839   2.512060   3.366312   4.732571
    24  H    5.668304   4.484585   3.437387   4.291149   5.665937
    25  H    5.135501   3.840406   2.761834   3.818901   5.024338
    26  O    5.348781   4.505413   3.055033   3.302023   4.800291
    27  H    5.022378   4.289397   2.794602   2.865850   4.278818
                    6          7          8          9         10
     6  C    0.000000
     7  C    1.538882   0.000000
     8  C    2.388775   1.526678   0.000000
     9  H    4.482814   4.492013   3.209872   0.000000
    10  H    3.710943   3.880975   2.690778   1.771654   0.000000
    11  H    3.112455   2.872039   2.139381   2.383183   3.028663
    12  H    3.039606   4.375465   4.433849   4.236737   3.845874
    13  H    2.601185   3.806356   3.666949   3.866631   2.769302
    14  H    4.228127   4.953832   4.309276   2.463589   3.065906
    15  H    4.496770   5.328074   4.567403   2.724875   2.450179
    16  H    1.104550   2.152003   2.758509   4.747669   3.583191
    17  H    2.177988   1.099625   2.150421   4.863605   4.616429
    18  H    2.735230   2.138140   1.100460   3.381332   2.323216
    19  O    3.687209   2.484486   1.425787   3.533626   3.506603
    20  H    4.050794   2.662117   1.942582   4.399408   4.137507
    21  O    2.495299   1.425435   2.424706   5.586720   4.705297
    22  H    2.807038   1.952272   3.247260   6.384306   5.566749
    23  C    1.524624   2.550954   3.770339   5.803823   5.167956
    24  H    2.147793   2.773506   4.184628   6.611295   5.820981
    25  H    2.161469   2.794577   4.002340   5.937053   5.616019
    26  O    2.471958   3.833480   4.844179   6.334988   5.633320
    27  H    2.713995   4.121944   4.928095   5.949252   5.451423
                   11         12         13         14         15
    11  H    0.000000
    12  H    3.849888   0.000000
    13  H    3.907041   1.771267   0.000000
    14  H    2.959098   2.436778   3.066237   0.000000
    15  H    3.986631   2.691964   2.436672   1.772122   0.000000
    16  H    3.870545   3.213417   2.219037   4.586843   4.419945
    17  H    2.810563   4.775550   4.569664   5.218290   5.912458
    18  H    3.025949   4.653261   3.485018   4.637702   4.465343
    19  O    2.475597   5.668174   5.023959   5.109768   5.541728
    20  H    3.404407   6.361481   5.569709   6.003447   6.306912
    21  O    4.208538   5.486749   4.637635   6.248671   6.380246
    22  H    4.781438   5.839074   5.170572   6.821987   7.060059
    23  C    4.160194   3.427500   3.532143   5.091168   5.545889
    24  H    4.961749   4.416002   4.262001   6.112055   6.434286
    25  H    3.979933   3.795507   4.248021   5.169045   5.950828
    26  O    5.010636   2.968085   3.369959   5.129920   5.437520
    27  H    4.695545   2.296303   3.182983   4.452262   4.927304
                   16         17         18         19         20
    16  H    0.000000
    17  H    3.059463   0.000000
    18  H    2.650007   3.036531   0.000000
    19  O    4.146748   2.629872   2.078699   0.000000
    20  H    4.392151   2.857011   2.297255   0.972192   0.000000
    21  O    2.609782   2.078285   2.545172   3.095378   2.796449
    22  H    3.020151   2.234471   3.487807   3.850845   3.537889
    23  C    2.138211   2.705539   4.209520   4.910228   5.205737
    24  H    2.453056   2.963961   4.510153   5.250686   5.349877
    25  H    3.056980   2.501118   4.678520   4.925397   5.282659
    26  O    2.692118   4.086126   5.139440   6.100680   6.468549
    27  H    3.085593   4.293270   5.306096   6.158354   6.657927
                   21         22         23         24         25
    21  O    0.000000
    22  H    0.971305   0.000000
    23  C    3.216814   3.042844   0.000000
    24  H    2.929547   2.493606   1.096106   0.000000
    25  H    3.637410   3.376126   1.099179   1.776418   0.000000
    26  O    4.472976   4.329296   1.432954   2.027575   2.089906
    27  H    5.003326   4.961530   1.950886   2.821143   2.275868
                   26         27
    26  O    0.000000
    27  H    0.971058   0.000000
 Stoichiometry    C8H15NO3
 Framework group  C1[X(C8H15NO3)]
 Deg. of freedom    75
 Full point group                 C1      NOp   1
 Largest Abelian subgroup         C1      NOp   1
 Largest concise Abelian subgroup C1      NOp   1
                         Standard orientation:                         
 ---------------------------------------------------------------------
 Center     Atomic      Atomic             Coordinates (Angstroms)
 Number     Number       Type             X           Y           Z
 ---------------------------------------------------------------------
      1          6           0        2.316411   -0.992106    0.229651
      2          6           0        1.286185   -0.091534   -0.470250
      3          7           0       -0.026584   -0.818223   -0.386941
      4          6           0        0.191062   -2.085392    0.339050
      5          6           0        1.678570   -2.387528    0.138399
      6          6           0       -1.037414    0.089567    0.187327
      7          6           0       -0.471008    1.491269   -0.100031
      8          6           0        1.025334    1.292847    0.128740
      9          1           0        3.306001   -0.936588   -0.233835
     10          1           0        2.419751   -0.698792    1.281676
     11          1           0        1.561019    0.046413   -1.525466
     12          1           0       -0.452143   -2.883848   -0.048176
     13          1           0       -0.034935   -1.974040    1.413184
     14          1           0        1.846379   -2.821543   -0.854900
     15          1           0        2.065190   -3.090180    0.883022
     16          1           0       -1.100876   -0.032126    1.283317
     17          1           0       -0.636843    1.758287   -1.153774
     18          1           0        1.201469    1.278243    1.214915
     19          8           0        1.854412    2.275053   -0.488324
     20          1           0        1.628720    3.127598   -0.079195
     21          8           0       -0.971523    2.519495    0.750910
     22          1           0       -1.853878    2.764517    0.427108
     23          6           0       -2.436624   -0.109600   -0.384533
     24          1           0       -3.107713    0.643244    0.044785
     25          1           0       -2.418561    0.032508   -1.474337
     26          8           0       -3.010860   -1.379695   -0.052166
     27          1           0       -2.528826   -2.050098   -0.563202
 ---------------------------------------------------------------------
 Rotational constants (GHZ):      1.0207178      0.9489192      0.5300252
 Standard basis: 6-31+G(d,p) (6D, 7F)
 There are   303 symmetry adapted basis functions of A   symmetry.
 Integral buffers will be    131072 words long.
 Raffenetti 2 integral format.
 Two-electron integral symmetry is turned on.
   303 basis functions,   489 primitive gaussians,   303 cartesian basis functions
    47 alpha electrons       47 beta electrons
       nuclear repulsion energy       794.8418982062 Hartrees.
 NAtoms=   27 NActive=   27 NUniq=   27 SFac= 1.00D+00 NAtFMM=   60 NAOKFM=F Big=F
 ------------------------------------------------------------------------------
 Polarizable Continuum Model (PCM)
 =================================
 Model                : PCM.
 Atomic radii         : UFF (Universal Force Field).
 Polarization charges : Total charges.
 Charge compensation  : None.
 Solution method      : Matrix inversion.
 Cavity type          : Scaled VdW (van der Waals Surface) (Alpha=1.100).
 Cavity algorithm     : GePol (No added spheres)
                        Default sphere list used, NSphG=   27.
                        Lebedev-Laikov grids with approx.  5.0 points / Ang**2.
                        Smoothing algorithm: Karplus/York (Gamma=1.0000).
                        Polarization charges: spherical gaussians, with
                                              point-specific exponents (IZeta= 3).
                        Self-potential: point-specific (ISelfS= 7).
                        Self-field    : sphere-specific E.n sum rule (ISelfD= 2).
 Solvent              : Water, Eps=  78.355300 Eps(inf)=   1.777849
 ------------------------------------------------------------------------------
 One-electron integrals computed using PRISM.
 NBasis=   303 RedAO= T  NBF=   303
 NBsUse=   303 1.00D-06 NBFU=   303
 Harris functional with IExCor=  908 diagonalized for initial guess.
 ExpMin= 4.38D-02 ExpMax= 5.48D+03 ExpMxC= 8.25D+02 IAcc=2 IRadAn=         4 AccDes= 0.00D+00
 HarFok:  IExCor=  908 AccDes= 0.00D+00 IRadAn=         4 IDoV= 1
 ScaDFX=  1.000000  1.000000  1.000000  1.000000
 FoFCou: FMM=F IPFlag=           0 FMFlag=      100000 FMFlg1=           0
         NFxFlg=           0 DoJE=T BraDBF=F KetDBF=T FulRan=T
         Omega=  0.000000  0.000000  1.000000  0.000000  0.000000 ICntrl=     500 IOpCl=  0
         NMat0=    1 NMatS0=    1 NMatT0=    0 NMatD0=    1 NMtDS0=    0 NMtDT0=    0
         I1Cent=           4 NGrid=           0.
 Petite list used in FoFCou.
 Initial guess orbital symmetries:
       Occupied  (A) (A) (A) (A) (A) (A) (A) (A) (A) (A) (A) (A)
                 (A) (A) (A) (A) (A) (A) (A) (A) (A) (A) (A) (A)
                 (A) (A) (A) (A) (A) (A) (A) (A) (A) (A) (A) (A)
                 (A) (A) (A) (A) (A) (A) (A) (A) (A) (A) (A)
       Virtual   (A) (A) (A) (A) (A) (A) (A) (A) (A) (A) (A) (A)
                 (A) (A) (A) (A) (A) (A) (A) (A) (A) (A) (A) (A)
                 (A) (A) (A) (A) (A) (A) (A) (A) (A) (A) (A) (A)
                 (A) (A) (A) (A) (A) (A) (A) (A) (A) (A) (A) (A)
                 (A) (A) (A) (A) (A) (A) (A) (A) (A) (A) (A) (A)
                 (A) (A) (A) (A) (A) (A) (A) (A) (A) (A) (A) (A)
                 (A) (A) (A) (A) (A) (A) (A) (A) (A) (A) (A) (A)
                 (A) (A) (A) (A) (A) (A) (A) (A) (A) (A) (A) (A)
                 (A) (A) (A) (A) (A) (A) (A) (A) (A) (A) (A) (A)
                 (A) (A) (A) (A) (A) (A) (A) (A) (A) (A) (A) (A)
                 (A) (A) (A) (A) (A) (A) (A) (A) (A) (A) (A) (A)
                 (A) (A) (A) (A) (A) (A) (A) (A) (A) (A) (A) (A)
                 (A) (A) (A) (A) (A) (A) (A) (A) (A) (A) (A) (A)
                 (A) (A) (A) (A) (A) (A) (A) (A) (A) (A) (A) (A)
                 (A) (A) (A) (A) (A) (A) (A) (A) (A) (A) (A) (A)
                 (A) (A) (A) (A) (A) (A) (A) (A) (A) (A) (A) (A)
                 (A) (A) (A) (A) (A) (A) (A) (A) (A) (A) (A) (A)
                 (A) (A) (A) (A) (A) (A) (A) (A) (A) (A) (A) (A)
                 (A) (A) (A) (A) (A) (A) (A) (A) (A) (A) (A) (A)
                 (A) (A) (A) (A) (A) (A) (A) (A) (A) (A) (A) (A)
                 (A) (A) (A) (A) (A) (A) (A) (A) (A) (A) (A) (A)
                 (A) (A) (A) (A)
 The electronic state of the initial guess is 1-A.
 Requested convergence on RMS density matrix=1.00D-08 within 128 cycles.
 Requested convergence on MAX density matrix=1.00D-06.
 Requested convergence on             energy=1.00D-06.
 No special actions if energy rises.
 Error on total polarization charges =  0.01475
 SCF Done:  E(RmPW1PW91) =  -594.198484681     A.U. after   13 cycles
             Convg  =    0.8197D-08             -V/T =  2.0094
 Range of M.O.s used for correlation:     1   303
 NBasis=   303 NAE=    47 NBE=    47 NFC=     0 NFV=     0
 NROrb=    303 NOA=    47 NOB=    47 NVA=   256 NVB=   256

 **** Warning!!: The largest alpha MO coefficient is  0.65650098D+02

 NEqPCM:  Using equilibrium solvation (IEInf=0, Eps=  78.3553, EpsInf=   1.7778)
          Differentiating once with respect to magnetic field using GIAOs.
          Electric field/nuclear overlap derivatives assumed to be zero.
 FoFCou: FMM=F IPFlag=           0 FMFlag=    10101102 FMFlg1=           0
         NFxFlg=    40000000 DoJE=F BraDBF=F KetDBF=T FulRan=T
         Omega=  0.000000  0.000000  1.000000  0.000000  0.000000 ICntrl=    6100 IOpCl=  0
         NMat0=    1 NMatS0=    1 NMatT0=    0 NMatD0=    1 NMtDS0=    0 NMtDT0=    0
         I1Cent=           7 NGrid=        1854.
 Symmetry not used in FoFCou.
          There are     3 degrees of freedom in the 1st order CPHF.  IDoFFX=0.
      3 vectors produced by pass  0 Test12= 4.01D-13 3.33D-08 XBig12= 4.37D+01 1.59D+00.
 AX will form     3 AO Fock derivatives at one time.
      3 vectors produced by pass  1 Test12= 4.01D-13 3.33D-08 XBig12= 1.14D-01 5.89D-02.
      3 vectors produced by pass  2 Test12= 4.01D-13 3.33D-08 XBig12= 3.04D-04 4.55D-03.
      3 vectors produced by pass  3 Test12= 4.01D-13 3.33D-08 XBig12= 1.32D-06 2.78D-04.
      3 vectors produced by pass  4 Test12= 4.01D-13 3.33D-08 XBig12= 4.40D-09 1.48D-05.
      3 vectors produced by pass  5 Test12= 4.01D-13 3.33D-08 XBig12= 1.15D-11 7.07D-07.
 Inverted reduced A of dimension    18 with in-core refinement.
 Calculating GIAO nuclear magnetic shielding tensors.
 SCF GIAO Magnetic shielding tensor (ppm):
      1  C    Isotropic =   162.6167   Anisotropy =    25.4372
   XX=   160.7177   YX=   -10.2853   ZX=     8.9748
   XY=    -0.9253   YY=   174.3441   ZY=    -6.1551
   XZ=    14.1547   YZ=    -3.7268   ZZ=   152.7882
   Eigenvalues:   144.5064   163.7688   179.5748
      2  C    Isotropic =   128.1851   Anisotropy =    54.1520
   XX=   145.7702   YX=    16.2241   ZX=     0.4092
   XY=    22.5630   YY=   143.7766   ZY=    -3.4037
   XZ=    -2.2771   YZ=    -2.0330   ZZ=    95.0085
   Eigenvalues:    94.8569   125.4119   164.2864
      3  N    Isotropic =   196.2893   Anisotropy =    91.7764
   XX=   249.3305   YX=   -15.1035   ZX=    -8.5265
   XY=   -23.1490   YY=   211.1756   ZY=    -9.7891
   XZ=   -10.2006   YZ=    -8.6892   ZZ=   128.3617
   Eigenvalues:   126.2537   205.1405   257.4735
      4  C    Isotropic =   136.6018   Anisotropy =    56.7277
   XX=   129.6404   YX=   -11.6639   ZX=     3.6811
   XY=   -21.0477   YY=   156.9981   ZY=   -22.2534
   XZ=    -2.2032   YZ=   -25.6472   ZZ=   123.1669
   Eigenvalues:   108.1278   127.2573   174.4203
      5  C    Isotropic =   163.9837   Anisotropy =    24.0720
   XX=   179.9820   YX=    -0.0609   ZX=     2.4223
   XY=    -0.5453   YY=   178.1456   ZY=   -10.9641
   XZ=    -3.7801   YZ=     0.3713   ZZ=   133.8234
   Eigenvalues:   133.1885   178.7308   180.0317
      6  C    Isotropic =   121.9045   Anisotropy =    38.3260
   XX=   114.0684   YX=    -9.2874   ZX=    -5.0129
   XY=   -19.1453   YY=   137.0065   ZY=    12.1624
   XZ=   -16.8233   YZ=     1.2151   ZZ=   114.6386
   Eigenvalues:   102.2331   116.0251   147.4552
      7  C    Isotropic =   113.6065   Anisotropy =    35.9467
   XX=   124.7993   YX=    -6.2120   ZX=   -15.3788
   XY=    -5.8968   YY=   126.4092   ZY=    21.1031
   XZ=   -10.2096   YZ=     0.9075   ZZ=    89.6111
   Eigenvalues:    83.6458   119.6028   137.5710
      8  C    Isotropic =   113.3349   Anisotropy =    21.7998
   XX=   121.0266   YX=     6.1521   ZX=    -9.1181
   XY=     2.4454   YY=   121.3976   ZY=   -10.6429
   XZ=    -1.7441   YZ=    -2.3224   ZZ=    97.5805
   Eigenvalues:    95.2159   116.9207   127.8681
      9  H    Isotropic =    29.4985   Anisotropy =     9.7515
   XX=    35.4320   YX=    -0.2799   ZX=    -2.3095
   XY=     0.3087   YY=    27.4878   ZY=    -0.4387
   XZ=    -2.5496   YZ=    -0.2887   ZZ=    25.5756
   Eigenvalues:    24.9606    27.5354    35.9995
     10  H    Isotropic =    30.0299   Anisotropy =     8.3011
   XX=    28.1497   YX=     0.1563   ZX=     4.3723
   XY=    -0.2911   YY=    29.2773   ZY=     1.5245
   XZ=     4.2248   YZ=     1.7607   ZZ=    32.6628
   Eigenvalues:    25.3322    29.1937    35.5640
     11  H    Isotropic =    28.1342   Anisotropy =     6.9360
   XX=    28.3848   YX=     1.2375   ZX=    -3.1908
   XY=     0.8925   YY=    26.1791   ZY=    -1.9022
   XZ=    -2.4101   YZ=    -2.0700   ZZ=    29.8386
   Eigenvalues:    25.2929    26.3514    32.7582
     12  H    Isotropic =    28.4259   Anisotropy =     8.4315
   XX=    29.2054   YX=     2.0863   ZX=     1.3411
   XY=     2.6492   YY=    32.8254   ZY=     0.5108
   XZ=     1.5810   YZ=    -0.3165   ZZ=    23.2470
   Eigenvalues:    22.8868    28.3441    34.0469
     13  H    Isotropic =    28.9446   Anisotropy =     7.5702
   XX=    27.7310   YX=    -0.2901   ZX=    -1.1583
   XY=    -0.4538   YY=    27.9589   ZY=    -4.6239
   XZ=    -2.3614   YZ=    -3.1063   ZZ=    31.1438
   Eigenvalues:    24.7743    28.0680    33.9914
     14  H    Isotropic =    29.4946   Anisotropy =    10.5827
   XX=    27.9039   YX=    -1.6039   ZX=    -2.1295
   XY=    -1.7621   YY=    31.0576   ZY=     5.1297
   XZ=    -2.1965   YZ=     5.6038   ZZ=    29.5222
   Eigenvalues:    24.7550    27.1790    36.5497
     15  H    Isotropic =    29.4614   Anisotropy =    11.5075
   XX=    28.2247   YX=    -3.1276   ZX=     2.3799
   XY=    -3.6385   YY=    32.9338   ZY=    -4.6708
   XZ=     2.2648   YZ=    -3.9790   ZZ=    27.2258
   Eigenvalues:    24.7922    26.4590    37.1331
     16  H    Isotropic =    28.8415   Anisotropy =     4.7458
   XX=    30.0814   YX=    -0.7885   ZX=    -1.8450
   XY=    -0.4437   YY=    27.2179   ZY=     2.4460
   XZ=    -1.7822   YZ=     0.8260   ZZ=    29.2253
   Eigenvalues:    26.2605    28.2587    32.0054
     17  H    Isotropic =    27.8020   Anisotropy =     1.8677
   XX=    26.2060   YX=    -0.9224   ZX=    -0.3551
   XY=    -0.5882   YY=    28.7073   ZY=     1.1191
   XZ=     0.2209   YZ=    -0.6002   ZZ=    28.4928
   Eigenvalues:    25.9956    28.3633    29.0471
     18  H    Isotropic =    27.7205   Anisotropy =     2.5909
   XX=    26.5952   YX=     1.6322   ZX=    -0.0029
   XY=     1.0910   YY=    28.6632   ZY=    -1.0716
   XZ=     0.7937   YZ=    -0.2015   ZZ=    27.9030
   Eigenvalues:    25.7290    27.9847    29.4477
     19  O    Isotropic =   297.8695   Anisotropy =    39.5463
   XX=   267.1972   YX=    -1.7791   ZX=     6.5405
   XY=     9.8468   YY=   321.9602   ZY=    -7.0473
   XZ=   -15.8949   YZ=    -4.7118   ZZ=   304.4510
   Eigenvalues:   266.4213   302.9535   324.2337
     20  H    Isotropic =    29.4050   Anisotropy =    18.5103
   XX=    24.8308   YX=     1.6796   ZX=    -3.3172
   XY=     0.3241   YY=    40.1863   ZY=     5.5798
   XZ=    -2.5552   YZ=     5.1698   ZZ=    23.1981
   Eigenvalues:    19.7498    26.7201    41.7452
     21  O    Isotropic =   298.4162   Anisotropy =    37.2945
   XX=   312.0916   YX=   -26.2014   ZX=     1.5928
   XY=   -18.9493   YY=   277.4569   ZY=    -2.5505
   XZ=     4.9790   YZ=    20.0281   ZZ=   305.7000
   Eigenvalues:   264.2392   307.7301   323.2791
     22  H    Isotropic =    29.7992   Anisotropy =    19.4216
   XX=    37.9197   YX=    -7.4678   ZX=     4.6470
   XY=    -8.0337   YY=    28.4741   ZY=     1.6817
   XZ=     3.7433   YZ=     0.9408   ZZ=    23.0037
   Eigenvalues:    20.0699    26.5807    42.7469
     23  C    Isotropic =   125.8439   Anisotropy =    49.8933
   XX=   128.8885   YX=    17.6820   ZX=     5.8105
   XY=    23.8315   YY=   141.3531   ZY=   -17.1954
   XZ=     3.1466   YZ=   -15.6989   ZZ=   107.2902
   Eigenvalues:    95.4778   122.9479   159.1061
     24  H    Isotropic =    27.9198   Anisotropy =     5.3083
   XX=    30.9216   YX=     0.1002   ZX=    -0.0306
   XY=    -1.5073   YY=    30.4483   ZY=     1.0246
   XZ=    -0.4927   YZ=     0.0713   ZZ=    22.3895
   Eigenvalues:    22.3470    29.9537    31.4587
     25  H    Isotropic =    28.0181   Anisotropy =     5.5418
   XX=    26.9384   YX=     2.2089   ZX=     2.1630
   XY=     2.0978   YY=    28.4342   ZY=    -4.2961
   XZ=     2.5272   YZ=    -1.9836   ZZ=    28.6818
   Eigenvalues:    22.9078    29.4339    31.7127
     26  O    Isotropic =   307.5464   Anisotropy =    23.9073
   XX=   302.4134   YX=   -16.2786   ZX=     1.5994
   XY=    -1.4925   YY=   315.6777   ZY=     2.7189
   XZ=   -14.5822   YZ=     8.3911   ZZ=   304.5482
   Eigenvalues:   296.0907   303.0639   323.4847
     27  H    Isotropic =    30.0826   Anisotropy =    14.8481
   XX=    29.4278   YX=    -1.8740   ZX=    -4.0335
   XY=    -2.5444   YY=    35.8297   ZY=     6.4669
   XZ=    -3.2092   YZ=     6.2606   ZZ=    24.9903
   Eigenvalues:    21.2994    28.9670    39.9813
 End of Minotr Frequency-dependent properties file   721 does not exist.
 End of Minotr Frequency-dependent properties file   722 does not exist.

 **********************************************************************

            Population analysis using the SCF density.

 **********************************************************************

 Orbital symmetries:
       Occupied  (A) (A) (A) (A) (A) (A) (A) (A) (A) (A) (A) (A)
                 (A) (A) (A) (A) (A) (A) (A) (A) (A) (A) (A) (A)
                 (A) (A) (A) (A) (A) (A) (A) (A) (A) (A) (A) (A)
                 (A) (A) (A) (A) (A) (A) (A) (A) (A) (A) (A)
       Virtual   (A) (A) (A) (A) (A) (A) (A) (A) (A) (A) (A) (A)
                 (A) (A) (A) (A) (A) (A) (A) (A) (A) (A) (A) (A)
                 (A) (A) (A) (A) (A) (A) (A) (A) (A) (A) (A) (A)
                 (A) (A) (A) (A) (A) (A) (A) (A) (A) (A) (A) (A)
                 (A) (A) (A) (A) (A) (A) (A) (A) (A) (A) (A) (A)
                 (A) (A) (A) (A) (A) (A) (A) (A) (A) (A) (A) (A)
                 (A) (A) (A) (A) (A) (A) (A) (A) (A) (A) (A) (A)
                 (A) (A) (A) (A) (A) (A) (A) (A) (A) (A) (A) (A)
                 (A) (A) (A) (A) (A) (A) (A) (A) (A) (A) (A) (A)
                 (A) (A) (A) (A) (A) (A) (A) (A) (A) (A) (A) (A)
                 (A) (A) (A) (A) (A) (A) (A) (A) (A) (A) (A) (A)
                 (A) (A) (A) (A) (A) (A) (A) (A) (A) (A) (A) (A)
                 (A) (A) (A) (A) (A) (A) (A) (A) (A) (A) (A) (A)
                 (A) (A) (A) (A) (A) (A) (A) (A) (A) (A) (A) (A)
                 (A) (A) (A) (A) (A) (A) (A) (A) (A) (A) (A) (A)
                 (A) (A) (A) (A) (A) (A) (A) (A) (A) (A) (A) (A)
                 (A) (A) (A) (A) (A) (A) (A) (A) (A) (A) (A) (A)
                 (A) (A) (A) (A) (A) (A) (A) (A) (A) (A) (A) (A)
                 (A) (A) (A) (A) (A) (A) (A) (A) (A) (A) (A) (A)
                 (A) (A) (A) (A) (A) (A) (A) (A) (A) (A) (A) (A)
                 (A) (A) (A) (A) (A) (A) (A) (A) (A) (A) (A) (A)
                 (A) (A) (A) (A)
 The electronic state is 1-A.
 Alpha  occ. eigenvalues --  -19.26545 -19.26047 -19.25745 -14.41494 -10.30791
 Alpha  occ. eigenvalues --  -10.30512 -10.29697 -10.28033 -10.27987 -10.27114
 Alpha  occ. eigenvalues --  -10.24743 -10.24707  -1.07617  -1.05851  -1.05716
 Alpha  occ. eigenvalues --   -0.96796  -0.83293  -0.79625  -0.75480  -0.71956
 Alpha  occ. eigenvalues --   -0.66424  -0.61753  -0.60754  -0.58268  -0.56050
 Alpha  occ. eigenvalues --   -0.53718  -0.52776  -0.50819  -0.49111  -0.46992
 Alpha  occ. eigenvalues --   -0.45951  -0.44513  -0.43450  -0.42960  -0.41174
 Alpha  occ. eigenvalues --   -0.39538  -0.38817  -0.37436  -0.36565  -0.35850
 Alpha  occ. eigenvalues --   -0.35042  -0.34898  -0.33807  -0.30938  -0.30815
 Alpha  occ. eigenvalues --   -0.28665  -0.23175
 Alpha virt. eigenvalues --    0.00818   0.01051   0.01864   0.02280   0.03060
 Alpha virt. eigenvalues --    0.04211   0.04717   0.04962   0.05642   0.06690
 Alpha virt. eigenvalues --    0.07632   0.08078   0.08820   0.09126   0.09540
 Alpha virt. eigenvalues --    0.10068   0.10833   0.11941   0.12007   0.12708
 Alpha virt. eigenvalues --    0.13199   0.13752   0.14310   0.14630   0.14907
 Alpha virt. eigenvalues --    0.16001   0.16344   0.16987   0.17408   0.18423
 Alpha virt. eigenvalues --    0.18657   0.19536   0.19562   0.20305   0.20821
 Alpha virt. eigenvalues --    0.21575   0.22604   0.22825   0.23024   0.23609
 Alpha virt. eigenvalues --    0.24197   0.24667   0.24988   0.25828   0.26118
 Alpha virt. eigenvalues --    0.26375   0.27046   0.27731   0.28049   0.28524
 Alpha virt. eigenvalues --    0.29458   0.30509   0.30910   0.31769   0.32002
 Alpha virt. eigenvalues --    0.32400   0.32624   0.33498   0.34173   0.34299
 Alpha virt. eigenvalues --    0.34999   0.35871   0.36496   0.36957   0.37691
 Alpha virt. eigenvalues --    0.38228   0.38868   0.39682   0.40100   0.40560
 Alpha virt. eigenvalues --    0.41534   0.42630   0.43243   0.44501   0.45338
 Alpha virt. eigenvalues --    0.45627   0.62353   0.65138   0.66564   0.68266
 Alpha virt. eigenvalues --    0.69900   0.70363   0.71257   0.72164   0.74357
 Alpha virt. eigenvalues --    0.74596   0.76337   0.80238   0.80527   0.81596
 Alpha virt. eigenvalues --    0.82827   0.84114   0.86332   0.86532   0.87757
 Alpha virt. eigenvalues --    0.88584   0.89857   0.90995   0.94451   0.96862
 Alpha virt. eigenvalues --    0.97724   0.99497   1.01414   1.03281   1.04367
 Alpha virt. eigenvalues --    1.06123   1.06868   1.08088   1.09070   1.10445
 Alpha virt. eigenvalues --    1.11547   1.12706   1.13922   1.14194   1.15132
 Alpha virt. eigenvalues --    1.18313   1.19164   1.21316   1.21865   1.23110
 Alpha virt. eigenvalues --    1.24969   1.26899   1.29631   1.31028   1.32666
 Alpha virt. eigenvalues --    1.34308   1.34577   1.36742   1.41627   1.42029
 Alpha virt. eigenvalues --    1.42456   1.43905   1.46571   1.51109   1.52579
 Alpha virt. eigenvalues --    1.54591   1.54667   1.58065   1.59512   1.60595
 Alpha virt. eigenvalues --    1.62479   1.63365   1.63807   1.66657   1.69191
 Alpha virt. eigenvalues --    1.71943   1.73324   1.74931   1.76513   1.79352
 Alpha virt. eigenvalues --    1.81174   1.82417   1.83561   1.86136   1.87131
 Alpha virt. eigenvalues --    1.88197   1.88843   1.90533   1.91874   1.95317
 Alpha virt. eigenvalues --    1.96788   1.99594   2.00678   2.03050   2.03560
 Alpha virt. eigenvalues --    2.04951   2.06409   2.08398   2.09408   2.10007
 Alpha virt. eigenvalues --    2.11119   2.12982   2.15605   2.17156   2.17886
 Alpha virt. eigenvalues --    2.21415   2.21916   2.24970   2.27012   2.29421
 Alpha virt. eigenvalues --    2.30140   2.32725   2.35267   2.36404   2.38320
 Alpha virt. eigenvalues --    2.39676   2.41871   2.42560   2.43183   2.45455
 Alpha virt. eigenvalues --    2.46374   2.47875   2.49999   2.51838   2.52598
 Alpha virt. eigenvalues --    2.55686   2.59291   2.59778   2.62395   2.63256
 Alpha virt. eigenvalues --    2.65751   2.66029   2.67878   2.69281   2.70331
 Alpha virt. eigenvalues --    2.72445   2.73714   2.74380   2.76240   2.77666
 Alpha virt. eigenvalues --    2.78783   2.80535   2.83147   2.83692   2.85979
 Alpha virt. eigenvalues --    2.86598   2.89870   2.91500   2.93409   2.95564
 Alpha virt. eigenvalues --    2.96315   3.00264   3.00801   3.02664   3.03634
 Alpha virt. eigenvalues --    3.04239   3.07115   3.12071   3.16339   3.31266
 Alpha virt. eigenvalues --    3.33669   3.35586   3.36097   3.38245   3.42885
 Alpha virt. eigenvalues --    3.47823   3.50725   3.52502   3.54057   3.55595
 Alpha virt. eigenvalues --    3.56475   3.56773   3.59735   3.60966   4.30746
 Alpha virt. eigenvalues --    4.35132   4.39328   4.40932   4.47461   4.47942
 Alpha virt. eigenvalues --    4.57306   4.67218   4.76407   4.78463   4.85959
 Alpha virt. eigenvalues --    4.93149
          Condensed to atoms (all electrons):
              1          2          3          4          5          6
     1  C    6.223885  -1.381257   0.245492  -0.237833   0.175604   0.188014
     2  C   -1.381257  10.468078  -0.723847  -0.534266   0.590920  -0.842318
     3  N    0.245492  -0.723847   7.489416   0.306040  -0.232283  -0.075345
     4  C   -0.237833  -0.534266   0.306040   5.845460  -0.059429  -0.104919
     5  C    0.175604   0.590920  -0.232283  -0.059429   5.701016  -0.202469
     6  C    0.188014  -0.842318  -0.075345  -0.104919  -0.202469   8.407924
     7  C   -0.122757   0.501271  -0.152382  -0.128429   0.087818  -0.831697
     8  C    0.204906  -1.395395   0.135749   0.317015  -0.287426   0.356004
     9  H    0.391083  -0.078405   0.015462   0.036471  -0.030777   0.002574
    10  H    0.514388  -0.236466   0.032948   0.022076  -0.079974   0.020280
    11  H    0.113108   0.046772   0.022279   0.018627  -0.029608   0.044887
    12  H    0.044673  -0.011821  -0.040641   0.363216  -0.013367  -0.003738
    13  H   -0.013839   0.027849  -0.100937   0.424251  -0.041508   0.008836
    14  H   -0.018759  -0.047586   0.013743  -0.030314   0.388342   0.008641
    15  H   -0.069270   0.048272   0.004988  -0.022260   0.383978  -0.006526
    16  H   -0.016980   0.067287  -0.073289   0.015650   0.007135   0.253335
    17  H    0.011419  -0.026263   0.048467   0.011836  -0.000030  -0.135518
    18  H    0.045483  -0.249454   0.050382   0.013082  -0.004572   0.034389
    19  O    0.030028  -0.169854   0.030053  -0.003221  -0.000909   0.015658
    20  H   -0.007306   0.051738  -0.003927  -0.000633   0.000444   0.013888
    21  O   -0.000629   0.048052   0.004659  -0.001312   0.003077  -0.138306
    22  H    0.000695  -0.006082  -0.000727  -0.000180  -0.000511  -0.035821
    23  C    0.071748  -0.117381   0.130761  -0.044040   0.005732  -0.638533
    24  H   -0.000043   0.014327   0.010490  -0.003530   0.001039  -0.130862
    25  H   -0.000098   0.011091   0.007215   0.011382   0.003351  -0.114087
    26  O   -0.004257   0.036731   0.019000  -0.015437   0.025677  -0.146256
    27  H   -0.000764   0.012950   0.021607   0.002277   0.010032  -0.086938
              7          8          9         10         11         12
     1  C   -0.122757   0.204906   0.391083   0.514388   0.113108   0.044673
     2  C    0.501271  -1.395395  -0.078405  -0.236466   0.046772  -0.011821
     3  N   -0.152382   0.135749   0.015462   0.032948   0.022279  -0.040641
     4  C   -0.128429   0.317015   0.036471   0.022076   0.018627   0.363216
     5  C    0.087818  -0.287426  -0.030777  -0.079974  -0.029608  -0.013367
     6  C   -0.831697   0.356004   0.002574   0.020280   0.044887  -0.003738
     7  C    6.565770  -0.537377  -0.001430  -0.009174  -0.041949  -0.005894
     8  C   -0.537377   6.785113   0.005775   0.049673   0.059679  -0.000131
     9  H   -0.001430   0.005775   0.511789  -0.024121  -0.003703  -0.000103
    10  H   -0.009174   0.049673  -0.024121   0.530291   0.004237  -0.000031
    11  H   -0.041949   0.059679  -0.003703   0.004237   0.564376   0.000248
    12  H   -0.005894  -0.000131  -0.000103  -0.000031   0.000248   0.560260
    13  H    0.009361   0.001076  -0.000137   0.000931  -0.000533  -0.043664
    14  H   -0.002616   0.016187  -0.005010   0.004164   0.000847  -0.006087
    15  H    0.000631   0.002516   0.000383  -0.005401  -0.000126   0.000730
    16  H    0.036190  -0.039860  -0.000006  -0.000188  -0.000612  -0.001062
    17  H    0.426371  -0.083161   0.000004  -0.000006   0.001143   0.000011
    18  H   -0.076769   0.477369   0.000362   0.003361   0.004467   0.000014
    19  O   -0.108993   0.297704   0.000552   0.001852   0.010711   0.000066
    20  H   -0.048750  -0.003977  -0.000008  -0.000012  -0.000052   0.000000
    21  O    0.401341  -0.204544   0.000008  -0.000229  -0.000580   0.000017
    22  H    0.023342   0.043444   0.000000   0.000000   0.000007   0.000000
    23  C    0.131955  -0.180823   0.000341   0.001013   0.015402   0.000703
    24  H    0.033382  -0.011556   0.000000   0.000000  -0.000007  -0.000048
    25  H    0.000567  -0.014084   0.000000   0.000000  -0.000037   0.000034
    26  O    0.023082  -0.025727   0.000001   0.000002  -0.000048  -0.001276
    27  H    0.002363  -0.003644   0.000000   0.000000  -0.000006   0.000668
             13         14         15         16         17         18
     1  C   -0.013839  -0.018759  -0.069270  -0.016980   0.011419   0.045483
     2  C    0.027849  -0.047586   0.048272   0.067287  -0.026263  -0.249454
     3  N   -0.100937   0.013743   0.004988  -0.073289   0.048467   0.050382
     4  C    0.424251  -0.030314  -0.022260   0.015650   0.011836   0.013082
     5  C   -0.041508   0.388342   0.383978   0.007135  -0.000030  -0.004572
     6  C    0.008836   0.008641  -0.006526   0.253335  -0.135518   0.034389
     7  C    0.009361  -0.002616   0.000631   0.036190   0.426371  -0.076769
     8  C    0.001076   0.016187   0.002516  -0.039860  -0.083161   0.477369
     9  H   -0.000137  -0.005010   0.000383  -0.000006   0.000004   0.000362
    10  H    0.000931   0.004164  -0.005401  -0.000188  -0.000006   0.003361
    11  H   -0.000533   0.000847  -0.000126  -0.000612   0.001143   0.004467
    12  H   -0.043664  -0.006087   0.000730  -0.001062   0.000011   0.000014
    13  H    0.572857   0.003882  -0.004388   0.011755  -0.000031  -0.000334
    14  H    0.003882   0.518902  -0.024161  -0.000016  -0.000002  -0.000008
    15  H   -0.004388  -0.024161   0.512118  -0.000007   0.000000  -0.000027
    16  H    0.011755  -0.000016  -0.000007   0.572339   0.003847   0.000304
    17  H   -0.000031  -0.000002   0.000000   0.003847   0.551726   0.004663
    18  H   -0.000334  -0.000008  -0.000027   0.000304   0.004663   0.561285
    19  O   -0.000244   0.000019  -0.000010  -0.001340  -0.001093  -0.042397
    20  H    0.000000   0.000000   0.000000   0.000022  -0.000336  -0.004542
    21  O   -0.000210  -0.000007  -0.000007  -0.000936  -0.043766  -0.000545
    22  H    0.000000   0.000000   0.000000  -0.000271  -0.006552   0.000090
    23  C   -0.010101  -0.000335  -0.000240  -0.004827   0.052892   0.012952
    24  H    0.000038   0.000000   0.000000  -0.002520   0.000049  -0.000010
    25  H   -0.000009  -0.000001   0.000000   0.004744   0.003412  -0.000004
    26  O   -0.001731  -0.000021  -0.000003   0.002085  -0.000209   0.000001
    27  H    0.000089  -0.000005   0.000000   0.000087   0.000017   0.000000
             19         20         21         22         23         24
     1  C    0.030028  -0.007306  -0.000629   0.000695   0.071748  -0.000043
     2  C   -0.169854   0.051738   0.048052  -0.006082  -0.117381   0.014327
     3  N    0.030053  -0.003927   0.004659  -0.000727   0.130761   0.010490
     4  C   -0.003221  -0.000633  -0.001312  -0.000180  -0.044040  -0.003530
     5  C   -0.000909   0.000444   0.003077  -0.000511   0.005732   0.001039
     6  C    0.015658   0.013888  -0.138306  -0.035821  -0.638533  -0.130862
     7  C   -0.108993  -0.048750   0.401341   0.023342   0.131955   0.033382
     8  C    0.297704  -0.003977  -0.204544   0.043444  -0.180823  -0.011556
     9  H    0.000552  -0.000008   0.000008   0.000000   0.000341   0.000000
    10  H    0.001852  -0.000012  -0.000229   0.000000   0.001013   0.000000
    11  H    0.010711  -0.000052  -0.000580   0.000007   0.015402  -0.000007
    12  H    0.000066   0.000000   0.000017   0.000000   0.000703  -0.000048
    13  H   -0.000244   0.000000  -0.000210   0.000000  -0.010101   0.000038
    14  H    0.000019   0.000000  -0.000007   0.000000  -0.000335   0.000000
    15  H   -0.000010   0.000000  -0.000007   0.000000  -0.000240   0.000000
    16  H   -0.001340   0.000022  -0.000936  -0.000271  -0.004827  -0.002520
    17  H   -0.001093  -0.000336  -0.043766  -0.006552   0.052892   0.000049
    18  H   -0.042397  -0.004542  -0.000545   0.000090   0.012952  -0.000010
    19  O    8.264805   0.233310  -0.007237   0.000322   0.001650  -0.000002
    20  H    0.233310   0.375303   0.010268  -0.000442  -0.000670   0.000000
    21  O   -0.007237   0.010268   8.234048   0.242407  -0.002862   0.005487
    22  H    0.000322  -0.000442   0.242407   0.366115  -0.016320   0.000872
    23  C    0.001650  -0.000670  -0.002862  -0.016320   5.711426   0.458253
    24  H   -0.000002   0.000000   0.005487   0.000872   0.458253   0.553943
    25  H   -0.000077   0.000001  -0.000617   0.000123   0.445370  -0.034198
    26  O    0.000059   0.000003  -0.000958  -0.000209   0.217053  -0.060369
    27  H   -0.000001   0.000000   0.000068  -0.000001   0.033234   0.006637
             25         26         27
     1  C   -0.000098  -0.004257  -0.000764
     2  C    0.011091   0.036731   0.012950
     3  N    0.007215   0.019000   0.021607
     4  C    0.011382  -0.015437   0.002277
     5  C    0.003351   0.025677   0.010032
     6  C   -0.114087  -0.146256  -0.086938
     7  C    0.000567   0.023082   0.002363
     8  C   -0.014084  -0.025727  -0.003644
     9  H    0.000000   0.000001   0.000000
    10  H    0.000000   0.000002   0.000000
    11  H   -0.000037  -0.000048  -0.000006
    12  H    0.000034  -0.001276   0.000668
    13  H   -0.000009  -0.001731   0.000089
    14  H   -0.000001  -0.000021  -0.000005
    15  H    0.000000  -0.000003   0.000000
    16  H    0.004744   0.002085   0.000087
    17  H    0.003412  -0.000209   0.000017
    18  H   -0.000004   0.000001   0.000000
    19  O   -0.000077   0.000059  -0.000001
    20  H    0.000001   0.000003   0.000000
    21  O   -0.000617  -0.000958   0.000068
    22  H    0.000123  -0.000209  -0.000001
    23  C    0.445370   0.217053   0.033234
    24  H   -0.034198  -0.060369   0.006637
    25  H    0.558512  -0.041688  -0.007122
    26  O   -0.041688   8.249063   0.258128
    27  H   -0.007122   0.258128   0.376078
 Mulliken atomic charges:
              1
     1  C   -0.386733
     2  C   -0.104942
     3  N   -0.185373
     4  C   -0.201578
     5  C   -0.401301
     6  C    0.138904
     7  C   -0.175226
     8  C    0.035500
     9  H    0.178892
    10  H    0.170389
    11  H    0.170470
    12  H    0.157223
    13  H    0.156740
    14  H    0.180201
    15  H    0.178808
    16  H    0.167135
    17  H    0.181109
    18  H    0.170456
    19  O   -0.551412
    20  H    0.385679
    21  O   -0.546686
    22  H    0.389701
    23  C   -0.274355
    24  H    0.158627
    25  H    0.166222
    26  O   -0.532695
    27  H    0.374247
 Sum of Mulliken atomic charges =   0.00000
 Mulliken charges with hydrogens summed into heavy atoms:
              1
     1  C   -0.037453
     2  C    0.065528
     3  N   -0.185373
     4  C    0.112385
     5  C   -0.042292
     6  C    0.306038
     7  C    0.005883
     8  C    0.205956
    19  O   -0.165733
    21  O   -0.156985
    23  C    0.050494
    26  O   -0.158447
 Sum of Mulliken charges with hydrogens summed into heavy atoms =   0.00000
 Electronic spatial extent (au):  <R**2>=           2166.6307
 Charge=              0.0000 electrons
 Dipole moment (field-independent basis, Debye):
    X=              0.1807    Y=              0.0098    Z=             -0.2073  Tot=              0.2752
 Quadrupole moment (field-independent basis, Debye-Ang):
   XX=            -80.4342   YY=            -67.0685   ZZ=            -75.5578
   XY=            -10.6786   XZ=              6.6273   YZ=              0.3195
 Traceless Quadrupole moment (field-independent basis, Debye-Ang):
   XX=             -6.0807   YY=              7.2850   ZZ=             -1.2043
   XY=            -10.6786   XZ=              6.6273   YZ=              0.3195
 Octapole moment (field-independent basis, Debye-Ang**2):
  XXX=             12.9736  YYY=             15.9180  ZZZ=             -0.3114  XYY=             -9.2894
  XXY=             23.1335  XXZ=             -2.5297  XZZ=             -1.9778  YZZ=             -2.8770
  YYZ=             -5.3489  XYZ=              2.9226
 Hexadecapole moment (field-independent basis, Debye-Ang**3):
 XXXX=          -1493.6273 YYYY=          -1111.1803 ZZZZ=           -197.8153 XXXY=           -119.4214
 XXXZ=             16.1078 YYYX=             24.7295 YYYZ=              5.2130 ZZZX=              6.6431
 ZZZY=             -0.5803 XXYY=           -404.0016 XXZZ=           -254.3272 YYZZ=           -253.9689
 XXYZ=             30.6071 YYXZ=             32.2877 ZZXY=              2.5183
 N-N= 7.948418982062D+02 E-N=-2.975359571208D+03  KE= 5.886611061070D+02
 1\1\GINC-COMPUTE-3-0\SP\RmPW1PW91\6-31+G(d,p)\C8H15N1O3\MAMICHETTI.IQU
 IR\17-May-2024\0\\# mpw1pw91/6-31+G** nmr scrf=(pcm,solvent=water)\\co
 mment\\0,1\C,0,2.31641,-0.992108,0.229651\C,0,1.286185,-0.091535,-0.47
 025\N,0,-0.026585,-0.818223,-0.386941\C,0,0.19106,-2.085392,0.33905\C,
 0,1.678568,-2.387529,0.138399\C,0,-1.037414,0.089568,0.187327\C,0,-0.4
 71007,1.491269,-0.100031\C,0,1.025335,1.292846,0.12874\H,0,3.306,-0.93
 659,-0.233835\H,0,2.41975,-0.698794,1.281676\H,0,1.561019,0.046412,-1.
 525466\H,0,-0.452145,-2.883848,-0.048176\H,0,-0.034937,-1.97404,1.4131
 84\H,0,1.846377,-2.821544,-0.8549\H,0,2.065188,-3.090182,0.883022\H,0,
 -1.100876,-0.032125,1.283317\H,0,-0.636842,1.758287,-1.153774\H,0,1.20
 147,1.278242,1.214915\O,0,1.854414,2.275052,-0.488324\H,0,1.628722,3.1
 27597,-0.079195\O,0,-0.971521,2.519496,0.75091\H,0,-1.853876,2.764518,
 0.427108\C,0,-2.436624,-0.109598,-0.384533\H,0,-3.107713,0.643246,0.04
 4785\H,0,-2.418561,0.03251,-1.474337\O,0,-3.010861,-1.379693,-0.052166
 \H,0,-2.528828,-2.050096,-0.563202\\Version=AM64L-G09RevC.01\State=1-A
 \HF=-594.1984847\RMSD=8.197e-09\Dipole=0.0710765,0.0038458,-0.0815762\
 Quadrupole=-4.5208512,5.4162218,-0.8953705,-7.939275,4.9272525,0.23750
 69\PG=C01 [X(C8H15N1O3)]\\@


            THE IRISH PIG
 'TWAS AN EVENING IN NOVEMBER,
 AS I VERY WELL REMEMBER
 I WAS STROLLING DOWN THE STREET IN DRUNKEN PRIDE,
 BUT MY KNEES WERE ALL A'FLUTTER
 SO I LANDED IN THE GUTTER,
 AND A PIG CAME UP AND LAY DOWN BY MY SIDE.

 YES, I LAY THERE IN THE GUTTER
 THINKING THOUGHTS I COULD NOT UTTER
 WHEN A COLLEEN PASSING BY DID SOFTLY SAY,
 'YE CAN TELL A MAN THAT BOOZES
 BY THE COMPANY THAT HE CHOOSES.' -
 AT THAT, THE PIG GOT UP AND WALKED AWAY!
     -- THE ECONOMIST, AUGUST 23, 1986
 Job cpu time:  0 days  0 hours  8 minutes 42.9 seconds.
 File lengths (MBytes):  RWF=    114 Int=      0 D2E=      0 Chk=      7 Scr=      1
 Normal termination of Gaussian 09 at Fri May 17 12:46:37 2024.
