 Entering Gaussian System, Link 0=g09
 Input=/home/mamichetti.iquir/Linux/02_Cardona_A1A3_R__R_R_R_048_OptB.gjc
 Output=/home/mamichetti.iquir/Linux/02_Cardona_A1A3_R__R_R_R_048_OptB.log
 Initial command:
 /opt/ohpc/pub/apps/software/Gaussian/09/AMD64.SSE4a-enabled/g09/l1.exe /local/mamichetti.iquir/Gau-710804.inp -scrdir=/local/mamichetti.iquir/
 Entering Link 1 = /opt/ohpc/pub/apps/software/Gaussian/09/AMD64.SSE4a-enabled/g09/l1.exe PID=    710805.
  
 Copyright (c) 1988,1990,1992,1993,1995,1998,2003,2009,2011,
            Gaussian, Inc.  All Rights Reserved.
  
 This is part of the Gaussian(R) 09 program.  It is based on
 the Gaussian(R) 03 system (copyright 2003, Gaussian, Inc.),
 the Gaussian(R) 98 system (copyright 1998, Gaussian, Inc.),
 the Gaussian(R) 94 system (copyright 1995, Gaussian, Inc.),
 the Gaussian 92(TM) system (copyright 1992, Gaussian, Inc.),
 the Gaussian 90(TM) system (copyright 1990, Gaussian, Inc.),
 the Gaussian 88(TM) system (copyright 1988, Gaussian, Inc.),
 the Gaussian 86(TM) system (copyright 1986, Carnegie Mellon
 University), and the Gaussian 82(TM) system (copyright 1983,
 Carnegie Mellon University). Gaussian is a federally registered
 trademark of Gaussian, Inc.
  
 This software contains proprietary and confidential information,
 including trade secrets, belonging to Gaussian, Inc.
  
 This software is provided under written license and may be
 used, copied, transmitted, or stored only in accord with that
 written license.
  
 The following legend is applicable only to US Government
 contracts under FAR:
  
                    RESTRICTED RIGHTS LEGEND
  
 Use, reproduction and disclosure by the US Government is
 subject to restrictions as set forth in subparagraphs (a)
 and (c) of the Commercial Computer Software - Restricted
 Rights clause in FAR 52.227-19.
  
 Gaussian, Inc.
 340 Quinnipiac St., Bldg. 40, Wallingford CT 06492
  
  
 ---------------------------------------------------------------
 Warning -- This program may not be used in any manner that
 competes with the business of Gaussian, Inc. or will provide
 assistance to any competitor of Gaussian, Inc.  The licensee
 of this program is prohibited from giving any competitor of
 Gaussian, Inc. access to this program.  By using this program,
 the user acknowledges that Gaussian, Inc. is engaged in the
 business of creating and licensing software in the field of
 computational chemistry and represents and warrants to the
 licensee that it is not a competitor of Gaussian, Inc. and that
 it will not use this program in any manner prohibited above.
 ---------------------------------------------------------------
  

 Cite this work as:
 Gaussian 09, Revision C.01,
 M. J. Frisch, G. W. Trucks, H. B. Schlegel, G. E. Scuseria, 
 M. A. Robb, J. R. Cheeseman, G. Scalmani, V. Barone, B. Mennucci, 
 G. A. Petersson, H. Nakatsuji, M. Caricato, X. Li, H. P. Hratchian, 
 A. F. Izmaylov, J. Bloino, G. Zheng, J. L. Sonnenberg, M. Hada, 
 M. Ehara, K. Toyota, R. Fukuda, J. Hasegawa, M. Ishida, T. Nakajima, 
 Y. Honda, O. Kitao, H. Nakai, T. Vreven, J. A. Montgomery, Jr., 
 J. E. Peralta, F. Ogliaro, M. Bearpark, J. J. Heyd, E. Brothers, 
 K. N. Kudin, V. N. Staroverov, T. Keith, R. Kobayashi, J. Normand, 
 K. Raghavachari, A. Rendell, J. C. Burant, S. S. Iyengar, J. Tomasi, 
 M. Cossi, N. Rega, J. M. Millam, M. Klene, J. E. Knox, J. B. Cross, 
 V. Bakken, C. Adamo, J. Jaramillo, R. Gomperts, R. E. Stratmann, 
 O. Yazyev, A. J. Austin, R. Cammi, C. Pomelli, J. W. Ochterski, 
 R. L. Martin, K. Morokuma, V. G. Zakrzewski, G. A. Voth, 
 P. Salvador, J. J. Dannenberg, S. Dapprich, A. D. Daniels, 
 O. Farkas, J. B. Foresman, J. V. Ortiz, J. Cioslowski, 
 and D. J. Fox, Gaussian, Inc., Wallingford CT, 2010.
 
 ******************************************
 Gaussian 09:  AM64L-G09RevC.01 23-Sep-2011
                17-May-2024 
 ******************************************
 %nprocshared=4
 Will use up to    4 processors via shared memory.
 ------------------------------------------------
 # mpw1pw91/6-31+G** nmr scrf=(pcm,solvent=water)
 ------------------------------------------------
 1/38=1/1;
 2/12=2,17=6,18=5,40=1/2;
 3/5=1,6=6,7=111,11=2,16=1,25=1,30=1,70=2201,72=1,74=-7/1,2,8,3;
 4//1;
 5/5=2,38=5,53=1/2;
 8/6=1,10=90,11=11/1;
 10/13=100,45=16/2;
 6/7=2,8=2,9=2,10=2,28=1/1;
 99/9=1/99;
 -------
 comment
 -------
 Charge =  0 Multiplicity = 1
 Symbolic Z-Matrix:
 6                    -2.07791   1.4999   -0.06742 
 6                    -1.22505   0.3662   -0.66946 
 7                     0.20758   0.81701  -0.58928 
 6                     0.2131    2.1404    0.07975 
 6                    -1.10021   2.22662   0.86713 
 6                     0.98047  -0.22853   0.12351 
 6                     0.13834  -1.50265  -0.05181 
 6                    -1.2823   -0.96772   0.08093 
 1                    -2.41598   2.17791  -0.85981 
 1                    -2.96727   1.11235   0.4406 
 1                    -1.50793   0.1755   -1.71252 
 1                     0.24489   2.93586  -0.67725 
 1                     1.10576   2.24622   0.70015 
 1                    -1.39891   3.25608   1.09019 
 1                    -1.00795   1.6878    1.81861 
 1                     1.03895  -0.01868   1.20461 
 1                     0.27122  -1.91169  -1.06381 
 1                    -1.48061  -0.79743   1.15034 
 8                    -2.29377  -1.80457  -0.47548 
 1                    -2.3057   -2.62243   0.04989 
 8                     0.38468  -2.51408   0.92206 
 1                     1.22039  -2.95075   0.6875 
 6                     2.39945  -0.39873  -0.39425 
 1                     2.83229  -1.31053   0.04608 
 1                     2.37967  -0.52635  -1.48574 
 8                     3.18291   0.74427  -0.03123 
 1                     4.07224   0.60921  -0.39698 
 
                          Input orientation:                          
 ---------------------------------------------------------------------
 Center     Atomic      Atomic             Coordinates (Angstroms)
 Number     Number       Type             X           Y           Z
 ---------------------------------------------------------------------
      1          6           0       -2.077915    1.499901   -0.067416
      2          6           0       -1.225050    0.366198   -0.669457
      3          7           0        0.207580    0.817011   -0.589275
      4          6           0        0.213095    2.140402    0.079746
      5          6           0       -1.100213    2.226617    0.867126
      6          6           0        0.980472   -0.228530    0.123509
      7          6           0        0.138341   -1.502651   -0.051814
      8          6           0       -1.282297   -0.967724    0.080933
      9          1           0       -2.415976    2.177906   -0.859809
     10          1           0       -2.967270    1.112347    0.440595
     11          1           0       -1.507929    0.175501   -1.712516
     12          1           0        0.244886    2.935864   -0.677246
     13          1           0        1.105759    2.246217    0.700152
     14          1           0       -1.398907    3.256084    1.090188
     15          1           0       -1.007946    1.687797    1.818609
     16          1           0        1.038953   -0.018677    1.204605
     17          1           0        0.271215   -1.911691   -1.063808
     18          1           0       -1.480611   -0.797432    1.150340
     19          8           0       -2.293774   -1.804569   -0.475482
     20          1           0       -2.305700   -2.622433    0.049887
     21          8           0        0.384683   -2.514079    0.922062
     22          1           0        1.220391   -2.950745    0.687502
     23          6           0        2.399453   -0.398731   -0.394250
     24          1           0        2.832293   -1.310533    0.046079
     25          1           0        2.379672   -0.526352   -1.485738
     26          8           0        3.182911    0.744268   -0.031229
     27          1           0        4.072235    0.609210   -0.396976
 ---------------------------------------------------------------------
                    Distance matrix (angstroms):
                    1          2          3          4          5
     1  C    0.000000
     2  C    1.541141   0.000000
     3  N    2.441754   1.504025   0.000000
     4  C    2.383406   2.403615   1.482897   0.000000
     5  C    1.535378   2.416160   2.412139   1.533681   0.000000
     6  C    3.518189   2.418021   1.482761   2.490506   3.303023
     7  C    3.731937   2.394351   2.382119   3.646194   4.035580
     8  C    2.596958   1.531571   2.419544   3.449151   3.294703
     9  H    1.096295   2.176425   2.967873   2.792165   2.171614
    10  H    1.095092   2.196425   3.350750   3.361820   2.215723
    11  H    2.187527   1.097432   2.148529   3.167801   3.320822
    12  H    2.798086   2.960398   2.121007   1.098548   2.167350
    13  H    3.358858   3.292867   2.124142   1.092222   2.212369
    14  H    2.210266   3.387922   3.369046   2.205514   1.094887
    15  H    2.176518   2.825638   2.834374   2.172427   1.097342
    16  H    3.693099   2.964110   2.146523   2.570792   3.119498
    17  H    4.260301   2.753743   2.770387   4.210766   4.768114
    18  H    2.667853   2.175088   2.912503   3.556077   3.061010
    19  O    3.336560   2.427350   3.625245   4.706959   4.413348
    20  H    4.130289   3.258401   4.307538   5.387933   5.063039
    21  O    4.812015   3.663355   3.662194   4.733195   4.968112
    22  H    5.590794   4.338621   4.105110   5.225303   5.676491
    23  C    4.874264   3.714549   2.514035   3.384085   4.553151
    24  H    5.658760   4.448084   3.437912   4.332469   5.352584
    25  H    5.097786   3.802234   2.706705   3.775761   5.022391
    26  O    5.314939   4.469943   3.028085   3.283491   4.620557
    27  H    6.223045   5.309852   3.875012   4.179088   5.564906
                    6          7          8          9         10
     6  C    0.000000
     7  C    1.537305   0.000000
     8  C    2.380828   1.523805   0.000000
     9  H    4.277114   4.552350   3.473501   0.000000
    10  H    4.181287   4.089682   2.700960   1.769291   0.000000
    11  H    3.118713   2.878251   2.138769   2.358238   2.764642
    12  H    3.345995   4.483629   4.259709   2.772727   3.859110
    13  H    2.544128   3.944029   4.051624   3.852371   4.235870
    14  H    4.328793   5.129606   4.344278   2.449364   2.734473
    15  H    3.240290   3.871875   3.185369   3.065400   2.463537
    16  H    1.102827   2.142865   2.748005   4.585119   4.232346
    17  H    2.178485   1.099591   2.148233   4.897695   4.679297
    18  H    2.726712   2.136238   1.100890   3.710558   2.522132
    19  O    3.682849   2.487133   1.425831   4.002842   3.130686
    20  H    4.066340   2.690277   1.945862   4.887020   3.812992
    21  O    2.493268   1.425519   2.424363   5.747476   4.961690
    22  H    2.790359   1.953048   3.250192   6.474596   5.840050
    23  C    1.520049   2.539395   3.755640   5.481255   5.637556
    24  H    2.146152   2.702567   4.128993   6.366645   6.297692
    25  H    2.153168   2.834230   4.007404   5.541032   5.914886
    26  O    2.412678   3.783976   4.783469   5.838613   6.179225
    27  H    3.245260   4.478238   5.602333   6.691181   7.106990
                   11         12         13         14         15
    11  H    0.000000
    12  H    3.429832   0.000000
    13  H    4.115847   1.764636   0.000000
    14  H    4.166177   2.434835   2.728610   0.000000
    15  H    3.873741   3.058848   2.455713   1.772843   0.000000
    16  H    3.877358   3.591827   2.321353   4.084154   2.734749
    17  H    2.818252   4.863015   4.593062   5.842508   4.785488
    18  H    3.023787   4.500545   4.019425   4.054786   2.616555
    19  O    2.463429   5.381190   5.417362   5.372366   4.371822
    20  H    3.401608   6.158642   5.980355   6.038333   4.836386
    21  O    4.213884   5.681479   4.819711   6.041874   4.516522
    22  H    4.793457   6.120973   5.198241   6.748897   5.268867
    23  C    4.163556   3.980172   3.141196   5.476200   4.567353
    24  H    4.913093   5.024914   4.007393   6.312464   5.184523
    25  H    3.956952   4.147036   3.753413   5.934634   5.224665
    26  O    5.015396   3.721884   2.665582   5.344142   4.677118
    27  H    5.749520   4.487814   3.561385   6.257075   5.646274
                   16         17         18         19         20
    16  H    0.000000
    17  H    3.052642   0.000000
    18  H    2.637728   3.035279   0.000000
    19  O    4.137532   2.633775   2.078186   0.000000
    20  H    4.393134   2.895852   2.285257   0.972140   0.000000
    21  O    2.595175   2.078323   2.545252   3.103331   2.830299
    22  H    2.982841   2.246699   3.485167   3.874998   3.598286
    23  C    2.133480   2.695692   4.195190   4.899935   5.223081
    24  H    2.495424   2.855234   4.481496   5.176163   5.302836
    25  H    3.048476   2.557886   4.682326   4.949298   5.357650
    26  O    2.589580   4.074103   5.051869   6.057063   6.439418
    27  H    3.487134   4.609486   5.933543   6.808712   7.163886
                   21         22         23         24         25
    21  O    0.000000
    22  H    0.971650   0.000000
    23  C    3.204165   3.012167   0.000000
    24  H    2.864728   2.387456   1.101192   0.000000
    25  H    3.705205   3.456094   1.099102   1.779401   0.000000
    26  O    4.399508   4.245136   1.432493   2.085933   2.091713
    27  H    5.009275   4.688538   1.952985   2.327910   2.310773
                   26         27
    26  O    0.000000
    27  H    0.971035   0.000000
 Stoichiometry    C8H15NO3
 Framework group  C1[X(C8H15NO3)]
 Deg. of freedom    75
 Full point group                 C1      NOp   1
 Largest Abelian subgroup         C1      NOp   1
 Largest concise Abelian subgroup C1      NOp   1
                         Standard orientation:                         
 ---------------------------------------------------------------------
 Center     Atomic      Atomic             Coordinates (Angstroms)
 Number     Number       Type             X           Y           Z
 ---------------------------------------------------------------------
      1          6           0        2.077915   -1.499901   -0.067416
      2          6           0        1.225050   -0.366198   -0.669457
      3          7           0       -0.207580   -0.817011   -0.589275
      4          6           0       -0.213095   -2.140402    0.079746
      5          6           0        1.100213   -2.226617    0.867126
      6          6           0       -0.980472    0.228530    0.123509
      7          6           0       -0.138341    1.502651   -0.051814
      8          6           0        1.282297    0.967724    0.080933
      9          1           0        2.415976   -2.177906   -0.859809
     10          1           0        2.967270   -1.112347    0.440595
     11          1           0        1.507929   -0.175501   -1.712516
     12          1           0       -0.244886   -2.935864   -0.677246
     13          1           0       -1.105759   -2.246217    0.700152
     14          1           0        1.398907   -3.256084    1.090188
     15          1           0        1.007946   -1.687797    1.818609
     16          1           0       -1.038953    0.018677    1.204605
     17          1           0       -0.271215    1.911691   -1.063808
     18          1           0        1.480611    0.797432    1.150340
     19          8           0        2.293774    1.804569   -0.475482
     20          1           0        2.305700    2.622433    0.049887
     21          8           0       -0.384683    2.514079    0.922062
     22          1           0       -1.220391    2.950745    0.687502
     23          6           0       -2.399453    0.398731   -0.394250
     24          1           0       -2.832293    1.310533    0.046079
     25          1           0       -2.379672    0.526352   -1.485738
     26          8           0       -3.182911   -0.744268   -0.031229
     27          1           0       -4.072235   -0.609210   -0.396976
 ---------------------------------------------------------------------
 Rotational constants (GHZ):      1.0879058      0.9137948      0.5566764
 Standard basis: 6-31+G(d,p) (6D, 7F)
 There are   303 symmetry adapted basis functions of A   symmetry.
 Integral buffers will be    131072 words long.
 Raffenetti 2 integral format.
 Two-electron integral symmetry is turned on.
   303 basis functions,   489 primitive gaussians,   303 cartesian basis functions
    47 alpha electrons       47 beta electrons
       nuclear repulsion energy       798.6231619572 Hartrees.
 NAtoms=   27 NActive=   27 NUniq=   27 SFac= 1.00D+00 NAtFMM=   60 NAOKFM=F Big=F
 ------------------------------------------------------------------------------
 Polarizable Continuum Model (PCM)
 =================================
 Model                : PCM.
 Atomic radii         : UFF (Universal Force Field).
 Polarization charges : Total charges.
 Charge compensation  : None.
 Solution method      : Matrix inversion.
 Cavity type          : Scaled VdW (van der Waals Surface) (Alpha=1.100).
 Cavity algorithm     : GePol (No added spheres)
                        Default sphere list used, NSphG=   27.
                        Lebedev-Laikov grids with approx.  5.0 points / Ang**2.
                        Smoothing algorithm: Karplus/York (Gamma=1.0000).
                        Polarization charges: spherical gaussians, with
                                              point-specific exponents (IZeta= 3).
                        Self-potential: point-specific (ISelfS= 7).
                        Self-field    : sphere-specific E.n sum rule (ISelfD= 2).
 Solvent              : Water, Eps=  78.355300 Eps(inf)=   1.777849
 ------------------------------------------------------------------------------
 One-electron integrals computed using PRISM.
 NBasis=   303 RedAO= T  NBF=   303
 NBsUse=   303 1.00D-06 NBFU=   303
 Harris functional with IExCor=  908 diagonalized for initial guess.
 ExpMin= 4.38D-02 ExpMax= 5.48D+03 ExpMxC= 8.25D+02 IAcc=2 IRadAn=         4 AccDes= 0.00D+00
 HarFok:  IExCor=  908 AccDes= 0.00D+00 IRadAn=         4 IDoV= 1
 ScaDFX=  1.000000  1.000000  1.000000  1.000000
 FoFCou: FMM=F IPFlag=           0 FMFlag=      100000 FMFlg1=           0
         NFxFlg=           0 DoJE=T BraDBF=F KetDBF=T FulRan=T
         Omega=  0.000000  0.000000  1.000000  0.000000  0.000000 ICntrl=     500 IOpCl=  0
         NMat0=    1 NMatS0=    1 NMatT0=    0 NMatD0=    1 NMtDS0=    0 NMtDT0=    0
         I1Cent=           4 NGrid=           0.
 Petite list used in FoFCou.
 Initial guess orbital symmetries:
       Occupied  (A) (A) (A) (A) (A) (A) (A) (A) (A) (A) (A) (A)
                 (A) (A) (A) (A) (A) (A) (A) (A) (A) (A) (A) (A)
                 (A) (A) (A) (A) (A) (A) (A) (A) (A) (A) (A) (A)
                 (A) (A) (A) (A) (A) (A) (A) (A) (A) (A) (A)
       Virtual   (A) (A) (A) (A) (A) (A) (A) (A) (A) (A) (A) (A)
                 (A) (A) (A) (A) (A) (A) (A) (A) (A) (A) (A) (A)
                 (A) (A) (A) (A) (A) (A) (A) (A) (A) (A) (A) (A)
                 (A) (A) (A) (A) (A) (A) (A) (A) (A) (A) (A) (A)
                 (A) (A) (A) (A) (A) (A) (A) (A) (A) (A) (A) (A)
                 (A) (A) (A) (A) (A) (A) (A) (A) (A) (A) (A) (A)
                 (A) (A) (A) (A) (A) (A) (A) (A) (A) (A) (A) (A)
                 (A) (A) (A) (A) (A) (A) (A) (A) (A) (A) (A) (A)
                 (A) (A) (A) (A) (A) (A) (A) (A) (A) (A) (A) (A)
                 (A) (A) (A) (A) (A) (A) (A) (A) (A) (A) (A) (A)
                 (A) (A) (A) (A) (A) (A) (A) (A) (A) (A) (A) (A)
                 (A) (A) (A) (A) (A) (A) (A) (A) (A) (A) (A) (A)
                 (A) (A) (A) (A) (A) (A) (A) (A) (A) (A) (A) (A)
                 (A) (A) (A) (A) (A) (A) (A) (A) (A) (A) (A) (A)
                 (A) (A) (A) (A) (A) (A) (A) (A) (A) (A) (A) (A)
                 (A) (A) (A) (A) (A) (A) (A) (A) (A) (A) (A) (A)
                 (A) (A) (A) (A) (A) (A) (A) (A) (A) (A) (A) (A)
                 (A) (A) (A) (A) (A) (A) (A) (A) (A) (A) (A) (A)
                 (A) (A) (A) (A) (A) (A) (A) (A) (A) (A) (A) (A)
                 (A) (A) (A) (A) (A) (A) (A) (A) (A) (A) (A) (A)
                 (A) (A) (A) (A) (A) (A) (A) (A) (A) (A) (A) (A)
                 (A) (A) (A) (A)
 The electronic state of the initial guess is 1-A.
 Requested convergence on RMS density matrix=1.00D-08 within 128 cycles.
 Requested convergence on MAX density matrix=1.00D-06.
 Requested convergence on             energy=1.00D-06.
 No special actions if energy rises.
 Error on total polarization charges =  0.01448
 SCF Done:  E(RmPW1PW91) =  -594.197549699     A.U. after   13 cycles
             Convg  =    0.3946D-08             -V/T =  2.0094
 Range of M.O.s used for correlation:     1   303
 NBasis=   303 NAE=    47 NBE=    47 NFC=     0 NFV=     0
 NROrb=    303 NOA=    47 NOB=    47 NVA=   256 NVB=   256

 **** Warning!!: The largest alpha MO coefficient is  0.58963880D+02

 NEqPCM:  Using equilibrium solvation (IEInf=0, Eps=  78.3553, EpsInf=   1.7778)
          Differentiating once with respect to magnetic field using GIAOs.
          Electric field/nuclear overlap derivatives assumed to be zero.
 FoFCou: FMM=F IPFlag=           0 FMFlag=    10101102 FMFlg1=           0
         NFxFlg=    40000000 DoJE=F BraDBF=F KetDBF=T FulRan=T
         Omega=  0.000000  0.000000  1.000000  0.000000  0.000000 ICntrl=    6100 IOpCl=  0
         NMat0=    1 NMatS0=    1 NMatT0=    0 NMatD0=    1 NMtDS0=    0 NMtDT0=    0
         I1Cent=           7 NGrid=        1834.
 Symmetry not used in FoFCou.
          There are     3 degrees of freedom in the 1st order CPHF.  IDoFFX=0.
      3 vectors produced by pass  0 Test12= 4.01D-13 3.33D-08 XBig12= 3.32D+01 9.86D-01.
 AX will form     3 AO Fock derivatives at one time.
      3 vectors produced by pass  1 Test12= 4.01D-13 3.33D-08 XBig12= 8.44D-02 4.67D-02.
      3 vectors produced by pass  2 Test12= 4.01D-13 3.33D-08 XBig12= 1.65D-04 2.47D-03.
      3 vectors produced by pass  3 Test12= 4.01D-13 3.33D-08 XBig12= 7.61D-07 1.93D-04.
      3 vectors produced by pass  4 Test12= 4.01D-13 3.33D-08 XBig12= 2.88D-09 1.10D-05.
      3 vectors produced by pass  5 Test12= 4.01D-13 3.33D-08 XBig12= 9.95D-12 5.00D-07.
 Inverted reduced A of dimension    18 with in-core refinement.
 Calculating GIAO nuclear magnetic shielding tensors.
 SCF GIAO Magnetic shielding tensor (ppm):
      1  C    Isotropic =   163.8771   Anisotropy =    23.6135
   XX=   169.9651   YX=    -1.0088   ZX=     6.3618
   XY=    -6.5451   YY=   167.2086   ZY=   -12.3974
   XZ=    -4.2982   YZ=   -19.8949   ZZ=   154.4574
   Eigenvalues:   143.4119   168.5998   179.6194
      2  C    Isotropic =   128.4055   Anisotropy =    55.5535
   XX=   153.7306   YX=    16.3453   ZX=     2.7521
   XY=    23.2831   YY=   131.5444   ZY=   -11.3468
   XZ=    -3.2814   YZ=     2.3770   ZZ=    99.9416
   Eigenvalues:    99.1752   120.6002   165.4412
      3  N    Isotropic =   195.3729   Anisotropy =    76.0169
   XX=   237.8824   YX=   -11.6420   ZX=   -12.6101
   XY=   -22.9210   YY=   205.9215   ZY=   -10.7482
   XZ=   -12.4169   YZ=    -7.4588   ZZ=   142.3149
   Eigenvalues:   138.7504   201.3175   246.0508
      4  C    Isotropic =   139.3990   Anisotropy =    56.8442
   XX=   131.2683   YX=    -4.8432   ZX=    -2.0227
   XY=     4.4745   YY=   164.3965   ZY=   -24.8244
   XZ=    12.7306   YZ=   -27.9830   ZZ=   122.5321
   Eigenvalues:   108.7672   132.1346   177.2951
      5  C    Isotropic =   171.2766   Anisotropy =    18.8141
   XX=   181.3039   YX=     4.2542   ZX=     5.9392
   XY=     4.6114   YY=   171.8195   ZY=   -12.4066
   XZ=     6.3896   YZ=   -20.9010   ZZ=   160.7063
   Eigenvalues:   147.0248   182.9856   183.8193
      6  C    Isotropic =   124.8733   Anisotropy =    39.1931
   XX=   115.9683   YX=    -3.1734   ZX=    -4.2098
   XY=    -4.5244   YY=   144.6713   ZY=    16.6088
   XZ=   -25.0242   YZ=     7.2120   ZZ=   113.9802
   Eigenvalues:    99.4293   124.1885   151.0020
      7  C    Isotropic =   116.8087   Anisotropy =    37.0526
   XX=   121.5758   YX=    -5.8220   ZX=   -12.3006
   XY=    -3.6042   YY=   126.0407   ZY=    26.2877
   XZ=   -11.6643   YZ=    10.5751   ZZ=   102.8095
   Eigenvalues:    90.3212   118.5943   141.5104
      8  C    Isotropic =   114.9428   Anisotropy =    30.8437
   XX=   131.6415   YX=     9.7430   ZX=   -14.1444
   XY=     2.5490   YY=   121.6600   ZY=    -7.3854
   XZ=     2.4181   YZ=     2.1429   ZZ=    91.5269
   Eigenvalues:    90.5887   118.7344   135.5053
      9  H    Isotropic =    29.8129   Anisotropy =    11.8210
   XX=    29.1025   YX=    -3.9179   ZX=    -3.8662
   XY=    -5.0451   YY=    30.4116   ZY=     3.0826
   XZ=    -4.8517   YZ=     2.8534   ZZ=    29.9244
   Eigenvalues:    24.5488    27.1962    37.6935
     10  H    Isotropic =    29.7124   Anisotropy =     9.4883
   XX=    35.1550   YX=     0.8957   ZX=     3.0324
   XY=     1.4531   YY=    28.0834   ZY=    -0.3648
   XZ=     2.3951   YZ=    -0.0711   ZZ=    25.8990
   Eigenvalues:    25.0696    28.0297    36.0380
     11  H    Isotropic =    28.2041   Anisotropy =     6.9982
   XX=    27.7925   YX=     0.2819   ZX=    -3.0869
   XY=     0.2020   YY=    25.9090   ZY=    -1.2564
   XZ=    -2.6905   YZ=    -1.4280   ZZ=    30.9108
   Eigenvalues:    25.3601    26.3827    32.8696
     12  H    Isotropic =    28.7141   Anisotropy =    11.4373
   XX=    25.1188   YX=     0.9107   ZX=     2.3795
   XY=     1.6987   YY=    34.7465   ZY=     3.8910
   XZ=     3.3332   YZ=     2.7793   ZZ=    26.2770
   Eigenvalues:    22.6638    27.1396    36.3390
     13  H    Isotropic =    28.5884   Anisotropy =     7.4559
   XX=    32.4210   YX=     1.2356   ZX=    -1.1819
   XY=     1.3317   YY=    28.9346   ZY=    -3.9249
   XZ=    -1.6049   YZ=    -2.6561   ZZ=    24.4095
   Eigenvalues:    22.6357    29.5705    33.5590
     14  H    Isotropic =    30.0803   Anisotropy =    12.5974
   XX=    27.4939   YX=    -2.5616   ZX=     0.9200
   XY=    -2.9757   YY=    35.7421   ZY=    -4.5675
   XZ=     1.1803   YZ=    -4.5334   ZZ=    27.0048
   Eigenvalues:    25.0572    26.7051    38.4785
     15  H    Isotropic =    29.8715   Anisotropy =     8.8683
   XX=    27.1073   YX=    -0.0375   ZX=     0.1946
   XY=    -0.4026   YY=    26.7875   ZY=     1.2483
   XZ=     0.2119   YZ=     0.2212   ZZ=    35.7198
   Eigenvalues:    26.6138    27.2170    35.7837
     16  H    Isotropic =    28.8577   Anisotropy =     5.4131
   XX=    29.5909   YX=    -1.8898   ZX=    -1.4938
   XY=    -1.8931   YY=    27.7055   ZY=     2.3541
   XZ=    -1.8382   YZ=     1.0480   ZZ=    29.2765
   Eigenvalues:    26.3462    27.7604    32.4664
     17  H    Isotropic =    28.0215   Anisotropy =     1.7505
   XX=    25.9428   YX=    -0.5092   ZX=     0.0306
   XY=     0.0451   YY=    28.9723   ZY=     0.7751
   XZ=     0.0853   YZ=    -0.9411   ZZ=    29.1494
   Eigenvalues:    25.9243    28.9518    29.1885
     18  H    Isotropic =    27.8734   Anisotropy =     3.4954
   XX=    26.9690   YX=     2.0089   ZX=    -0.2506
   XY=     1.5376   YY=    29.1485   ZY=    -1.2778
   XZ=     0.7659   YZ=     0.0517   ZZ=    27.5027
   Eigenvalues:    25.8112    27.6053    30.2036
     19  O    Isotropic =   297.7320   Anisotropy =    43.3332
   XX=   272.7209   YX=    11.5273   ZX=     6.3774
   XY=    26.0213   YY=   318.9114   ZY=    -5.9155
   XZ=   -13.3422   YZ=    -2.4388   ZZ=   301.5638
   Eigenvalues:   265.9518   300.6235   326.6208
     20  H    Isotropic =    29.3632   Anisotropy =    18.9652
   XX=    25.8470   YX=     5.7647   ZX=    -1.1582
   XY=     4.4459   YY=    37.3043   ZY=     7.7680
   XZ=    -0.5645   YZ=     7.2800   ZZ=    24.9381
   Eigenvalues:    19.7208    26.3620    42.0066
     21  O    Isotropic =   300.2733   Anisotropy =    35.4482
   XX=   303.2924   YX=   -31.0523   ZX=    -3.2546
   XY=   -25.1199   YY=   284.9766   ZY=    -5.2575
   XZ=     8.7866   YZ=    18.1820   ZZ=   312.5510
   Eigenvalues:   263.6318   313.2827   323.9055
     22  H    Isotropic =    29.8787   Anisotropy =    19.6332
   XX=    35.1713   YX=    -9.1496   ZX=     3.4931
   XY=    -9.4312   YY=    31.7542   ZY=     2.2698
   XZ=     2.4323   YZ=     1.4903   ZZ=    22.7107
   Eigenvalues:    19.9297    26.7389    42.9675
     23  C    Isotropic =   126.2984   Anisotropy =    49.2771
   XX=   137.2807   YX=    18.5214   ZX=    -3.6810
   XY=    24.3286   YY=   131.2598   ZY=   -15.0351
   XZ=    -6.8292   YZ=   -10.8878   ZZ=   110.3545
   Eigenvalues:   103.1679   116.5775   159.1497
     24  H    Isotropic =    27.7763   Anisotropy =     4.9795
   XX=    30.1589   YX=     0.5299   ZX=     0.0722
   XY=    -1.0726   YY=    30.8848   ZY=     1.2640
   XZ=    -1.3104   YZ=     0.4881   ZZ=    22.2851
   Eigenvalues:    22.1534    30.0795    31.0959
     25  H    Isotropic =    28.0119   Anisotropy =     5.1051
   XX=    28.0678   YX=     1.6361   ZX=     0.5666
   XY=     1.9900   YY=    27.2380   ZY=    -4.4118
   XZ=     1.8250   YZ=    -2.2559   ZZ=    28.7300
   Eigenvalues:    23.5347    29.0857    31.4154
     26  O    Isotropic =   312.8752   Anisotropy =    86.2489
   XX=   360.8273   YX=    15.9983   ZX=    20.1475
   XY=    -6.3337   YY=   278.0289   ZY=    -9.7227
   XZ=    31.6767   YZ=    -6.5397   ZZ=   299.7694
   Eigenvalues:   272.9901   295.2611   370.3745
     27  H    Isotropic =    30.2211   Anisotropy =    21.6287
   XX=    42.6834   YX=     0.4999   ZX=     6.7725
   XY=     1.8076   YY=    24.6289   ZY=    -1.8633
   XZ=     6.0984   YZ=    -2.6225   ZZ=    23.3509
   Eigenvalues:    20.0562    25.9668    44.6402
 End of Minotr Frequency-dependent properties file   721 does not exist.
 End of Minotr Frequency-dependent properties file   722 does not exist.

 **********************************************************************

            Population analysis using the SCF density.

 **********************************************************************

 Orbital symmetries:
       Occupied  (A) (A) (A) (A) (A) (A) (A) (A) (A) (A) (A) (A)
                 (A) (A) (A) (A) (A) (A) (A) (A) (A) (A) (A) (A)
                 (A) (A) (A) (A) (A) (A) (A) (A) (A) (A) (A) (A)
                 (A) (A) (A) (A) (A) (A) (A) (A) (A) (A) (A)
       Virtual   (A) (A) (A) (A) (A) (A) (A) (A) (A) (A) (A) (A)
                 (A) (A) (A) (A) (A) (A) (A) (A) (A) (A) (A) (A)
                 (A) (A) (A) (A) (A) (A) (A) (A) (A) (A) (A) (A)
                 (A) (A) (A) (A) (A) (A) (A) (A) (A) (A) (A) (A)
                 (A) (A) (A) (A) (A) (A) (A) (A) (A) (A) (A) (A)
                 (A) (A) (A) (A) (A) (A) (A) (A) (A) (A) (A) (A)
                 (A) (A) (A) (A) (A) (A) (A) (A) (A) (A) (A) (A)
                 (A) (A) (A) (A) (A) (A) (A) (A) (A) (A) (A) (A)
                 (A) (A) (A) (A) (A) (A) (A) (A) (A) (A) (A) (A)
                 (A) (A) (A) (A) (A) (A) (A) (A) (A) (A) (A) (A)
                 (A) (A) (A) (A) (A) (A) (A) (A) (A) (A) (A) (A)
                 (A) (A) (A) (A) (A) (A) (A) (A) (A) (A) (A) (A)
                 (A) (A) (A) (A) (A) (A) (A) (A) (A) (A) (A) (A)
                 (A) (A) (A) (A) (A) (A) (A) (A) (A) (A) (A) (A)
                 (A) (A) (A) (A) (A) (A) (A) (A) (A) (A) (A) (A)
                 (A) (A) (A) (A) (A) (A) (A) (A) (A) (A) (A) (A)
                 (A) (A) (A) (A) (A) (A) (A) (A) (A) (A) (A) (A)
                 (A) (A) (A) (A) (A) (A) (A) (A) (A) (A) (A) (A)
                 (A) (A) (A) (A) (A) (A) (A) (A) (A) (A) (A) (A)
                 (A) (A) (A) (A) (A) (A) (A) (A) (A) (A) (A) (A)
                 (A) (A) (A) (A) (A) (A) (A) (A) (A) (A) (A) (A)
                 (A) (A) (A) (A)
 The electronic state is 1-A.
 Alpha  occ. eigenvalues --  -19.26481 -19.26029 -19.25577 -14.41234 -10.30686
 Alpha  occ. eigenvalues --  -10.30412 -10.29676 -10.28121 -10.27770 -10.26540
 Alpha  occ. eigenvalues --  -10.24584 -10.24354  -1.07546  -1.05788  -1.05620
 Alpha  occ. eigenvalues --   -0.96483  -0.82878  -0.79511  -0.75534  -0.71814
 Alpha  occ. eigenvalues --   -0.65960  -0.61824  -0.60232  -0.58037  -0.55850
 Alpha  occ. eigenvalues --   -0.54017  -0.52256  -0.50532  -0.49331  -0.47261
 Alpha  occ. eigenvalues --   -0.45936  -0.45310  -0.42866  -0.41699  -0.41147
 Alpha  occ. eigenvalues --   -0.39662  -0.38732  -0.37277  -0.36236  -0.35523
 Alpha  occ. eigenvalues --   -0.35035  -0.34664  -0.33263  -0.31036  -0.29811
 Alpha  occ. eigenvalues --   -0.29199  -0.23200
 Alpha virt. eigenvalues --    0.00728   0.01323   0.01592   0.02028   0.02922
 Alpha virt. eigenvalues --    0.03994   0.04568   0.04974   0.05768   0.07459
 Alpha virt. eigenvalues --    0.07536   0.08081   0.08436   0.08812   0.09404
 Alpha virt. eigenvalues --    0.10521   0.11731   0.11911   0.12274   0.12648
 Alpha virt. eigenvalues --    0.12974   0.13718   0.14631   0.14770   0.14834
 Alpha virt. eigenvalues --    0.15445   0.16008   0.16965   0.17554   0.18401
 Alpha virt. eigenvalues --    0.18808   0.19271   0.19726   0.20439   0.20589
 Alpha virt. eigenvalues --    0.21571   0.22268   0.22935   0.23173   0.23355
 Alpha virt. eigenvalues --    0.24002   0.24383   0.24677   0.25359   0.25956
 Alpha virt. eigenvalues --    0.26426   0.27151   0.27440   0.28289   0.28782
 Alpha virt. eigenvalues --    0.29375   0.29952   0.30268   0.31451   0.32065
 Alpha virt. eigenvalues --    0.32304   0.32621   0.32908   0.34402   0.35212
 Alpha virt. eigenvalues --    0.35353   0.35981   0.36461   0.37562   0.38049
 Alpha virt. eigenvalues --    0.39038   0.40613   0.40656   0.41463   0.41864
 Alpha virt. eigenvalues --    0.42492   0.42608   0.43590   0.44906   0.46465
 Alpha virt. eigenvalues --    0.47422   0.63502   0.64530   0.67413   0.68629
 Alpha virt. eigenvalues --    0.69374   0.70466   0.71609   0.72042   0.74803
 Alpha virt. eigenvalues --    0.77689   0.78818   0.79194   0.80268   0.82527
 Alpha virt. eigenvalues --    0.83273   0.83579   0.85411   0.86750   0.88349
 Alpha virt. eigenvalues --    0.88473   0.90819   0.90977   0.94927   0.96527
 Alpha virt. eigenvalues --    0.98940   1.00006   1.02742   1.03231   1.05119
 Alpha virt. eigenvalues --    1.05531   1.06294   1.08059   1.08768   1.10810
 Alpha virt. eigenvalues --    1.12316   1.13310   1.13965   1.14624   1.15667
 Alpha virt. eigenvalues --    1.17081   1.18371   1.20148   1.23362   1.24549
 Alpha virt. eigenvalues --    1.26629   1.27810   1.29573   1.31017   1.32832
 Alpha virt. eigenvalues --    1.33526   1.34479   1.35638   1.38814   1.39578
 Alpha virt. eigenvalues --    1.45573   1.46797   1.48748   1.52414   1.54230
 Alpha virt. eigenvalues --    1.55234   1.56093   1.57767   1.59330   1.60729
 Alpha virt. eigenvalues --    1.61178   1.63074   1.66531   1.68300   1.70493
 Alpha virt. eigenvalues --    1.72257   1.74889   1.75565   1.77371   1.80041
 Alpha virt. eigenvalues --    1.82198   1.83085   1.83317   1.85059   1.87443
 Alpha virt. eigenvalues --    1.88888   1.90418   1.93292   1.93887   1.95195
 Alpha virt. eigenvalues --    1.96868   1.99960   2.00493   2.02069   2.02847
 Alpha virt. eigenvalues --    2.03837   2.05926   2.06267   2.08781   2.09714
 Alpha virt. eigenvalues --    2.10096   2.15450   2.16193   2.18031   2.18779
 Alpha virt. eigenvalues --    2.20780   2.23147   2.24833   2.26808   2.30161
 Alpha virt. eigenvalues --    2.31409   2.32790   2.34382   2.37056   2.39625
 Alpha virt. eigenvalues --    2.40403   2.42360   2.43257   2.43918   2.46317
 Alpha virt. eigenvalues --    2.47335   2.49383   2.50526   2.52825   2.55310
 Alpha virt. eigenvalues --    2.56640   2.58385   2.61196   2.63553   2.65557
 Alpha virt. eigenvalues --    2.65669   2.66252   2.67386   2.67994   2.68817
 Alpha virt. eigenvalues --    2.70604   2.72948   2.73619   2.75118   2.77482
 Alpha virt. eigenvalues --    2.79715   2.80750   2.81739   2.83087   2.85454
 Alpha virt. eigenvalues --    2.87778   2.89105   2.92103   2.92650   2.95051
 Alpha virt. eigenvalues --    2.97418   2.99266   3.00863   3.02209   3.03482
 Alpha virt. eigenvalues --    3.05273   3.07978   3.12609   3.16965   3.32590
 Alpha virt. eigenvalues --    3.34730   3.36623   3.37984   3.39553   3.42774
 Alpha virt. eigenvalues --    3.46811   3.52922   3.53078   3.54174   3.54898
 Alpha virt. eigenvalues --    3.56173   3.56996   3.58645   3.60535   4.32907
 Alpha virt. eigenvalues --    4.37349   4.39107   4.44169   4.48278   4.55881
 Alpha virt. eigenvalues --    4.57430   4.65351   4.77424   4.81275   4.87943
 Alpha virt. eigenvalues --    4.93769
          Condensed to atoms (all electrons):
              1          2          3          4          5          6
     1  C    5.837374  -0.643503   0.070375  -0.015582   0.222063   0.097459
     2  C   -0.643503   8.467053  -0.458272  -0.195974  -0.038345  -0.278443
     3  N    0.070375  -0.458272   7.431776   0.132368  -0.097352  -0.074680
     4  C   -0.015582  -0.195974   0.132368   5.935416   0.062291  -0.256813
     5  C    0.222063  -0.038345  -0.097352   0.062291   5.469196   0.005143
     6  C    0.097459  -0.278443  -0.074680  -0.256813   0.005143   8.484190
     7  C   -0.113201   0.098708  -0.056712  -0.312683   0.038040  -1.090739
     8  C    0.044461  -0.562419   0.005318   0.047028  -0.000081   0.269724
     9  H    0.426470  -0.068980   0.010530  -0.003920  -0.048546   0.009479
    10  H    0.420355  -0.150447   0.020176   0.023543  -0.020600   0.000814
    11  H    0.059259   0.145549   0.008370  -0.007879   0.012673   0.019153
    12  H    0.008163  -0.034326  -0.023932   0.365408  -0.038755   0.017484
    13  H    0.014654   0.030157  -0.073479   0.401003  -0.035421   0.029184
    14  H   -0.037210   0.024812   0.012084  -0.025926   0.357137   0.000905
    15  H   -0.056945   0.000062   0.012839  -0.087209   0.427679   0.014257
    16  H    0.006831   0.056969  -0.068164   0.070517  -0.019131   0.250109
    17  H    0.014697  -0.013068   0.048828   0.013958  -0.002746  -0.134099
    18  H    0.067311  -0.211623   0.049913   0.012668  -0.015049   0.030672
    19  O    0.011730  -0.202377   0.029213   0.006592  -0.004648   0.002737
    20  H   -0.008380   0.053554  -0.003633  -0.001907   0.001809   0.013030
    21  O   -0.003017   0.025186   0.009180  -0.004773   0.006422  -0.112730
    22  H   -0.000537  -0.001060  -0.000900  -0.000449   0.000197  -0.031964
    23  C    0.091556  -0.190293   0.154008   0.125208  -0.041890  -0.920975
    24  H   -0.001617   0.011218   0.000827  -0.014442   0.003076  -0.061508
    25  H    0.002317   0.005903   0.014628   0.019853  -0.003031  -0.194128
    26  O    0.000013   0.003325  -0.005889  -0.039923   0.010104  -0.030232
    27  H    0.000038  -0.002076  -0.000700   0.000898  -0.000329   0.047774
              7          8          9         10         11         12
     1  C   -0.113201   0.044461   0.426470   0.420355   0.059259   0.008163
     2  C    0.098708  -0.562419  -0.068980  -0.150447   0.145549  -0.034326
     3  N   -0.056712   0.005318   0.010530   0.020176   0.008370  -0.023932
     4  C   -0.312683   0.047028  -0.003920   0.023543  -0.007879   0.365408
     5  C    0.038040  -0.000081  -0.048546  -0.020600   0.012673  -0.038755
     6  C   -1.090739   0.269724   0.009479   0.000814   0.019153   0.017484
     7  C    7.192151  -0.346806  -0.001296  -0.001230  -0.032236   0.006353
     8  C   -0.346806   6.331046   0.006340   0.034733   0.039822   0.006420
     9  H   -0.001296   0.006340   0.522382  -0.023854  -0.006307   0.001608
    10  H   -0.001230   0.034733  -0.023854   0.515685   0.002892  -0.000022
    11  H   -0.032236   0.039822  -0.006307   0.002892   0.562376   0.000807
    12  H    0.006353   0.006420   0.001608  -0.000022   0.000807   0.554338
    13  H    0.006317  -0.004547  -0.000102  -0.000141  -0.000183  -0.028803
    14  H    0.002985   0.004762  -0.004870   0.000633  -0.000049  -0.002658
    15  H    0.011893   0.007921   0.004200  -0.005150  -0.000094   0.004177
    16  H   -0.046797  -0.047888  -0.000003  -0.000028  -0.000545  -0.000373
    17  H    0.398412  -0.099760   0.000006  -0.000005   0.000944   0.000011
    18  H   -0.097067   0.450465   0.000197   0.000351   0.004420   0.000017
    19  O   -0.073141   0.322885  -0.000378   0.004205   0.008879   0.000076
    20  H   -0.048638  -0.003791   0.000006  -0.000107  -0.000040   0.000000
    21  O    0.391240  -0.196469   0.000023  -0.000084  -0.000546   0.000009
    22  H    0.022257   0.045340   0.000000   0.000000   0.000007   0.000000
    23  C    0.102082  -0.254482  -0.000213   0.000044   0.015500   0.004756
    24  H    0.052059  -0.002394   0.000000   0.000000  -0.000009  -0.000002
    25  H   -0.005217  -0.013029   0.000000   0.000000  -0.000032   0.000008
    26  O    0.033021  -0.002898  -0.000016  -0.000001  -0.000005  -0.000333
    27  H   -0.007292   0.002162   0.000000   0.000000   0.000000   0.000008
             13         14         15         16         17         18
     1  C    0.014654  -0.037210  -0.056945   0.006831   0.014697   0.067311
     2  C    0.030157   0.024812   0.000062   0.056969  -0.013068  -0.211623
     3  N   -0.073479   0.012084   0.012839  -0.068164   0.048828   0.049913
     4  C    0.401003  -0.025926  -0.087209   0.070517   0.013958   0.012668
     5  C   -0.035421   0.357137   0.427679  -0.019131  -0.002746  -0.015049
     6  C    0.029184   0.000905   0.014257   0.250109  -0.134099   0.030672
     7  C    0.006317   0.002985   0.011893  -0.046797   0.398412  -0.097067
     8  C   -0.004547   0.004762   0.007921  -0.047888  -0.099760   0.450465
     9  H   -0.000102  -0.004870   0.004200  -0.000003   0.000006   0.000197
    10  H   -0.000141   0.000633  -0.005150  -0.000028  -0.000005   0.000351
    11  H   -0.000183  -0.000049  -0.000094  -0.000545   0.000944   0.004420
    12  H   -0.028803  -0.002658   0.004177  -0.000373   0.000011   0.000017
    13  H    0.517668   0.000913  -0.005560   0.002140  -0.000018  -0.000040
    14  H    0.000913   0.518594  -0.023365  -0.000133   0.000000  -0.000050
    15  H   -0.005560  -0.023365   0.524854   0.000002   0.000002  -0.000123
    16  H    0.002140  -0.000133   0.000002   0.561257   0.004052   0.000117
    17  H   -0.000018   0.000000   0.000002   0.004052   0.553468   0.004598
    18  H   -0.000040  -0.000050  -0.000123   0.000117   0.004598   0.556852
    19  O   -0.000022   0.000000  -0.000093  -0.000963  -0.000557  -0.040624
    20  H    0.000000   0.000000  -0.000001   0.000015  -0.000269  -0.005441
    21  O   -0.000080  -0.000012  -0.000033  -0.000348  -0.043266  -0.000499
    22  H   -0.000001   0.000000  -0.000001  -0.000343  -0.006326   0.000076
    23  C   -0.028648  -0.000696  -0.001877   0.048994   0.078285   0.018515
    24  H   -0.000038   0.000000   0.000000  -0.003541  -0.000391  -0.000024
    25  H    0.000069   0.000000   0.000001   0.004866   0.002760  -0.000004
    26  O    0.000778   0.000015  -0.000282   0.005044   0.000155   0.000041
    27  H    0.000011   0.000000   0.000000  -0.000150  -0.000003   0.000000
             19         20         21         22         23         24
     1  C    0.011730  -0.008380  -0.003017  -0.000537   0.091556  -0.001617
     2  C   -0.202377   0.053554   0.025186  -0.001060  -0.190293   0.011218
     3  N    0.029213  -0.003633   0.009180  -0.000900   0.154008   0.000827
     4  C    0.006592  -0.001907  -0.004773  -0.000449   0.125208  -0.014442
     5  C   -0.004648   0.001809   0.006422   0.000197  -0.041890   0.003076
     6  C    0.002737   0.013030  -0.112730  -0.031964  -0.920975  -0.061508
     7  C   -0.073141  -0.048638   0.391240   0.022257   0.102082   0.052059
     8  C    0.322885  -0.003791  -0.196469   0.045340  -0.254482  -0.002394
     9  H   -0.000378   0.000006   0.000023   0.000000  -0.000213   0.000000
    10  H    0.004205  -0.000107  -0.000084   0.000000   0.000044   0.000000
    11  H    0.008879  -0.000040  -0.000546   0.000007   0.015500  -0.000009
    12  H    0.000076   0.000000   0.000009   0.000000   0.004756  -0.000002
    13  H   -0.000022   0.000000  -0.000080  -0.000001  -0.028648  -0.000038
    14  H    0.000000   0.000000  -0.000012   0.000000  -0.000696   0.000000
    15  H   -0.000093  -0.000001  -0.000033  -0.000001  -0.001877   0.000000
    16  H   -0.000963   0.000015  -0.000348  -0.000343   0.048994  -0.003541
    17  H   -0.000557  -0.000269  -0.043266  -0.006326   0.078285  -0.000391
    18  H   -0.040624  -0.005441  -0.000499   0.000076   0.018515  -0.000024
    19  O    8.258300   0.236496  -0.006432   0.000237  -0.000293  -0.000048
    20  H    0.236496   0.373620   0.009528  -0.000381  -0.000323  -0.000001
    21  O   -0.006432   0.009528   8.232801   0.240990  -0.004972   0.005135
    22  H    0.000237  -0.000381   0.240990   0.368922  -0.024740   0.002146
    23  C   -0.000293  -0.000323  -0.004972  -0.024740   6.024528   0.376537
    24  H   -0.000048  -0.000001   0.005135   0.002146   0.376537   0.598006
    25  H   -0.000060   0.000001  -0.000109   0.000068   0.536465  -0.047117
    26  O    0.000068   0.000002  -0.001225  -0.000369   0.109437  -0.058712
    27  H    0.000001   0.000000  -0.000031   0.000006  -0.031579  -0.004511
             25         26         27
     1  C    0.002317   0.000013   0.000038
     2  C    0.005903   0.003325  -0.002076
     3  N    0.014628  -0.005889  -0.000700
     4  C    0.019853  -0.039923   0.000898
     5  C   -0.003031   0.010104  -0.000329
     6  C   -0.194128  -0.030232   0.047774
     7  C   -0.005217   0.033021  -0.007292
     8  C   -0.013029  -0.002898   0.002162
     9  H    0.000000  -0.000016   0.000000
    10  H    0.000000  -0.000001   0.000000
    11  H   -0.000032  -0.000005   0.000000
    12  H    0.000008  -0.000333   0.000008
    13  H    0.000069   0.000778   0.000011
    14  H    0.000000   0.000015   0.000000
    15  H    0.000001  -0.000282   0.000000
    16  H    0.004866   0.005044  -0.000150
    17  H    0.002760   0.000155  -0.000003
    18  H   -0.000004   0.000041   0.000000
    19  O   -0.000060   0.000068   0.000001
    20  H    0.000001   0.000002   0.000000
    21  O   -0.000109  -0.001225  -0.000031
    22  H    0.000068  -0.000369   0.000006
    23  C    0.536465   0.109437  -0.031579
    24  H   -0.047117  -0.058712  -0.004511
    25  H    0.561462  -0.047042  -0.004407
    26  O   -0.047042   8.380169   0.228373
    27  H   -0.004407   0.228373   0.377581
 Mulliken atomic charges:
              1
     1  C   -0.515136
     2  C    0.128710
     3  N   -0.146721
     4  C   -0.249271
     5  C   -0.249907
     6  C   -0.105801
     7  C   -0.122463
     8  C   -0.083861
     9  H    0.177245
    10  H    0.178238
    11  H    0.167277
    12  H    0.159563
    13  H    0.174187
    14  H    0.172129
    15  H    0.172847
    16  H    0.177494
    17  H    0.180333
    18  H    0.174332
    19  O   -0.551781
    20  H    0.384852
    21  O   -0.545889
    22  H    0.386825
    23  C   -0.184934
    24  H    0.145349
    25  H    0.165776
    26  O   -0.583618
    27  H    0.394225
 Sum of Mulliken atomic charges =   0.00000
 Mulliken charges with hydrogens summed into heavy atoms:
              1
     1  C   -0.159653
     2  C    0.295987
     3  N   -0.146721
     4  C    0.084479
     5  C    0.095069
     6  C    0.071693
     7  C    0.057870
     8  C    0.090470
    19  O   -0.166928
    21  O   -0.159064
    23  C    0.126190
    26  O   -0.189393
 Sum of Mulliken charges with hydrogens summed into heavy atoms =   0.00000
 Electronic spatial extent (au):  <R**2>=           2112.0085
 Charge=              0.0000 electrons
 Dipole moment (field-independent basis, Debye):
    X=             -2.4047    Y=              1.5501    Z=              0.3658  Tot=              2.8843
 Quadrupole moment (field-independent basis, Debye-Ang):
   XX=            -66.1422   YY=            -67.9770   ZZ=            -77.0154
   XY=             -9.7083   XZ=              6.5980   YZ=             -1.3756
 Traceless Quadrupole moment (field-independent basis, Debye-Ang):
   XX=              4.2360   YY=              2.4012   ZZ=             -6.6372
   XY=             -9.7083   XZ=              6.5980   YZ=             -1.3756
 Octapole moment (field-independent basis, Debye-Ang**2):
  XXX=            -72.2522  YYY=             28.1885  ZZZ=              0.0120  XYY=             -2.7652
  XXY=             17.8517  XXZ=             -4.8239  XZZ=             -2.7581  YZZ=             -0.6184
  YYZ=             -0.3367  XYZ=              6.3039
 Hexadecapole moment (field-independent basis, Debye-Ang**3):
 XXXX=          -1095.0054 YYYY=          -1031.8089 ZZZZ=           -248.6674 XXXY=            -10.6214
 XXXZ=             85.2586 YYYX=             -5.0521 YYYZ=              3.9770 ZZZX=              2.0257
 ZZZY=             -2.0468 XXYY=           -371.4392 XXZZ=           -261.1615 YYZZ=           -246.5121
 XXYZ=             33.3978 YYXZ=              4.5917 ZZXY=             -2.5844
 N-N= 7.986231619572D+02 E-N=-2.983519933190D+03  KE= 5.886606770951D+02
 1\1\GINC-COMPUTE-3-0\SP\RmPW1PW91\6-31+G(d,p)\C8H15N1O3\MAMICHETTI.IQU
 IR\17-May-2024\0\\# mpw1pw91/6-31+G** nmr scrf=(pcm,solvent=water)\\co
 mment\\0,1\C,0,-2.077915,1.499901,-0.067416\C,0,-1.22505,0.366198,-0.6
 69457\N,0,0.20758,0.817011,-0.589275\C,0,0.213095,2.140402,0.079746\C,
 0,-1.100213,2.226617,0.867126\C,0,0.980472,-0.22853,0.123509\C,0,0.138
 341,-1.502651,-0.051814\C,0,-1.282297,-0.967724,0.080933\H,0,-2.415976
 ,2.177906,-0.859809\H,0,-2.96727,1.112347,0.440595\H,0,-1.507929,0.175
 501,-1.712516\H,0,0.244886,2.935864,-0.677246\H,0,1.105759,2.246217,0.
 700152\H,0,-1.398907,3.256084,1.090188\H,0,-1.007946,1.687797,1.818609
 \H,0,1.038953,-0.018677,1.204605\H,0,0.271215,-1.911691,-1.063808\H,0,
 -1.480611,-0.797432,1.15034\O,0,-2.293774,-1.804569,-0.475482\H,0,-2.3
 057,-2.622433,0.049887\O,0,0.384683,-2.514079,0.922062\H,0,1.220391,-2
 .950745,0.687502\C,0,2.399453,-0.398731,-0.39425\H,0,2.832293,-1.31053
 3,0.046079\H,0,2.379672,-0.526352,-1.485738\O,0,3.182911,0.744268,-0.0
 31229\H,0,4.072235,0.60921,-0.396976\\Version=AM64L-G09RevC.01\State=1
 -A\HF=-594.1975497\RMSD=3.946e-09\Dipole=0.9460934,-0.6098717,0.143911
 5\Quadrupole=3.1493408,1.7852371,-4.9345779,-7.2179101,-4.9054608,1.02
 2739\PG=C01 [X(C8H15N1O3)]\\@


 The juvenile sea squirt wanders through the sea searching
 for a suitable rock or hunk of coral to cling to and make
 its home for life.  For this task it has a rudimentary
 nervous system.  When it finds its spot and takes root, it
 doesn't need its brain any more so it eats it.
 It's rather like getting tenure.

                               -- source unknown
 Job cpu time:  0 days  0 hours  8 minutes 46.3 seconds.
 File lengths (MBytes):  RWF=    113 Int=      0 D2E=      0 Chk=      7 Scr=      1
 Normal termination of Gaussian 09 at Fri May 17 12:15:38 2024.
