 Entering Gaussian System, Link 0=g09
 Input=/home/mamichetti.iquir/Linux/02_Cardona_A1A3_R__R_R_R_010_OptB.gjc
 Output=/home/mamichetti.iquir/Linux/02_Cardona_A1A3_R__R_R_R_010_OptB.log
 Initial command:
 /opt/ohpc/pub/apps/software/Gaussian/09/AMD64.SSE4a-enabled/g09/l1.exe /local/mamichetti.iquir/Gau-713161.inp -scrdir=/local/mamichetti.iquir/
 Entering Link 1 = /opt/ohpc/pub/apps/software/Gaussian/09/AMD64.SSE4a-enabled/g09/l1.exe PID=    713162.
  
 Copyright (c) 1988,1990,1992,1993,1995,1998,2003,2009,2011,
            Gaussian, Inc.  All Rights Reserved.
  
 This is part of the Gaussian(R) 09 program.  It is based on
 the Gaussian(R) 03 system (copyright 2003, Gaussian, Inc.),
 the Gaussian(R) 98 system (copyright 1998, Gaussian, Inc.),
 the Gaussian(R) 94 system (copyright 1995, Gaussian, Inc.),
 the Gaussian 92(TM) system (copyright 1992, Gaussian, Inc.),
 the Gaussian 90(TM) system (copyright 1990, Gaussian, Inc.),
 the Gaussian 88(TM) system (copyright 1988, Gaussian, Inc.),
 the Gaussian 86(TM) system (copyright 1986, Carnegie Mellon
 University), and the Gaussian 82(TM) system (copyright 1983,
 Carnegie Mellon University). Gaussian is a federally registered
 trademark of Gaussian, Inc.
  
 This software contains proprietary and confidential information,
 including trade secrets, belonging to Gaussian, Inc.
  
 This software is provided under written license and may be
 used, copied, transmitted, or stored only in accord with that
 written license.
  
 The following legend is applicable only to US Government
 contracts under FAR:
  
                    RESTRICTED RIGHTS LEGEND
  
 Use, reproduction and disclosure by the US Government is
 subject to restrictions as set forth in subparagraphs (a)
 and (c) of the Commercial Computer Software - Restricted
 Rights clause in FAR 52.227-19.
  
 Gaussian, Inc.
 340 Quinnipiac St., Bldg. 40, Wallingford CT 06492
  
  
 ---------------------------------------------------------------
 Warning -- This program may not be used in any manner that
 competes with the business of Gaussian, Inc. or will provide
 assistance to any competitor of Gaussian, Inc.  The licensee
 of this program is prohibited from giving any competitor of
 Gaussian, Inc. access to this program.  By using this program,
 the user acknowledges that Gaussian, Inc. is engaged in the
 business of creating and licensing software in the field of
 computational chemistry and represents and warrants to the
 licensee that it is not a competitor of Gaussian, Inc. and that
 it will not use this program in any manner prohibited above.
 ---------------------------------------------------------------
  

 Cite this work as:
 Gaussian 09, Revision C.01,
 M. J. Frisch, G. W. Trucks, H. B. Schlegel, G. E. Scuseria, 
 M. A. Robb, J. R. Cheeseman, G. Scalmani, V. Barone, B. Mennucci, 
 G. A. Petersson, H. Nakatsuji, M. Caricato, X. Li, H. P. Hratchian, 
 A. F. Izmaylov, J. Bloino, G. Zheng, J. L. Sonnenberg, M. Hada, 
 M. Ehara, K. Toyota, R. Fukuda, J. Hasegawa, M. Ishida, T. Nakajima, 
 Y. Honda, O. Kitao, H. Nakai, T. Vreven, J. A. Montgomery, Jr., 
 J. E. Peralta, F. Ogliaro, M. Bearpark, J. J. Heyd, E. Brothers, 
 K. N. Kudin, V. N. Staroverov, T. Keith, R. Kobayashi, J. Normand, 
 K. Raghavachari, A. Rendell, J. C. Burant, S. S. Iyengar, J. Tomasi, 
 M. Cossi, N. Rega, J. M. Millam, M. Klene, J. E. Knox, J. B. Cross, 
 V. Bakken, C. Adamo, J. Jaramillo, R. Gomperts, R. E. Stratmann, 
 O. Yazyev, A. J. Austin, R. Cammi, C. Pomelli, J. W. Ochterski, 
 R. L. Martin, K. Morokuma, V. G. Zakrzewski, G. A. Voth, 
 P. Salvador, J. J. Dannenberg, S. Dapprich, A. D. Daniels, 
 O. Farkas, J. B. Foresman, J. V. Ortiz, J. Cioslowski, 
 and D. J. Fox, Gaussian, Inc., Wallingford CT, 2010.
 
 ******************************************
 Gaussian 09:  AM64L-G09RevC.01 23-Sep-2011
                17-May-2024 
 ******************************************
 %nprocshared=4
 Will use up to    4 processors via shared memory.
 ------------------------------------------------
 # mpw1pw91/6-31+G** nmr scrf=(pcm,solvent=water)
 ------------------------------------------------
 1/38=1/1;
 2/12=2,17=6,18=5,40=1/2;
 3/5=1,6=6,7=111,11=2,16=1,25=1,30=1,70=2201,72=1,74=-7/1,2,8,3;
 4//1;
 5/5=2,38=5,53=1/2;
 8/6=1,10=90,11=11/1;
 10/13=100,45=16/2;
 6/7=2,8=2,9=2,10=2,28=1/1;
 99/9=1/99;
 -------
 comment
 -------
 Charge =  0 Multiplicity = 1
 Symbolic Z-Matrix:
 6                    -1.97796   1.59733  -0.15297 
 6                    -1.14705   0.42436  -0.7011 
 7                     0.2966    0.8089   -0.52448 
 6                     0.32234   2.09651   0.21944 
 6                    -1.04922   2.23184   0.89176 
 6                     0.98941  -0.30422   0.17386 
 6                     0.07262  -1.52125  -0.02799 
 6                    -1.31623  -0.89911   0.04959 
 1                    -2.19093   2.31584  -0.95325 
 1                    -2.93596   1.25875   0.25511 
 1                    -1.36884   0.24098  -1.76007 
 1                     0.47651   2.9281   -0.48104 
 1                     1.15892   2.10732   0.92284 
 1                    -1.30812   3.26886   1.12841 
 1                    -1.07304   1.65497   1.82463 
 1                     1.05438  -0.11171   1.25661 
 1                     0.21442  -1.94502  -1.03287 
 1                    -1.54435  -0.7103    1.11 
 8                    -2.35383  -1.67776  -0.54139 
 1                    -2.41831  -2.49744  -0.02269 
 8                     0.21812  -2.54096   0.95844 
 1                     1.02785  -3.03669   0.7524 
 6                     2.40194  -0.52771  -0.35554 
 1                     2.87142  -1.35445   0.18947 
 1                     2.36028  -0.80163  -1.41976 
 8                     3.25413   0.60736  -0.16439 
 1                     2.87703   1.32437  -0.70203 
 
                          Input orientation:                          
 ---------------------------------------------------------------------
 Center     Atomic      Atomic             Coordinates (Angstroms)
 Number     Number       Type             X           Y           Z
 ---------------------------------------------------------------------
      1          6           0       -1.977963    1.597333   -0.152971
      2          6           0       -1.147046    0.424362   -0.701102
      3          7           0        0.296602    0.808901   -0.524484
      4          6           0        0.322341    2.096511    0.219444
      5          6           0       -1.049216    2.231838    0.891761
      6          6           0        0.989412   -0.304216    0.173859
      7          6           0        0.072620   -1.521254   -0.027993
      8          6           0       -1.316227   -0.899114    0.049587
      9          1           0       -2.190930    2.315839   -0.953253
     10          1           0       -2.935958    1.258750    0.255113
     11          1           0       -1.368838    0.240979   -1.760074
     12          1           0        0.476505    2.928095   -0.481040
     13          1           0        1.158919    2.107320    0.922840
     14          1           0       -1.308125    3.268865    1.128410
     15          1           0       -1.073036    1.654973    1.824625
     16          1           0        1.054377   -0.111708    1.256614
     17          1           0        0.214417   -1.945023   -1.032872
     18          1           0       -1.544352   -0.710304    1.110004
     19          8           0       -2.353832   -1.677755   -0.541385
     20          1           0       -2.418314   -2.497439   -0.022687
     21          8           0        0.218120   -2.540957    0.958438
     22          1           0        1.027849   -3.036694    0.752396
     23          6           0        2.401940   -0.527705   -0.355535
     24          1           0        2.871424   -1.354450    0.189470
     25          1           0        2.360277   -0.801630   -1.419764
     26          8           0        3.254134    0.607364   -0.164387
     27          1           0        2.877029    1.324369   -0.702027
 ---------------------------------------------------------------------
                    Distance matrix (angstroms):
                    1          2          3          4          5
     1  C    0.000000
     2  C    1.538419   0.000000
     3  N    2.435835   1.504388   0.000000
     4  C    2.383122   2.408856   1.487290   0.000000
     5  C    1.535133   2.411172   2.416966   1.533458   0.000000
     6  C    3.539494   2.420916   1.485496   2.492098   3.332110
     7  C    3.734447   2.392923   2.392968   3.634805   4.023700
     8  C    2.590593   1.530929   2.418282   3.418702   3.253216
     9  H    1.096384   2.175077   2.939816   2.782059   2.171323
    10  H    1.094955   2.193344   3.355530   3.364466   2.216307
    11  H    2.189408   1.097380   2.150095   3.197120   3.331352
    12  H    2.811222   2.992160   2.127260   1.098170   2.167298
    13  H    3.355218   3.284358   2.127024   1.093044   2.211861
    14  H    2.210122   3.385891   3.370257   2.204326   1.094743
    15  H    2.175569   2.810548   2.847817   2.172243   1.097076
    16  H    3.755374   2.994376   2.143374   2.547122   3.170241
    17  H    4.257821   2.752751   2.801662   4.232486   4.769397
    18  H    2.666142   2.173804   2.892861   3.486524   2.991486
    19  O    3.319389   2.429143   3.634356   4.688907   4.363582
    20  H    4.120442   3.257805   4.307488   5.354829   5.007665
    21  O    4.814920   3.662085   3.664255   4.697136   4.938639
    22  H    5.597214   4.338402   4.117493   5.208798   5.664896
    23  C    4.872409   3.690684   2.499501   3.397329   4.591438
    24  H    5.687429   4.483904   3.437954   4.290438   5.359673
    25  H    5.116651   3.784289   2.766603   3.903768   5.115635
    26  O    5.324942   4.437560   2.986182   3.310634   4.719448
    27  H    4.893559   4.123493   2.637391   2.823428   4.333481
                    6          7          8          9         10
     6  C    0.000000
     7  C    1.537021   0.000000
     8  C    2.384391   1.523802   0.000000
     9  H    4.271960   4.550060   3.479471   0.000000
    10  H    4.225872   4.106107   2.705947   1.769930   0.000000
    11  H    3.098173   2.860659   2.139498   2.373150   2.748218
    12  H    3.337634   4.490555   4.259458   2.777238   3.869566
    13  H    2.530852   3.905212   3.990935   3.845087   4.234849
    14  H    4.353935   5.117515   4.305342   2.453757   2.730028
    15  H    3.288942   3.851381   3.119818   3.066437   2.467963
    16  H    1.101652   2.144967   2.774290   4.616115   4.336350
    17  H    2.179235   1.099758   2.146745   4.893565   4.674177
    18  H    2.731526   2.137119   1.100988   3.719225   2.558238
    19  O    3.684490   2.485102   1.425536   4.018080   3.097796
    20  H    4.057272   2.675391   1.942797   4.907678   3.801853
    21  O    2.492682   1.426187   2.424021   5.748613   4.988050
    22  H    2.793317   1.953977   3.249289   6.474518   5.865995
    23  C    1.524940   2.553459   3.758568   5.434838   5.661931
    24  H    2.155274   2.812191   4.214655   6.356435   6.368580
    25  H    2.160168   2.772771   3.960452   5.536220   5.924566
    26  O    2.464620   3.830359   4.816997   5.761069   6.238391
    27  H    2.642454   4.051741   4.805434   5.170139   5.891625
                   11         12         13         14         15
    11  H    0.000000
    12  H    3.501687   0.000000
    13  H    4.131684   1.763587   0.000000
    14  H    4.185107   2.427212   2.734548   0.000000
    15  H    3.864834   3.055815   2.449379   1.773310   0.000000
    16  H    3.885456   3.548772   2.246424   4.126273   2.823063
    17  H    2.795375   4.911261   4.597649   5.845845   4.773133
    18  H    3.028711   4.455697   3.909183   3.986217   2.515424
    19  O    2.477288   5.406321   5.367510   5.324544   4.283167
    20  H    3.408643   6.166562   5.907150   5.983962   4.739711
    21  O    4.200942   5.661218   4.742663   6.009355   4.474728
    22  H    4.774909   6.115885   5.148506   6.734852   5.251203
    23  C    4.096629   3.957980   3.181619   5.511862   4.646788
    24  H    4.932133   4.952314   3.931203   6.302799   5.223899
    25  H    3.887048   4.282598   3.923397   6.043120   5.324340
    26  O    4.904317   3.633357   2.796758   5.437749   4.876275
    27  H    4.507836   2.895391   2.491005   4.964582   4.700668
                   16         17         18         19         20
    16  H    0.000000
    17  H    3.050954   0.000000
    18  H    2.670806   3.034752   0.000000
    19  O    4.159470   2.628478   2.078053   0.000000
    20  H    4.403170   2.873484   2.289247   0.972156   0.000000
    21  O    2.586404   2.078573   2.545696   3.099923   2.813412
    22  H    2.968246   2.245128   3.486573   3.867344   3.573176
    23  C    2.141963   2.693108   4.213593   4.896379   5.217805
    24  H    2.446398   2.983720   4.556466   5.286017   5.415973
    25  H    3.056856   2.462062   4.653407   4.874625   5.259517
    26  O    2.715739   4.063105   5.136710   6.067387   6.468118
    27  H    3.036553   4.229407   5.193454   6.033279   6.565697
                   21         22         23         24         25
    21  O    0.000000
    22  H    0.971529   0.000000
    23  C    3.247888   3.067680   0.000000
    24  H    3.006515   2.558437   1.095880   0.000000
    25  H    3.642793   3.389566   1.099706   1.776658   0.000000
    26  O    4.515533   4.367607   1.432185   2.029876   2.088113
    27  H    4.976714   4.955167   1.943179   2.823273   2.302618
                   26         27
    26  O    0.000000
    27  H    0.972297   0.000000
 Stoichiometry    C8H15NO3
 Framework group  C1[X(C8H15NO3)]
 Deg. of freedom    75
 Full point group                 C1      NOp   1
 Largest Abelian subgroup         C1      NOp   1
 Largest concise Abelian subgroup C1      NOp   1
                         Standard orientation:                         
 ---------------------------------------------------------------------
 Center     Atomic      Atomic             Coordinates (Angstroms)
 Number     Number       Type             X           Y           Z
 ---------------------------------------------------------------------
      1          6           0        1.977962   -1.597334   -0.152971
      2          6           0        1.147046   -0.424363   -0.701102
      3          7           0       -0.296602   -0.808901   -0.524484
      4          6           0       -0.322342   -2.096511    0.219444
      5          6           0        1.049215   -2.231839    0.891761
      6          6           0       -0.989412    0.304216    0.173859
      7          6           0       -0.072619    1.521254   -0.027993
      8          6           0        1.316227    0.899113    0.049587
      9          1           0        2.190929   -2.315840   -0.953253
     10          1           0        2.935957   -1.258751    0.255113
     11          1           0        1.368838   -0.240980   -1.760074
     12          1           0       -0.476506   -2.928095   -0.481040
     13          1           0       -1.158920   -2.107320    0.922840
     14          1           0        1.308124   -3.268866    1.128410
     15          1           0        1.073035   -1.654974    1.824625
     16          1           0       -1.054377    0.111708    1.256614
     17          1           0       -0.214416    1.945023   -1.032872
     18          1           0        1.544352    0.710303    1.110004
     19          8           0        2.353833    1.677754   -0.541385
     20          1           0        2.418315    2.497438   -0.022687
     21          8           0       -0.218119    2.540957    0.958438
     22          1           0       -1.027848    3.036694    0.752396
     23          6           0       -2.401940    0.527706   -0.355535
     24          1           0       -2.871423    1.354451    0.189470
     25          1           0       -2.360277    0.801631   -1.419764
     26          8           0       -3.254134   -0.607363   -0.164387
     27          1           0       -2.877030   -1.324368   -0.702027
 ---------------------------------------------------------------------
 Rotational constants (GHZ):      1.0846100      0.9163500      0.5614727
 Standard basis: 6-31+G(d,p) (6D, 7F)
 There are   303 symmetry adapted basis functions of A   symmetry.
 Integral buffers will be    131072 words long.
 Raffenetti 2 integral format.
 Two-electron integral symmetry is turned on.
   303 basis functions,   489 primitive gaussians,   303 cartesian basis functions
    47 alpha electrons       47 beta electrons
       nuclear repulsion energy       799.8771028709 Hartrees.
 NAtoms=   27 NActive=   27 NUniq=   27 SFac= 1.00D+00 NAtFMM=   60 NAOKFM=F Big=F
 ------------------------------------------------------------------------------
 Polarizable Continuum Model (PCM)
 =================================
 Model                : PCM.
 Atomic radii         : UFF (Universal Force Field).
 Polarization charges : Total charges.
 Charge compensation  : None.
 Solution method      : Matrix inversion.
 Cavity type          : Scaled VdW (van der Waals Surface) (Alpha=1.100).
 Cavity algorithm     : GePol (No added spheres)
                        Default sphere list used, NSphG=   27.
                        Lebedev-Laikov grids with approx.  5.0 points / Ang**2.
                        Smoothing algorithm: Karplus/York (Gamma=1.0000).
                        Polarization charges: spherical gaussians, with
                                              point-specific exponents (IZeta= 3).
                        Self-potential: point-specific (ISelfS= 7).
                        Self-field    : sphere-specific E.n sum rule (ISelfD= 2).
 Solvent              : Water, Eps=  78.355300 Eps(inf)=   1.777849
 ------------------------------------------------------------------------------
 One-electron integrals computed using PRISM.
 NBasis=   303 RedAO= T  NBF=   303
 NBsUse=   303 1.00D-06 NBFU=   303
 Harris functional with IExCor=  908 diagonalized for initial guess.
 ExpMin= 4.38D-02 ExpMax= 5.48D+03 ExpMxC= 8.25D+02 IAcc=2 IRadAn=         4 AccDes= 0.00D+00
 HarFok:  IExCor=  908 AccDes= 0.00D+00 IRadAn=         4 IDoV= 1
 ScaDFX=  1.000000  1.000000  1.000000  1.000000
 FoFCou: FMM=F IPFlag=           0 FMFlag=      100000 FMFlg1=           0
         NFxFlg=           0 DoJE=T BraDBF=F KetDBF=T FulRan=T
         Omega=  0.000000  0.000000  1.000000  0.000000  0.000000 ICntrl=     500 IOpCl=  0
         NMat0=    1 NMatS0=    1 NMatT0=    0 NMatD0=    1 NMtDS0=    0 NMtDT0=    0
         I1Cent=           4 NGrid=           0.
 Petite list used in FoFCou.
 Initial guess orbital symmetries:
       Occupied  (A) (A) (A) (A) (A) (A) (A) (A) (A) (A) (A) (A)
                 (A) (A) (A) (A) (A) (A) (A) (A) (A) (A) (A) (A)
                 (A) (A) (A) (A) (A) (A) (A) (A) (A) (A) (A) (A)
                 (A) (A) (A) (A) (A) (A) (A) (A) (A) (A) (A)
       Virtual   (A) (A) (A) (A) (A) (A) (A) (A) (A) (A) (A) (A)
                 (A) (A) (A) (A) (A) (A) (A) (A) (A) (A) (A) (A)
                 (A) (A) (A) (A) (A) (A) (A) (A) (A) (A) (A) (A)
                 (A) (A) (A) (A) (A) (A) (A) (A) (A) (A) (A) (A)
                 (A) (A) (A) (A) (A) (A) (A) (A) (A) (A) (A) (A)
                 (A) (A) (A) (A) (A) (A) (A) (A) (A) (A) (A) (A)
                 (A) (A) (A) (A) (A) (A) (A) (A) (A) (A) (A) (A)
                 (A) (A) (A) (A) (A) (A) (A) (A) (A) (A) (A) (A)
                 (A) (A) (A) (A) (A) (A) (A) (A) (A) (A) (A) (A)
                 (A) (A) (A) (A) (A) (A) (A) (A) (A) (A) (A) (A)
                 (A) (A) (A) (A) (A) (A) (A) (A) (A) (A) (A) (A)
                 (A) (A) (A) (A) (A) (A) (A) (A) (A) (A) (A) (A)
                 (A) (A) (A) (A) (A) (A) (A) (A) (A) (A) (A) (A)
                 (A) (A) (A) (A) (A) (A) (A) (A) (A) (A) (A) (A)
                 (A) (A) (A) (A) (A) (A) (A) (A) (A) (A) (A) (A)
                 (A) (A) (A) (A) (A) (A) (A) (A) (A) (A) (A) (A)
                 (A) (A) (A) (A) (A) (A) (A) (A) (A) (A) (A) (A)
                 (A) (A) (A) (A) (A) (A) (A) (A) (A) (A) (A) (A)
                 (A) (A) (A) (A) (A) (A) (A) (A) (A) (A) (A) (A)
                 (A) (A) (A) (A) (A) (A) (A) (A) (A) (A) (A) (A)
                 (A) (A) (A) (A) (A) (A) (A) (A) (A) (A) (A) (A)
                 (A) (A) (A) (A)
 The electronic state of the initial guess is 1-A.
 Requested convergence on RMS density matrix=1.00D-08 within 128 cycles.
 Requested convergence on MAX density matrix=1.00D-06.
 Requested convergence on             energy=1.00D-06.
 No special actions if energy rises.
 Error on total polarization charges =  0.01463
 SCF Done:  E(RmPW1PW91) =  -594.198910975     A.U. after   13 cycles
             Convg  =    0.5061D-08             -V/T =  2.0094
 Range of M.O.s used for correlation:     1   303
 NBasis=   303 NAE=    47 NBE=    47 NFC=     0 NFV=     0
 NROrb=    303 NOA=    47 NOB=    47 NVA=   256 NVB=   256

 **** Warning!!: The largest alpha MO coefficient is  0.66585157D+02

 NEqPCM:  Using equilibrium solvation (IEInf=0, Eps=  78.3553, EpsInf=   1.7778)
          Differentiating once with respect to magnetic field using GIAOs.
          Electric field/nuclear overlap derivatives assumed to be zero.
 FoFCou: FMM=F IPFlag=           0 FMFlag=    10101102 FMFlg1=           0
         NFxFlg=    40000000 DoJE=F BraDBF=F KetDBF=T FulRan=T
         Omega=  0.000000  0.000000  1.000000  0.000000  0.000000 ICntrl=    6100 IOpCl=  0
         NMat0=    1 NMatS0=    1 NMatT0=    0 NMatD0=    1 NMtDS0=    0 NMtDT0=    0
         I1Cent=           7 NGrid=        1835.
 Symmetry not used in FoFCou.
          There are     3 degrees of freedom in the 1st order CPHF.  IDoFFX=0.
      3 vectors produced by pass  0 Test12= 4.01D-13 3.33D-08 XBig12= 3.07D+01 1.15D+00.
 AX will form     3 AO Fock derivatives at one time.
      3 vectors produced by pass  1 Test12= 4.01D-13 3.33D-08 XBig12= 7.69D-02 3.71D-02.
      3 vectors produced by pass  2 Test12= 4.01D-13 3.33D-08 XBig12= 1.56D-04 2.77D-03.
      3 vectors produced by pass  3 Test12= 4.01D-13 3.33D-08 XBig12= 7.22D-07 2.25D-04.
      3 vectors produced by pass  4 Test12= 4.01D-13 3.33D-08 XBig12= 2.69D-09 1.04D-05.
      3 vectors produced by pass  5 Test12= 4.01D-13 3.33D-08 XBig12= 7.86D-12 4.81D-07.
 Inverted reduced A of dimension    18 with in-core refinement.
 Calculating GIAO nuclear magnetic shielding tensors.
 SCF GIAO Magnetic shielding tensor (ppm):
      1  C    Isotropic =   164.4344   Anisotropy =    22.3443
   XX=   170.2311   YX=    -2.4531   ZX=     3.7668
   XY=    -8.0967   YY=   166.8957   ZY=   -12.0789
   XZ=    -7.1090   YZ=   -19.1325   ZZ=   156.1763
   Eigenvalues:   144.2717   169.7008   179.3306
      2  C    Isotropic =   128.1717   Anisotropy =    55.4879
   XX=   155.5781   YX=    14.3533   ZX=    -0.9577
   XY=    21.3801   YY=   129.4009   ZY=   -13.2647
   XZ=    -6.9099   YZ=     2.8278   ZZ=    99.5362
   Eigenvalues:    98.6336   120.7179   165.1636
      3  N    Isotropic =   199.4539   Anisotropy =    74.7647
   XX=   237.1835   YX=   -14.8664   ZX=   -18.5943
   XY=   -23.8204   YY=   210.3578   ZY=   -13.8725
   XZ=   -25.2406   YZ=   -12.6024   ZZ=   150.8203
   Eigenvalues:   141.0609   208.0037   249.2970
      4  C    Isotropic =   138.5473   Anisotropy =    59.8194
   XX=   129.6775   YX=    -6.5864   ZX=    -5.1146
   XY=     3.8767   YY=   161.5390   ZY=   -28.0038
   XZ=     9.4891   YZ=   -32.1501   ZZ=   124.4253
   Eigenvalues:   107.5704   129.6445   178.4269
      5  C    Isotropic =   171.2508   Anisotropy =    19.1696
   XX=   182.5824   YX=     1.9835   ZX=     3.0129
   XY=     2.9116   YY=   169.8167   ZY=   -13.7255
   XZ=     3.3294   YZ=   -22.1766   ZZ=   161.3534
   Eigenvalues:   146.6949   183.0270   184.0305
      6  C    Isotropic =   122.9549   Anisotropy =    40.0689
   XX=   111.8764   YX=    -0.0704   ZX=    -3.1452
   XY=    -3.8054   YY=   143.7814   ZY=    17.5204
   XZ=   -24.7162   YZ=     7.9784   ZZ=   113.2069
   Eigenvalues:    97.3127   121.8845   149.6675
      7  C    Isotropic =   116.4727   Anisotropy =    35.4270
   XX=   120.0358   YX=    -4.7454   ZX=   -10.6134
   XY=    -1.6794   YY=   125.5857   ZY=    26.3670
   XZ=   -10.9925   YZ=    11.4690   ZZ=   103.7967
   Eigenvalues:    90.7078   118.6196   140.0907
      8  C    Isotropic =   115.3860   Anisotropy =    32.6782
   XX=   132.9750   YX=     9.8717   ZX=   -16.5845
   XY=     3.1155   YY=   121.7466   ZY=    -6.6657
   XZ=     1.8160   YZ=     2.9829   ZZ=    91.4364
   Eigenvalues:    90.1462   118.8403   137.1714
      9  H    Isotropic =    29.7949   Anisotropy =    11.9098
   XX=    27.7943   YX=    -3.5856   ZX=    -3.3801
   XY=    -4.6762   YY=    31.0951   ZY=     3.8080
   XZ=    -4.3734   YZ=     3.5900   ZZ=    30.4953
   Eigenvalues:    24.5652    27.0848    37.7348
     10  H    Isotropic =    29.6952   Anisotropy =     9.6498
   XX=    35.7885   YX=     0.4265   ZX=     2.0765
   XY=     0.9834   YY=    27.8653   ZY=    -0.6405
   XZ=     1.4596   YZ=    -0.3031   ZZ=    25.4318
   Eigenvalues:    25.0183    27.9389    36.1284
     11  H    Isotropic =    28.2151   Anisotropy =     6.9544
   XX=    27.4904   YX=     0.1683   ZX=    -2.8888
   XY=     0.1196   YY=    25.8778   ZY=    -1.0976
   XZ=    -2.4972   YZ=    -1.2430   ZZ=    31.2770
   Eigenvalues:    25.4463    26.3475    32.8513
     12  H    Isotropic =    28.6343   Anisotropy =    11.3570
   XX=    25.8510   YX=     1.7098   ZX=     2.5416
   XY=     2.6255   YY=    34.8564   ZY=     3.0197
   XZ=     3.4371   YZ=     1.7576   ZZ=    25.1956
   Eigenvalues:    22.5058    27.1916    36.2057
     13  H    Isotropic =    28.7795   Anisotropy =     7.0982
   XX=    32.0687   YX=     0.9288   ZX=    -1.6837
   XY=     0.8830   YY=    28.5196   ZY=    -4.4139
   XZ=    -2.1355   YZ=    -2.8118   ZZ=    25.7503
   Eigenvalues:    23.1338    29.6931    33.5117
     14  H    Isotropic =    30.0362   Anisotropy =    12.6609
   XX=    27.2945   YX=    -2.4492   ZX=     0.8013
   XY=    -2.8751   YY=    35.6808   ZY=    -4.6624
   XZ=     1.0843   YZ=    -4.7588   ZZ=    27.1332
   Eigenvalues:    25.0184    26.6135    38.4768
     15  H    Isotropic =    29.8198   Anisotropy =     8.8966
   XX=    27.0174   YX=     0.1362   ZX=     1.0262
   XY=    -0.1835   YY=    26.9338   ZY=     1.5081
   XZ=     1.0748   YZ=     0.5231   ZZ=    35.5082
   Eigenvalues:    26.7047    27.0039    35.7508
     16  H    Isotropic =    28.9216   Anisotropy =     5.7302
   XX=    29.1109   YX=    -2.0382   ZX=    -1.3660
   XY=    -2.0325   YY=    28.1090   ZY=     2.7110
   XZ=    -1.8273   YZ=     1.4017   ZZ=    29.5449
   Eigenvalues:    26.2919    27.7313    32.7417
     17  H    Isotropic =    28.0016   Anisotropy =     1.5948
   XX=    26.0109   YX=    -0.2335   ZX=     0.2318
   XY=     0.1727   YY=    29.0633   ZY=     0.8815
   XZ=     0.3432   YZ=    -0.8986   ZZ=    28.9306
   Eigenvalues:    25.9826    28.9574    29.0648
     18  H    Isotropic =    27.8598   Anisotropy =     3.6754
   XX=    27.0946   YX=     2.2085   ZX=    -0.3164
   XY=     1.5252   YY=    29.0911   ZY=    -1.3623
   XZ=     0.7449   YZ=    -0.1383   ZZ=    27.3936
   Eigenvalues:    25.7682    27.5011    30.3100
     19  O    Isotropic =   297.9864   Anisotropy =    43.1861
   XX=   275.2792   YX=    12.6983   ZX=     6.6209
   XY=    28.1002   YY=   316.7406   ZY=    -8.1205
   XZ=   -13.1088   YZ=    -3.1927   ZZ=   301.9394
   Eigenvalues:   266.9043   300.2778   326.7771
     20  H    Isotropic =    29.3766   Anisotropy =    18.9126
   XX=    26.4195   YX=     6.4659   ZX=    -0.9151
   XY=     5.1313   YY=    36.8503   ZY=     7.6458
   XZ=    -0.2851   YZ=     7.0662   ZZ=    24.8601
   Eigenvalues:    19.7013    26.4436    41.9851
     21  O    Isotropic =   299.7234   Anisotropy =    34.6310
   XX=   298.2726   YX=   -30.7539   ZX=    -3.5775
   XY=   -24.7102   YY=   290.9964   ZY=    -2.7449
   XZ=    10.7158   YZ=    15.6526   ZZ=   309.9013
   Eigenvalues:   265.4946   310.8649   322.8108
     22  H    Isotropic =    29.8688   Anisotropy =    19.6126
   XX=    33.8960   YX=    -9.3514   ZX=     3.0704
   XY=    -9.6957   YY=    32.9005   ZY=     2.3437
   XZ=     2.1031   YZ=     1.8847   ZZ=    22.8098
   Eigenvalues:    19.9756    26.6869    42.9438
     23  C    Isotropic =   126.4094   Anisotropy =    48.7942
   XX=   138.5022   YX=    17.5043   ZX=     3.1888
   XY=    24.7614   YY=   134.7607   ZY=   -15.6931
   XZ=     2.0421   YZ=   -11.8434   ZZ=   105.9652
   Eigenvalues:    97.2470   123.0423   158.9389
     24  H    Isotropic =    27.9169   Anisotropy =     5.5866
   XX=    30.4323   YX=    -0.1793   ZX=     0.0248
   XY=    -1.7554   YY=    30.4308   ZY=     1.8348
   XZ=    -0.9611   YZ=     1.2854   ZZ=    22.8878
   Eigenvalues:    22.5684    29.5411    31.6414
     25  H    Isotropic =    28.1154   Anisotropy =     6.0641
   XX=    28.1467   YX=     2.2470   ZX=     1.2925
   XY=     1.7932   YY=    28.2973   ZY=    -5.0925
   XZ=     2.2158   YZ=    -2.9737   ZZ=    27.9021
   Eigenvalues:    22.7465    29.4415    32.1581
     26  O    Isotropic =   309.0361   Anisotropy =    26.4286
   XX=   303.0972   YX=   -16.4111   ZX=    -1.9296
   XY=    -0.7854   YY=   316.8448   ZY=     5.7486
   XZ=   -18.1178   YZ=     7.0914   ZZ=   307.1662
   Eigenvalues:   294.5109   305.9422   326.6551
     27  H    Isotropic =    29.9749   Anisotropy =    14.1049
   XX=    29.8171   YX=    -0.8020   ZX=    -2.6369
   XY=    -1.9174   YY=    34.6181   ZY=     7.6040
   XZ=    -1.6789   YZ=     7.4285   ZZ=    25.4897
   Eigenvalues:    21.0860    29.4607    39.3782
 End of Minotr Frequency-dependent properties file   721 does not exist.
 End of Minotr Frequency-dependent properties file   722 does not exist.

 **********************************************************************

            Population analysis using the SCF density.

 **********************************************************************

 Orbital symmetries:
       Occupied  (A) (A) (A) (A) (A) (A) (A) (A) (A) (A) (A) (A)
                 (A) (A) (A) (A) (A) (A) (A) (A) (A) (A) (A) (A)
                 (A) (A) (A) (A) (A) (A) (A) (A) (A) (A) (A) (A)
                 (A) (A) (A) (A) (A) (A) (A) (A) (A) (A) (A)
       Virtual   (A) (A) (A) (A) (A) (A) (A) (A) (A) (A) (A) (A)
                 (A) (A) (A) (A) (A) (A) (A) (A) (A) (A) (A) (A)
                 (A) (A) (A) (A) (A) (A) (A) (A) (A) (A) (A) (A)
                 (A) (A) (A) (A) (A) (A) (A) (A) (A) (A) (A) (A)
                 (A) (A) (A) (A) (A) (A) (A) (A) (A) (A) (A) (A)
                 (A) (A) (A) (A) (A) (A) (A) (A) (A) (A) (A) (A)
                 (A) (A) (A) (A) (A) (A) (A) (A) (A) (A) (A) (A)
                 (A) (A) (A) (A) (A) (A) (A) (A) (A) (A) (A) (A)
                 (A) (A) (A) (A) (A) (A) (A) (A) (A) (A) (A) (A)
                 (A) (A) (A) (A) (A) (A) (A) (A) (A) (A) (A) (A)
                 (A) (A) (A) (A) (A) (A) (A) (A) (A) (A) (A) (A)
                 (A) (A) (A) (A) (A) (A) (A) (A) (A) (A) (A) (A)
                 (A) (A) (A) (A) (A) (A) (A) (A) (A) (A) (A) (A)
                 (A) (A) (A) (A) (A) (A) (A) (A) (A) (A) (A) (A)
                 (A) (A) (A) (A) (A) (A) (A) (A) (A) (A) (A) (A)
                 (A) (A) (A) (A) (A) (A) (A) (A) (A) (A) (A) (A)
                 (A) (A) (A) (A) (A) (A) (A) (A) (A) (A) (A) (A)
                 (A) (A) (A) (A) (A) (A) (A) (A) (A) (A) (A) (A)
                 (A) (A) (A) (A) (A) (A) (A) (A) (A) (A) (A) (A)
                 (A) (A) (A) (A) (A) (A) (A) (A) (A) (A) (A) (A)
                 (A) (A) (A) (A) (A) (A) (A) (A) (A) (A) (A) (A)
                 (A) (A) (A) (A)
 The electronic state is 1-A.
 Alpha  occ. eigenvalues --  -19.26517 -19.26078 -19.25654 -14.41684 -10.30749
 Alpha  occ. eigenvalues --  -10.30468 -10.29613 -10.28082 -10.27992 -10.26982
 Alpha  occ. eigenvalues --  -10.24748 -10.24576  -1.07592  -1.05837  -1.05691
 Alpha  occ. eigenvalues --   -0.96680  -0.82964  -0.79672  -0.75524  -0.72037
 Alpha  occ. eigenvalues --   -0.66266  -0.62039  -0.60558  -0.58598  -0.56046
 Alpha  occ. eigenvalues --   -0.52951  -0.52433  -0.50869  -0.49533  -0.47270
 Alpha  occ. eigenvalues --   -0.45827  -0.45141  -0.43375  -0.42028  -0.41161
 Alpha  occ. eigenvalues --   -0.39411  -0.39209  -0.37545  -0.36269  -0.35810
 Alpha  occ. eigenvalues --   -0.35223  -0.34953  -0.33403  -0.31132  -0.30563
 Alpha  occ. eigenvalues --   -0.28813  -0.23547
 Alpha virt. eigenvalues --    0.00782   0.01069   0.01639   0.02306   0.03040
 Alpha virt. eigenvalues --    0.04058   0.04509   0.04959   0.05684   0.07037
 Alpha virt. eigenvalues --    0.07567   0.08081   0.08324   0.08908   0.09463
 Alpha virt. eigenvalues --    0.10413   0.11309   0.11752   0.12129   0.12535
 Alpha virt. eigenvalues --    0.13030   0.13645   0.14251   0.14628   0.14919
 Alpha virt. eigenvalues --    0.15258   0.15901   0.16959   0.17111   0.18235
 Alpha virt. eigenvalues --    0.18828   0.19222   0.19782   0.20464   0.20678
 Alpha virt. eigenvalues --    0.21420   0.22091   0.22637   0.22775   0.23340
 Alpha virt. eigenvalues --    0.23833   0.24573   0.24904   0.25293   0.25719
 Alpha virt. eigenvalues --    0.26474   0.27210   0.27529   0.27966   0.28744
 Alpha virt. eigenvalues --    0.29276   0.29817   0.30649   0.31494   0.31776
 Alpha virt. eigenvalues --    0.32390   0.32650   0.33392   0.33507   0.35041
 Alpha virt. eigenvalues --    0.35184   0.35454   0.36260   0.36833   0.38272
 Alpha virt. eigenvalues --    0.38809   0.39963   0.40588   0.41157   0.41532
 Alpha virt. eigenvalues --    0.42144   0.42676   0.43105   0.44735   0.46439
 Alpha virt. eigenvalues --    0.47414   0.63024   0.64201   0.67175   0.67888
 Alpha virt. eigenvalues --    0.69145   0.71495   0.71926   0.72243   0.74005
 Alpha virt. eigenvalues --    0.77052   0.78508   0.79211   0.79688   0.82475
 Alpha virt. eigenvalues --    0.82699   0.83640   0.85145   0.86491   0.88292
 Alpha virt. eigenvalues --    0.88573   0.90884   0.91633   0.94711   0.96173
 Alpha virt. eigenvalues --    0.98737   1.00044   1.03117   1.03577   1.04919
 Alpha virt. eigenvalues --    1.05294   1.06389   1.07064   1.08579   1.10690
 Alpha virt. eigenvalues --    1.11453   1.13221   1.13942   1.14397   1.15784
 Alpha virt. eigenvalues --    1.16937   1.18900   1.19346   1.23065   1.24007
 Alpha virt. eigenvalues --    1.26544   1.28153   1.29666   1.31200   1.33179
 Alpha virt. eigenvalues --    1.33510   1.34237   1.37726   1.38537   1.41923
 Alpha virt. eigenvalues --    1.43281   1.47250   1.47645   1.49126   1.52837
 Alpha virt. eigenvalues --    1.54516   1.55729   1.57478   1.60054   1.61139
 Alpha virt. eigenvalues --    1.61631   1.62548   1.68247   1.69306   1.71148
 Alpha virt. eigenvalues --    1.71300   1.73685   1.75087   1.76271   1.78950
 Alpha virt. eigenvalues --    1.81354   1.82600   1.82810   1.84813   1.86935
 Alpha virt. eigenvalues --    1.88168   1.89108   1.91356   1.92606   1.94820
 Alpha virt. eigenvalues --    1.95637   1.99846   2.01740   2.02512   2.03473
 Alpha virt. eigenvalues --    2.04643   2.05566   2.08283   2.09641   2.09819
 Alpha virt. eigenvalues --    2.10728   2.15658   2.17328   2.17543   2.19242
 Alpha virt. eigenvalues --    2.20287   2.23171   2.25351   2.28279   2.29406
 Alpha virt. eigenvalues --    2.30694   2.32375   2.34581   2.37056   2.38914
 Alpha virt. eigenvalues --    2.41297   2.42433   2.42994   2.44234   2.44987
 Alpha virt. eigenvalues --    2.46545   2.49106   2.50205   2.50945   2.53227
 Alpha virt. eigenvalues --    2.55118   2.56818   2.60971   2.62168   2.63057
 Alpha virt. eigenvalues --    2.65254   2.66518   2.67286   2.69567   2.69835
 Alpha virt. eigenvalues --    2.71974   2.73402   2.74410   2.74736   2.77894
 Alpha virt. eigenvalues --    2.80104   2.80811   2.82115   2.84509   2.86594
 Alpha virt. eigenvalues --    2.87497   2.88772   2.91057   2.92759   2.95738
 Alpha virt. eigenvalues --    2.97617   2.98884   3.00367   3.02823   3.03448
 Alpha virt. eigenvalues --    3.05670   3.07659   3.11854   3.17277   3.32339
 Alpha virt. eigenvalues --    3.33530   3.36471   3.37938   3.38944   3.42006
 Alpha virt. eigenvalues --    3.46544   3.51135   3.53246   3.53977   3.55811
 Alpha virt. eigenvalues --    3.56038   3.58057   3.60007   3.61065   4.30955
 Alpha virt. eigenvalues --    4.35429   4.38505   4.41546   4.48095   4.54906
 Alpha virt. eigenvalues --    4.57047   4.66608   4.76578   4.81431   4.88290
 Alpha virt. eigenvalues --    4.93239
          Condensed to atoms (all electrons):
              1          2          3          4          5          6
     1  C    5.808688  -0.624424   0.083169  -0.103514   0.296362   0.036071
     2  C   -0.624424   8.691799  -0.446277  -0.241235  -0.028192  -0.556185
     3  N    0.083169  -0.446277   7.458419   0.142816  -0.085917  -0.190694
     4  C   -0.103514  -0.241235   0.142816   5.805822   0.080695  -0.175924
     5  C    0.296362  -0.028192  -0.085917   0.080695   5.449935  -0.027468
     6  C    0.036071  -0.556185  -0.190694  -0.175924  -0.027468   8.794865
     7  C   -0.033948   0.260661  -0.009604  -0.218193   0.041703  -1.264007
     8  C    0.055505  -0.704585  -0.004119   0.187862  -0.101261   0.570900
     9  H    0.424547  -0.065841   0.009723  -0.001512  -0.050235   0.010103
    10  H    0.418452  -0.148120   0.019645   0.024793  -0.023419   0.002880
    11  H    0.061304   0.142796   0.008481  -0.006315   0.015058   0.023267
    12  H    0.009228  -0.042776  -0.029550   0.377347  -0.034920   0.020705
    13  H    0.015525   0.033964  -0.072134   0.404289  -0.035829   0.024688
    14  H   -0.036077   0.023091   0.011101  -0.022301   0.356239   0.001569
    15  H   -0.055661   0.002090   0.012470  -0.079393   0.423411   0.012802
    16  H    0.004316   0.056885  -0.057812   0.052087  -0.016507   0.243374
    17  H    0.014352  -0.014152   0.049933   0.010636  -0.001725  -0.158311
    18  H    0.067068  -0.220683   0.051459   0.010074  -0.012264   0.025671
    19  O    0.012548  -0.209407   0.029587   0.005840  -0.003896   0.009563
    20  H   -0.009019   0.057908  -0.003814  -0.002365   0.002210   0.009482
    21  O   -0.002666   0.022452   0.010120  -0.005971   0.006600  -0.122036
    22  H   -0.000395  -0.001618  -0.001072   0.000057  -0.000038  -0.025107
    23  C    0.064098  -0.101095   0.173010   0.019039  -0.007896  -0.831533
    24  H   -0.000381   0.012104   0.010296  -0.005551   0.001729  -0.119382
    25  H    0.002722   0.007946   0.012177   0.010632  -0.001587  -0.157645
    26  O    0.005880   0.005351   0.018336  -0.012411   0.001821  -0.143904
    27  H   -0.001219   0.015485   0.025927  -0.005148   0.007147  -0.066634
              7          8          9         10         11         12
     1  C   -0.033948   0.055505   0.424547   0.418452   0.061304   0.009228
     2  C    0.260661  -0.704585  -0.065841  -0.148120   0.142796  -0.042776
     3  N   -0.009604  -0.004119   0.009723   0.019645   0.008481  -0.029550
     4  C   -0.218193   0.187862  -0.001512   0.024793  -0.006315   0.377347
     5  C    0.041703  -0.101261  -0.050235  -0.023419   0.015058  -0.034920
     6  C   -1.264007   0.570900   0.010103   0.002880   0.023267   0.020705
     7  C    7.135881  -0.645241  -0.003140  -0.000678  -0.033876   0.002276
     8  C   -0.645241   6.369746   0.005543   0.034236   0.040322   0.008317
     9  H   -0.003140   0.005543   0.520129  -0.023374  -0.006095   0.001581
    10  H   -0.000678   0.034236  -0.023374   0.512645   0.002533  -0.000021
    11  H   -0.033876   0.040322  -0.006095   0.002533   0.556913   0.000650
    12  H    0.002276   0.008317   0.001581  -0.000021   0.000650   0.548721
    13  H    0.001532  -0.007083  -0.000104  -0.000138  -0.000189  -0.031414
    14  H    0.002344   0.004957  -0.004714   0.000521  -0.000057  -0.002839
    15  H    0.008512   0.004913   0.004159  -0.004942  -0.000084   0.004110
    16  H   -0.014465  -0.037848   0.000000  -0.000011  -0.000506  -0.000318
    17  H    0.424869  -0.090215   0.000006  -0.000005   0.001019   0.000010
    18  H   -0.096824   0.467443   0.000182   0.000157   0.004368   0.000019
    19  O   -0.079892   0.324173  -0.000326   0.004453   0.008664   0.000072
    20  H   -0.044201  -0.007956   0.000006  -0.000116  -0.000075   0.000000
    21  O    0.389974  -0.188480   0.000025  -0.000080  -0.000526   0.000013
    22  H    0.015892   0.043278   0.000000   0.000000   0.000007   0.000000
    23  C    0.160666  -0.209694   0.000391   0.000098   0.012395   0.001576
    24  H    0.030934  -0.006686   0.000000   0.000000  -0.000007  -0.000005
    25  H    0.015376  -0.013557   0.000000   0.000000  -0.000039   0.000014
    26  O    0.038514  -0.018933  -0.000016   0.000003   0.000166   0.000059
    27  H    0.010632  -0.005176   0.000000   0.000000  -0.000027  -0.000762
             13         14         15         16         17         18
     1  C    0.015525  -0.036077  -0.055661   0.004316   0.014352   0.067068
     2  C    0.033964   0.023091   0.002090   0.056885  -0.014152  -0.220683
     3  N   -0.072134   0.011101   0.012470  -0.057812   0.049933   0.051459
     4  C    0.404289  -0.022301  -0.079393   0.052087   0.010636   0.010074
     5  C   -0.035829   0.356239   0.423411  -0.016507  -0.001725  -0.012264
     6  C    0.024688   0.001569   0.012802   0.243374  -0.158311   0.025671
     7  C    0.001532   0.002344   0.008512  -0.014465   0.424869  -0.096824
     8  C   -0.007083   0.004957   0.004913  -0.037848  -0.090215   0.467443
     9  H   -0.000104  -0.004714   0.004159   0.000000   0.000006   0.000182
    10  H   -0.000138   0.000521  -0.004942  -0.000011  -0.000005   0.000157
    11  H   -0.000189  -0.000057  -0.000084  -0.000506   0.001019   0.004368
    12  H   -0.031414  -0.002839   0.004110  -0.000318   0.000010   0.000019
    13  H    0.524451   0.000854  -0.005922   0.002853  -0.000016  -0.000046
    14  H    0.000854   0.514514  -0.022939  -0.000117   0.000000  -0.000051
    15  H   -0.005922  -0.022939   0.521710   0.000093   0.000003  -0.000063
    16  H    0.002853  -0.000117   0.000093   0.556836   0.003968   0.000161
    17  H   -0.000016   0.000000   0.000003   0.003968   0.555198   0.004641
    18  H   -0.000046  -0.000051  -0.000063   0.000161   0.004641   0.556534
    19  O   -0.000017  -0.000002  -0.000035  -0.001018  -0.001108  -0.041595
    20  H    0.000000   0.000000  -0.000001   0.000015  -0.000305  -0.005322
    21  O   -0.000115  -0.000012  -0.000008  -0.000864  -0.043330  -0.000613
    22  H   -0.000001   0.000000  -0.000001  -0.000346  -0.006440   0.000075
    23  C   -0.029088  -0.001022   0.000075   0.027693   0.068845   0.015255
    24  H   -0.000032   0.000000  -0.000001  -0.003259   0.000099  -0.000011
    25  H    0.000023   0.000000   0.000001   0.004672   0.003645  -0.000005
    26  O    0.002251   0.000034  -0.000178   0.000221  -0.000061   0.000022
    27  H   -0.000222  -0.000005   0.000001   0.000242   0.000017   0.000000
             19         20         21         22         23         24
     1  C    0.012548  -0.009019  -0.002666  -0.000395   0.064098  -0.000381
     2  C   -0.209407   0.057908   0.022452  -0.001618  -0.101095   0.012104
     3  N    0.029587  -0.003814   0.010120  -0.001072   0.173010   0.010296
     4  C    0.005840  -0.002365  -0.005971   0.000057   0.019039  -0.005551
     5  C   -0.003896   0.002210   0.006600  -0.000038  -0.007896   0.001729
     6  C    0.009563   0.009482  -0.122036  -0.025107  -0.831533  -0.119382
     7  C   -0.079892  -0.044201   0.389974   0.015892   0.160666   0.030934
     8  C    0.324173  -0.007956  -0.188480   0.043278  -0.209694  -0.006686
     9  H   -0.000326   0.000006   0.000025   0.000000   0.000391   0.000000
    10  H    0.004453  -0.000116  -0.000080   0.000000   0.000098   0.000000
    11  H    0.008664  -0.000075  -0.000526   0.000007   0.012395  -0.000007
    12  H    0.000072   0.000000   0.000013   0.000000   0.001576  -0.000005
    13  H   -0.000017   0.000000  -0.000115  -0.000001  -0.029088  -0.000032
    14  H   -0.000002   0.000000  -0.000012   0.000000  -0.001022   0.000000
    15  H   -0.000035  -0.000001  -0.000008  -0.000001   0.000075  -0.000001
    16  H   -0.001018   0.000015  -0.000864  -0.000346   0.027693  -0.003259
    17  H   -0.001108  -0.000305  -0.043330  -0.006440   0.068845   0.000099
    18  H   -0.041595  -0.005322  -0.000613   0.000075   0.015255  -0.000011
    19  O    8.261742   0.235618  -0.006305   0.000278   0.002185  -0.000002
    20  H    0.235618   0.373687   0.009958  -0.000405  -0.000410   0.000000
    21  O   -0.006305   0.009958   8.232364   0.241820   0.001167   0.004337
    22  H    0.000278  -0.000405   0.241820   0.367000  -0.022417   0.000658
    23  C    0.002185  -0.000410   0.001167  -0.022417   5.790047   0.452798
    24  H   -0.000002   0.000000   0.004337   0.000658   0.452798   0.551332
    25  H   -0.000085   0.000001  -0.000193   0.000089   0.472634  -0.035592
    26  O    0.000121   0.000001  -0.000987  -0.000218   0.226295  -0.061122
    27  H   -0.000004   0.000000   0.000083  -0.000002   0.016292   0.006714
             25         26         27
     1  C    0.002722   0.005880  -0.001219
     2  C    0.007946   0.005351   0.015485
     3  N    0.012177   0.018336   0.025927
     4  C    0.010632  -0.012411  -0.005148
     5  C   -0.001587   0.001821   0.007147
     6  C   -0.157645  -0.143904  -0.066634
     7  C    0.015376   0.038514   0.010632
     8  C   -0.013557  -0.018933  -0.005176
     9  H    0.000000  -0.000016   0.000000
    10  H    0.000000   0.000003   0.000000
    11  H   -0.000039   0.000166  -0.000027
    12  H    0.000014   0.000059  -0.000762
    13  H    0.000023   0.002251  -0.000222
    14  H    0.000000   0.000034  -0.000005
    15  H    0.000001  -0.000178   0.000001
    16  H    0.004672   0.000221   0.000242
    17  H    0.003645  -0.000061   0.000017
    18  H   -0.000005   0.000022   0.000000
    19  O   -0.000085   0.000121  -0.000004
    20  H    0.000001   0.000001   0.000000
    21  O   -0.000193  -0.000987   0.000083
    22  H    0.000089  -0.000218  -0.000002
    23  C    0.472634   0.226295   0.016292
    24  H   -0.035592  -0.061122   0.006714
    25  H    0.565162  -0.042442  -0.006342
    26  O   -0.042442   8.266919   0.253293
    27  H   -0.006342   0.253293   0.370964
 Mulliken atomic charges:
              1
     1  C   -0.512532
     2  C    0.072060
     3  N   -0.225677
     4  C   -0.252156
     5  C   -0.251755
     6  C    0.052891
     7  C   -0.095696
     8  C   -0.076362
     9  H    0.178963
    10  H    0.180488
    11  H    0.169852
    12  H    0.167907
    13  H    0.171920
    14  H    0.174913
    15  H    0.174878
    16  H    0.179652
    17  H    0.178428
    18  H    0.174350
    19  O   -0.551152
    20  H    0.385106
    21  O   -0.546727
    22  H    0.388905
    23  C   -0.301405
    24  H    0.161029
    25  H    0.162393
    26  O   -0.539015
    27  H    0.378744
 Sum of Mulliken atomic charges =   0.00000
 Mulliken charges with hydrogens summed into heavy atoms:
              1
     1  C   -0.153082
     2  C    0.241912
     3  N   -0.225677
     4  C    0.087671
     5  C    0.098036
     6  C    0.232543
     7  C    0.082732
     8  C    0.097988
    19  O   -0.166046
    21  O   -0.157822
    23  C    0.022017
    26  O   -0.160271
 Sum of Mulliken charges with hydrogens summed into heavy atoms =   0.00000
 Electronic spatial extent (au):  <R**2>=           2103.0246
 Charge=              0.0000 electrons
 Dipole moment (field-independent basis, Debye):
    X=              0.4295    Y=              0.1936    Z=              0.3746  Tot=              0.6019
 Quadrupole moment (field-independent basis, Debye-Ang):
   XX=            -85.0307   YY=            -62.9134   ZZ=            -76.1437
   XY=             -6.8297   XZ=              4.9149   YZ=             -0.2040
 Traceless Quadrupole moment (field-independent basis, Debye-Ang):
   XX=            -10.3348   YY=             11.7825   ZZ=             -1.4478
   XY=             -6.8297   XZ=              4.9149   YZ=             -0.2040
 Octapole moment (field-independent basis, Debye-Ang**2):
  XXX=             33.1007  YYY=             23.0807  ZZZ=             -1.1649  XYY=            -12.5231
  XXY=             16.3849  XXZ=              5.9495  XZZ=             -4.5666  YZZ=             -2.7453
  YYZ=             -3.0625  XYZ=              1.6853
 Hexadecapole moment (field-independent basis, Debye-Ang**3):
 XXXX=          -1560.6036 YYYY=          -1006.5511 ZZZZ=           -256.2197 XXXY=            -22.1466
 XXXZ=             37.8425 YYYX=              7.6488 YYYZ=              8.6290 ZZZX=              2.6606
 ZZZY=             -0.0620 XXYY=           -340.3904 XXZZ=           -259.8438 YYZZ=           -243.9242
 XXYZ=             38.1343 YYXZ=              6.6738 ZZXY=             -1.7633
 N-N= 7.998771028709D+02 E-N=-2.985406105890D+03  KE= 5.886622606624D+02
 1\1\GINC-COMPUTE-3-0\SP\RmPW1PW91\6-31+G(d,p)\C8H15N1O3\MAMICHETTI.IQU
 IR\17-May-2024\0\\# mpw1pw91/6-31+G** nmr scrf=(pcm,solvent=water)\\co
 mment\\0,1\C,0,-1.977963,1.597333,-0.152971\C,0,-1.147046,0.424362,-0.
 701102\N,0,0.296602,0.808901,-0.524484\C,0,0.322341,2.096511,0.219444\
 C,0,-1.049216,2.231838,0.891761\C,0,0.989412,-0.304216,0.173859\C,0,0.
 07262,-1.521254,-0.027993\C,0,-1.316227,-0.899114,0.049587\H,0,-2.1909
 3,2.315839,-0.953253\H,0,-2.935958,1.25875,0.255113\H,0,-1.368838,0.24
 0979,-1.760074\H,0,0.476505,2.928095,-0.48104\H,0,1.158919,2.10732,0.9
 2284\H,0,-1.308125,3.268865,1.12841\H,0,-1.073036,1.654973,1.824625\H,
 0,1.054377,-0.111708,1.256614\H,0,0.214417,-1.945023,-1.032872\H,0,-1.
 544352,-0.710304,1.110004\O,0,-2.353832,-1.677755,-0.541385\H,0,-2.418
 314,-2.497439,-0.022687\O,0,0.21812,-2.540957,0.958438\H,0,1.027849,-3
 .036694,0.752396\C,0,2.40194,-0.527705,-0.355535\H,0,2.871424,-1.35445
 ,0.18947\H,0,2.360277,-0.80163,-1.419764\O,0,3.254134,0.607364,-0.1643
 87\H,0,2.877029,1.324369,-0.702027\\Version=AM64L-G09RevC.01\State=1-A
 \HF=-594.198911\RMSD=5.061e-09\Dipole=-0.1689783,-0.0761825,0.1473913\
 Quadrupole=-7.6836361,8.7600103,-1.0763742,-5.0777462,-3.6541309,0.151
 667\PG=C01 [X(C8H15N1O3)]\\@


 This summer one third of the nation will be ill-housed
 ill-nourished and ill-clad. Only they call it a vacation.
 -- Jonas Salk
 Job cpu time:  0 days  0 hours  8 minutes 46.6 seconds.
 File lengths (MBytes):  RWF=    113 Int=      0 D2E=      0 Chk=      7 Scr=      1
 Normal termination of Gaussian 09 at Fri May 17 12:37:11 2024.
