 Entering Gaussian System, Link 0=g09
 Input=/home/mamichetti.iquir/Linux/02_Cardona_A1A3_R__R_R_R_009_OptB.gjc
 Output=/home/mamichetti.iquir/Linux/02_Cardona_A1A3_R__R_R_R_009_OptB.log
 Initial command:
 /opt/ohpc/pub/apps/software/Gaussian/09/AMD64.SSE4a-enabled/g09/l1.exe /local/mamichetti.iquir/Gau-712859.inp -scrdir=/local/mamichetti.iquir/
 Entering Link 1 = /opt/ohpc/pub/apps/software/Gaussian/09/AMD64.SSE4a-enabled/g09/l1.exe PID=    712860.
  
 Copyright (c) 1988,1990,1992,1993,1995,1998,2003,2009,2011,
            Gaussian, Inc.  All Rights Reserved.
  
 This is part of the Gaussian(R) 09 program.  It is based on
 the Gaussian(R) 03 system (copyright 2003, Gaussian, Inc.),
 the Gaussian(R) 98 system (copyright 1998, Gaussian, Inc.),
 the Gaussian(R) 94 system (copyright 1995, Gaussian, Inc.),
 the Gaussian 92(TM) system (copyright 1992, Gaussian, Inc.),
 the Gaussian 90(TM) system (copyright 1990, Gaussian, Inc.),
 the Gaussian 88(TM) system (copyright 1988, Gaussian, Inc.),
 the Gaussian 86(TM) system (copyright 1986, Carnegie Mellon
 University), and the Gaussian 82(TM) system (copyright 1983,
 Carnegie Mellon University). Gaussian is a federally registered
 trademark of Gaussian, Inc.
  
 This software contains proprietary and confidential information,
 including trade secrets, belonging to Gaussian, Inc.
  
 This software is provided under written license and may be
 used, copied, transmitted, or stored only in accord with that
 written license.
  
 The following legend is applicable only to US Government
 contracts under FAR:
  
                    RESTRICTED RIGHTS LEGEND
  
 Use, reproduction and disclosure by the US Government is
 subject to restrictions as set forth in subparagraphs (a)
 and (c) of the Commercial Computer Software - Restricted
 Rights clause in FAR 52.227-19.
  
 Gaussian, Inc.
 340 Quinnipiac St., Bldg. 40, Wallingford CT 06492
  
  
 ---------------------------------------------------------------
 Warning -- This program may not be used in any manner that
 competes with the business of Gaussian, Inc. or will provide
 assistance to any competitor of Gaussian, Inc.  The licensee
 of this program is prohibited from giving any competitor of
 Gaussian, Inc. access to this program.  By using this program,
 the user acknowledges that Gaussian, Inc. is engaged in the
 business of creating and licensing software in the field of
 computational chemistry and represents and warrants to the
 licensee that it is not a competitor of Gaussian, Inc. and that
 it will not use this program in any manner prohibited above.
 ---------------------------------------------------------------
  

 Cite this work as:
 Gaussian 09, Revision C.01,
 M. J. Frisch, G. W. Trucks, H. B. Schlegel, G. E. Scuseria, 
 M. A. Robb, J. R. Cheeseman, G. Scalmani, V. Barone, B. Mennucci, 
 G. A. Petersson, H. Nakatsuji, M. Caricato, X. Li, H. P. Hratchian, 
 A. F. Izmaylov, J. Bloino, G. Zheng, J. L. Sonnenberg, M. Hada, 
 M. Ehara, K. Toyota, R. Fukuda, J. Hasegawa, M. Ishida, T. Nakajima, 
 Y. Honda, O. Kitao, H. Nakai, T. Vreven, J. A. Montgomery, Jr., 
 J. E. Peralta, F. Ogliaro, M. Bearpark, J. J. Heyd, E. Brothers, 
 K. N. Kudin, V. N. Staroverov, T. Keith, R. Kobayashi, J. Normand, 
 K. Raghavachari, A. Rendell, J. C. Burant, S. S. Iyengar, J. Tomasi, 
 M. Cossi, N. Rega, J. M. Millam, M. Klene, J. E. Knox, J. B. Cross, 
 V. Bakken, C. Adamo, J. Jaramillo, R. Gomperts, R. E. Stratmann, 
 O. Yazyev, A. J. Austin, R. Cammi, C. Pomelli, J. W. Ochterski, 
 R. L. Martin, K. Morokuma, V. G. Zakrzewski, G. A. Voth, 
 P. Salvador, J. J. Dannenberg, S. Dapprich, A. D. Daniels, 
 O. Farkas, J. B. Foresman, J. V. Ortiz, J. Cioslowski, 
 and D. J. Fox, Gaussian, Inc., Wallingford CT, 2010.
 
 ******************************************
 Gaussian 09:  AM64L-G09RevC.01 23-Sep-2011
                17-May-2024 
 ******************************************
 %nprocshared=4
 Will use up to    4 processors via shared memory.
 ------------------------------------------------
 # mpw1pw91/6-31+G** nmr scrf=(pcm,solvent=water)
 ------------------------------------------------
 1/38=1/1;
 2/12=2,17=6,18=5,40=1/2;
 3/5=1,6=6,7=111,11=2,16=1,25=1,30=1,70=2201,72=1,74=-7/1,2,8,3;
 4//1;
 5/5=2,38=5,53=1/2;
 8/6=1,10=90,11=11/1;
 10/13=100,45=16/2;
 6/7=2,8=2,9=2,10=2,28=1/1;
 99/9=1/99;
 -------
 comment
 -------
 Charge =  0 Multiplicity = 1
 Symbolic Z-Matrix:
 6                    -1.95659   1.62158  -0.16445 
 6                    -1.13838   0.43552  -0.70145 
 7                     0.30802   0.80174  -0.51978 
 6                     0.34822   2.0874    0.22688 
 6                    -1.02715   2.24331   0.88749 
 6                     0.99049  -0.32112   0.17534 
 6                     0.06174  -1.52291  -0.01314 
 6                    -1.32475  -0.88354   0.06383 
 1                    -2.15296   2.34238  -0.96702 
 1                    -2.9227    1.29631   0.23561 
 1                    -1.35664   0.2508   -1.76234 
 1                     0.52212   2.91726  -0.47095 
 1                     1.17831   2.08408   0.9381 
 1                    -1.27281   3.28414   1.12143 
 1                    -1.06671   1.66758   1.82052 
 1                     1.06712  -0.12638   1.25709 
 1                     0.19448  -1.95422  -1.01897 
 1                    -1.55226  -0.68484   1.11789 
 8                    -2.39159  -1.70502  -0.40266 
 1                    -2.2189   -1.89613  -1.34148 
 8                     0.3208   -2.51115   0.98033 
 1                    -0.29279  -3.24606   0.81044 
 6                     2.39749  -0.56117  -0.36376 
 1                     2.8611   -1.39194   0.17845 
 1                     2.3451   -0.83462  -1.42759 
 8                     3.26045   0.56599  -0.17808 
 1                     2.88778   1.28648  -0.71399 
 
                          Input orientation:                          
 ---------------------------------------------------------------------
 Center     Atomic      Atomic             Coordinates (Angstroms)
 Number     Number       Type             X           Y           Z
 ---------------------------------------------------------------------
      1          6           0       -1.956591    1.621582   -0.164454
      2          6           0       -1.138377    0.435524   -0.701448
      3          7           0        0.308021    0.801737   -0.519778
      4          6           0        0.348215    2.087399    0.226882
      5          6           0       -1.027154    2.243309    0.887491
      6          6           0        0.990486   -0.321121    0.175341
      7          6           0        0.061744   -1.522906   -0.013139
      8          6           0       -1.324751   -0.883541    0.063834
      9          1           0       -2.152963    2.342382   -0.967015
     10          1           0       -2.922702    1.296313    0.235607
     11          1           0       -1.356643    0.250802   -1.762340
     12          1           0        0.522116    2.917255   -0.470954
     13          1           0        1.178313    2.084078    0.938100
     14          1           0       -1.272808    3.284140    1.121433
     15          1           0       -1.066705    1.667584    1.820524
     16          1           0        1.067119   -0.126377    1.257089
     17          1           0        0.194484   -1.954220   -1.018970
     18          1           0       -1.552261   -0.684837    1.117888
     19          8           0       -2.391590   -1.705017   -0.402657
     20          1           0       -2.218899   -1.896133   -1.341475
     21          8           0        0.320800   -2.511152    0.980333
     22          1           0       -0.292794   -3.246056    0.810442
     23          6           0        2.397490   -0.561170   -0.363760
     24          1           0        2.861104   -1.391936    0.178445
     25          1           0        2.345100   -0.834620   -1.427590
     26          8           0        3.260446    0.565986   -0.178081
     27          1           0        2.887782    1.286480   -0.713985
 ---------------------------------------------------------------------
                    Distance matrix (angstroms):
                    1          2          3          4          5
     1  C    0.000000
     2  C    1.537716   0.000000
     3  N    2.434516   1.503058   0.000000
     4  C    2.383749   2.408411   1.487294   0.000000
     5  C    1.535248   2.409395   2.416863   1.533738   0.000000
     6  C    3.546099   2.423495   1.486526   2.493218   3.339810
     7  C    3.739569   2.397813   2.391924   3.629597   4.022587
     8  C    2.593642   1.536335   2.417997   3.413486   3.247178
     9  H    1.096457   2.176239   2.937695   2.783217   2.171740
    10  H    1.095089   2.191540   3.354517   3.365233   2.216948
    11  H    2.189113   1.098751   2.149092   3.199474   3.331704
    12  H    2.813663   2.994888   2.126884   1.098125   2.167905
    13  H    3.355168   3.282210   2.127725   1.093117   2.211787
    14  H    2.210241   3.384609   3.369706   2.204569   1.094716
    15  H    2.175810   2.807748   2.848961   2.172082   1.097075
    16  H    3.770805   3.002634   2.143568   2.545379   3.184022
    17  H    4.259540   2.754671   2.803102   4.232076   4.769302
    18  H    2.669729   2.176348   2.890069   3.477211   2.983766
    19  O    3.363365   2.498346   3.685842   4.720728   4.372121
    20  H    3.718669   2.648355   3.786689   4.991828   4.850106
    21  O    4.855568   3.693303   3.636720   4.659948   4.942722
    22  H    5.235699   4.068766   4.302917   5.403441   5.538804
    23  C    4.874644   3.689145   2.499548   3.400486   4.599882
    24  H    5.692895   4.484381   3.437724   4.292171   5.369944
    25  H    5.112043   3.778248   2.766130   3.906792   5.119116
    26  O    5.322776   4.431769   2.981468   3.310556   4.725714
    27  H    4.886945   4.115123   2.632083   2.824199   4.336700
                    6          7          8          9         10
     6  C    0.000000
     7  C    1.530481   0.000000
     8  C    2.385178   1.528751   0.000000
     9  H    4.275570   4.555794   3.486426   0.000000
    10  H    4.234710   4.113002   2.708268   1.770045   0.000000
    11  H    3.096888   2.866630   2.150038   2.375158   2.745437
    12  H    3.335288   4.487379   4.259456   2.780756   3.872138
    13  H    2.530230   3.893830   3.979502   3.846243   4.234666
    14  H    4.360676   5.116246   4.300091   2.454220   2.730988
    15  H    3.300547   3.849019   3.108181   3.066869   2.468710
    16  H    1.101806   2.138820   2.778164   4.627131   4.357309
    17  H    2.174169   1.102428   2.151021   4.896325   4.675123
    18  H    2.736101   2.141633   1.096483   3.724476   2.565440
    19  O    3.699688   2.490730   1.424985   4.093517   3.114072
    20  H    3.883497   2.665541   1.949291   4.255535   3.629633
    21  O    2.427494   1.425036   2.489363   5.785193   5.056848
    22  H    3.256594   1.942480   2.683996   6.152253   5.280148
    23  C    1.525750   2.550212   3.760563   5.431496   5.666915
    24  H    2.155427   2.808963   4.218173   6.355948   6.378273
    25  H    2.160567   2.772747   3.961634   5.526124   5.920881
    26  O    2.462638   3.823921   4.814944   5.751782   6.239859
    27  H    2.641025   4.046026   4.802023   5.156361   5.887576
                   11         12         13         14         15
    11  H    0.000000
    12  H    3.508188   0.000000
    13  H    4.132708   1.763579   0.000000
    14  H    4.186205   2.427355   2.735280   0.000000
    15  H    3.863709   3.055634   2.447906   1.773263   0.000000
    16  H    3.890223   3.542154   2.236119   4.138271   2.844110
    17  H    2.796554   4.913139   4.594115   5.845912   4.771875
    18  H    3.034699   4.450003   3.892974   3.978804   2.502668
    19  O    2.597129   5.464407   5.375786   5.335374   4.251152
    20  H    2.351583   5.607109   5.707853   5.813453   4.901619
    21  O    4.238450   5.622665   4.674746   6.012063   4.482513
    22  H    4.469787   6.347634   5.530893   6.610643   5.075733
    23  C    4.087645   3.953221   3.190387   5.519356   4.662519
    24  H    4.924898   4.945878   3.935929   6.312222   5.242592
    25  H    3.872092   4.279602   3.934041   6.045739   5.334012
    26  O    4.891496   3.621145   2.808156   5.443114   4.892052
    27  H    4.492975   2.883551   2.507555   4.966882   4.712424
                   16         17         18         19         20
    16  H    0.000000
    17  H    3.046793   0.000000
    18  H    2.681866   3.037863   0.000000
    19  O    4.148437   2.670154   2.014273   0.000000
    20  H    4.547800   2.435529   2.821367   0.973513   0.000000
    21  O    2.514108   2.079265   2.619677   3.149536   3.495585
    22  H    3.432383   2.291949   2.870649   2.872517   3.187933
    23  C    2.141514   2.687587   4.220321   4.923940   4.903988
    24  H    2.446118   2.976714   4.567311   5.294005   5.326425
    25  H    3.056525   2.458785   4.657394   4.923851   4.686610
    26  O    2.711045   4.056927   5.138700   6.095359   6.118720
    27  H    3.032509   4.224808   5.191901   6.075998   6.049873
                   21         22         23         24         25
    21  O    0.000000
    22  H    0.972340   0.000000
    23  C    3.149866   3.978064   0.000000
    24  H    2.889431   3.712715   1.095033   0.000000
    25  H    3.564638   4.216906   1.099661   1.776572   0.000000
    26  O    4.410467   5.304183   1.431660   2.029789   2.088260
    27  H    4.886933   5.743155   1.943413   2.823306   2.302781
                   26         27
    26  O    0.000000
    27  H    0.972205   0.000000
 Stoichiometry    C8H15NO3
 Framework group  C1[X(C8H15NO3)]
 Deg. of freedom    75
 Full point group                 C1      NOp   1
 Largest Abelian subgroup         C1      NOp   1
 Largest concise Abelian subgroup C1      NOp   1
                         Standard orientation:                         
 ---------------------------------------------------------------------
 Center     Atomic      Atomic             Coordinates (Angstroms)
 Number     Number       Type             X           Y           Z
 ---------------------------------------------------------------------
      1          6           0        1.956591   -1.621582   -0.164454
      2          6           0        1.138377   -0.435524   -0.701448
      3          7           0       -0.308021   -0.801737   -0.519778
      4          6           0       -0.348215   -2.087399    0.226882
      5          6           0        1.027154   -2.243309    0.887491
      6          6           0       -0.990486    0.321121    0.175341
      7          6           0       -0.061744    1.522906   -0.013139
      8          6           0        1.324751    0.883541    0.063834
      9          1           0        2.152963   -2.342382   -0.967015
     10          1           0        2.922702   -1.296314    0.235607
     11          1           0        1.356643   -0.250802   -1.762340
     12          1           0       -0.522117   -2.917255   -0.470954
     13          1           0       -1.178313   -2.084078    0.938100
     14          1           0        1.272807   -3.284140    1.121433
     15          1           0        1.066705   -1.667584    1.820524
     16          1           0       -1.067119    0.126377    1.257089
     17          1           0       -0.194483    1.954220   -1.018970
     18          1           0        1.552261    0.684837    1.117888
     19          8           0        2.391590    1.705017   -0.402657
     20          1           0        2.218900    1.896133   -1.341475
     21          8           0       -0.320799    2.511152    0.980333
     22          1           0        0.292795    3.246056    0.810442
     23          6           0       -2.397490    0.561171   -0.363760
     24          1           0       -2.861104    1.391937    0.178445
     25          1           0       -2.345100    0.834621   -1.427590
     26          8           0       -3.260446   -0.565985   -0.178081
     27          1           0       -2.887782   -1.286479   -0.713985
 ---------------------------------------------------------------------
 Rotational constants (GHZ):      1.0854678      0.9149762      0.5619247
 Standard basis: 6-31+G(d,p) (6D, 7F)
 There are   303 symmetry adapted basis functions of A   symmetry.
 Integral buffers will be    131072 words long.
 Raffenetti 2 integral format.
 Two-electron integral symmetry is turned on.
   303 basis functions,   489 primitive gaussians,   303 cartesian basis functions
    47 alpha electrons       47 beta electrons
       nuclear repulsion energy       799.8610090354 Hartrees.
 NAtoms=   27 NActive=   27 NUniq=   27 SFac= 1.00D+00 NAtFMM=   60 NAOKFM=F Big=F
 ------------------------------------------------------------------------------
 Polarizable Continuum Model (PCM)
 =================================
 Model                : PCM.
 Atomic radii         : UFF (Universal Force Field).
 Polarization charges : Total charges.
 Charge compensation  : None.
 Solution method      : Matrix inversion.
 Cavity type          : Scaled VdW (van der Waals Surface) (Alpha=1.100).
 Cavity algorithm     : GePol (No added spheres)
                        Default sphere list used, NSphG=   27.
                        Lebedev-Laikov grids with approx.  5.0 points / Ang**2.
                        Smoothing algorithm: Karplus/York (Gamma=1.0000).
                        Polarization charges: spherical gaussians, with
                                              point-specific exponents (IZeta= 3).
                        Self-potential: point-specific (ISelfS= 7).
                        Self-field    : sphere-specific E.n sum rule (ISelfD= 2).
 Solvent              : Water, Eps=  78.355300 Eps(inf)=   1.777849
 ------------------------------------------------------------------------------
 One-electron integrals computed using PRISM.
 NBasis=   303 RedAO= T  NBF=   303
 NBsUse=   303 1.00D-06 NBFU=   303
 Harris functional with IExCor=  908 diagonalized for initial guess.
 ExpMin= 4.38D-02 ExpMax= 5.48D+03 ExpMxC= 8.25D+02 IAcc=2 IRadAn=         4 AccDes= 0.00D+00
 HarFok:  IExCor=  908 AccDes= 0.00D+00 IRadAn=         4 IDoV= 1
 ScaDFX=  1.000000  1.000000  1.000000  1.000000
 FoFCou: FMM=F IPFlag=           0 FMFlag=      100000 FMFlg1=           0
         NFxFlg=           0 DoJE=T BraDBF=F KetDBF=T FulRan=T
         Omega=  0.000000  0.000000  1.000000  0.000000  0.000000 ICntrl=     500 IOpCl=  0
         NMat0=    1 NMatS0=    1 NMatT0=    0 NMatD0=    1 NMtDS0=    0 NMtDT0=    0
         I1Cent=           4 NGrid=           0.
 Petite list used in FoFCou.
 Initial guess orbital symmetries:
       Occupied  (A) (A) (A) (A) (A) (A) (A) (A) (A) (A) (A) (A)
                 (A) (A) (A) (A) (A) (A) (A) (A) (A) (A) (A) (A)
                 (A) (A) (A) (A) (A) (A) (A) (A) (A) (A) (A) (A)
                 (A) (A) (A) (A) (A) (A) (A) (A) (A) (A) (A)
       Virtual   (A) (A) (A) (A) (A) (A) (A) (A) (A) (A) (A) (A)
                 (A) (A) (A) (A) (A) (A) (A) (A) (A) (A) (A) (A)
                 (A) (A) (A) (A) (A) (A) (A) (A) (A) (A) (A) (A)
                 (A) (A) (A) (A) (A) (A) (A) (A) (A) (A) (A) (A)
                 (A) (A) (A) (A) (A) (A) (A) (A) (A) (A) (A) (A)
                 (A) (A) (A) (A) (A) (A) (A) (A) (A) (A) (A) (A)
                 (A) (A) (A) (A) (A) (A) (A) (A) (A) (A) (A) (A)
                 (A) (A) (A) (A) (A) (A) (A) (A) (A) (A) (A) (A)
                 (A) (A) (A) (A) (A) (A) (A) (A) (A) (A) (A) (A)
                 (A) (A) (A) (A) (A) (A) (A) (A) (A) (A) (A) (A)
                 (A) (A) (A) (A) (A) (A) (A) (A) (A) (A) (A) (A)
                 (A) (A) (A) (A) (A) (A) (A) (A) (A) (A) (A) (A)
                 (A) (A) (A) (A) (A) (A) (A) (A) (A) (A) (A) (A)
                 (A) (A) (A) (A) (A) (A) (A) (A) (A) (A) (A) (A)
                 (A) (A) (A) (A) (A) (A) (A) (A) (A) (A) (A) (A)
                 (A) (A) (A) (A) (A) (A) (A) (A) (A) (A) (A) (A)
                 (A) (A) (A) (A) (A) (A) (A) (A) (A) (A) (A) (A)
                 (A) (A) (A) (A) (A) (A) (A) (A) (A) (A) (A) (A)
                 (A) (A) (A) (A) (A) (A) (A) (A) (A) (A) (A) (A)
                 (A) (A) (A) (A) (A) (A) (A) (A) (A) (A) (A) (A)
                 (A) (A) (A) (A) (A) (A) (A) (A) (A) (A) (A) (A)
                 (A) (A) (A) (A)
 The electronic state of the initial guess is 1-A.
 Requested convergence on RMS density matrix=1.00D-08 within 128 cycles.
 Requested convergence on MAX density matrix=1.00D-06.
 Requested convergence on             energy=1.00D-06.
 No special actions if energy rises.
 Error on total polarization charges =  0.01451
 SCF Done:  E(RmPW1PW91) =  -594.199179539     A.U. after   13 cycles
             Convg  =    0.4433D-08             -V/T =  2.0094
 Range of M.O.s used for correlation:     1   303
 NBasis=   303 NAE=    47 NBE=    47 NFC=     0 NFV=     0
 NROrb=    303 NOA=    47 NOB=    47 NVA=   256 NVB=   256

 **** Warning!!: The largest alpha MO coefficient is  0.56779279D+02

 NEqPCM:  Using equilibrium solvation (IEInf=0, Eps=  78.3553, EpsInf=   1.7778)
          Differentiating once with respect to magnetic field using GIAOs.
          Electric field/nuclear overlap derivatives assumed to be zero.
 FoFCou: FMM=F IPFlag=           0 FMFlag=    10101102 FMFlg1=           0
         NFxFlg=    40000000 DoJE=F BraDBF=F KetDBF=T FulRan=T
         Omega=  0.000000  0.000000  1.000000  0.000000  0.000000 ICntrl=    6100 IOpCl=  0
         NMat0=    1 NMatS0=    1 NMatT0=    0 NMatD0=    1 NMtDS0=    0 NMtDT0=    0
         I1Cent=           7 NGrid=        1828.
 Symmetry not used in FoFCou.
          There are     3 degrees of freedom in the 1st order CPHF.  IDoFFX=0.
      3 vectors produced by pass  0 Test12= 4.01D-13 3.33D-08 XBig12= 2.76D+01 7.89D-01.
 AX will form     3 AO Fock derivatives at one time.
      3 vectors produced by pass  1 Test12= 4.01D-13 3.33D-08 XBig12= 7.02D-02 4.30D-02.
      3 vectors produced by pass  2 Test12= 4.01D-13 3.33D-08 XBig12= 1.48D-04 2.16D-03.
      3 vectors produced by pass  3 Test12= 4.01D-13 3.33D-08 XBig12= 7.47D-07 1.66D-04.
      3 vectors produced by pass  4 Test12= 4.01D-13 3.33D-08 XBig12= 2.51D-09 8.53D-06.
      3 vectors produced by pass  5 Test12= 4.01D-13 3.33D-08 XBig12= 7.33D-12 4.53D-07.
 Inverted reduced A of dimension    18 with in-core refinement.
 Calculating GIAO nuclear magnetic shielding tensors.
 SCF GIAO Magnetic shielding tensor (ppm):
      1  C    Isotropic =   164.8422   Anisotropy =    21.8280
   XX=   170.5414   YX=    -2.5687   ZX=     3.0457
   XY=    -8.0600   YY=   166.9994   ZY=   -12.1572
   XZ=    -7.9367   YZ=   -19.0663   ZZ=   156.9859
   Eigenvalues:   144.5833   170.5491   179.3943
      2  C    Isotropic =   126.3238   Anisotropy =    56.0317
   XX=   151.8565   YX=    15.3724   ZX=    -2.2629
   XY=    24.4644   YY=   127.3325   ZY=   -14.0186
   XZ=    -7.2347   YZ=     3.7407   ZZ=    99.7823
   Eigenvalues:    98.8217   116.4713   163.6782
      3  N    Isotropic =   199.7980   Anisotropy =    73.2227
   XX=   235.6627   YX=   -15.3121   ZX=   -18.6955
   XY=   -23.9631   YY=   209.4744   ZY=   -13.2912
   XZ=   -27.1216   YZ=   -11.2897   ZZ=   154.2567
   Eigenvalues:   143.7476   207.0332   248.6131
      4  C    Isotropic =   138.1947   Anisotropy =    60.5016
   XX=   129.1293   YX=    -6.6876   ZX=    -5.9047
   XY=     4.0252   YY=   161.4251   ZY=   -28.1990
   XZ=     8.6521   YZ=   -32.7039   ZZ=   124.0297
   Eigenvalues:   106.9801   129.0750   178.5291
      5  C    Isotropic =   171.3552   Anisotropy =    18.9893
   XX=   182.7408   YX=     1.4497   ZX=     2.6559
   XY=     2.5783   YY=   169.7518   ZY=   -13.8192
   XZ=     2.9496   YZ=   -21.8989   ZZ=   161.5730
   Eigenvalues:   147.0086   183.0423   184.0147
      6  C    Isotropic =   124.8660   Anisotropy =    39.1439
   XX=   117.0637   YX=    -3.8767   ZX=    -3.0370
   XY=    -5.0322   YY=   144.0738   ZY=    17.9266
   XZ=   -22.4697   YZ=     7.4357   ZZ=   113.4605
   Eigenvalues:   101.2114   122.4247   150.9619
      7  C    Isotropic =   116.4484   Anisotropy =    36.5142
   XX=   120.8696   YX=    -8.6092   ZX=    -6.2832
   XY=    -7.4788   YY=   123.3622   ZY=    27.5766
   XZ=    -4.3567   YZ=    12.2089   ZZ=   105.1134
   Eigenvalues:    92.3516   116.2024   140.7912
      8  C    Isotropic =   112.4449   Anisotropy =    29.1905
   XX=   129.3910   YX=     6.6198   ZX=   -17.2681
   XY=     0.5036   YY=   118.7656   ZY=    -3.0478
   XZ=    -0.1571   YZ=     7.5873   ZZ=    89.1781
   Eigenvalues:    87.0958   118.3337   131.9053
      9  H    Isotropic =    29.7943   Anisotropy =    11.8935
   XX=    27.6142   YX=    -3.4813   ZX=    -3.3342
   XY=    -4.5630   YY=    31.1667   ZY=     3.8215
   XZ=    -4.3269   YZ=     3.7324   ZZ=    30.6019
   Eigenvalues:    24.5613    27.0983    37.7233
     10  H    Isotropic =    29.6995   Anisotropy =     9.5750
   XX=    35.8009   YX=     0.3260   ZX=     1.9561
   XY=     0.8773   YY=    27.8452   ZY=    -0.6883
   XZ=     1.2906   YZ=    -0.2565   ZZ=    25.4526
   Eigenvalues:    25.0898    27.9259    36.0829
     11  H    Isotropic =    28.5391   Anisotropy =     6.8973
   XX=    27.9270   YX=     0.2242   ZX=    -2.8541
   XY=     0.0637   YY=    26.2392   ZY=    -1.1774
   XZ=    -2.5916   YZ=    -1.3672   ZZ=    31.4510
   Eigenvalues:    25.7231    26.7568    33.1373
     12  H    Isotropic =    28.6157   Anisotropy =    11.2801
   XX=    25.9532   YX=     1.8147   ZX=     2.5319
   XY=     2.7978   YY=    34.7639   ZY=     2.8872
   XZ=     3.4471   YZ=     1.6252   ZZ=    25.1300
   Eigenvalues:    22.5206    27.1907    36.1357
     13  H    Isotropic =    28.7655   Anisotropy =     7.0518
   XX=    31.9935   YX=     0.8333   ZX=    -1.7931
   XY=     0.8578   YY=    28.4395   ZY=    -4.4393
   XZ=    -2.1668   YZ=    -2.7635   ZZ=    25.8636
   Eigenvalues:    23.1741    29.6558    33.4667
     14  H    Isotropic =    30.0344   Anisotropy =    12.6554
   XX=    27.2293   YX=    -2.4047   ZX=     0.7148
   XY=    -2.7789   YY=    35.7412   ZY=    -4.6698
   XZ=     1.0240   YZ=    -4.7350   ZZ=    27.1327
   Eigenvalues:    25.0240    26.6079    38.4714
     15  H    Isotropic =    29.8185   Anisotropy =     8.9035
   XX=    27.0327   YX=     0.0971   ZX=     1.0786
   XY=    -0.1450   YY=    26.9200   ZY=     1.4194
   XZ=     1.1382   YZ=     0.5627   ZZ=    35.5028
   Eigenvalues:    26.6962    27.0050    35.7541
     16  H    Isotropic =    28.8245   Anisotropy =     5.5890
   XX=    28.8246   YX=    -1.8069   ZX=    -1.4217
   XY=    -1.9618   YY=    28.1123   ZY=     2.7482
   XZ=    -1.8575   YZ=     1.2465   ZZ=    29.5367
   Eigenvalues:    26.3929    27.5301    32.5505
     17  H    Isotropic =    28.1784   Anisotropy =     1.5721
   XX=    26.3319   YX=    -0.9577   ZX=     0.1792
   XY=     0.2347   YY=    29.0236   ZY=     0.7924
   XZ=     0.4333   YZ=    -0.8112   ZZ=    29.1797
   Eigenvalues:    26.2530    29.0558    29.2265
     18  H    Isotropic =    28.1768   Anisotropy =     3.6995
   XX=    27.2100   YX=     2.0061   ZX=    -0.1864
   XY=     1.6051   YY=    29.6763   ZY=    -1.0347
   XZ=     0.7581   YZ=     0.2818   ZZ=    27.6441
   Eigenvalues:    26.1343    27.7530    30.6431
     19  O    Isotropic =   293.8630   Anisotropy =    92.0992
   XX=   269.7474   YX=     7.8823   ZX=    17.0604
   XY=    18.2312   YY=   270.0728   ZY=   -26.6081
   XZ=    -9.6167   YZ=   -41.1361   ZZ=   341.7687
   Eigenvalues:   248.1473   278.1792   355.2624
     20  H    Isotropic =    30.9274   Anisotropy =    16.5108
   XX=    26.7577   YX=     3.2442   ZX=    -0.8920
   XY=     2.4612   YY=    26.5791   ZY=    -6.2573
   XZ=    -0.2731   YZ=    -5.6163   ZZ=    39.4453
   Eigenvalues:    22.7259    28.1216    41.9346
     21  O    Isotropic =   299.2688   Anisotropy =    41.4309
   XX=   279.2020   YX=    24.4524   ZX=    18.1803
   XY=    15.3864   YY=   305.4935   ZY=     0.4274
   XZ=    -5.0898   YZ=    20.0595   ZZ=   313.1110
   Eigenvalues:   268.4617   302.4553   326.8895
     22  H    Isotropic =    29.4012   Anisotropy =    18.9191
   XX=    27.6415   YX=     6.9049   ZX=    -3.5657
   XY=     7.9560   YY=    38.1655   ZY=     1.9048
   XZ=    -1.9433   YZ=     1.6711   ZZ=    22.3966
   Eigenvalues:    19.7523    26.4373    42.0139
     23  C    Isotropic =   125.6511   Anisotropy =    47.8260
   XX=   138.5033   YX=    17.1983   ZX=     3.7679
   XY=    24.2163   YY=   133.3741   ZY=   -15.1112
   XZ=     2.9462   YZ=   -10.5875   ZZ=   105.0759
   Eigenvalues:    96.7937   122.6245   157.5352
     24  H    Isotropic =    27.7913   Anisotropy =     5.5914
   XX=    30.3377   YX=    -0.1814   ZX=     0.1389
   XY=    -1.8104   YY=    30.2675   ZY=     1.8768
   XZ=    -0.8489   YZ=     1.2977   ZZ=    22.7687
   Eigenvalues:    22.4437    29.4113    31.5189
     25  H    Isotropic =    28.0931   Anisotropy =     6.0884
   XX=    28.1876   YX=     2.3096   ZX=     1.2949
   XY=     1.8429   YY=    28.2118   ZY=    -5.1279
   XZ=     2.2339   YZ=    -3.0281   ZZ=    27.8799
   Eigenvalues:    22.6384    29.4888    32.1520
     26  O    Isotropic =   308.6909   Anisotropy =    24.6053
   XX=   303.2581   YX=   -16.5198   ZX=    -1.2679
   XY=    -0.6909   YY=   316.6850   ZY=     5.1986
   XZ=   -16.7983   YZ=     5.1654   ZZ=   306.1296
   Eigenvalues:   294.9497   306.0285   325.0944
     27  H    Isotropic =    29.9541   Anisotropy =    14.0159
   XX=    29.8220   YX=    -0.7443   ZX=    -2.5621
   XY=    -1.8987   YY=    34.5717   ZY=     7.5960
   XZ=    -1.5389   YZ=     7.4267   ZZ=    25.4685
   Eigenvalues:    21.0845    29.4797    39.2980
 End of Minotr Frequency-dependent properties file   721 does not exist.
 End of Minotr Frequency-dependent properties file   722 does not exist.

 **********************************************************************

            Population analysis using the SCF density.

 **********************************************************************

 Orbital symmetries:
       Occupied  (A) (A) (A) (A) (A) (A) (A) (A) (A) (A) (A) (A)
                 (A) (A) (A) (A) (A) (A) (A) (A) (A) (A) (A) (A)
                 (A) (A) (A) (A) (A) (A) (A) (A) (A) (A) (A) (A)
                 (A) (A) (A) (A) (A) (A) (A) (A) (A) (A) (A)
       Virtual   (A) (A) (A) (A) (A) (A) (A) (A) (A) (A) (A) (A)
                 (A) (A) (A) (A) (A) (A) (A) (A) (A) (A) (A) (A)
                 (A) (A) (A) (A) (A) (A) (A) (A) (A) (A) (A) (A)
                 (A) (A) (A) (A) (A) (A) (A) (A) (A) (A) (A) (A)
                 (A) (A) (A) (A) (A) (A) (A) (A) (A) (A) (A) (A)
                 (A) (A) (A) (A) (A) (A) (A) (A) (A) (A) (A) (A)
                 (A) (A) (A) (A) (A) (A) (A) (A) (A) (A) (A) (A)
                 (A) (A) (A) (A) (A) (A) (A) (A) (A) (A) (A) (A)
                 (A) (A) (A) (A) (A) (A) (A) (A) (A) (A) (A) (A)
                 (A) (A) (A) (A) (A) (A) (A) (A) (A) (A) (A) (A)
                 (A) (A) (A) (A) (A) (A) (A) (A) (A) (A) (A) (A)
                 (A) (A) (A) (A) (A) (A) (A) (A) (A) (A) (A) (A)
                 (A) (A) (A) (A) (A) (A) (A) (A) (A) (A) (A) (A)
                 (A) (A) (A) (A) (A) (A) (A) (A) (A) (A) (A) (A)
                 (A) (A) (A) (A) (A) (A) (A) (A) (A) (A) (A) (A)
                 (A) (A) (A) (A) (A) (A) (A) (A) (A) (A) (A) (A)
                 (A) (A) (A) (A) (A) (A) (A) (A) (A) (A) (A) (A)
                 (A) (A) (A) (A) (A) (A) (A) (A) (A) (A) (A) (A)
                 (A) (A) (A) (A) (A) (A) (A) (A) (A) (A) (A) (A)
                 (A) (A) (A) (A) (A) (A) (A) (A) (A) (A) (A) (A)
                 (A) (A) (A) (A) (A) (A) (A) (A) (A) (A) (A) (A)
                 (A) (A) (A) (A)
 The electronic state is 1-A.
 Alpha  occ. eigenvalues --  -19.26433 -19.26281 -19.25568 -14.41762 -10.30846
 Alpha  occ. eigenvalues --  -10.30403 -10.29406 -10.28292 -10.28102 -10.27028
 Alpha  occ. eigenvalues --  -10.24834 -10.24629  -1.07632  -1.05908  -1.05636
 Alpha  occ. eigenvalues --   -0.96750  -0.83075  -0.79450  -0.75618  -0.71851
 Alpha  occ. eigenvalues --   -0.66435  -0.62672  -0.60923  -0.58331  -0.56153
 Alpha  occ. eigenvalues --   -0.53928  -0.51201  -0.50003  -0.49593  -0.47439
 Alpha  occ. eigenvalues --   -0.45434  -0.45144  -0.44281  -0.41520  -0.40837
 Alpha  occ. eigenvalues --   -0.39940  -0.39419  -0.37170  -0.36729  -0.35844
 Alpha  occ. eigenvalues --   -0.35330  -0.34840  -0.33535  -0.32458  -0.30076
 Alpha  occ. eigenvalues --   -0.28314  -0.23554
 Alpha virt. eigenvalues --    0.00711   0.01222   0.01650   0.02303   0.03510
 Alpha virt. eigenvalues --    0.03984   0.04308   0.05077   0.05259   0.06933
 Alpha virt. eigenvalues --    0.07733   0.08131   0.08205   0.09130   0.09518
 Alpha virt. eigenvalues --    0.10150   0.11209   0.11878   0.12249   0.12344
 Alpha virt. eigenvalues --    0.13151   0.13275   0.14427   0.14445   0.14854
 Alpha virt. eigenvalues --    0.15191   0.15809   0.16750   0.17272   0.18119
 Alpha virt. eigenvalues --    0.18736   0.19470   0.19904   0.20377   0.21025
 Alpha virt. eigenvalues --    0.21510   0.22074   0.22301   0.22792   0.23422
 Alpha virt. eigenvalues --    0.24132   0.24559   0.25101   0.25390   0.25605
 Alpha virt. eigenvalues --    0.26106   0.26972   0.27192   0.27910   0.28795
 Alpha virt. eigenvalues --    0.29648   0.29860   0.30663   0.31003   0.31832
 Alpha virt. eigenvalues --    0.32380   0.32900   0.33193   0.34015   0.34604
 Alpha virt. eigenvalues --    0.34715   0.35517   0.36305   0.37934   0.38418
 Alpha virt. eigenvalues --    0.38910   0.39667   0.40234   0.40404   0.41099
 Alpha virt. eigenvalues --    0.42005   0.42577   0.43092   0.45012   0.46826
 Alpha virt. eigenvalues --    0.47382   0.63866   0.64072   0.66267   0.67493
 Alpha virt. eigenvalues --    0.69202   0.70992   0.71695   0.73194   0.73362
 Alpha virt. eigenvalues --    0.77676   0.78083   0.79099   0.79968   0.82123
 Alpha virt. eigenvalues --    0.82165   0.84890   0.85323   0.86373   0.87417
 Alpha virt. eigenvalues --    0.88874   0.91512   0.92338   0.95190   0.96564
 Alpha virt. eigenvalues --    0.98213   1.00200   1.02539   1.03542   1.04959
 Alpha virt. eigenvalues --    1.05687   1.06535   1.06626   1.09419   1.10369
 Alpha virt. eigenvalues --    1.11855   1.12678   1.13993   1.14068   1.15788
 Alpha virt. eigenvalues --    1.17004   1.18757   1.19829   1.23019   1.24971
 Alpha virt. eigenvalues --    1.26230   1.27699   1.28654   1.30896   1.31613
 Alpha virt. eigenvalues --    1.32716   1.36668   1.37755   1.39129   1.39598
 Alpha virt. eigenvalues --    1.42544   1.47128   1.48844   1.49312   1.52259
 Alpha virt. eigenvalues --    1.53648   1.54464   1.57619   1.58329   1.60423
 Alpha virt. eigenvalues --    1.61582   1.64295   1.65336   1.69849   1.70962
 Alpha virt. eigenvalues --    1.72731   1.73706   1.75412   1.77613   1.79245
 Alpha virt. eigenvalues --    1.80239   1.82361   1.82883   1.84505   1.85856
 Alpha virt. eigenvalues --    1.87126   1.90039   1.91614   1.92701   1.94188
 Alpha virt. eigenvalues --    1.95877   1.99452   2.00864   2.03223   2.03764
 Alpha virt. eigenvalues --    2.04810   2.05448   2.07816   2.08291   2.10307
 Alpha virt. eigenvalues --    2.12400   2.14068   2.16846   2.18036   2.18839
 Alpha virt. eigenvalues --    2.20738   2.22980   2.26436   2.28348   2.30052
 Alpha virt. eigenvalues --    2.31207   2.32859   2.34345   2.36886   2.38700
 Alpha virt. eigenvalues --    2.40444   2.41510   2.43668   2.44244   2.46831
 Alpha virt. eigenvalues --    2.47978   2.50301   2.50507   2.51902   2.55057
 Alpha virt. eigenvalues --    2.55543   2.55831   2.56955   2.60689   2.62893
 Alpha virt. eigenvalues --    2.65628   2.66261   2.66940   2.69201   2.69838
 Alpha virt. eigenvalues --    2.69935   2.72111   2.73429   2.75760   2.78441
 Alpha virt. eigenvalues --    2.79828   2.80732   2.81824   2.84902   2.86321
 Alpha virt. eigenvalues --    2.87508   2.89179   2.91644   2.93350   2.93946
 Alpha virt. eigenvalues --    2.95724   2.99410   3.00815   3.02367   3.04150
 Alpha virt. eigenvalues --    3.05979   3.10174   3.11131   3.18251   3.32342
 Alpha virt. eigenvalues --    3.33758   3.36366   3.37270   3.38787   3.41952
 Alpha virt. eigenvalues --    3.46631   3.50730   3.52569   3.54851   3.55875
 Alpha virt. eigenvalues --    3.57063   3.57998   3.61110   3.61327   4.31068
 Alpha virt. eigenvalues --    4.35201   4.36927   4.41990   4.47560   4.54336
 Alpha virt. eigenvalues --    4.56736   4.66444   4.76497   4.80870   4.87758
 Alpha virt. eigenvalues --    4.93851
          Condensed to atoms (all electrons):
              1          2          3          4          5          6
     1  C    5.887542  -0.823731   0.114086  -0.053577   0.273664  -0.022800
     2  C   -0.823731   9.036918  -0.504836  -0.226385   0.000806  -0.546825
     3  N    0.114086  -0.504836   7.504336   0.146169  -0.103631  -0.376819
     4  C   -0.053577  -0.226385   0.146169   5.886560   0.000086  -0.233387
     5  C    0.273664   0.000806  -0.103631   0.000086   5.477794  -0.012962
     6  C   -0.022800  -0.546825  -0.376819  -0.233387  -0.012962   9.360369
     7  C   -0.150137   0.903206  -0.044931  -0.203102   0.104212  -0.952988
     8  C    0.288696  -1.476199   0.104485   0.137526  -0.110858   0.417439
     9  H    0.425441  -0.070903   0.010323  -0.002785  -0.047333   0.008772
    10  H    0.420428  -0.143543   0.019533   0.026692  -0.026116   0.004624
    11  H    0.065631   0.151708   0.003247  -0.008395   0.013500   0.020901
    12  H    0.006898  -0.038844  -0.029050   0.374247  -0.034294   0.016565
    13  H    0.014163   0.031960  -0.072549   0.404761  -0.032979   0.024570
    14  H   -0.035826   0.021275   0.011322  -0.024142   0.359708   0.002350
    15  H   -0.055940   0.001459   0.012851  -0.079828   0.422906   0.009633
    16  H    0.001200   0.056140  -0.052733   0.053460  -0.015239   0.215894
    17  H    0.014082  -0.018409   0.050889   0.009944  -0.001345  -0.211005
    18  H    0.074279  -0.250229   0.051092   0.009917  -0.009948   0.013890
    19  O   -0.032367  -0.016679   0.017600   0.003285  -0.003458  -0.021582
    20  H    0.023462  -0.117288   0.008597  -0.000269  -0.000251   0.006027
    21  O   -0.007477   0.026928   0.015939  -0.002141   0.005238  -0.138968
    22  H   -0.000508   0.005941  -0.004123  -0.000817  -0.000047   0.045864
    23  C    0.081439  -0.165413   0.271635   0.043693  -0.016540  -1.177447
    24  H    0.000068   0.011751   0.012634  -0.004112   0.001361  -0.154531
    25  H    0.002673   0.007291   0.012687   0.011014  -0.001735  -0.151269
    26  O    0.005033   0.008735   0.020918  -0.011520   0.000726  -0.134514
    27  H   -0.001042   0.015531   0.027233  -0.004105   0.007361  -0.074827
              7          8          9         10         11         12
     1  C   -0.150137   0.288696   0.425441   0.420428   0.065631   0.006898
     2  C    0.903206  -1.476199  -0.070903  -0.143543   0.151708  -0.038844
     3  N   -0.044931   0.104485   0.010323   0.019533   0.003247  -0.029050
     4  C   -0.203102   0.137526  -0.002785   0.026692  -0.008395   0.374247
     5  C    0.104212  -0.110858  -0.047333  -0.026116   0.013500  -0.034294
     6  C   -0.952988   0.417439   0.008772   0.004624   0.020901   0.016565
     7  C    6.568987  -0.843029  -0.002979  -0.005391  -0.043392   0.004757
     8  C   -0.843029   6.984802   0.009089   0.029847   0.046427   0.008177
     9  H   -0.002979   0.009089   0.519553  -0.023566  -0.006290   0.001592
    10  H   -0.005391   0.029847  -0.023566   0.512976   0.002576  -0.000023
    11  H   -0.043392   0.046427  -0.006290   0.002576   0.569133   0.000631
    12  H    0.004757   0.008177   0.001592  -0.000023   0.000631   0.548533
    13  H   -0.000293  -0.004784  -0.000105  -0.000137  -0.000195  -0.031264
    14  H    0.001702   0.004933  -0.004730   0.000559  -0.000053  -0.002811
    15  H    0.011275   0.006367   0.004149  -0.004928  -0.000096   0.004106
    16  H    0.015594  -0.039241   0.000003  -0.000011  -0.000512  -0.000289
    17  H    0.420436  -0.038228   0.000008  -0.000007   0.000944   0.000009
    18  H   -0.145132   0.569023   0.000141   0.000385   0.004435   0.000018
    19  O   -0.012502   0.186054  -0.000451   0.005354   0.001628   0.000051
    20  H   -0.073931   0.138969   0.000007  -0.000015   0.004961   0.000000
    21  O    0.255804  -0.103227   0.000025  -0.000032  -0.000512   0.000014
    22  H    0.021031  -0.047639   0.000000  -0.000001  -0.000002   0.000000
    23  C    0.042591  -0.021627   0.000365   0.000192   0.013139   0.003465
    24  H    0.028518  -0.007066   0.000000   0.000000  -0.000007  -0.000005
    25  H    0.015623  -0.013201   0.000000   0.000000  -0.000039   0.000015
    26  O    0.040266  -0.020362  -0.000016   0.000003   0.000136   0.000102
    27  H    0.010219  -0.005001   0.000000   0.000000  -0.000029  -0.000798
             13         14         15         16         17         18
     1  C    0.014163  -0.035826  -0.055940   0.001200   0.014082   0.074279
     2  C    0.031960   0.021275   0.001459   0.056140  -0.018409  -0.250229
     3  N   -0.072549   0.011322   0.012851  -0.052733   0.050889   0.051092
     4  C    0.404761  -0.024142  -0.079828   0.053460   0.009944   0.009917
     5  C   -0.032979   0.359708   0.422906  -0.015239  -0.001345  -0.009948
     6  C    0.024570   0.002350   0.009633   0.215894  -0.211005   0.013890
     7  C   -0.000293   0.001702   0.011275   0.015594   0.420436  -0.145132
     8  C   -0.004784   0.004933   0.006367  -0.039241  -0.038228   0.569023
     9  H   -0.000105  -0.004730   0.004149   0.000003   0.000008   0.000141
    10  H   -0.000137   0.000559  -0.004928  -0.000011  -0.000007   0.000385
    11  H   -0.000195  -0.000053  -0.000096  -0.000512   0.000944   0.004435
    12  H   -0.031264  -0.002811   0.004106  -0.000289   0.000009   0.000018
    13  H    0.524512   0.000840  -0.005934   0.002951  -0.000015  -0.000038
    14  H    0.000840   0.513033  -0.022722  -0.000116   0.000000  -0.000062
    15  H   -0.005934  -0.022722   0.521377   0.000144   0.000003   0.000010
    16  H    0.002951  -0.000116   0.000144   0.552729   0.004088   0.000447
    17  H   -0.000015   0.000000   0.000003   0.004088   0.568295   0.004486
    18  H   -0.000038  -0.000062   0.000010   0.000447   0.004486   0.530182
    19  O   -0.000030   0.000020  -0.000098  -0.000818  -0.008824  -0.058310
    20  H    0.000000   0.000000   0.000000  -0.000003   0.004506   0.007020
    21  O   -0.000135  -0.000011  -0.000008   0.001513  -0.042807  -0.004335
    22  H    0.000000   0.000000   0.000000   0.000081  -0.005447  -0.000223
    23  C   -0.029234  -0.000927   0.000381   0.024950   0.077211   0.017424
    24  H   -0.000020   0.000000  -0.000001  -0.002576   0.000307  -0.000008
    25  H    0.000014   0.000000   0.000001   0.004544   0.003467  -0.000001
    26  O    0.001991   0.000034  -0.000178   0.000018   0.000080   0.000038
    27  H   -0.000195  -0.000005   0.000001   0.000270   0.000027   0.000000
             19         20         21         22         23         24
     1  C   -0.032367   0.023462  -0.007477  -0.000508   0.081439   0.000068
     2  C   -0.016679  -0.117288   0.026928   0.005941  -0.165413   0.011751
     3  N    0.017600   0.008597   0.015939  -0.004123   0.271635   0.012634
     4  C    0.003285  -0.000269  -0.002141  -0.000817   0.043693  -0.004112
     5  C   -0.003458  -0.000251   0.005238  -0.000047  -0.016540   0.001361
     6  C   -0.021582   0.006027  -0.138968   0.045864  -1.177447  -0.154531
     7  C   -0.012502  -0.073931   0.255804   0.021031   0.042591   0.028518
     8  C    0.186054   0.138969  -0.103227  -0.047639  -0.021627  -0.007066
     9  H   -0.000451   0.000007   0.000025   0.000000   0.000365   0.000000
    10  H    0.005354  -0.000015  -0.000032  -0.000001   0.000192   0.000000
    11  H    0.001628   0.004961  -0.000512  -0.000002   0.013139  -0.000007
    12  H    0.000051   0.000000   0.000014   0.000000   0.003465  -0.000005
    13  H   -0.000030   0.000000  -0.000135   0.000000  -0.029234  -0.000020
    14  H    0.000020   0.000000  -0.000011   0.000000  -0.000927   0.000000
    15  H   -0.000098   0.000000  -0.000008   0.000000   0.000381  -0.000001
    16  H   -0.000818  -0.000003   0.001513   0.000081   0.024950  -0.002576
    17  H   -0.008824   0.004506  -0.042807  -0.005447   0.077211   0.000307
    18  H   -0.058310   0.007020  -0.004335  -0.000223   0.017424  -0.000008
    19  O    8.221887   0.248937  -0.003553   0.006941   0.000845   0.000000
    20  H    0.248937   0.372062  -0.002146   0.000109   0.005149   0.000000
    21  O   -0.003553  -0.002146   8.273609   0.232025   0.039549   0.004739
    22  H    0.006941   0.000109   0.232025   0.371871  -0.013956  -0.000081
    23  C    0.000845   0.005149   0.039549  -0.013956   5.973772   0.487039
    24  H    0.000000   0.000000   0.004739  -0.000081   0.487039   0.539820
    25  H   -0.000029  -0.000001   0.000270  -0.000005   0.465844  -0.034140
    26  O    0.000101   0.000000  -0.000344   0.000008   0.210569  -0.059968
    27  H   -0.000001   0.000000   0.000056   0.000000   0.022306   0.006693
             25         26         27
     1  C    0.002673   0.005033  -0.001042
     2  C    0.007291   0.008735   0.015531
     3  N    0.012687   0.020918   0.027233
     4  C    0.011014  -0.011520  -0.004105
     5  C   -0.001735   0.000726   0.007361
     6  C   -0.151269  -0.134514  -0.074827
     7  C    0.015623   0.040266   0.010219
     8  C   -0.013201  -0.020362  -0.005001
     9  H    0.000000  -0.000016   0.000000
    10  H    0.000000   0.000003   0.000000
    11  H   -0.000039   0.000136  -0.000029
    12  H    0.000015   0.000102  -0.000798
    13  H    0.000014   0.001991  -0.000195
    14  H    0.000000   0.000034  -0.000005
    15  H    0.000001  -0.000178   0.000001
    16  H    0.004544   0.000018   0.000270
    17  H    0.003467   0.000080   0.000027
    18  H   -0.000001   0.000038   0.000000
    19  O   -0.000029   0.000101  -0.000001
    20  H   -0.000001   0.000000   0.000000
    21  O    0.000270  -0.000344   0.000056
    22  H   -0.000005   0.000008   0.000000
    23  C    0.465844   0.210569   0.022306
    24  H   -0.034140  -0.059968   0.006693
    25  H    0.567218  -0.043103  -0.006376
    26  O   -0.043103   8.270245   0.251945
    27  H   -0.006376   0.251945   0.372618
 Mulliken atomic charges:
              1
     1  C   -0.515379
     2  C    0.119637
     3  N   -0.226903
     4  C   -0.252790
     5  C   -0.250627
     6  C    0.063027
     7  C    0.033586
     8  C   -0.201372
     9  H    0.179690
    10  H    0.180600
    11  H    0.160525
    12  H    0.168198
    13  H    0.172144
    14  H    0.175630
    15  H    0.175069
    16  H    0.177514
    17  H    0.167305
    18  H    0.185499
    19  O   -0.534001
    20  H    0.374098
    21  O   -0.550011
    22  H    0.388980
    23  C   -0.356416
    24  H    0.169584
    25  H    0.159237
    26  O   -0.540943
    27  H    0.378123
 Sum of Mulliken atomic charges =   0.00000
 Mulliken charges with hydrogens summed into heavy atoms:
              1
     1  C   -0.155090
     2  C    0.280162
     3  N   -0.226903
     4  C    0.087552
     5  C    0.100071
     6  C    0.240541
     7  C    0.200890
     8  C   -0.015874
    19  O   -0.159903
    21  O   -0.161031
    23  C   -0.027595
    26  O   -0.162821
 Sum of Mulliken charges with hydrogens summed into heavy atoms =   0.00000
 Electronic spatial extent (au):  <R**2>=           2102.6617
 Charge=              0.0000 electrons
 Dipole moment (field-independent basis, Debye):
    X=              2.7504    Y=             -0.6730    Z=             -2.3567  Tot=              3.6839
 Quadrupole moment (field-independent basis, Debye-Ang):
   XX=            -89.8798   YY=            -65.6186   ZZ=            -71.5474
   XY=             -1.5184   XZ=              0.4705   YZ=             -5.5447
 Traceless Quadrupole moment (field-independent basis, Debye-Ang):
   XX=            -14.1979   YY=             10.0634   ZZ=              4.1345
   XY=             -1.5184   XZ=              0.4705   YZ=             -5.5447
 Octapole moment (field-independent basis, Debye-Ang**2):
  XXX=             28.7272  YYY=             17.5180  ZZZ=             -7.9461  XYY=              1.1483
  XXY=             -4.2732  XXZ=            -10.7122  XZZ=              7.5440  YZZ=              6.3736
  YYZ=            -11.5585  XYZ=             -4.3707
 Hexadecapole moment (field-independent basis, Debye-Ang**3):
 XXXX=          -1592.5854 YYYY=          -1000.2636 ZZZZ=           -248.9458 XXXY=            -45.6108
 XXXZ=              3.6579 YYYX=             50.5352 YYYZ=             -0.8627 ZZZX=            -11.2534
 ZZZY=            -13.6726 XXYY=           -408.2088 XXZZ=           -238.6990 YYZZ=           -223.3217
 XXYZ=              1.1707 YYXZ=              3.2482 ZZXY=             24.6352
 N-N= 7.998610090354D+02 E-N=-2.985235166233D+03  KE= 5.886618051306D+02
 1\1\GINC-COMPUTE-3-0\SP\RmPW1PW91\6-31+G(d,p)\C8H15N1O3\MAMICHETTI.IQU
 IR\17-May-2024\0\\# mpw1pw91/6-31+G** nmr scrf=(pcm,solvent=water)\\co
 mment\\0,1\C,0,-1.956591,1.621582,-0.164454\C,0,-1.138377,0.435524,-0.
 701448\N,0,0.308021,0.801737,-0.519778\C,0,0.348215,2.087399,0.226882\
 C,0,-1.027154,2.243309,0.887491\C,0,0.990486,-0.321121,0.175341\C,0,0.
 061744,-1.522906,-0.013139\C,0,-1.324751,-0.883541,0.063834\H,0,-2.152
 963,2.342382,-0.967015\H,0,-2.922702,1.296313,0.235607\H,0,-1.356643,0
 .250802,-1.76234\H,0,0.522116,2.917255,-0.470954\H,0,1.178313,2.084078
 ,0.9381\H,0,-1.272808,3.28414,1.121433\H,0,-1.066705,1.667584,1.820524
 \H,0,1.067119,-0.126377,1.257089\H,0,0.194484,-1.95422,-1.01897\H,0,-1
 .552261,-0.684837,1.117888\O,0,-2.39159,-1.705017,-0.402657\H,0,-2.218
 899,-1.896133,-1.341475\O,0,0.3208,-2.511152,0.980333\H,0,-0.292794,-3
 .246056,0.810442\C,0,2.39749,-0.56117,-0.36376\H,0,2.861104,-1.391936,
 0.178445\H,0,2.3451,-0.83462,-1.42759\O,0,3.260446,0.565986,-0.178081\
 H,0,2.887782,1.28648,-0.713985\\Version=AM64L-G09RevC.01\State=1-A\HF=
 -594.1991795\RMSD=4.433e-09\Dipole=-1.0820883,0.2647661,-0.9271846\Qua
 drupole=-10.5557732,7.4818571,3.0739161,-1.1289048,-0.3498022,4.122361
 3\PG=C01 [X(C8H15N1O3)]\\@


 WE TEND TO MEET ANY NEW SITUATION BY REORGANIZING. IT CAN BE A
 WONDERFUL METHOD FOR CREATING THE ILLUSION OF PROGRESS WHILE PRODUCING
 CONFUSION, INEFFICIENCY, AND DEMORALIZATION.
     -- PETRONIUS ARBITER, 210 B.C.
 Job cpu time:  0 days  0 hours  8 minutes 44.7 seconds.
 File lengths (MBytes):  RWF=    113 Int=      0 D2E=      0 Chk=      7 Scr=      1
 Normal termination of Gaussian 09 at Fri May 17 12:34:16 2024.
