 Entering Gaussian System, Link 0=g09
 Input=/home/mamichetti.iquir/Linux/02_Cardona_A1A3_R__R_R_R_038_OptB.gjc
 Output=/home/mamichetti.iquir/Linux/02_Cardona_A1A3_R__R_R_R_038_OptB.log
 Initial command:
 /opt/ohpc/pub/apps/software/Gaussian/09/AMD64.SSE4a-enabled/g09/l1.exe /local/mamichetti.iquir/Gau-712767.inp -scrdir=/local/mamichetti.iquir/
 Entering Link 1 = /opt/ohpc/pub/apps/software/Gaussian/09/AMD64.SSE4a-enabled/g09/l1.exe PID=    712768.
  
 Copyright (c) 1988,1990,1992,1993,1995,1998,2003,2009,2011,
            Gaussian, Inc.  All Rights Reserved.
  
 This is part of the Gaussian(R) 09 program.  It is based on
 the Gaussian(R) 03 system (copyright 2003, Gaussian, Inc.),
 the Gaussian(R) 98 system (copyright 1998, Gaussian, Inc.),
 the Gaussian(R) 94 system (copyright 1995, Gaussian, Inc.),
 the Gaussian 92(TM) system (copyright 1992, Gaussian, Inc.),
 the Gaussian 90(TM) system (copyright 1990, Gaussian, Inc.),
 the Gaussian 88(TM) system (copyright 1988, Gaussian, Inc.),
 the Gaussian 86(TM) system (copyright 1986, Carnegie Mellon
 University), and the Gaussian 82(TM) system (copyright 1983,
 Carnegie Mellon University). Gaussian is a federally registered
 trademark of Gaussian, Inc.
  
 This software contains proprietary and confidential information,
 including trade secrets, belonging to Gaussian, Inc.
  
 This software is provided under written license and may be
 used, copied, transmitted, or stored only in accord with that
 written license.
  
 The following legend is applicable only to US Government
 contracts under FAR:
  
                    RESTRICTED RIGHTS LEGEND
  
 Use, reproduction and disclosure by the US Government is
 subject to restrictions as set forth in subparagraphs (a)
 and (c) of the Commercial Computer Software - Restricted
 Rights clause in FAR 52.227-19.
  
 Gaussian, Inc.
 340 Quinnipiac St., Bldg. 40, Wallingford CT 06492
  
  
 ---------------------------------------------------------------
 Warning -- This program may not be used in any manner that
 competes with the business of Gaussian, Inc. or will provide
 assistance to any competitor of Gaussian, Inc.  The licensee
 of this program is prohibited from giving any competitor of
 Gaussian, Inc. access to this program.  By using this program,
 the user acknowledges that Gaussian, Inc. is engaged in the
 business of creating and licensing software in the field of
 computational chemistry and represents and warrants to the
 licensee that it is not a competitor of Gaussian, Inc. and that
 it will not use this program in any manner prohibited above.
 ---------------------------------------------------------------
  

 Cite this work as:
 Gaussian 09, Revision C.01,
 M. J. Frisch, G. W. Trucks, H. B. Schlegel, G. E. Scuseria, 
 M. A. Robb, J. R. Cheeseman, G. Scalmani, V. Barone, B. Mennucci, 
 G. A. Petersson, H. Nakatsuji, M. Caricato, X. Li, H. P. Hratchian, 
 A. F. Izmaylov, J. Bloino, G. Zheng, J. L. Sonnenberg, M. Hada, 
 M. Ehara, K. Toyota, R. Fukuda, J. Hasegawa, M. Ishida, T. Nakajima, 
 Y. Honda, O. Kitao, H. Nakai, T. Vreven, J. A. Montgomery, Jr., 
 J. E. Peralta, F. Ogliaro, M. Bearpark, J. J. Heyd, E. Brothers, 
 K. N. Kudin, V. N. Staroverov, T. Keith, R. Kobayashi, J. Normand, 
 K. Raghavachari, A. Rendell, J. C. Burant, S. S. Iyengar, J. Tomasi, 
 M. Cossi, N. Rega, J. M. Millam, M. Klene, J. E. Knox, J. B. Cross, 
 V. Bakken, C. Adamo, J. Jaramillo, R. Gomperts, R. E. Stratmann, 
 O. Yazyev, A. J. Austin, R. Cammi, C. Pomelli, J. W. Ochterski, 
 R. L. Martin, K. Morokuma, V. G. Zakrzewski, G. A. Voth, 
 P. Salvador, J. J. Dannenberg, S. Dapprich, A. D. Daniels, 
 O. Farkas, J. B. Foresman, J. V. Ortiz, J. Cioslowski, 
 and D. J. Fox, Gaussian, Inc., Wallingford CT, 2010.
 
 ******************************************
 Gaussian 09:  AM64L-G09RevC.01 23-Sep-2011
                17-May-2024 
 ******************************************
 %nprocshared=4
 Will use up to    4 processors via shared memory.
 ------------------------------------------------
 # mpw1pw91/6-31+G** nmr scrf=(pcm,solvent=water)
 ------------------------------------------------
 1/38=1/1;
 2/12=2,17=6,18=5,40=1/2;
 3/5=1,6=6,7=111,11=2,16=1,25=1,30=1,70=2201,72=1,74=-7/1,2,8,3;
 4//1;
 5/5=2,38=5,53=1/2;
 8/6=1,10=90,11=11/1;
 10/13=100,45=16/2;
 6/7=2,8=2,9=2,10=2,28=1/1;
 99/9=1/99;
 -------
 comment
 -------
 Charge =  0 Multiplicity = 1
 Symbolic Z-Matrix:
 6                    -1.98984   1.60495  -0.05777 
 6                    -1.20683   0.42379  -0.6628 
 7                     0.24858   0.79243  -0.59603 
 6                     0.33562   2.11617   0.06556 
 6                    -0.96343   2.27937   0.8646 
 6                     0.97237  -0.289     0.11451 
 6                     0.06765  -1.51344  -0.04176 
 6                    -1.32776  -0.90485   0.09952 
 1                    -2.29931   2.29901  -0.84793 
 1                    -2.89346   1.26706   0.46058 
 1                    -1.50849   0.24874  -1.70479 
 1                     0.40599   2.90377  -0.69698 
 1                     1.24004   2.17395   0.67601 
 1                    -1.20218   3.32456   1.08662 
 1                    -0.89178   1.73942   1.81732 
 1                     1.04961  -0.07644   1.19571 
 1                     0.17033  -1.93604  -1.05447 
 1                    -1.51195  -0.71948   1.16444 
 8                    -2.39587  -1.74754  -0.32483 
 1                    -2.26982  -1.91387  -1.27573 
 8                     0.38634  -2.50122   0.93442 
 1                    -0.21069  -3.25223   0.77607 
 6                     2.384    -0.52303  -0.41368 
 1                     2.7876   -1.44039   0.03928 
 1                     2.35746  -0.66302  -1.49897 
 8                     3.26917   0.57902  -0.17938 
 1                     3.32875   0.692     0.78429 
 
                          Input orientation:                          
 ---------------------------------------------------------------------
 Center     Atomic      Atomic             Coordinates (Angstroms)
 Number     Number       Type             X           Y           Z
 ---------------------------------------------------------------------
      1          6           0       -1.989840    1.604953   -0.057765
      2          6           0       -1.206825    0.423792   -0.662802
      3          7           0        0.248581    0.792434   -0.596026
      4          6           0        0.335617    2.116165    0.065564
      5          6           0       -0.963433    2.279366    0.864601
      6          6           0        0.972374   -0.288996    0.114509
      7          6           0        0.067650   -1.513440   -0.041762
      8          6           0       -1.327756   -0.904845    0.099518
      9          1           0       -2.299312    2.299006   -0.847925
     10          1           0       -2.893456    1.267061    0.460583
     11          1           0       -1.508488    0.248735   -1.704794
     12          1           0        0.405992    2.903766   -0.696984
     13          1           0        1.240043    2.173949    0.676009
     14          1           0       -1.202179    3.324563    1.086622
     15          1           0       -0.891781    1.739422    1.817322
     16          1           0        1.049615   -0.076437    1.195705
     17          1           0        0.170326   -1.936042   -1.054466
     18          1           0       -1.511945   -0.719478    1.164438
     19          8           0       -2.395867   -1.747536   -0.324830
     20          1           0       -2.269817   -1.913868   -1.275731
     21          8           0        0.386337   -2.501219    0.934417
     22          1           0       -0.210690   -3.252232    0.776073
     23          6           0        2.383998   -0.523025   -0.413682
     24          1           0        2.787600   -1.440392    0.039283
     25          1           0        2.357460   -0.663023   -1.498973
     26          8           0        3.269169    0.579021   -0.179380
     27          1           0        3.328750    0.691998    0.784286
 ---------------------------------------------------------------------
                    Distance matrix (angstroms):
                    1          2          3          4          5
     1  C    0.000000
     2  C    1.540884   0.000000
     3  N    2.441401   1.502851   0.000000
     4  C    2.384177   2.402867   1.482410   0.000000
     5  C    1.535937   2.415648   2.411094   1.533827   0.000000
     6  C    3.520147   2.420989   1.482642   2.488504   3.302495
     7  C    3.736027   2.400593   2.378445   3.641065   4.033609
     8  C    2.600419   1.536565   2.418548   3.448835   3.295039
     9  H    1.096282   2.178124   2.970685   2.794771   2.172028
    10  H    1.095161   2.194953   3.348745   3.362132   2.216524
    11  H    2.187174   1.098814   2.147619   3.165784   3.319991
    12  H    2.799201   2.958482   2.119597   1.098521   2.168813
    13  H    3.360703   3.292815   2.123595   1.092689   2.214043
    14  H    2.210676   3.387474   3.368633   2.206264   1.094865
    15  H    2.177101   2.825093   2.832218   2.171888   1.097429
    16  H    3.692769   2.965771   2.146367   2.567979   3.116376
    17  H    4.265955   2.760211   2.767828   4.207395   4.768427
    18  H    2.669296   2.176918   2.912827   3.558354   3.063304
    19  O    3.387531   2.498542   3.676697   4.747799   4.436502
    20  H    3.734157   2.640130   3.758776   4.982823   4.885783
    21  O    4.846781   3.693909   3.634471   4.698693   4.967972
    22  H    5.239552   4.071339   4.295685   5.442698   5.583282
    23  C    4.877030   3.721899   2.514694   3.375036   4.548923
    24  H    5.666346   4.463579   3.440312   4.319955   5.346775
    25  H    5.110755   3.818963   2.716807   3.776177   5.027173
    26  O    5.359524   4.504699   3.056647   3.320924   4.679315
    27  H    5.461679   4.768379   3.376802   3.391704   4.577010
                    6          7          8          9         10
     6  C    0.000000
     7  C    1.530428   0.000000
     8  C    2.381196   1.528890   0.000000
     9  H    4.281117   4.559293   3.479401   0.000000
    10  H    4.181593   4.092882   2.701659   1.769212   0.000000
    11  H    3.123091   2.890527   2.149175   2.358652   2.764775
    12  H    3.342610   4.478337   4.259791   2.776182   3.860715
    13  H    2.540281   3.935294   4.050297   3.855522   4.237295
    14  H    4.327989   5.127571   4.344886   2.449069   2.735993
    15  H    3.238692   3.867533   3.183249   3.065586   2.463852
    16  H    1.104596   2.135546   2.745866   4.586335   4.230035
    17  H    2.173142   1.102136   2.153903   4.906873   4.684229
    18  H    2.731210   2.140190   1.096513   3.712250   2.519984
    19  O    3.696675   2.490752   1.425153   4.081354   3.154721
    20  H    3.883913   2.673345   1.948568   4.234642   3.677230
    21  O    2.430971   1.424849   2.486681   5.782008   5.018117
    22  H    3.258539   1.941578   2.686222   6.149468   5.265052
    23  C    1.525266   2.546510   3.766468   5.485054   5.640946
    24  H    2.150911   2.722137   4.150493   6.375493   6.307313
    25  H    2.159093   2.844275   4.024235   5.557248   5.927664
    26  O    2.472871   3.827147   4.838529   5.866283   6.233851
    27  H    2.638837   4.022572   4.970097   6.076320   6.257102
                   11         12         13         14         15
    11  H    0.000000
    12  H    3.424924   0.000000
    13  H    4.114498   1.764478   0.000000
    14  H    4.164919   2.438142   2.730744   0.000000
    15  H    3.873987   3.059681   2.456844   1.772834   0.000000
    16  H    3.881047   3.588611   2.317452   4.080352   2.729976
    17  H    2.831006   4.858711   4.585942   5.843115   4.783751
    18  H    3.028191   4.502363   4.022924   4.056634   2.618597
    19  O    2.583958   5.442750   5.440548   5.398451   4.360042
    20  H    2.332503   5.541164   5.730502   5.844803   4.981213
    21  O    4.256530   5.645859   4.759494   6.040388   4.516209
    22  H    4.482828   6.359757   5.617658   6.658357   5.144385
    23  C    4.173012   3.966820   3.125656   5.469507   4.563636
    24  H    4.934706   5.008578   3.982940   6.302385   5.177884
    25  H    3.977338   4.144080   3.745341   5.937775   5.227535
    26  O    5.026130   3.724263   2.718977   5.397566   4.758871
    27  H    5.458102   3.953302   2.563318   5.248916   4.469580
                   16         17         18         19         20
    16  H    0.000000
    17  H    3.048696   0.000000
    18  H    2.641225   3.038684   0.000000
    19  O    4.120187   2.674556   2.013986   0.000000
    20  H    4.527999   2.450255   2.820525   0.973534   0.000000
    21  O    2.527405   2.078880   2.613615   3.145537   3.504981
    22  H    3.442402   2.286570   2.873836   2.872472   3.200175
    23  C    2.137790   2.703251   4.208020   4.935021   4.933109
    24  H    2.493647   2.879597   4.502419   5.205309   5.246990
    25  H    3.052185   2.569381   4.697791   5.014868   4.798556
    26  O    2.692007   4.085847   5.133322   6.125900   6.172264
    27  H    2.440126   4.501471   5.056591   6.320815   6.509851
                   21         22         23         24         25
    21  O    0.000000
    22  H    0.972386   0.000000
    23  C    3.117895   3.949240   0.000000
    24  H    2.773569   3.579856   1.099834   0.000000
    25  H    3.631209   4.298282   1.094605   1.776388   0.000000
    26  O    4.363387   5.263156   1.432805   2.087523   2.028599
    27  H    4.344763   5.299496   1.950375   2.322705   2.827147
                   26         27
    26  O    0.000000
    27  H    0.972094   0.000000
 Stoichiometry    C8H15NO3
 Framework group  C1[X(C8H15NO3)]
 Deg. of freedom    75
 Full point group                 C1      NOp   1
 Largest Abelian subgroup         C1      NOp   1
 Largest concise Abelian subgroup C1      NOp   1
                         Standard orientation:                         
 ---------------------------------------------------------------------
 Center     Atomic      Atomic             Coordinates (Angstroms)
 Number     Number       Type             X           Y           Z
 ---------------------------------------------------------------------
      1          6           0       -1.989840    1.604952   -0.057765
      2          6           0       -1.206825    0.423792   -0.662802
      3          7           0        0.248581    0.792434   -0.596026
      4          6           0        0.335617    2.116165    0.065564
      5          6           0       -0.963434    2.279366    0.864601
      6          6           0        0.972374   -0.288996    0.114509
      7          6           0        0.067650   -1.513440   -0.041762
      8          6           0       -1.327756   -0.904845    0.099518
      9          1           0       -2.299313    2.299005   -0.847925
     10          1           0       -2.893456    1.267060    0.460583
     11          1           0       -1.508488    0.248735   -1.704794
     12          1           0        0.405991    2.903766   -0.696984
     13          1           0        1.240042    2.173949    0.676009
     14          1           0       -1.202180    3.324563    1.086622
     15          1           0       -0.891781    1.739422    1.817322
     16          1           0        1.049615   -0.076437    1.195705
     17          1           0        0.170326   -1.936042   -1.054466
     18          1           0       -1.511945   -0.719478    1.164438
     19          8           0       -2.395867   -1.747537   -0.324830
     20          1           0       -2.269817   -1.913869   -1.275731
     21          8           0        0.386337   -2.501219    0.934417
     22          1           0       -0.210689   -3.252232    0.776073
     23          6           0        2.383998   -0.523025   -0.413682
     24          1           0        2.787600   -1.440392    0.039283
     25          1           0        2.357460   -0.663023   -1.498973
     26          8           0        3.269169    0.579021   -0.179380
     27          1           0        3.328750    0.691999    0.784286
 ---------------------------------------------------------------------
 Rotational constants (GHZ):      1.0863549      0.9114741      0.5568819
 Standard basis: 6-31+G(d,p) (6D, 7F)
 There are   303 symmetry adapted basis functions of A   symmetry.
 Integral buffers will be    131072 words long.
 Raffenetti 2 integral format.
 Two-electron integral symmetry is turned on.
   303 basis functions,   489 primitive gaussians,   303 cartesian basis functions
    47 alpha electrons       47 beta electrons
       nuclear repulsion energy       798.7306498032 Hartrees.
 NAtoms=   27 NActive=   27 NUniq=   27 SFac= 1.00D+00 NAtFMM=   60 NAOKFM=F Big=F
 ------------------------------------------------------------------------------
 Polarizable Continuum Model (PCM)
 =================================
 Model                : PCM.
 Atomic radii         : UFF (Universal Force Field).
 Polarization charges : Total charges.
 Charge compensation  : None.
 Solution method      : Matrix inversion.
 Cavity type          : Scaled VdW (van der Waals Surface) (Alpha=1.100).
 Cavity algorithm     : GePol (No added spheres)
                        Default sphere list used, NSphG=   27.
                        Lebedev-Laikov grids with approx.  5.0 points / Ang**2.
                        Smoothing algorithm: Karplus/York (Gamma=1.0000).
                        Polarization charges: spherical gaussians, with
                                              point-specific exponents (IZeta= 3).
                        Self-potential: point-specific (ISelfS= 7).
                        Self-field    : sphere-specific E.n sum rule (ISelfD= 2).
 Solvent              : Water, Eps=  78.355300 Eps(inf)=   1.777849
 ------------------------------------------------------------------------------
 One-electron integrals computed using PRISM.
 NBasis=   303 RedAO= T  NBF=   303
 NBsUse=   303 1.00D-06 NBFU=   303
 Harris functional with IExCor=  908 diagonalized for initial guess.
 ExpMin= 4.38D-02 ExpMax= 5.48D+03 ExpMxC= 8.25D+02 IAcc=2 IRadAn=         4 AccDes= 0.00D+00
 HarFok:  IExCor=  908 AccDes= 0.00D+00 IRadAn=         4 IDoV= 1
 ScaDFX=  1.000000  1.000000  1.000000  1.000000
 FoFCou: FMM=F IPFlag=           0 FMFlag=      100000 FMFlg1=           0
         NFxFlg=           0 DoJE=T BraDBF=F KetDBF=T FulRan=T
         Omega=  0.000000  0.000000  1.000000  0.000000  0.000000 ICntrl=     500 IOpCl=  0
         NMat0=    1 NMatS0=    1 NMatT0=    0 NMatD0=    1 NMtDS0=    0 NMtDT0=    0
         I1Cent=           4 NGrid=           0.
 Petite list used in FoFCou.
 Initial guess orbital symmetries:
       Occupied  (A) (A) (A) (A) (A) (A) (A) (A) (A) (A) (A) (A)
                 (A) (A) (A) (A) (A) (A) (A) (A) (A) (A) (A) (A)
                 (A) (A) (A) (A) (A) (A) (A) (A) (A) (A) (A) (A)
                 (A) (A) (A) (A) (A) (A) (A) (A) (A) (A) (A)
       Virtual   (A) (A) (A) (A) (A) (A) (A) (A) (A) (A) (A) (A)
                 (A) (A) (A) (A) (A) (A) (A) (A) (A) (A) (A) (A)
                 (A) (A) (A) (A) (A) (A) (A) (A) (A) (A) (A) (A)
                 (A) (A) (A) (A) (A) (A) (A) (A) (A) (A) (A) (A)
                 (A) (A) (A) (A) (A) (A) (A) (A) (A) (A) (A) (A)
                 (A) (A) (A) (A) (A) (A) (A) (A) (A) (A) (A) (A)
                 (A) (A) (A) (A) (A) (A) (A) (A) (A) (A) (A) (A)
                 (A) (A) (A) (A) (A) (A) (A) (A) (A) (A) (A) (A)
                 (A) (A) (A) (A) (A) (A) (A) (A) (A) (A) (A) (A)
                 (A) (A) (A) (A) (A) (A) (A) (A) (A) (A) (A) (A)
                 (A) (A) (A) (A) (A) (A) (A) (A) (A) (A) (A) (A)
                 (A) (A) (A) (A) (A) (A) (A) (A) (A) (A) (A) (A)
                 (A) (A) (A) (A) (A) (A) (A) (A) (A) (A) (A) (A)
                 (A) (A) (A) (A) (A) (A) (A) (A) (A) (A) (A) (A)
                 (A) (A) (A) (A) (A) (A) (A) (A) (A) (A) (A) (A)
                 (A) (A) (A) (A) (A) (A) (A) (A) (A) (A) (A) (A)
                 (A) (A) (A) (A) (A) (A) (A) (A) (A) (A) (A) (A)
                 (A) (A) (A) (A) (A) (A) (A) (A) (A) (A) (A) (A)
                 (A) (A) (A) (A) (A) (A) (A) (A) (A) (A) (A) (A)
                 (A) (A) (A) (A) (A) (A) (A) (A) (A) (A) (A) (A)
                 (A) (A) (A) (A) (A) (A) (A) (A) (A) (A) (A) (A)
                 (A) (A) (A) (A)
 The electronic state of the initial guess is 1-A.
 Requested convergence on RMS density matrix=1.00D-08 within 128 cycles.
 Requested convergence on MAX density matrix=1.00D-06.
 Requested convergence on             energy=1.00D-06.
 No special actions if energy rises.
 Error on total polarization charges =  0.01454
 SCF Done:  E(RmPW1PW91) =  -594.197618659     A.U. after   13 cycles
             Convg  =    0.4776D-08             -V/T =  2.0094
 Range of M.O.s used for correlation:     1   303
 NBasis=   303 NAE=    47 NBE=    47 NFC=     0 NFV=     0
 NROrb=    303 NOA=    47 NOB=    47 NVA=   256 NVB=   256

 **** Warning!!: The largest alpha MO coefficient is  0.55597318D+02

 NEqPCM:  Using equilibrium solvation (IEInf=0, Eps=  78.3553, EpsInf=   1.7778)
          Differentiating once with respect to magnetic field using GIAOs.
          Electric field/nuclear overlap derivatives assumed to be zero.
 FoFCou: FMM=F IPFlag=           0 FMFlag=    10101102 FMFlg1=           0
         NFxFlg=    40000000 DoJE=F BraDBF=F KetDBF=T FulRan=T
         Omega=  0.000000  0.000000  1.000000  0.000000  0.000000 ICntrl=    6100 IOpCl=  0
         NMat0=    1 NMatS0=    1 NMatT0=    0 NMatD0=    1 NMtDS0=    0 NMtDT0=    0
         I1Cent=           7 NGrid=        1826.
 Symmetry not used in FoFCou.
          There are     3 degrees of freedom in the 1st order CPHF.  IDoFFX=0.
      3 vectors produced by pass  0 Test12= 4.01D-13 3.33D-08 XBig12= 2.96D+01 9.49D-01.
 AX will form     3 AO Fock derivatives at one time.
      3 vectors produced by pass  1 Test12= 4.01D-13 3.33D-08 XBig12= 7.34D-02 4.63D-02.
      3 vectors produced by pass  2 Test12= 4.01D-13 3.33D-08 XBig12= 1.64D-04 3.30D-03.
      3 vectors produced by pass  3 Test12= 4.01D-13 3.33D-08 XBig12= 8.73D-07 2.28D-04.
      3 vectors produced by pass  4 Test12= 4.01D-13 3.33D-08 XBig12= 2.68D-09 1.02D-05.
      3 vectors produced by pass  5 Test12= 4.01D-13 3.33D-08 XBig12= 8.88D-12 7.24D-07.
 Inverted reduced A of dimension    18 with in-core refinement.
 Calculating GIAO nuclear magnetic shielding tensors.
 SCF GIAO Magnetic shielding tensor (ppm):
      1  C    Isotropic =   164.2702   Anisotropy =    23.2433
   XX=   170.0978   YX=    -0.9331   ZX=    -5.4659
   XY=    -6.5322   YY=   167.6269   ZY=    12.8576
   XZ=     5.3390   YZ=    19.5903   ZZ=   155.0859
   Eigenvalues:   143.8000   169.2448   179.7657
      2  C    Isotropic =   126.7268   Anisotropy =    55.7450
   XX=   151.4750   YX=    16.4000   ZX=    -1.4032
   XY=    25.4979   YY=   127.9800   ZY=    11.8480
   XZ=     3.2203   YZ=    -3.0073   ZZ=   100.7255
   Eigenvalues:    99.8722   116.4181   163.8902
      3  N    Isotropic =   195.4060   Anisotropy =    73.2220
   XX=   234.8346   YX=   -12.4624   ZX=    12.1739
   XY=   -23.3190   YY=   206.7429   ZY=     9.8455
   XZ=    13.2224   YZ=     5.2028   ZZ=   144.6404
   Eigenvalues:   141.3183   200.6789   244.2206
      4  C    Isotropic =   138.4427   Anisotropy =    57.0425
   XX=   130.4377   YX=    -3.2801   ZX=     4.6178
   XY=     6.5378   YY=   163.3569   ZY=    24.8326
   XZ=   -10.7820   YZ=    28.8495   ZZ=   121.5335
   Eigenvalues:   107.8814   130.9757   176.4711
      5  C    Isotropic =   171.5033   Anisotropy =    19.1766
   XX=   181.8480   YX=     3.8530   ZX=    -5.3476
   XY=     4.3208   YY=   171.5702   ZY=    12.8963
   XZ=    -5.4420   YZ=    21.4447   ZZ=   161.0916
   Eigenvalues:   147.0622   183.1599   184.2877
      6  C    Isotropic =   124.9692   Anisotropy =    33.1795
   XX=   120.3171   YX=    -4.8825   ZX=     3.4003
   XY=    -4.6342   YY=   140.5023   ZY=   -15.9657
   XZ=    22.3751   YZ=    -4.2591   ZZ=   114.0881
   Eigenvalues:   103.1998   124.6188   147.0888
      7  C    Isotropic =   117.0515   Anisotropy =    37.6164
   XX=   121.8069   YX=    -8.6727   ZX=     6.3193
   XY=    -9.1936   YY=   124.1435   ZY=   -27.6979
   XZ=     4.6495   YZ=   -12.1263   ZZ=   105.2041
   Eigenvalues:    92.6239   116.4015   142.1291
      8  C    Isotropic =   111.7471   Anisotropy =    27.3631
   XX=   128.4870   YX=     5.5849   ZX=    14.9564
   XY=    -1.0241   YY=   117.6703   ZY=     3.2763
   XZ=    -1.0503   YZ=    -6.8083   ZZ=    89.0839
   Eigenvalues:    87.7415   117.5105   129.9892
      9  H    Isotropic =    29.8107   Anisotropy =    11.8224
   XX=    28.6808   YX=    -3.8141   ZX=     3.7647
   XY=    -4.9197   YY=    30.8483   ZY=    -3.1909
   XZ=     4.7603   YZ=    -3.1268   ZZ=    29.9028
   Eigenvalues:    24.5252    27.2145    37.6923
     10  H    Isotropic =    29.7351   Anisotropy =     9.3943
   XX=    35.1780   YX=     0.5258   ZX=    -3.0578
   XY=     1.0755   YY=    27.9922   ZY=     0.5441
   XZ=    -2.4335   YZ=     0.1042   ZZ=    26.0350
   Eigenvalues:    25.1740    28.0332    35.9980
     11  H    Isotropic =    28.5240   Anisotropy =     7.0320
   XX=    28.2871   YX=     0.2901   ZX=     3.1713
   XY=     0.0753   YY=    26.2396   ZY=     1.2422
   XZ=     2.8788   YZ=     1.4654   ZZ=    31.0454
   Eigenvalues:    25.5883    26.7718    33.2120
     12  H    Isotropic =    28.6643   Anisotropy =    11.3258
   XX=    25.2184   YX=     1.3795   ZX=    -2.4488
   XY=     2.1956   YY=    34.4358   ZY=    -3.7735
   XZ=    -3.4811   YZ=    -2.6139   ZZ=    26.3387
   Eigenvalues:    22.7155    27.0625    36.2148
     13  H    Isotropic =    28.7135   Anisotropy =     7.4518
   XX=    32.7207   YX=     1.0309   ZX=     1.3881
   XY=     1.1665   YY=    28.8951   ZY=     3.8287
   XZ=     1.6024   YZ=     2.5706   ZZ=    24.5247
   Eigenvalues:    22.7670    29.6921    33.6813
     14  H    Isotropic =    30.0887   Anisotropy =    12.6126
   XX=    27.1981   YX=    -2.0640   ZX=    -0.6141
   XY=    -2.4358   YY=    36.0700   ZY=     4.6118
   XZ=    -0.9374   YZ=     4.5982   ZZ=    26.9980
   Eigenvalues:    25.0564    26.7126    38.4971
     15  H    Isotropic =    29.8850   Anisotropy =     8.8825
   XX=    27.1053   YX=    -0.1181   ZX=    -0.1029
   XY=    -0.4183   YY=    26.7960   ZY=    -1.1429
   XZ=    -0.1189   YZ=    -0.2255   ZZ=    35.7538
   Eigenvalues:    26.5947    27.2536    35.8067
     16  H    Isotropic =    29.0239   Anisotropy =     5.3578
   XX=    29.4933   YX=    -1.8165   ZX=     1.4813
   XY=    -1.7867   YY=    28.2116   ZY=    -2.4477
   XZ=     1.9765   YZ=    -1.0442   ZZ=    29.3669
   Eigenvalues:    26.7759    27.7000    32.5958
     17  H    Isotropic =    28.1782   Anisotropy =     1.8160
   XX=    26.2455   YX=    -1.0498   ZX=     0.0405
   XY=     0.1480   YY=    28.9348   ZY=    -0.6868
   XZ=    -0.2527   YZ=     0.8765   ZZ=    29.3541
   Eigenvalues:    26.1694    28.9763    29.3888
     18  H    Isotropic =    28.2134   Anisotropy =     3.5468
   XX=    27.2564   YX=     1.8579   ZX=     0.2414
   XY=     1.6883   YY=    29.6265   ZY=     0.9457
   XZ=    -0.7424   YZ=    -0.4436   ZZ=    27.7572
   Eigenvalues:    26.2331    27.8290    30.5779
     19  O    Isotropic =   292.8890   Anisotropy =    91.2898
   XX=   266.6112   YX=    10.7771   ZX=   -14.1962
   XY=    19.7661   YY=   270.3092   ZY=    23.5016
   XZ=    12.4666   YZ=    39.0479   ZZ=   341.7465
   Eigenvalues:   247.3643   277.5538   353.7488
     20  H    Isotropic =    30.9122   Anisotropy =    16.4527
   XX=    26.7313   YX=     3.5268   ZX=     1.5268
   XY=     2.7363   YY=    26.4208   ZY=     5.8528
   XZ=     0.8946   YZ=     5.0621   ZZ=    39.5846
   Eigenvalues:    22.7340    28.1220    41.8807
     21  O    Isotropic =   299.3835   Anisotropy =    41.8391
   XX=   278.3476   YX=    22.7023   ZX=   -16.9169
   XY=    13.9622   YY=   306.4296   ZY=    -1.7366
   XZ=     6.7695   YZ=   -21.8097   ZZ=   313.3732
   Eigenvalues:   269.2862   301.5880   327.2762
     22  H    Isotropic =    29.3874   Anisotropy =    18.9661
   XX=    27.4243   YX=     6.5376   ZX=     3.5173
   XY=     7.5648   YY=    38.6172   ZY=    -1.8372
   XZ=     1.8413   YZ=    -1.6482   ZZ=    22.1205
   Eigenvalues:    19.7553    26.3754    42.0314
     23  C    Isotropic =   125.2430   Anisotropy =    48.3588
   XX=   141.9965   YX=    15.7636   ZX=     0.5715
   XY=    21.5487   YY=   129.9760   ZY=    16.1896
   XZ=     3.3766   YZ=    11.8559   ZZ=   103.7563
   Eigenvalues:    96.8172   121.4296   157.4821
     24  H    Isotropic =    27.5381   Anisotropy =     5.3817
   XX=    30.2082   YX=     0.4553   ZX=     0.0967
   XY=    -1.4260   YY=    30.7475   ZY=    -1.1475
   XZ=     0.5742   YZ=    -0.6299   ZZ=    21.6585
   Eigenvalues:    21.5629    29.9255    31.1259
     25  H    Isotropic =    28.2294   Anisotropy =     5.1647
   XX=    28.6156   YX=     1.5235   ZX=    -0.8419
   XY=     1.4131   YY=    27.3544   ZY=     4.6471
   XZ=    -2.0349   YZ=     2.4716   ZZ=    28.7184
   Eigenvalues:    23.5788    29.4370    31.6726
     26  O    Isotropic =   305.4307   Anisotropy =    83.5019
   XX=   291.3577   YX=     3.4439   ZX=   -12.2610
   XY=     8.6797   YY=   271.2443   ZY=    17.0258
   XZ=     9.1881   YZ=    34.5739   ZZ=   353.6902
   Eigenvalues:   262.4833   292.7102   361.0987
     27  H    Isotropic =    31.0818   Anisotropy =    16.0045
   XX=    28.1335   YX=     3.7100   ZX=     3.5159
   XY=     3.1135   YY=    25.5908   ZY=     4.4175
   XZ=     3.3111   YZ=     3.0461   ZZ=    39.5211
   Eigenvalues:    23.1259    28.3682    41.7515
 End of Minotr Frequency-dependent properties file   721 does not exist.
 End of Minotr Frequency-dependent properties file   722 does not exist.

 **********************************************************************

            Population analysis using the SCF density.

 **********************************************************************

 Orbital symmetries:
       Occupied  (A) (A) (A) (A) (A) (A) (A) (A) (A) (A) (A) (A)
                 (A) (A) (A) (A) (A) (A) (A) (A) (A) (A) (A) (A)
                 (A) (A) (A) (A) (A) (A) (A) (A) (A) (A) (A) (A)
                 (A) (A) (A) (A) (A) (A) (A) (A) (A) (A) (A)
       Virtual   (A) (A) (A) (A) (A) (A) (A) (A) (A) (A) (A) (A)
                 (A) (A) (A) (A) (A) (A) (A) (A) (A) (A) (A) (A)
                 (A) (A) (A) (A) (A) (A) (A) (A) (A) (A) (A) (A)
                 (A) (A) (A) (A) (A) (A) (A) (A) (A) (A) (A) (A)
                 (A) (A) (A) (A) (A) (A) (A) (A) (A) (A) (A) (A)
                 (A) (A) (A) (A) (A) (A) (A) (A) (A) (A) (A) (A)
                 (A) (A) (A) (A) (A) (A) (A) (A) (A) (A) (A) (A)
                 (A) (A) (A) (A) (A) (A) (A) (A) (A) (A) (A) (A)
                 (A) (A) (A) (A) (A) (A) (A) (A) (A) (A) (A) (A)
                 (A) (A) (A) (A) (A) (A) (A) (A) (A) (A) (A) (A)
                 (A) (A) (A) (A) (A) (A) (A) (A) (A) (A) (A) (A)
                 (A) (A) (A) (A) (A) (A) (A) (A) (A) (A) (A) (A)
                 (A) (A) (A) (A) (A) (A) (A) (A) (A) (A) (A) (A)
                 (A) (A) (A) (A) (A) (A) (A) (A) (A) (A) (A) (A)
                 (A) (A) (A) (A) (A) (A) (A) (A) (A) (A) (A) (A)
                 (A) (A) (A) (A) (A) (A) (A) (A) (A) (A) (A) (A)
                 (A) (A) (A) (A) (A) (A) (A) (A) (A) (A) (A) (A)
                 (A) (A) (A) (A) (A) (A) (A) (A) (A) (A) (A) (A)
                 (A) (A) (A) (A) (A) (A) (A) (A) (A) (A) (A) (A)
                 (A) (A) (A) (A) (A) (A) (A) (A) (A) (A) (A) (A)
                 (A) (A) (A) (A) (A) (A) (A) (A) (A) (A) (A) (A)
                 (A) (A) (A) (A)
 The electronic state is 1-A.
 Alpha  occ. eigenvalues --  -19.26390 -19.26269 -19.25595 -14.41417 -10.30838
 Alpha  occ. eigenvalues --  -10.30372 -10.29406 -10.28410 -10.27947 -10.26766
 Alpha  occ. eigenvalues --  -10.24718 -10.24482  -1.07612  -1.05890  -1.05616
 Alpha  occ. eigenvalues --   -0.96667  -0.82998  -0.79324  -0.75533  -0.71670
 Alpha  occ. eigenvalues --   -0.66464  -0.62650  -0.60795  -0.58672  -0.55738
 Alpha  occ. eigenvalues --   -0.53507  -0.51584  -0.49722  -0.48951  -0.48050
 Alpha  occ. eigenvalues --   -0.45421  -0.44925  -0.44030  -0.41918  -0.41424
 Alpha  occ. eigenvalues --   -0.39844  -0.38039  -0.37137  -0.36637  -0.35780
 Alpha  occ. eigenvalues --   -0.35320  -0.35082  -0.33587  -0.32373  -0.29993
 Alpha  occ. eigenvalues --   -0.28111  -0.23266
 Alpha virt. eigenvalues --    0.00784   0.01066   0.01839   0.02203   0.03377
 Alpha virt. eigenvalues --    0.04029   0.04425   0.05121   0.05197   0.07017
 Alpha virt. eigenvalues --    0.07735   0.08118   0.08156   0.09122   0.09382
 Alpha virt. eigenvalues --    0.10127   0.11495   0.12089   0.12128   0.12330
 Alpha virt. eigenvalues --    0.13180   0.13343   0.14008   0.14472   0.14870
 Alpha virt. eigenvalues --    0.15383   0.15802   0.17070   0.17286   0.18145
 Alpha virt. eigenvalues --    0.18333   0.19326   0.19917   0.20239   0.21463
 Alpha virt. eigenvalues --    0.21819   0.21996   0.22220   0.23269   0.23659
 Alpha virt. eigenvalues --    0.24198   0.24345   0.24749   0.25353   0.25809
 Alpha virt. eigenvalues --    0.26577   0.27130   0.27841   0.27938   0.29001
 Alpha virt. eigenvalues --    0.29636   0.30258   0.30551   0.31081   0.31901
 Alpha virt. eigenvalues --    0.32496   0.32787   0.33017   0.33831   0.34406
 Alpha virt. eigenvalues --    0.35142   0.35438   0.35909   0.37301   0.38196
 Alpha virt. eigenvalues --    0.38562   0.40002   0.40538   0.40879   0.41155
 Alpha virt. eigenvalues --    0.41952   0.42734   0.43117   0.45552   0.46565
 Alpha virt. eigenvalues --    0.47635   0.63816   0.64628   0.66484   0.68090
 Alpha virt. eigenvalues --    0.69547   0.70188   0.71667   0.72907   0.74199
 Alpha virt. eigenvalues --    0.77644   0.78365   0.79307   0.79652   0.82212
 Alpha virt. eigenvalues --    0.82824   0.84932   0.85420   0.86049   0.87726
 Alpha virt. eigenvalues --    0.88494   0.91927   0.92256   0.95061   0.96367
 Alpha virt. eigenvalues --    0.98327   1.00308   1.02622   1.03113   1.05322
 Alpha virt. eigenvalues --    1.05867   1.06322   1.08652   1.09362   1.10368
 Alpha virt. eigenvalues --    1.10625   1.13051   1.13532   1.13962   1.15375
 Alpha virt. eigenvalues --    1.16440   1.19033   1.20015   1.21996   1.25448
 Alpha virt. eigenvalues --    1.26929   1.28330   1.28918   1.31313   1.32072
 Alpha virt. eigenvalues --    1.32995   1.34066   1.37309   1.38738   1.39512
 Alpha virt. eigenvalues --    1.42085   1.47173   1.48771   1.51590   1.51880
 Alpha virt. eigenvalues --    1.54364   1.54573   1.57263   1.59001   1.59870
 Alpha virt. eigenvalues --    1.61667   1.62574   1.66120   1.69476   1.71538
 Alpha virt. eigenvalues --    1.72292   1.74990   1.76232   1.77808   1.78948
 Alpha virt. eigenvalues --    1.81783   1.82962   1.83510   1.84292   1.85040
 Alpha virt. eigenvalues --    1.87328   1.88424   1.91971   1.92965   1.94174
 Alpha virt. eigenvalues --    1.95418   1.99505   2.00903   2.03041   2.03711
 Alpha virt. eigenvalues --    2.04371   2.05400   2.07306   2.08182   2.10320
 Alpha virt. eigenvalues --    2.12948   2.15531   2.16186   2.18030   2.19554
 Alpha virt. eigenvalues --    2.20695   2.22656   2.25721   2.29859   2.30429
 Alpha virt. eigenvalues --    2.31854   2.32794   2.34416   2.36584   2.38218
 Alpha virt. eigenvalues --    2.40272   2.41958   2.44155   2.45253   2.46432
 Alpha virt. eigenvalues --    2.47904   2.48459   2.51159   2.52447   2.54496
 Alpha virt. eigenvalues --    2.55663   2.56707   2.58682   2.61522   2.63889
 Alpha virt. eigenvalues --    2.64775   2.66552   2.67200   2.67928   2.69929
 Alpha virt. eigenvalues --    2.70518   2.70933   2.72995   2.76019   2.77684
 Alpha virt. eigenvalues --    2.78682   2.80782   2.81367   2.84989   2.86399
 Alpha virt. eigenvalues --    2.87397   2.88342   2.91873   2.93912   2.94238
 Alpha virt. eigenvalues --    2.95943   2.99505   3.00601   3.01212   3.05532
 Alpha virt. eigenvalues --    3.06756   3.09798   3.10862   3.17974   3.32292
 Alpha virt. eigenvalues --    3.33978   3.36446   3.37170   3.38958   3.42247
 Alpha virt. eigenvalues --    3.45775   3.50136   3.52660   3.55598   3.56001
 Alpha virt. eigenvalues --    3.56347   3.58202   3.60404   3.62191   4.30740
 Alpha virt. eigenvalues --    4.36260   4.36580   4.42794   4.47943   4.54772
 Alpha virt. eigenvalues --    4.57360   4.65359   4.77372   4.80147   4.87159
 Alpha virt. eigenvalues --    4.94111
          Condensed to atoms (all electrons):
              1          2          3          4          5          6
     1  C    5.964488  -0.931825   0.124278  -0.011992   0.220041   0.031215
     2  C   -0.931825   8.905035  -0.508358  -0.109876  -0.033000  -0.126172
     3  N    0.124278  -0.508358   7.488030   0.166219  -0.132620  -0.273087
     4  C   -0.011992  -0.109876   0.166219   6.075960  -0.055928  -0.398965
     5  C    0.220041  -0.033000  -0.132620  -0.055928   5.509390   0.079177
     6  C    0.031215  -0.126172  -0.273087  -0.398965   0.079177   8.517517
     7  C   -0.206313   0.388953  -0.121084  -0.352462   0.142217  -0.384455
     8  C    0.297194  -1.153601   0.083074  -0.016960  -0.021074  -0.144485
     9  H    0.428330  -0.073245   0.010868  -0.004240  -0.046871   0.008343
    10  H    0.424624  -0.146437   0.019719   0.026408  -0.024536   0.002219
    11  H    0.071176   0.151060   0.004250  -0.008635   0.010584   0.015967
    12  H    0.006004  -0.032274  -0.024230   0.369360  -0.037733   0.010250
    13  H    0.013580   0.027728  -0.074668   0.377629  -0.025299   0.051207
    14  H   -0.039147   0.023701   0.012069  -0.028936   0.363092   0.001602
    15  H   -0.055110  -0.001661   0.012722  -0.083117   0.424251   0.010788
    16  H    0.000418   0.053476  -0.067779   0.067516  -0.015760   0.269859
    17  H    0.013855  -0.020202   0.048075   0.011363  -0.001817  -0.173490
    18  H    0.077338  -0.246389   0.049659   0.013534  -0.013830   0.025192
    19  O   -0.033009  -0.018882   0.018854   0.004793  -0.005065  -0.035241
    20  H    0.025865  -0.119092   0.008511   0.000581  -0.001200   0.012680
    21  O   -0.008053   0.037272   0.015577   0.000639   0.004179  -0.132460
    22  H   -0.000433   0.003295  -0.004211  -0.001172   0.000034   0.045440
    23  C    0.103755  -0.267772   0.284251   0.211365  -0.086174  -1.032802
    24  H    0.000161   0.010846   0.006640  -0.011085   0.001771  -0.109511
    25  H    0.001936  -0.002714   0.002630   0.015177  -0.003108  -0.135150
    26  O    0.003084  -0.005267   0.005980  -0.061068   0.012422  -0.051236
    27  H   -0.000038  -0.004991  -0.012400  -0.001827   0.000074   0.003030
              7          8          9         10         11         12
     1  C   -0.206313   0.297194   0.428330   0.424624   0.071176   0.006004
     2  C    0.388953  -1.153601  -0.073245  -0.146437   0.151060  -0.032274
     3  N   -0.121084   0.083074   0.010868   0.019719   0.004250  -0.024230
     4  C   -0.352462  -0.016960  -0.004240   0.026408  -0.008635   0.369360
     5  C    0.142217  -0.021074  -0.046871  -0.024536   0.010584  -0.037733
     6  C   -0.384455  -0.144485   0.008343   0.002219   0.015967   0.010250
     7  C    6.442250  -0.049411  -0.001211  -0.004834  -0.042829   0.008048
     8  C   -0.049411   6.420498   0.008171   0.028452   0.040044   0.006636
     9  H   -0.001211   0.008171   0.521038  -0.023975  -0.006523   0.001608
    10  H   -0.004834   0.028452  -0.023975   0.515240   0.002979  -0.000024
    11  H   -0.042829   0.040044  -0.006523   0.002979   0.574677   0.000794
    12  H    0.008048   0.006636   0.001608  -0.000024   0.000794   0.550792
    13  H    0.006262  -0.000649  -0.000107  -0.000142  -0.000187  -0.028782
    14  H    0.002513   0.005436  -0.004882   0.000686  -0.000047  -0.002552
    15  H    0.012823   0.007366   0.004171  -0.005150  -0.000108   0.004124
    16  H   -0.020300  -0.036763   0.000001  -0.000030  -0.000565  -0.000351
    17  H    0.398114  -0.043893   0.000007  -0.000006   0.000952   0.000010
    18  H   -0.152698   0.553559   0.000159   0.000623   0.004527   0.000016
    19  O   -0.014000   0.210132  -0.000469   0.004953   0.002616   0.000050
    20  H   -0.081595   0.137674   0.000009  -0.000011   0.005117   0.000000
    21  O    0.248552  -0.111888   0.000023  -0.000039  -0.000471   0.000010
    22  H    0.021602  -0.041574   0.000000  -0.000001  -0.000002   0.000000
    23  C   -0.300348   0.044071   0.000270   0.000324   0.017243   0.006933
    24  H    0.053975  -0.008843   0.000000   0.000000  -0.000007  -0.000003
    25  H   -0.001811  -0.002457   0.000000   0.000000  -0.000034   0.000013
    26  O    0.026107   0.008965  -0.000015  -0.000003  -0.000026  -0.000354
    27  H    0.013531   0.001907   0.000000   0.000000   0.000000  -0.000004
             13         14         15         16         17         18
     1  C    0.013580  -0.039147  -0.055110   0.000418   0.013855   0.077338
     2  C    0.027728   0.023701  -0.001661   0.053476  -0.020202  -0.246389
     3  N   -0.074668   0.012069   0.012722  -0.067779   0.048075   0.049659
     4  C    0.377629  -0.028936  -0.083117   0.067516   0.011363   0.013534
     5  C   -0.025299   0.363092   0.424251  -0.015760  -0.001817  -0.013830
     6  C    0.051207   0.001602   0.010788   0.269859  -0.173490   0.025192
     7  C    0.006262   0.002513   0.012823  -0.020300   0.398114  -0.152698
     8  C   -0.000649   0.005436   0.007366  -0.036763  -0.043893   0.553559
     9  H   -0.000107  -0.004882   0.004171   0.000001   0.000007   0.000159
    10  H   -0.000142   0.000686  -0.005150  -0.000030  -0.000006   0.000623
    11  H   -0.000187  -0.000047  -0.000108  -0.000565   0.000952   0.004527
    12  H   -0.028782  -0.002552   0.004124  -0.000351   0.000010   0.000016
    13  H    0.530565   0.000892  -0.005635   0.001987  -0.000016  -0.000030
    14  H    0.000892   0.516297  -0.023081  -0.000138   0.000000  -0.000058
    15  H   -0.005635  -0.023081   0.523337   0.000140   0.000002  -0.000079
    16  H    0.001987  -0.000138   0.000140   0.567232   0.004100   0.000430
    17  H   -0.000016   0.000000   0.000002   0.004100   0.563180   0.004441
    18  H   -0.000030  -0.000058  -0.000079   0.000430   0.004441   0.531139
    19  O   -0.000031   0.000015  -0.000118  -0.000854  -0.007948  -0.057040
    20  H    0.000000   0.000000   0.000000  -0.000004   0.004326   0.007015
    21  O   -0.000095  -0.000011  -0.000029   0.000946  -0.042161  -0.003929
    22  H    0.000000   0.000000   0.000000  -0.000010  -0.005842  -0.000313
    23  C   -0.040292  -0.000944   0.000750   0.006381   0.073239   0.021215
    24  H   -0.000007   0.000000   0.000000  -0.002791   0.000003  -0.000019
    25  H    0.000052   0.000000   0.000001   0.004498   0.002441   0.000000
    26  O    0.002498   0.000023  -0.000203  -0.007660   0.000212   0.000034
    27  H    0.000412   0.000000   0.000004   0.005014   0.000006   0.000000
             19         20         21         22         23         24
     1  C   -0.033009   0.025865  -0.008053  -0.000433   0.103755   0.000161
     2  C   -0.018882  -0.119092   0.037272   0.003295  -0.267772   0.010846
     3  N    0.018854   0.008511   0.015577  -0.004211   0.284251   0.006640
     4  C    0.004793   0.000581   0.000639  -0.001172   0.211365  -0.011085
     5  C   -0.005065  -0.001200   0.004179   0.000034  -0.086174   0.001771
     6  C   -0.035241   0.012680  -0.132460   0.045440  -1.032802  -0.109511
     7  C   -0.014000  -0.081595   0.248552   0.021602  -0.300348   0.053975
     8  C    0.210132   0.137674  -0.111888  -0.041574   0.044071  -0.008843
     9  H   -0.000469   0.000009   0.000023   0.000000   0.000270   0.000000
    10  H    0.004953  -0.000011  -0.000039  -0.000001   0.000324   0.000000
    11  H    0.002616   0.005117  -0.000471  -0.000002   0.017243  -0.000007
    12  H    0.000050   0.000000   0.000010   0.000000   0.006933  -0.000003
    13  H   -0.000031   0.000000  -0.000095   0.000000  -0.040292  -0.000007
    14  H    0.000015   0.000000  -0.000011   0.000000  -0.000944   0.000000
    15  H   -0.000118   0.000000  -0.000029   0.000000   0.000750   0.000000
    16  H   -0.000854  -0.000004   0.000946  -0.000010   0.006381  -0.002791
    17  H   -0.007948   0.004326  -0.042161  -0.005842   0.073239   0.000003
    18  H   -0.057040   0.007015  -0.003929  -0.000313   0.021215  -0.000019
    19  O    8.212371   0.250279  -0.004631   0.006649   0.000560  -0.000012
    20  H    0.250279   0.371795  -0.001940   0.000104   0.005608   0.000000
    21  O   -0.004631  -0.001940   8.275374   0.232296   0.034037   0.005120
    22  H    0.006649   0.000104   0.232296   0.371346  -0.015996  -0.000065
    23  C    0.000560   0.005608   0.034037  -0.015996   6.138682   0.410561
    24  H   -0.000012   0.000000   0.005120  -0.000065   0.410561   0.571557
    25  H   -0.000051   0.000000   0.000377  -0.000012   0.502201  -0.034536
    26  O    0.000006   0.000002  -0.000476   0.000006   0.193978  -0.051135
    27  H   -0.000002   0.000000  -0.000194   0.000000  -0.013808  -0.006425
             25         26         27
     1  C    0.001936   0.003084  -0.000038
     2  C   -0.002714  -0.005267  -0.004991
     3  N    0.002630   0.005980  -0.012400
     4  C    0.015177  -0.061068  -0.001827
     5  C   -0.003108   0.012422   0.000074
     6  C   -0.135150  -0.051236   0.003030
     7  C   -0.001811   0.026107   0.013531
     8  C   -0.002457   0.008965   0.001907
     9  H    0.000000  -0.000015   0.000000
    10  H    0.000000  -0.000003   0.000000
    11  H   -0.000034  -0.000026   0.000000
    12  H    0.000013  -0.000354  -0.000004
    13  H    0.000052   0.002498   0.000412
    14  H    0.000000   0.000023   0.000000
    15  H    0.000001  -0.000203   0.000004
    16  H    0.004498  -0.007660   0.005014
    17  H    0.002441   0.000212   0.000006
    18  H    0.000000   0.000034   0.000000
    19  O   -0.000051   0.000006  -0.000002
    20  H    0.000000   0.000002   0.000000
    21  O    0.000377  -0.000476  -0.000194
    22  H   -0.000012   0.000006   0.000000
    23  C    0.502201   0.193978  -0.013808
    24  H   -0.034536  -0.051135  -0.006425
    25  H    0.529532  -0.053577   0.006286
    26  O   -0.053577   8.258861   0.262228
    27  H    0.006286   0.262228   0.372265
 Mulliken atomic charges:
              1
     1  C   -0.521424
     2  C    0.200389
     3  N   -0.142970
     4  C   -0.194284
     5  C   -0.263219
     6  C   -0.087433
     7  C   -0.031598
     8  C   -0.221585
     9  H    0.178538
    10  H    0.178959
    11  H    0.157448
    12  H    0.161656
    13  H    0.163126
    14  H    0.173469
    15  H    0.173814
    16  H    0.171006
    17  H    0.171049
    18  H    0.185503
    19  O   -0.533921
    20  H    0.374275
    21  O   -0.548024
    22  H    0.388857
    23  C   -0.297289
    24  H    0.163804
    25  H    0.168307
    26  O   -0.543386
    27  H    0.374933
 Sum of Mulliken atomic charges =   0.00000
 Mulliken charges with hydrogens summed into heavy atoms:
              1
     1  C   -0.163926
     2  C    0.357837
     3  N   -0.142970
     4  C    0.130498
     5  C    0.084064
     6  C    0.083573
     7  C    0.139451
     8  C   -0.036082
    19  O   -0.159646
    21  O   -0.159167
    23  C    0.034822
    26  O   -0.168453
 Sum of Mulliken charges with hydrogens summed into heavy atoms =   0.00000
 Electronic spatial extent (au):  <R**2>=           2112.6796
 Charge=              0.0000 electrons
 Dipole moment (field-independent basis, Debye):
    X=             -1.8554    Y=             -0.3190    Z=              0.3043  Tot=              1.9071
 Quadrupole moment (field-independent basis, Debye-Ang):
   XX=            -84.8149   YY=            -68.6190   ZZ=            -71.1150
   XY=             -3.6506   XZ=              8.3933   YZ=              8.7406
 Traceless Quadrupole moment (field-independent basis, Debye-Ang):
   XX=             -9.9652   YY=              6.2306   ZZ=              3.7346
   XY=             -3.6506   XZ=              8.3933   YZ=              8.7406
 Octapole moment (field-independent basis, Debye-Ang**2):
  XXX=             -5.9222  YYY=            -23.3092  ZZZ=             -3.7074  XYY=             -7.4903
  XXY=              0.3755  XXZ=             15.4249  XZZ=             -4.0984  YZZ=             -7.4453
  YYZ=             -7.8337  XYZ=              5.2898
 Hexadecapole moment (field-independent basis, Debye-Ang**3):
 XXXX=          -1511.3530 YYYY=          -1016.2661 ZZZZ=           -241.2919 XXXY=            -48.9479
 XXXZ=             93.9736 YYYX=             33.0632 YYYZ=              5.8605 ZZZX=             19.0975
 ZZZY=             15.7935 XXYY=           -435.9018 XXZZ=           -226.7163 YYZZ=           -224.9042
 XXYZ=             34.5432 YYXZ=             11.9856 ZZXY=             23.5233
 N-N= 7.987306498032D+02 E-N=-2.983161016640D+03  KE= 5.886628250425D+02
 1\1\GINC-COMPUTE-3-0\SP\RmPW1PW91\6-31+G(d,p)\C8H15N1O3\MAMICHETTI.IQU
 IR\17-May-2024\0\\# mpw1pw91/6-31+G** nmr scrf=(pcm,solvent=water)\\co
 mment\\0,1\C,0,-1.98984,1.604953,-0.057765\C,0,-1.206825,0.423792,-0.6
 62802\N,0,0.248581,0.792434,-0.596026\C,0,0.335617,2.116165,0.065564\C
 ,0,-0.963433,2.279366,0.864601\C,0,0.972374,-0.288996,0.114509\C,0,0.0
 6765,-1.51344,-0.041762\C,0,-1.327756,-0.904845,0.099518\H,0,-2.299312
 ,2.299006,-0.847925\H,0,-2.893456,1.267061,0.460583\H,0,-1.508488,0.24
 8735,-1.704794\H,0,0.405992,2.903766,-0.696984\H,0,1.240043,2.173949,0
 .676009\H,0,-1.202179,3.324563,1.086622\H,0,-0.891781,1.739422,1.81732
 2\H,0,1.049615,-0.076437,1.195705\H,0,0.170326,-1.936042,-1.054466\H,0
 ,-1.511945,-0.719478,1.164438\O,0,-2.395867,-1.747536,-0.32483\H,0,-2.
 269817,-1.913868,-1.275731\O,0,0.386337,-2.501219,0.934417\H,0,-0.2106
 9,-3.252232,0.776073\C,0,2.383998,-0.523025,-0.413682\H,0,2.7876,-1.44
 0392,0.039283\H,0,2.35746,-0.663023,-1.498973\O,0,3.269169,0.579021,-0
 .17938\H,0,3.32875,0.691998,0.784286\\Version=AM64L-G09RevC.01\State=1
 -A\HF=-594.1976187\RMSD=4.776e-09\Dipole=-0.7299652,-0.1255053,0.11973
 78\Quadrupole=-7.4088985,4.6323138,2.7765847,-2.714133,6.2401836,6.498
 4492\PG=C01 [X(C8H15N1O3)]\\@


 IT IS A SIMPLE TASK TO MAKE THINGS COMPLEX,
 BUT A COMPLEX TASK TO MAKE THEM SIMPLE.
 Job cpu time:  0 days  0 hours  8 minutes 42.8 seconds.
 File lengths (MBytes):  RWF=    113 Int=      0 D2E=      0 Chk=      7 Scr=      1
 Normal termination of Gaussian 09 at Fri May 17 12:33:35 2024.
