 Entering Gaussian System, Link 0=g09
 Input=/home/mamichetti.iquir/Linux/02_Cardona_A1A3_R__R_R_R_032_OptB.gjc
 Output=/home/mamichetti.iquir/Linux/02_Cardona_A1A3_R__R_R_R_032_OptB.log
 Initial command:
 /opt/ohpc/pub/apps/software/Gaussian/09/AMD64.SSE4a-enabled/g09/l1.exe /local/mamichetti.iquir/Gau-710756.inp -scrdir=/local/mamichetti.iquir/
 Entering Link 1 = /opt/ohpc/pub/apps/software/Gaussian/09/AMD64.SSE4a-enabled/g09/l1.exe PID=    710757.
  
 Copyright (c) 1988,1990,1992,1993,1995,1998,2003,2009,2011,
            Gaussian, Inc.  All Rights Reserved.
  
 This is part of the Gaussian(R) 09 program.  It is based on
 the Gaussian(R) 03 system (copyright 2003, Gaussian, Inc.),
 the Gaussian(R) 98 system (copyright 1998, Gaussian, Inc.),
 the Gaussian(R) 94 system (copyright 1995, Gaussian, Inc.),
 the Gaussian 92(TM) system (copyright 1992, Gaussian, Inc.),
 the Gaussian 90(TM) system (copyright 1990, Gaussian, Inc.),
 the Gaussian 88(TM) system (copyright 1988, Gaussian, Inc.),
 the Gaussian 86(TM) system (copyright 1986, Carnegie Mellon
 University), and the Gaussian 82(TM) system (copyright 1983,
 Carnegie Mellon University). Gaussian is a federally registered
 trademark of Gaussian, Inc.
  
 This software contains proprietary and confidential information,
 including trade secrets, belonging to Gaussian, Inc.
  
 This software is provided under written license and may be
 used, copied, transmitted, or stored only in accord with that
 written license.
  
 The following legend is applicable only to US Government
 contracts under FAR:
  
                    RESTRICTED RIGHTS LEGEND
  
 Use, reproduction and disclosure by the US Government is
 subject to restrictions as set forth in subparagraphs (a)
 and (c) of the Commercial Computer Software - Restricted
 Rights clause in FAR 52.227-19.
  
 Gaussian, Inc.
 340 Quinnipiac St., Bldg. 40, Wallingford CT 06492
  
  
 ---------------------------------------------------------------
 Warning -- This program may not be used in any manner that
 competes with the business of Gaussian, Inc. or will provide
 assistance to any competitor of Gaussian, Inc.  The licensee
 of this program is prohibited from giving any competitor of
 Gaussian, Inc. access to this program.  By using this program,
 the user acknowledges that Gaussian, Inc. is engaged in the
 business of creating and licensing software in the field of
 computational chemistry and represents and warrants to the
 licensee that it is not a competitor of Gaussian, Inc. and that
 it will not use this program in any manner prohibited above.
 ---------------------------------------------------------------
  

 Cite this work as:
 Gaussian 09, Revision C.01,
 M. J. Frisch, G. W. Trucks, H. B. Schlegel, G. E. Scuseria, 
 M. A. Robb, J. R. Cheeseman, G. Scalmani, V. Barone, B. Mennucci, 
 G. A. Petersson, H. Nakatsuji, M. Caricato, X. Li, H. P. Hratchian, 
 A. F. Izmaylov, J. Bloino, G. Zheng, J. L. Sonnenberg, M. Hada, 
 M. Ehara, K. Toyota, R. Fukuda, J. Hasegawa, M. Ishida, T. Nakajima, 
 Y. Honda, O. Kitao, H. Nakai, T. Vreven, J. A. Montgomery, Jr., 
 J. E. Peralta, F. Ogliaro, M. Bearpark, J. J. Heyd, E. Brothers, 
 K. N. Kudin, V. N. Staroverov, T. Keith, R. Kobayashi, J. Normand, 
 K. Raghavachari, A. Rendell, J. C. Burant, S. S. Iyengar, J. Tomasi, 
 M. Cossi, N. Rega, J. M. Millam, M. Klene, J. E. Knox, J. B. Cross, 
 V. Bakken, C. Adamo, J. Jaramillo, R. Gomperts, R. E. Stratmann, 
 O. Yazyev, A. J. Austin, R. Cammi, C. Pomelli, J. W. Ochterski, 
 R. L. Martin, K. Morokuma, V. G. Zakrzewski, G. A. Voth, 
 P. Salvador, J. J. Dannenberg, S. Dapprich, A. D. Daniels, 
 O. Farkas, J. B. Foresman, J. V. Ortiz, J. Cioslowski, 
 and D. J. Fox, Gaussian, Inc., Wallingford CT, 2010.
 
 ******************************************
 Gaussian 09:  AM64L-G09RevC.01 23-Sep-2011
                17-May-2024 
 ******************************************
 %nprocshared=4
 Will use up to    4 processors via shared memory.
 ------------------------------------------------
 # mpw1pw91/6-31+G** nmr scrf=(pcm,solvent=water)
 ------------------------------------------------
 1/38=1/1;
 2/12=2,17=6,18=5,40=1/2;
 3/5=1,6=6,7=111,11=2,16=1,25=1,30=1,70=2201,72=1,74=-7/1,2,8,3;
 4//1;
 5/5=2,38=5,53=1/2;
 8/6=1,10=90,11=11/1;
 10/13=100,45=16/2;
 6/7=2,8=2,9=2,10=2,28=1/1;
 99/9=1/99;
 -------
 comment
 -------
 Charge =  0 Multiplicity = 1
 Symbolic Z-Matrix:
 6                     2.54082   0.02454  -0.21684 
 6                     1.10793   0.31935  -0.7097 
 7                     0.28701  -0.9138   -0.40966 
 6                     1.20657  -1.90488   0.20157 
 6                     2.34872  -1.09119   0.82132 
 6                    -0.83077  -0.51449   0.48138 
 6                    -1.04616   0.96497   0.13787 
 6                     0.38786   1.47414  -0.00509 
 1                     3.15584  -0.34028  -1.04754 
 1                     3.02272   0.92178   0.185 
 1                     1.09995   0.52297  -1.78692 
 1                     1.6005   -2.56943  -0.57816 
 1                     0.66524  -2.52783   0.91974 
 1                     3.25315  -1.68452   0.9891 
 1                     2.03458  -0.67198   1.78524 
 1                    -0.55583  -0.58212   1.54822 
 1                    -1.55765   1.05371  -0.82636 
 1                     0.79925   1.61688   1.00751 
 8                     0.52552   2.67687  -0.7579 
 1                     0.04594   3.36805  -0.27016 
 8                    -1.84829   1.68435   1.06806 
 1                    -1.40506   1.63021   1.93326 
 6                    -2.05092  -1.40224   0.24872 
 1                    -1.84691  -2.41671   0.624 
 1                    -2.90933  -1.00674   0.80232 
 8                    -2.40831  -1.44141  -1.1329 
 1                    -1.54701  -1.49715  -1.5912 
 
                          Input orientation:                          
 ---------------------------------------------------------------------
 Center     Atomic      Atomic             Coordinates (Angstroms)
 Number     Number       Type             X           Y           Z
 ---------------------------------------------------------------------
      1          6           0        2.540816    0.024539   -0.216839
      2          6           0        1.107934    0.319351   -0.709700
      3          7           0        0.287005   -0.913795   -0.409656
      4          6           0        1.206565   -1.904877    0.201570
      5          6           0        2.348718   -1.091193    0.821324
      6          6           0       -0.830769   -0.514492    0.481378
      7          6           0       -1.046157    0.964972    0.137865
      8          6           0        0.387863    1.474140   -0.005088
      9          1           0        3.155839   -0.340283   -1.047536
     10          1           0        3.022716    0.921784    0.184999
     11          1           0        1.099946    0.522966   -1.786917
     12          1           0        1.600501   -2.569430   -0.578162
     13          1           0        0.665241   -2.527827    0.919744
     14          1           0        3.253150   -1.684520    0.989103
     15          1           0        2.034576   -0.671978    1.785243
     16          1           0       -0.555826   -0.582115    1.548215
     17          1           0       -1.557654    1.053705   -0.826360
     18          1           0        0.799246    1.616881    1.007511
     19          8           0        0.525517    2.676870   -0.757895
     20          1           0        0.045941    3.368049   -0.270159
     21          8           0       -1.848292    1.684348    1.068062
     22          1           0       -1.405062    1.630211    1.933260
     23          6           0       -2.050923   -1.402236    0.248719
     24          1           0       -1.846911   -2.416713    0.623997
     25          1           0       -2.909334   -1.006739    0.802321
     26          8           0       -2.408310   -1.441406   -1.132897
     27          1           0       -1.547011   -1.497148   -1.591204
 ---------------------------------------------------------------------
                    Distance matrix (angstroms):
                    1          2          3          4          5
     1  C    0.000000
     2  C    1.543689   0.000000
     3  N    2.448941   1.511489   0.000000
     4  C    2.382842   2.405687   1.483722   0.000000
     5  C    1.536080   2.423471   2.407788   1.533196   0.000000
     6  C    3.485061   2.423330   1.484184   2.482376   3.249198
     7  C    3.725131   2.403186   2.367882   3.648952   4.027419
     8  C    2.604110   1.532488   2.424063   3.482921   3.332993
     9  H    1.096087   2.177881   2.994331   2.794260   2.169781
    10  H    1.094874   2.197681   3.347698   3.359865   2.216136
    11  H    2.188534   1.096321   2.149884   3.140043   3.311776
    12  H    2.782700   2.933425   2.120093   1.097633   2.168773
    13  H    3.365141   3.310210   2.124963   1.094017   2.215333
    14  H    2.209660   3.391664   3.368762   2.203923   1.094616
    15  H    2.179391   2.840095   2.816036   2.171097   1.097072
    16  H    3.615610   2.946000   2.157228   2.582474   3.037089
    17  H    4.269444   2.767353   2.729004   4.177410   4.751336
    18  H    2.658506   2.174324   2.945348   3.635688   3.125571
    19  O    3.374764   2.428874   3.615388   4.730413   4.473957
    20  H    4.172086   3.258157   4.290893   5.419716   5.136045
    21  O    4.865204   3.709842   3.673349   4.792233   5.037797
    22  H    4.771903   3.875402   3.850235   4.724002   4.767946
    23  C    4.830786   3.723010   2.477487   3.296377   4.447636
    24  H    5.091057   4.242158   2.807276   3.124762   4.404457
    25  H    5.639712   4.492568   3.419665   4.255371   5.258765
    26  O    5.242328   3.955165   2.840101   3.881099   5.154701
    27  H    4.573264   3.335484   2.258312   3.310961   4.600195
                    6          7          8          9         10
     6  C    0.000000
     7  C    1.534017   0.000000
     8  C    2.382513   1.528431   0.000000
     9  H    4.273286   4.556933   3.469945   0.000000
    10  H    4.123115   4.069375   2.698829   1.769089   0.000000
    11  H    3.154226   2.916490   2.141660   2.349166   2.782904
    12  H    3.355066   4.473197   4.260207   2.758348   3.846256
    13  H    2.546317   3.967350   4.116794   3.854688   4.242329
    14  H    4.278451   5.121372   4.378975   2.442200   2.737244
    15  H    3.151994   3.858027   3.243882   3.064619   2.465214
    16  H    1.103770   2.150114   2.744355   4.535732   4.114126
    17  H    2.167437   1.095095   2.153205   4.920278   4.692551
    18  H    2.734322   2.141677   1.102256   3.688799   2.470527
    19  O    3.682404   2.490610   1.425562   4.013190   3.194586
    20  H    4.050624   2.670944   1.942695   4.901786   3.879764
    21  O    2.492880   1.423443   2.489222   5.797949   5.008795
    22  H    2.652833   1.948024   2.645020   5.793946   4.812848
    23  C    1.526760   2.574008   3.779634   5.469771   5.580945
    24  H    2.161326   3.509035   4.530861   5.668606   5.920435
    25  H    2.160033   2.792951   4.204543   6.375928   6.268134
    26  O    2.440018   3.043181   4.194156   5.672699   6.067748
    27  H    2.402959   3.050011   3.884334   4.873470   5.467041
                   11         12         13         14         15
    11  H    0.000000
    12  H    3.357761   0.000000
    13  H    4.101502   1.766399   0.000000
    14  H    4.149165   2.443488   2.722728   0.000000
    15  H    3.880947   3.061769   2.463401   1.773134   0.000000
    16  H    3.884056   3.622243   2.381549   4.004523   2.602775
    17  H    2.875272   4.812759   4.562621   5.825600   4.764721
    18  H    3.015941   4.547699   4.147802   4.113543   2.714734
    19  O    2.455231   5.358317   5.470180   5.432652   4.467616
    20  H    3.392046   6.145338   6.046549   6.115585   4.949865
    21  O    4.265187   5.718291   4.907368   6.113936   4.598183
    22  H    4.619608   5.742616   4.754224   5.794637   4.141629
    23  C    4.216419   3.921603   3.015755   5.362932   4.425549
    24  H    4.810217   3.654197   2.531940   5.165272   4.411183
    25  H    5.011834   4.968536   3.886526   6.202458   5.051777
    26  O    4.073618   4.201278   3.852319   6.050960   5.370921
    27  H    3.335498   3.476043   3.501602   5.452948   4.990898
                   16         17         18         19         20
    16  H    0.000000
    17  H    3.052568   0.000000
    18  H    2.638970   3.038952   0.000000
    19  O    4.136234   2.641771   2.077297   0.000000
    20  H    4.390035   2.870029   2.294885   0.972424   0.000000
    21  O    2.652898   2.017676   2.649090   3.155026   2.865973
    22  H    2.400801   2.823322   2.390850   3.473463   3.159200
    23  C    2.143969   2.725941   4.220699   4.928531   5.236573
    24  H    2.426279   3.772401   4.839330   5.786418   6.151900
    25  H    2.505127   2.953823   4.547422   5.272708   5.387266
    26  O    3.370228   2.653895   4.921675   5.070322   5.467954
    27  H    3.416970   2.663072   4.685661   4.734153   5.287041
                   21         22         23         24         25
    21  O    0.000000
    22  H    0.973628   0.000000
    23  C    3.199904   3.528534   0.000000
    24  H    4.125033   4.276330   1.100735   0.000000
    25  H    2.904889   3.239655   1.095337   1.774421   0.000000
    26  O    3.863700   4.454510   1.427628   2.086401   2.045734
    27  H    4.157449   4.714061   1.910040   2.417159   2.797389
                   26         27
    26  O    0.000000
    27  H    0.977235   0.000000
 Stoichiometry    C8H15NO3
 Framework group  C1[X(C8H15NO3)]
 Deg. of freedom    75
 Full point group                 C1      NOp   1
 Largest Abelian subgroup         C1      NOp   1
 Largest concise Abelian subgroup C1      NOp   1
                         Standard orientation:                         
 ---------------------------------------------------------------------
 Center     Atomic      Atomic             Coordinates (Angstroms)
 Number     Number       Type             X           Y           Z
 ---------------------------------------------------------------------
      1          6           0        2.540816    0.024538   -0.216839
      2          6           0        1.107934    0.319351   -0.709700
      3          7           0        0.287005   -0.913795   -0.409656
      4          6           0        1.206565   -1.904877    0.201570
      5          6           0        2.348718   -1.091194    0.821324
      6          6           0       -0.830769   -0.514492    0.481378
      7          6           0       -1.046157    0.964972    0.137865
      8          6           0        0.387863    1.474140   -0.005088
      9          1           0        3.155839   -0.340284   -1.047536
     10          1           0        3.022716    0.921783    0.184999
     11          1           0        1.099946    0.522966   -1.786917
     12          1           0        1.600500   -2.569430   -0.578162
     13          1           0        0.665240   -2.527827    0.919744
     14          1           0        3.253150   -1.684521    0.989103
     15          1           0        2.034576   -0.671979    1.785243
     16          1           0       -0.555826   -0.582115    1.548215
     17          1           0       -1.557654    1.053705   -0.826360
     18          1           0        0.799246    1.616881    1.007511
     19          8           0        0.525518    2.676870   -0.757895
     20          1           0        0.045942    3.368049   -0.270159
     21          8           0       -1.848292    1.684349    1.068062
     22          1           0       -1.405062    1.630211    1.933260
     23          6           0       -2.050923   -1.402235    0.248719
     24          1           0       -1.846912   -2.416712    0.623997
     25          1           0       -2.909334   -1.006738    0.802321
     26          8           0       -2.408310   -1.441405   -1.132897
     27          1           0       -1.547011   -1.497148   -1.591204
 ---------------------------------------------------------------------
 Rotational constants (GHZ):      1.0907821      0.9171702      0.6064052
 Standard basis: 6-31+G(d,p) (6D, 7F)
 There are   303 symmetry adapted basis functions of A   symmetry.
 Integral buffers will be    131072 words long.
 Raffenetti 2 integral format.
 Two-electron integral symmetry is turned on.
   303 basis functions,   489 primitive gaussians,   303 cartesian basis functions
    47 alpha electrons       47 beta electrons
       nuclear repulsion energy       805.0202220750 Hartrees.
 NAtoms=   27 NActive=   27 NUniq=   27 SFac= 1.00D+00 NAtFMM=   60 NAOKFM=F Big=F
 ------------------------------------------------------------------------------
 Polarizable Continuum Model (PCM)
 =================================
 Model                : PCM.
 Atomic radii         : UFF (Universal Force Field).
 Polarization charges : Total charges.
 Charge compensation  : None.
 Solution method      : Matrix inversion.
 Cavity type          : Scaled VdW (van der Waals Surface) (Alpha=1.100).
 Cavity algorithm     : GePol (No added spheres)
                        Default sphere list used, NSphG=   27.
                        Lebedev-Laikov grids with approx.  5.0 points / Ang**2.
                        Smoothing algorithm: Karplus/York (Gamma=1.0000).
                        Polarization charges: spherical gaussians, with
                                              point-specific exponents (IZeta= 3).
                        Self-potential: point-specific (ISelfS= 7).
                        Self-field    : sphere-specific E.n sum rule (ISelfD= 2).
 Solvent              : Water, Eps=  78.355300 Eps(inf)=   1.777849
 ------------------------------------------------------------------------------
 One-electron integrals computed using PRISM.
 NBasis=   303 RedAO= T  NBF=   303
 NBsUse=   303 1.00D-06 NBFU=   303
 Harris functional with IExCor=  908 diagonalized for initial guess.
 ExpMin= 4.38D-02 ExpMax= 5.48D+03 ExpMxC= 8.25D+02 IAcc=2 IRadAn=         4 AccDes= 0.00D+00
 HarFok:  IExCor=  908 AccDes= 0.00D+00 IRadAn=         4 IDoV= 1
 ScaDFX=  1.000000  1.000000  1.000000  1.000000
 FoFCou: FMM=F IPFlag=           0 FMFlag=      100000 FMFlg1=           0
         NFxFlg=           0 DoJE=T BraDBF=F KetDBF=T FulRan=T
         Omega=  0.000000  0.000000  1.000000  0.000000  0.000000 ICntrl=     500 IOpCl=  0
         NMat0=    1 NMatS0=    1 NMatT0=    0 NMatD0=    1 NMtDS0=    0 NMtDT0=    0
         I1Cent=           4 NGrid=           0.
 Petite list used in FoFCou.
 Initial guess orbital symmetries:
       Occupied  (A) (A) (A) (A) (A) (A) (A) (A) (A) (A) (A) (A)
                 (A) (A) (A) (A) (A) (A) (A) (A) (A) (A) (A) (A)
                 (A) (A) (A) (A) (A) (A) (A) (A) (A) (A) (A) (A)
                 (A) (A) (A) (A) (A) (A) (A) (A) (A) (A) (A)
       Virtual   (A) (A) (A) (A) (A) (A) (A) (A) (A) (A) (A) (A)
                 (A) (A) (A) (A) (A) (A) (A) (A) (A) (A) (A) (A)
                 (A) (A) (A) (A) (A) (A) (A) (A) (A) (A) (A) (A)
                 (A) (A) (A) (A) (A) (A) (A) (A) (A) (A) (A) (A)
                 (A) (A) (A) (A) (A) (A) (A) (A) (A) (A) (A) (A)
                 (A) (A) (A) (A) (A) (A) (A) (A) (A) (A) (A) (A)
                 (A) (A) (A) (A) (A) (A) (A) (A) (A) (A) (A) (A)
                 (A) (A) (A) (A) (A) (A) (A) (A) (A) (A) (A) (A)
                 (A) (A) (A) (A) (A) (A) (A) (A) (A) (A) (A) (A)
                 (A) (A) (A) (A) (A) (A) (A) (A) (A) (A) (A) (A)
                 (A) (A) (A) (A) (A) (A) (A) (A) (A) (A) (A) (A)
                 (A) (A) (A) (A) (A) (A) (A) (A) (A) (A) (A) (A)
                 (A) (A) (A) (A) (A) (A) (A) (A) (A) (A) (A) (A)
                 (A) (A) (A) (A) (A) (A) (A) (A) (A) (A) (A) (A)
                 (A) (A) (A) (A) (A) (A) (A) (A) (A) (A) (A) (A)
                 (A) (A) (A) (A) (A) (A) (A) (A) (A) (A) (A) (A)
                 (A) (A) (A) (A) (A) (A) (A) (A) (A) (A) (A) (A)
                 (A) (A) (A) (A) (A) (A) (A) (A) (A) (A) (A) (A)
                 (A) (A) (A) (A) (A) (A) (A) (A) (A) (A) (A) (A)
                 (A) (A) (A) (A) (A) (A) (A) (A) (A) (A) (A) (A)
                 (A) (A) (A) (A) (A) (A) (A) (A) (A) (A) (A) (A)
                 (A) (A) (A) (A)
 The electronic state of the initial guess is 1-A.
 Requested convergence on RMS density matrix=1.00D-08 within 128 cycles.
 Requested convergence on MAX density matrix=1.00D-06.
 Requested convergence on             energy=1.00D-06.
 No special actions if energy rises.
 Error on total polarization charges =  0.01422
 SCF Done:  E(RmPW1PW91) =  -594.202656877     A.U. after   13 cycles
             Convg  =    0.1919D-08             -V/T =  2.0094
 Range of M.O.s used for correlation:     1   303
 NBasis=   303 NAE=    47 NBE=    47 NFC=     0 NFV=     0
 NROrb=    303 NOA=    47 NOB=    47 NVA=   256 NVB=   256

 **** Warning!!: The largest alpha MO coefficient is  0.57068204D+02

 NEqPCM:  Using equilibrium solvation (IEInf=0, Eps=  78.3553, EpsInf=   1.7778)
          Differentiating once with respect to magnetic field using GIAOs.
          Electric field/nuclear overlap derivatives assumed to be zero.
 FoFCou: FMM=F IPFlag=           0 FMFlag=    10101102 FMFlg1=           0
         NFxFlg=    40000000 DoJE=F BraDBF=F KetDBF=T FulRan=T
         Omega=  0.000000  0.000000  1.000000  0.000000  0.000000 ICntrl=    6100 IOpCl=  0
         NMat0=    1 NMatS0=    1 NMatT0=    0 NMatD0=    1 NMtDS0=    0 NMtDT0=    0
         I1Cent=           7 NGrid=        1846.
 Symmetry not used in FoFCou.
          There are     3 degrees of freedom in the 1st order CPHF.  IDoFFX=0.
      3 vectors produced by pass  0 Test12= 4.01D-13 3.33D-08 XBig12= 2.75D+01 7.50D-01.
 AX will form     3 AO Fock derivatives at one time.
      3 vectors produced by pass  1 Test12= 4.01D-13 3.33D-08 XBig12= 7.33D-02 3.88D-02.
      3 vectors produced by pass  2 Test12= 4.01D-13 3.33D-08 XBig12= 1.47D-04 2.38D-03.
      3 vectors produced by pass  3 Test12= 4.01D-13 3.33D-08 XBig12= 6.80D-07 1.49D-04.
      3 vectors produced by pass  4 Test12= 4.01D-13 3.33D-08 XBig12= 2.53D-09 7.36D-06.
      3 vectors produced by pass  5 Test12= 4.01D-13 3.33D-08 XBig12= 7.32D-12 4.52D-07.
 Inverted reduced A of dimension    18 with in-core refinement.
 Calculating GIAO nuclear magnetic shielding tensors.
 SCF GIAO Magnetic shielding tensor (ppm):
      1  C    Isotropic =   162.7774   Anisotropy =    25.5854
   XX=   174.9696   YX=     2.3035   ZX=    11.3831
   XY=    -2.1352   YY=   161.9065   ZY=    -5.7254
   XZ=     8.4870   YZ=   -18.7010   ZZ=   151.4561
   Eigenvalues:   141.2697   167.2281   179.8344
      2  C    Isotropic =   128.8480   Anisotropy =    55.3945
   XX=   125.6682   YX=    11.5985   ZX=     5.7564
   XY=    16.1689   YY=   158.4833   ZY=   -15.3457
   XZ=    -7.2174   YZ=    -9.2646   ZZ=   102.3925
   Eigenvalues:    99.6135   121.1529   165.7777
      3  N    Isotropic =   204.5336   Anisotropy =    65.1419
   XX=   233.1312   YX=     9.7958   ZX=   -14.0833
   XY=    -2.6043   YY=   235.5168   ZY=   -34.4332
   XZ=   -14.8924   YZ=   -22.6759   ZZ=   144.9527
   Eigenvalues:   134.9914   230.6478   247.9615
      4  C    Isotropic =   142.6000   Anisotropy =    52.5913
   XX=   148.6266   YX=   -20.7284   ZX=    12.9946
   XY=   -11.7903   YY=   152.2215   ZY=   -18.8035
   XZ=    27.0656   YZ=    -7.8575   ZZ=   126.9521
   Eigenvalues:   114.6677   135.4715   177.6609
      5  C    Isotropic =   171.3462   Anisotropy =    18.6269
   XX=   175.5231   YX=     4.8701   ZX=    10.9383
   XY=     7.1056   YY=   179.2006   ZY=    -7.5932
   XZ=    16.3571   YZ=   -13.4936   ZZ=   159.3149
   Eigenvalues:   146.9832   183.2913   183.7641
      6  C    Isotropic =   125.0639   Anisotropy =    41.0564
   XX=   128.5974   YX=   -19.1422   ZX=    -9.9149
   XY=   -13.5325   YY=   127.7462   ZY=    11.7065
   XZ=   -25.1521   YZ=    -2.3253   ZZ=   118.8479
   Eigenvalues:   103.4022   119.3545   152.4348
      7  C    Isotropic =   118.7867   Anisotropy =    43.6805
   XX=   128.8449   YX=    -5.3924   ZX=   -30.4414
   XY=    -4.3326   YY=   121.7858   ZY=    16.1231
   XZ=   -19.1708   YZ=     2.6053   ZZ=   105.7294
   Eigenvalues:    89.0276   119.4255   147.9071
      8  C    Isotropic =   111.8627   Anisotropy =    25.4445
   XX=   119.2384   YX=     9.7082   ZX=   -11.3085
   XY=     0.4674   YY=   120.4741   ZY=   -17.0047
   XZ=    -2.6930   YZ=    -0.6511   ZZ=    95.8756
   Eigenvalues:    92.0192   114.7431   128.8257
      9  H    Isotropic =    29.7107   Anisotropy =    11.7098
   XX=    32.9698   YX=    -1.4375   ZX=    -5.1383
   XY=    -2.5243   YY=    25.3544   ZY=     0.4758
   XZ=    -5.5143   YZ=    -0.5034   ZZ=    30.8081
   Eigenvalues:    24.3972    27.2177    37.5173
     10  H    Isotropic =    29.7265   Anisotropy =     9.5199
   XX=    31.4908   YX=     3.7139   ZX=     1.8230
   XY=     4.1906   YY=    32.2703   ZY=     0.7679
   XZ=     1.2074   YZ=     0.6189   ZZ=    25.4185
   Eigenvalues:    25.0504    28.0561    36.0731
     11  H    Isotropic =    28.2694   Anisotropy =     6.9476
   XX=    26.7944   YX=     0.6134   ZX=    -1.2229
   XY=     0.7001   YY=    26.3911   ZY=    -2.7387
   XZ=    -0.7117   YZ=    -2.4366   ZZ=    31.6228
   Eigenvalues:    25.2843    26.6227    32.9011
     12  H    Isotropic =    28.9465   Anisotropy =    12.0092
   XX=    27.5963   YX=    -4.4466   ZX=    -0.5211
   XY=    -3.8443   YY=    33.0334   ZY=     4.7929
   XZ=     0.6470   YZ=     4.7226   ZZ=    26.2098
   Eigenvalues:    22.7620    27.1249    36.9527
     13  H    Isotropic =    28.8439   Anisotropy =     8.6560
   XX=    28.7307   YX=     1.1380   ZX=     0.6319
   XY=     1.0856   YY=    32.3827   ZY=    -4.7538
   XZ=    -0.0553   YZ=    -3.9724   ZZ=    25.4183
   Eigenvalues:    23.2171    28.7000    34.6145
     14  H    Isotropic =    30.0218   Anisotropy =    12.6960
   XX=    34.1549   YX=    -4.4895   ZX=     3.1225
   XY=    -4.9394   YY=    29.3080   ZY=    -2.7084
   XZ=     3.4119   YZ=    -2.5243   ZZ=    26.6025
   Eigenvalues:    24.9782    26.6014    38.4858
     15  H    Isotropic =    29.8889   Anisotropy =     9.1036
   XX=    27.2943   YX=     0.2299   ZX=     0.2075
   XY=     0.1011   YY=    26.6615   ZY=     1.6782
   XZ=     1.0956   YZ=     1.0106   ZZ=    35.7109
   Eigenvalues:    26.4598    27.2489    35.9580
     16  H    Isotropic =    29.2626   Anisotropy =     4.2774
   XX=    30.0117   YX=    -0.1632   ZX=    -2.0125
   XY=    -0.2273   YY=    26.6800   ZY=     0.3436
   XZ=    -0.8235   YZ=     0.5491   ZZ=    31.0962
   Eigenvalues:    26.6344    29.0393    32.1142
     17  H    Isotropic =    27.6737   Anisotropy =     2.1992
   XX=    27.1616   YX=    -1.0571   ZX=     0.6201
   XY=    -0.2198   YY=    28.1776   ZY=     1.7202
   XZ=     1.4856   YZ=     0.6071   ZZ=    27.6819
   Eigenvalues:    25.7093    28.1720    29.1398
     18  H    Isotropic =    28.1629   Anisotropy =     3.5892
   XX=    26.4042   YX=    -0.3111   ZX=     0.8101
   XY=    -1.0506   YY=    30.3827   ZY=    -1.0517
   XZ=     0.9403   YZ=     0.5291   ZZ=    27.7018
   Eigenvalues:    25.9081    28.0248    30.5557
     19  O    Isotropic =   297.6365   Anisotropy =    44.8442
   XX=   276.1643   YX=   -28.5968   ZX=    16.9286
   XY=   -16.4553   YY=   316.1174   ZY=     1.2685
   XZ=    -2.2721   YZ=    -7.4506   ZZ=   300.6277
   Eigenvalues:   265.1921   300.1847   327.5326
     20  H    Isotropic =    29.3070   Anisotropy =    18.8597
   XX=    24.5786   YX=    -4.5361   ZX=    -5.6306
   XY=    -5.9084   YY=    38.4945   ZY=     3.8720
   XZ=    -4.3434   YZ=     3.7413   ZZ=    24.8478
   Eigenvalues:    19.6446    26.3962    41.8801
     21  O    Isotropic =   297.2928   Anisotropy =    97.3035
   XX=   282.6262   YX=    -2.0353   ZX=    45.7291
   XY=   -12.8998   YY=   257.9053   ZY=     4.0237
   XZ=     9.1810   YZ=    24.6710   ZZ=   351.3468
   Eigenvalues:   250.5908   279.1258   362.1618
     22  H    Isotropic =    31.0655   Anisotropy =    16.1008
   XX=    27.6604   YX=    -2.7768   ZX=     2.9584
   XY=    -1.9326   YY=    24.8002   ZY=     2.8100
   XZ=     3.4302   YZ=     3.0181   ZZ=    40.7361
   Eigenvalues:    22.5344    28.8629    41.7994
     23  C    Isotropic =   135.7241   Anisotropy =    53.5813
   XX=   120.4445   YX=     4.0473   ZX=    13.4565
   XY=     3.6669   YY=   120.2697   ZY=     3.1888
   XZ=    17.9716   YZ=    -0.1310   ZZ=   166.4581
   Eigenvalues:   113.9136   121.8137   171.4450
     24  H    Isotropic =    27.9853   Anisotropy =     7.8704
   XX=    26.0439   YX=     1.5266   ZX=     1.7186
   XY=     1.9693   YY=    29.6015   ZY=    -3.1723
   XZ=     1.3483   YZ=    -5.2491   ZZ=    28.3105
   Eigenvalues:    22.9676    27.7561    33.2322
     25  H    Isotropic =    27.9385   Anisotropy =     6.6346
   XX=    29.5827   YX=     1.5850   ZX=    -2.0884
   XY=     0.3803   YY=    25.4981   ZY=     1.2911
   XZ=    -4.2611   YZ=     0.9759   ZZ=    28.7346
   Eigenvalues:    24.2095    27.2444    32.3616
     26  O    Isotropic =   330.5972   Anisotropy =    46.2344
   XX=   348.9683   YX=     1.1373   ZX=   -23.3311
   XY=     1.4058   YY=   317.0122   ZY=   -22.7494
   XZ=   -15.4685   YZ=    -4.1692   ZZ=   325.8110
   Eigenvalues:   304.2742   326.0973   361.4201
     27  H    Isotropic =    28.7182   Anisotropy =    16.2649
   XX=    37.4736   YX=     0.5663   ZX=    -3.9373
   XY=     2.2216   YY=    19.1115   ZY=     4.7284
   XZ=    -5.1789   YZ=     3.1479   ZZ=    29.5696
   Eigenvalues:    17.3906    29.2027    39.5615
 End of Minotr Frequency-dependent properties file   721 does not exist.
 End of Minotr Frequency-dependent properties file   722 does not exist.

 **********************************************************************

            Population analysis using the SCF density.

 **********************************************************************

 Orbital symmetries:
       Occupied  (A) (A) (A) (A) (A) (A) (A) (A) (A) (A) (A) (A)
                 (A) (A) (A) (A) (A) (A) (A) (A) (A) (A) (A) (A)
                 (A) (A) (A) (A) (A) (A) (A) (A) (A) (A) (A) (A)
                 (A) (A) (A) (A) (A) (A) (A) (A) (A) (A) (A)
       Virtual   (A) (A) (A) (A) (A) (A) (A) (A) (A) (A) (A) (A)
                 (A) (A) (A) (A) (A) (A) (A) (A) (A) (A) (A) (A)
                 (A) (A) (A) (A) (A) (A) (A) (A) (A) (A) (A) (A)
                 (A) (A) (A) (A) (A) (A) (A) (A) (A) (A) (A) (A)
                 (A) (A) (A) (A) (A) (A) (A) (A) (A) (A) (A) (A)
                 (A) (A) (A) (A) (A) (A) (A) (A) (A) (A) (A) (A)
                 (A) (A) (A) (A) (A) (A) (A) (A) (A) (A) (A) (A)
                 (A) (A) (A) (A) (A) (A) (A) (A) (A) (A) (A) (A)
                 (A) (A) (A) (A) (A) (A) (A) (A) (A) (A) (A) (A)
                 (A) (A) (A) (A) (A) (A) (A) (A) (A) (A) (A) (A)
                 (A) (A) (A) (A) (A) (A) (A) (A) (A) (A) (A) (A)
                 (A) (A) (A) (A) (A) (A) (A) (A) (A) (A) (A) (A)
                 (A) (A) (A) (A) (A) (A) (A) (A) (A) (A) (A) (A)
                 (A) (A) (A) (A) (A) (A) (A) (A) (A) (A) (A) (A)
                 (A) (A) (A) (A) (A) (A) (A) (A) (A) (A) (A) (A)
                 (A) (A) (A) (A) (A) (A) (A) (A) (A) (A) (A) (A)
                 (A) (A) (A) (A) (A) (A) (A) (A) (A) (A) (A) (A)
                 (A) (A) (A) (A) (A) (A) (A) (A) (A) (A) (A) (A)
                 (A) (A) (A) (A) (A) (A) (A) (A) (A) (A) (A) (A)
                 (A) (A) (A) (A) (A) (A) (A) (A) (A) (A) (A) (A)
                 (A) (A) (A) (A) (A) (A) (A) (A) (A) (A) (A) (A)
                 (A) (A) (A) (A)
 The electronic state is 1-A.
 Alpha  occ. eigenvalues --  -19.26527 -19.26149 -19.24882 -14.42254 -10.30589
 Alpha  occ. eigenvalues --  -10.30432 -10.29365 -10.28501 -10.28190 -10.27201
 Alpha  occ. eigenvalues --  -10.24823 -10.24686  -1.07662  -1.05863  -1.05307
 Alpha  occ. eigenvalues --   -0.96960  -0.82829  -0.79799  -0.75425  -0.71639
 Alpha  occ. eigenvalues --   -0.66869  -0.63233  -0.60321  -0.57954  -0.56139
 Alpha  occ. eigenvalues --   -0.53213  -0.51423  -0.50570  -0.48788  -0.47765
 Alpha  occ. eigenvalues --   -0.45499  -0.45234  -0.44602  -0.41830  -0.40996
 Alpha  occ. eigenvalues --   -0.40199  -0.38580  -0.37390  -0.36900  -0.36067
 Alpha  occ. eigenvalues --   -0.35390  -0.34413  -0.33348  -0.32258  -0.29771
 Alpha  occ. eigenvalues --   -0.28086  -0.24430
 Alpha virt. eigenvalues --    0.00619   0.01201   0.01898   0.02269   0.03731
 Alpha virt. eigenvalues --    0.04179   0.04227   0.04771   0.05161   0.07128
 Alpha virt. eigenvalues --    0.07852   0.08127   0.08589   0.09081   0.09304
 Alpha virt. eigenvalues --    0.10148   0.11372   0.11883   0.12125   0.12562
 Alpha virt. eigenvalues --    0.13189   0.13739   0.14000   0.14654   0.15292
 Alpha virt. eigenvalues --    0.15638   0.15975   0.16224   0.17513   0.18120
 Alpha virt. eigenvalues --    0.18594   0.19102   0.20113   0.20240   0.20527
 Alpha virt. eigenvalues --    0.21119   0.21587   0.21974   0.22261   0.23287
 Alpha virt. eigenvalues --    0.24253   0.24600   0.25134   0.25564   0.25768
 Alpha virt. eigenvalues --    0.26584   0.27159   0.27743   0.27989   0.28282
 Alpha virt. eigenvalues --    0.29795   0.30014   0.30581   0.31094   0.31558
 Alpha virt. eigenvalues --    0.32206   0.32528   0.33179   0.33814   0.34610
 Alpha virt. eigenvalues --    0.35289   0.35967   0.36424   0.37110   0.38612
 Alpha virt. eigenvalues --    0.39137   0.39609   0.40893   0.41319   0.41541
 Alpha virt. eigenvalues --    0.42519   0.43352   0.44374   0.46086   0.46629
 Alpha virt. eigenvalues --    0.47877   0.63535   0.63941   0.66097   0.68885
 Alpha virt. eigenvalues --    0.70585   0.70952   0.71489   0.73018   0.76211
 Alpha virt. eigenvalues --    0.76584   0.77949   0.78635   0.79600   0.82090
 Alpha virt. eigenvalues --    0.82541   0.83798   0.84018   0.87090   0.87740
 Alpha virt. eigenvalues --    0.89761   0.90146   0.92961   0.94194   0.97931
 Alpha virt. eigenvalues --    0.98451   0.99948   1.02166   1.03898   1.04815
 Alpha virt. eigenvalues --    1.05849   1.06547   1.07200   1.09772   1.10628
 Alpha virt. eigenvalues --    1.11935   1.12942   1.14046   1.14254   1.15680
 Alpha virt. eigenvalues --    1.17836   1.18124   1.20033   1.24514   1.25601
 Alpha virt. eigenvalues --    1.26871   1.28956   1.29843   1.31152   1.32585
 Alpha virt. eigenvalues --    1.33772   1.34810   1.36361   1.37966   1.39568
 Alpha virt. eigenvalues --    1.41961   1.44111   1.47621   1.48914   1.51093
 Alpha virt. eigenvalues --    1.54278   1.55260   1.56890   1.57997   1.61942
 Alpha virt. eigenvalues --    1.63385   1.64040   1.65618   1.68153   1.72034
 Alpha virt. eigenvalues --    1.72880   1.73868   1.76925   1.77551   1.79926
 Alpha virt. eigenvalues --    1.82691   1.83584   1.83838   1.84667   1.87432
 Alpha virt. eigenvalues --    1.88728   1.90050   1.92044   1.93418   1.95541
 Alpha virt. eigenvalues --    1.95800   2.00192   2.01036   2.02345   2.03757
 Alpha virt. eigenvalues --    2.04668   2.05122   2.06733   2.08459   2.12057
 Alpha virt. eigenvalues --    2.13393   2.15988   2.16720   2.17890   2.18544
 Alpha virt. eigenvalues --    2.20318   2.23018   2.24046   2.27508   2.30165
 Alpha virt. eigenvalues --    2.32522   2.33364   2.34749   2.35252   2.40402
 Alpha virt. eigenvalues --    2.41847   2.42740   2.43451   2.46212   2.47669
 Alpha virt. eigenvalues --    2.47746   2.49912   2.52094   2.52972   2.54419
 Alpha virt. eigenvalues --    2.55835   2.57491   2.58416   2.61357   2.62240
 Alpha virt. eigenvalues --    2.63744   2.65516   2.66693   2.67461   2.68477
 Alpha virt. eigenvalues --    2.70139   2.72068   2.74847   2.75562   2.78663
 Alpha virt. eigenvalues --    2.79687   2.80659   2.82861   2.84363   2.85993
 Alpha virt. eigenvalues --    2.86752   2.88744   2.89378   2.92612   2.94895
 Alpha virt. eigenvalues --    2.98290   2.99294   3.00546   3.03664   3.04571
 Alpha virt. eigenvalues --    3.06227   3.08008   3.11307   3.19865   3.32627
 Alpha virt. eigenvalues --    3.34305   3.36325   3.38082   3.39101   3.43363
 Alpha virt. eigenvalues --    3.47794   3.49445   3.53218   3.54649   3.55819
 Alpha virt. eigenvalues --    3.56693   3.58307   3.61176   3.63541   4.29043
 Alpha virt. eigenvalues --    4.37450   4.39598   4.42450   4.50243   4.53525
 Alpha virt. eigenvalues --    4.57233   4.69338   4.76987   4.82445   4.87231
 Alpha virt. eigenvalues --    4.94048
          Condensed to atoms (all electrons):
              1          2          3          4          5          6
     1  C    6.018166  -0.811686   0.126494   0.045414   0.183873  -0.027701
     2  C   -0.811686   8.609254  -0.373894  -0.280805   0.013918  -0.567723
     3  N    0.126494  -0.373894   7.651647   0.196558  -0.120788  -0.613611
     4  C    0.045414  -0.280805   0.196558   5.895701   0.056235  -0.485251
     5  C    0.183873   0.013918  -0.120788   0.056235   5.429588   0.174627
     6  C   -0.027701  -0.567723  -0.613611  -0.485251   0.174627  10.153353
     7  C   -0.110837   0.228785  -0.053007  -0.165413  -0.011209  -1.019618
     8  C    0.016832  -0.467540  -0.097710  -0.016059  -0.005477   0.602765
     9  H    0.435178  -0.081314   0.013934   0.001916  -0.047008   0.005577
    10  H    0.422662  -0.149032   0.017929   0.025502  -0.022651   0.006799
    11  H    0.057325   0.147348   0.001063  -0.009216   0.015182   0.045309
    12  H    0.011231  -0.034800  -0.023362   0.378291  -0.036425   0.010200
    13  H    0.017164   0.029219  -0.065236   0.354891  -0.017982   0.047755
    14  H   -0.039356   0.030502   0.009484  -0.036839   0.365895   0.002770
    15  H   -0.052468  -0.002290   0.016422  -0.068281   0.422016   0.007225
    16  H    0.005296   0.062807  -0.025534   0.077665  -0.024613   0.134678
    17  H    0.015613  -0.003444   0.063787   0.013064  -0.002352  -0.243987
    18  H    0.075322  -0.252847   0.057360   0.013652  -0.013441  -0.001450
    19  O    0.010476  -0.180678   0.026314   0.006644  -0.004812   0.013188
    20  H   -0.007598   0.046652  -0.002916  -0.001552   0.001895   0.011229
    21  O   -0.003604   0.028231   0.002900  -0.001532   0.000472   0.012057
    22  H    0.007197   0.000295   0.012131   0.003538  -0.002820  -0.115198
    23  C    0.118632  -0.112773   0.380652   0.222629  -0.088550  -1.855749
    24  H    0.006994  -0.019546  -0.019143   0.024512  -0.007800  -0.020038
    25  H   -0.000449   0.015293   0.017620   0.000628   0.000445  -0.183484
    26  O    0.012227  -0.027963   0.042623   0.006719  -0.007386  -0.190304
    27  H   -0.000203   0.024787   0.054140   0.013789  -0.001936  -0.102257
              7          8          9         10         11         12
     1  C   -0.110837   0.016832   0.435178   0.422662   0.057325   0.011231
     2  C    0.228785  -0.467540  -0.081314  -0.149032   0.147348  -0.034800
     3  N   -0.053007  -0.097710   0.013934   0.017929   0.001063  -0.023362
     4  C   -0.165413  -0.016059   0.001916   0.025502  -0.009216   0.378291
     5  C   -0.011209  -0.005477  -0.047008  -0.022651   0.015182  -0.036425
     6  C   -1.019618   0.602765   0.005577   0.006799   0.045309   0.010200
     7  C    6.953976  -0.197883  -0.003731  -0.005752  -0.043882   0.003975
     8  C   -0.197883   5.786705   0.006041   0.032956   0.049611   0.003989
     9  H   -0.003731   0.006041   0.518882  -0.023577  -0.006599   0.001516
    10  H   -0.005752   0.032956  -0.023577   0.512801   0.002923  -0.000019
    11  H   -0.043882   0.049611  -0.006599   0.002923   0.547638   0.000792
    12  H    0.003975   0.003989   0.001516  -0.000019   0.000792   0.538030
    13  H    0.013606  -0.004213  -0.000113  -0.000141  -0.000164  -0.028288
    14  H    0.003745   0.005125  -0.005019   0.000574  -0.000058  -0.002663
    15  H    0.003579   0.003576   0.004125  -0.005153  -0.000116   0.003959
    16  H   -0.019488  -0.053907   0.000001  -0.000056  -0.000535  -0.000247
    17  H    0.507709  -0.104075   0.000007  -0.000008   0.000584   0.000012
    18  H   -0.083097   0.491925   0.000230   0.000727   0.004228   0.000015
    19  O   -0.095573   0.321870  -0.000429   0.003545   0.007931   0.000063
    20  H   -0.054241   0.008720   0.000006  -0.000088  -0.000016   0.000000
    21  O    0.236292  -0.095228   0.000026  -0.000071  -0.000584   0.000015
    22  H    0.119161  -0.064450   0.000000  -0.000001   0.000002   0.000000
    23  C    0.003390  -0.132746   0.000274   0.000016   0.007200   0.003033
    24  H   -0.009226   0.000400   0.000000   0.000000   0.000010  -0.000087
    25  H   -0.004767  -0.009403   0.000000   0.000000  -0.000003   0.000002
    26  O    0.023593  -0.019051   0.000032   0.000004   0.000888   0.001030
    27  H   -0.029517  -0.011061   0.000000  -0.000001  -0.000570  -0.000179
             13         14         15         16         17         18
     1  C    0.017164  -0.039356  -0.052468   0.005296   0.015613   0.075322
     2  C    0.029219   0.030502  -0.002290   0.062807  -0.003444  -0.252847
     3  N   -0.065236   0.009484   0.016422  -0.025534   0.063787   0.057360
     4  C    0.354891  -0.036839  -0.068281   0.077665   0.013064   0.013652
     5  C   -0.017982   0.365895   0.422016  -0.024613  -0.002352  -0.013441
     6  C    0.047755   0.002770   0.007225   0.134678  -0.243987  -0.001450
     7  C    0.013606   0.003745   0.003579  -0.019488   0.507709  -0.083097
     8  C   -0.004213   0.005125   0.003576  -0.053907  -0.104075   0.491925
     9  H   -0.000113  -0.005019   0.004125   0.000001   0.000007   0.000230
    10  H   -0.000141   0.000574  -0.005153  -0.000056  -0.000008   0.000727
    11  H   -0.000164  -0.000058  -0.000116  -0.000535   0.000584   0.004228
    12  H   -0.028288  -0.002663   0.003959  -0.000247   0.000012   0.000015
    13  H    0.526327   0.000916  -0.005538   0.000881  -0.000017  -0.000017
    14  H    0.000916   0.513557  -0.022892  -0.000155   0.000000  -0.000054
    15  H   -0.005538  -0.022892   0.520048   0.000318   0.000005  -0.000007
    16  H    0.000881  -0.000155   0.000318   0.577878   0.004360   0.000511
    17  H   -0.000017   0.000000   0.000005   0.004360   0.521039   0.004422
    18  H   -0.000017  -0.000054  -0.000007   0.000511   0.004422   0.568519
    19  O   -0.000010  -0.000006  -0.000067  -0.001184  -0.004262  -0.043038
    20  H    0.000000   0.000000  -0.000001   0.000015  -0.000023  -0.005276
    21  O   -0.000047  -0.000008   0.000095  -0.002205  -0.053745  -0.009839
    22  H   -0.000003   0.000000   0.000012   0.004691   0.006997   0.005166
    23  C   -0.038791  -0.001364  -0.000503   0.082137   0.070072   0.019652
    24  H    0.001674   0.000001   0.000001  -0.002303   0.000092   0.000008
    25  H   -0.000044   0.000000  -0.000001   0.001217   0.000561  -0.000010
    26  O   -0.000317   0.000009   0.000063   0.007904   0.010273   0.000159
    27  H    0.000082  -0.000002   0.000000   0.000854   0.000273  -0.000010
             19         20         21         22         23         24
     1  C    0.010476  -0.007598  -0.003604   0.007197   0.118632   0.006994
     2  C   -0.180678   0.046652   0.028231   0.000295  -0.112773  -0.019546
     3  N    0.026314  -0.002916   0.002900   0.012131   0.380652  -0.019143
     4  C    0.006644  -0.001552  -0.001532   0.003538   0.222629   0.024512
     5  C   -0.004812   0.001895   0.000472  -0.002820  -0.088550  -0.007800
     6  C    0.013188   0.011229   0.012057  -0.115198  -1.855749  -0.020038
     7  C   -0.095573  -0.054241   0.236292   0.119161   0.003390  -0.009226
     8  C    0.321870   0.008720  -0.095228  -0.064450  -0.132746   0.000400
     9  H   -0.000429   0.000006   0.000026   0.000000   0.000274   0.000000
    10  H    0.003545  -0.000088  -0.000071  -0.000001   0.000016   0.000000
    11  H    0.007931  -0.000016  -0.000584   0.000002   0.007200   0.000010
    12  H    0.000063   0.000000   0.000015   0.000000   0.003033  -0.000087
    13  H   -0.000010   0.000000  -0.000047  -0.000003  -0.038791   0.001674
    14  H   -0.000006   0.000000  -0.000008   0.000000  -0.001364   0.000001
    15  H   -0.000067  -0.000001   0.000095   0.000012  -0.000503   0.000001
    16  H   -0.001184   0.000015  -0.002205   0.004691   0.082137  -0.002303
    17  H   -0.004262  -0.000023  -0.053745   0.006997   0.070072   0.000092
    18  H   -0.043038  -0.005276  -0.009839   0.005166   0.019652   0.000008
    19  O    8.255895   0.234670  -0.005455  -0.002001  -0.001868   0.000046
    20  H    0.234670   0.374766   0.009026   0.000026  -0.000478   0.000000
    21  O   -0.005455   0.009026   8.172707   0.252230  -0.027741  -0.000875
    22  H   -0.002001   0.000026   0.252230   0.373218   0.026752  -0.000006
    23  C   -0.001868  -0.000478  -0.027741   0.026752   6.375818   0.403069
    24  H    0.000046   0.000000  -0.000875  -0.000006   0.403069   0.587374
    25  H   -0.000032   0.000000   0.008812  -0.000015   0.535535  -0.039795
    26  O    0.000995   0.000030  -0.003928   0.000364   0.282526  -0.052530
    27  H   -0.000123   0.000001   0.000600  -0.000005   0.058661  -0.003294
             25         26         27
     1  C   -0.000449   0.012227  -0.000203
     2  C    0.015293  -0.027963   0.024787
     3  N    0.017620   0.042623   0.054140
     4  C    0.000628   0.006719   0.013789
     5  C    0.000445  -0.007386  -0.001936
     6  C   -0.183484  -0.190304  -0.102257
     7  C   -0.004767   0.023593  -0.029517
     8  C   -0.009403  -0.019051  -0.011061
     9  H    0.000000   0.000032   0.000000
    10  H    0.000000   0.000004  -0.000001
    11  H   -0.000003   0.000888  -0.000570
    12  H    0.000002   0.001030  -0.000179
    13  H   -0.000044  -0.000317   0.000082
    14  H    0.000000   0.000009  -0.000002
    15  H   -0.000001   0.000063   0.000000
    16  H    0.001217   0.007904   0.000854
    17  H    0.000561   0.010273   0.000273
    18  H   -0.000010   0.000159  -0.000010
    19  O   -0.000032   0.000995  -0.000123
    20  H    0.000000   0.000030   0.000001
    21  O    0.008812  -0.003928   0.000600
    22  H   -0.000015   0.000364  -0.000005
    23  C    0.535535   0.282526   0.058661
    24  H   -0.039795  -0.052530  -0.003294
    25  H    0.537193  -0.052283   0.006129
    26  O   -0.052283   8.280350   0.245891
    27  H    0.006129   0.245891   0.356618
 Mulliken atomic charges:
              1
     1  C   -0.532194
     2  C    0.129242
     3  N   -0.295859
     4  C   -0.272402
     5  C   -0.248898
     6  C    0.198842
     7  C   -0.190568
     8  C   -0.051711
     9  H    0.180044
    10  H    0.180112
    11  H    0.173708
    12  H    0.169917
    13  H    0.168406
    14  H    0.175839
    15  H    0.175871
    16  H    0.169013
    17  H    0.193044
    18  H    0.167188
    19  O   -0.542099
    20  H    0.385152
    21  O   -0.518601
    22  H    0.372716
    23  C   -0.329484
    24  H    0.150462
    25  H    0.166849
    26  O   -0.561920
    27  H    0.387332
 Sum of Mulliken atomic charges =   0.00000
 Mulliken charges with hydrogens summed into heavy atoms:
              1
     1  C   -0.172038
     2  C    0.302950
     3  N   -0.295859
     4  C    0.065921
     5  C    0.102813
     6  C    0.367855
     7  C    0.002475
     8  C    0.115477
    19  O   -0.156947
    21  O   -0.145886
    23  C   -0.012173
    26  O   -0.174588
 Sum of Mulliken charges with hydrogens summed into heavy atoms =   0.00000
 Electronic spatial extent (au):  <R**2>=           2039.1926
 Charge=              0.0000 electrons
 Dipole moment (field-independent basis, Debye):
    X=              4.2128    Y=             -0.7224    Z=              4.5882  Tot=              6.2706
 Quadrupole moment (field-independent basis, Debye-Ang):
   XX=            -84.4799   YY=            -73.3962   ZZ=            -70.7486
   XY=             -4.3033   XZ=             -3.6430   YZ=              2.1219
 Traceless Quadrupole moment (field-independent basis, Debye-Ang):
   XX=             -8.2717   YY=              2.8121   ZZ=              5.4596
   XY=             -4.3033   XZ=             -3.6430   YZ=              2.1219
 Octapole moment (field-independent basis, Debye-Ang**2):
  XXX=             35.9771  YYY=             16.3405  ZZZ=             10.7250  XYY=              3.9941
  XXY=             -1.2697  XXZ=             12.2387  XZZ=             -2.4791  YZZ=              4.5134
  YYZ=             17.8837  XYZ=             14.2984
 Hexadecapole moment (field-independent basis, Debye-Ang**3):
 XXXX=          -1379.4415 YYYY=           -925.2605 ZZZZ=           -287.8351 XXXY=            -25.8915
 XXXZ=            -41.0197 YYYX=            -27.5086 YYYZ=             26.8980 ZZZX=            -17.5916
 ZZZY=             33.8034 XXYY=           -429.4410 XXZZ=           -283.5642 YYZZ=           -227.4073
 XXYZ=            -28.4676 YYXZ=              2.6023 ZZXY=            -13.7803
 N-N= 8.050202220750D+02 E-N=-2.995455397230D+03  KE= 5.886643347431D+02
 1\1\GINC-COMPUTE-3-0\SP\RmPW1PW91\6-31+G(d,p)\C8H15N1O3\MAMICHETTI.IQU
 IR\17-May-2024\0\\# mpw1pw91/6-31+G** nmr scrf=(pcm,solvent=water)\\co
 mment\\0,1\C,0,2.540816,0.024539,-0.216839\C,0,1.107934,0.319351,-0.70
 97\N,0,0.287005,-0.913795,-0.409656\C,0,1.206565,-1.904877,0.20157\C,0
 ,2.348718,-1.091193,0.821324\C,0,-0.830769,-0.514492,0.481378\C,0,-1.0
 46157,0.964972,0.137865\C,0,0.387863,1.47414,-0.005088\H,0,3.155839,-0
 .340283,-1.047536\H,0,3.022716,0.921784,0.184999\H,0,1.099946,0.522966
 ,-1.786917\H,0,1.600501,-2.56943,-0.578162\H,0,0.665241,-2.527827,0.91
 9744\H,0,3.25315,-1.68452,0.989103\H,0,2.034576,-0.671978,1.785243\H,0
 ,-0.555826,-0.582115,1.548215\H,0,-1.557654,1.053705,-0.82636\H,0,0.79
 9246,1.616881,1.007511\O,0,0.525517,2.67687,-0.757895\H,0,0.045941,3.3
 68049,-0.270159\O,0,-1.848292,1.684348,1.068062\H,0,-1.405062,1.630211
 ,1.93326\C,0,-2.050923,-1.402236,0.248719\H,0,-1.846911,-2.416713,0.62
 3997\H,0,-2.909334,-1.006739,0.802321\O,0,-2.40831,-1.441406,-1.132897
 \H,0,-1.547011,-1.497148,-1.591204\\Version=AM64L-G09RevC.01\State=1-A
 \HF=-594.2026569\RMSD=1.919e-09\Dipole=1.6574419,-0.2842001,1.8051348\
 Quadrupole=-6.1497865,2.0906943,4.0590922,-3.1994243,-2.7084689,1.5775
 831\PG=C01 [X(C8H15N1O3)]\\@


      HUMANKIND PERIODICALLY GOES THROUGH A SPEEDUP OF ITS AFFAIRS, 
      THEREBY EXPERIENCING THE RACE BETWEEN THE RENEWABLE VITALITY
      OF THE LIVING, AND THE BECKONING VITIATION OF DECADENCE.
      IN THIS PERIODIC RACE, ANY PAUSE BECOMES A LUXURY.
      ONLY THEN CAN ONE REFLECT THAT ALL IS PERMITTED;
      ALL IS POSSIBLE.

                              -- THE APOCRYPHA OF MUAD'DIB
                                 CHILDREN OF DUNE, BY FRANK HERBERT
 Job cpu time:  0 days  0 hours  8 minutes 52.1 seconds.
 File lengths (MBytes):  RWF=    114 Int=      0 D2E=      0 Chk=      7 Scr=      1
 Normal termination of Gaussian 09 at Fri May 17 12:15:21 2024.
