 Entering Gaussian System, Link 0=g09
 Input=/home/mamichetti.iquir/Linux/02_Cardona_A1A3_R__R_R_R_019_OptB.gjc
 Output=/home/mamichetti.iquir/Linux/02_Cardona_A1A3_R__R_R_R_019_OptB.log
 Initial command:
 /opt/ohpc/pub/apps/software/Gaussian/09/AMD64.SSE4a-enabled/g09/l1.exe /local/mamichetti.iquir/Gau-711472.inp -scrdir=/local/mamichetti.iquir/
 Entering Link 1 = /opt/ohpc/pub/apps/software/Gaussian/09/AMD64.SSE4a-enabled/g09/l1.exe PID=    711473.
  
 Copyright (c) 1988,1990,1992,1993,1995,1998,2003,2009,2011,
            Gaussian, Inc.  All Rights Reserved.
  
 This is part of the Gaussian(R) 09 program.  It is based on
 the Gaussian(R) 03 system (copyright 2003, Gaussian, Inc.),
 the Gaussian(R) 98 system (copyright 1998, Gaussian, Inc.),
 the Gaussian(R) 94 system (copyright 1995, Gaussian, Inc.),
 the Gaussian 92(TM) system (copyright 1992, Gaussian, Inc.),
 the Gaussian 90(TM) system (copyright 1990, Gaussian, Inc.),
 the Gaussian 88(TM) system (copyright 1988, Gaussian, Inc.),
 the Gaussian 86(TM) system (copyright 1986, Carnegie Mellon
 University), and the Gaussian 82(TM) system (copyright 1983,
 Carnegie Mellon University). Gaussian is a federally registered
 trademark of Gaussian, Inc.
  
 This software contains proprietary and confidential information,
 including trade secrets, belonging to Gaussian, Inc.
  
 This software is provided under written license and may be
 used, copied, transmitted, or stored only in accord with that
 written license.
  
 The following legend is applicable only to US Government
 contracts under FAR:
  
                    RESTRICTED RIGHTS LEGEND
  
 Use, reproduction and disclosure by the US Government is
 subject to restrictions as set forth in subparagraphs (a)
 and (c) of the Commercial Computer Software - Restricted
 Rights clause in FAR 52.227-19.
  
 Gaussian, Inc.
 340 Quinnipiac St., Bldg. 40, Wallingford CT 06492
  
  
 ---------------------------------------------------------------
 Warning -- This program may not be used in any manner that
 competes with the business of Gaussian, Inc. or will provide
 assistance to any competitor of Gaussian, Inc.  The licensee
 of this program is prohibited from giving any competitor of
 Gaussian, Inc. access to this program.  By using this program,
 the user acknowledges that Gaussian, Inc. is engaged in the
 business of creating and licensing software in the field of
 computational chemistry and represents and warrants to the
 licensee that it is not a competitor of Gaussian, Inc. and that
 it will not use this program in any manner prohibited above.
 ---------------------------------------------------------------
  

 Cite this work as:
 Gaussian 09, Revision C.01,
 M. J. Frisch, G. W. Trucks, H. B. Schlegel, G. E. Scuseria, 
 M. A. Robb, J. R. Cheeseman, G. Scalmani, V. Barone, B. Mennucci, 
 G. A. Petersson, H. Nakatsuji, M. Caricato, X. Li, H. P. Hratchian, 
 A. F. Izmaylov, J. Bloino, G. Zheng, J. L. Sonnenberg, M. Hada, 
 M. Ehara, K. Toyota, R. Fukuda, J. Hasegawa, M. Ishida, T. Nakajima, 
 Y. Honda, O. Kitao, H. Nakai, T. Vreven, J. A. Montgomery, Jr., 
 J. E. Peralta, F. Ogliaro, M. Bearpark, J. J. Heyd, E. Brothers, 
 K. N. Kudin, V. N. Staroverov, T. Keith, R. Kobayashi, J. Normand, 
 K. Raghavachari, A. Rendell, J. C. Burant, S. S. Iyengar, J. Tomasi, 
 M. Cossi, N. Rega, J. M. Millam, M. Klene, J. E. Knox, J. B. Cross, 
 V. Bakken, C. Adamo, J. Jaramillo, R. Gomperts, R. E. Stratmann, 
 O. Yazyev, A. J. Austin, R. Cammi, C. Pomelli, J. W. Ochterski, 
 R. L. Martin, K. Morokuma, V. G. Zakrzewski, G. A. Voth, 
 P. Salvador, J. J. Dannenberg, S. Dapprich, A. D. Daniels, 
 O. Farkas, J. B. Foresman, J. V. Ortiz, J. Cioslowski, 
 and D. J. Fox, Gaussian, Inc., Wallingford CT, 2010.
 
 ******************************************
 Gaussian 09:  AM64L-G09RevC.01 23-Sep-2011
                17-May-2024 
 ******************************************
 %nprocshared=4
 Will use up to    4 processors via shared memory.
 ------------------------------------------------
 # mpw1pw91/6-31+G** nmr scrf=(pcm,solvent=water)
 ------------------------------------------------
 1/38=1/1;
 2/12=2,17=6,18=5,40=1/2;
 3/5=1,6=6,7=111,11=2,16=1,25=1,30=1,70=2201,72=1,74=-7/1,2,8,3;
 4//1;
 5/5=2,38=5,53=1/2;
 8/6=1,10=90,11=11/1;
 10/13=100,45=16/2;
 6/7=2,8=2,9=2,10=2,28=1/1;
 99/9=1/99;
 -------
 comment
 -------
 Charge =  0 Multiplicity = 1
 Symbolic Z-Matrix:
 6                     2.27146  -1.09582   0.21496 
 6                     1.27696  -0.15008  -0.47707 
 7                    -0.06783  -0.81683  -0.37886 
 6                     0.09694  -2.08265   0.36237 
 6                     1.56497  -2.45928   0.14687 
 6                    -1.03853   0.1395    0.18283 
 6                    -0.40713   1.51232  -0.10471 
 6                     1.08447   1.24497   0.1199 
 1                     3.2552   -1.0932   -0.26396 
 1                     2.40545  -0.79927   1.26259 
 1                     1.54547  -0.02799  -1.53583 
 1                    -0.59068  -2.85329  -0.00422 
 1                    -0.10787  -1.94523   1.4379 
 1                     1.69883  -2.91258  -0.84287 
 1                     1.92629  -3.17134   0.89522 
 1                    -1.11848   0.02084   1.27964 
 1                    -0.56321   1.78974  -1.15416 
 1                     1.2652    1.22174   1.20668 
 8                     1.9538    2.18904  -0.50024 
 1                     1.73794   3.05753  -0.11961 
 8                    -0.94122   2.591     0.65526 
 1                    -0.82009   2.36815   1.59515 
 6                    -2.44071   0.00626  -0.4008 
 1                    -3.07646   0.79226   0.02069 
 1                    -2.40501   0.14398  -1.4907 
 8                    -3.0764   -1.23453  -0.07114 
 1                    -2.6177   -1.92886  -0.5717 
 
                          Input orientation:                          
 ---------------------------------------------------------------------
 Center     Atomic      Atomic             Coordinates (Angstroms)
 Number     Number       Type             X           Y           Z
 ---------------------------------------------------------------------
      1          6           0        2.271456   -1.095824    0.214961
      2          6           0        1.276957   -0.150078   -0.477069
      3          7           0       -0.067825   -0.816830   -0.378856
      4          6           0        0.096937   -2.082647    0.362371
      5          6           0        1.564969   -2.459282    0.146874
      6          6           0       -1.038526    0.139501    0.182825
      7          6           0       -0.407129    1.512316   -0.104710
      8          6           0        1.084465    1.244967    0.119900
      9          1           0        3.255198   -1.093204   -0.263955
     10          1           0        2.405449   -0.799265    1.262588
     11          1           0        1.545472   -0.027994   -1.535829
     12          1           0       -0.590683   -2.853285   -0.004221
     13          1           0       -0.107869   -1.945230    1.437899
     14          1           0        1.698828   -2.912576   -0.842866
     15          1           0        1.926289   -3.171340    0.895224
     16          1           0       -1.118485    0.020837    1.279642
     17          1           0       -0.563208    1.789738   -1.154157
     18          1           0        1.265202    1.221737    1.206679
     19          8           0        1.953802    2.189036   -0.500241
     20          1           0        1.737939    3.057532   -0.119607
     21          8           0       -0.941224    2.591000    0.655264
     22          1           0       -0.820088    2.368150    1.595150
     23          6           0       -2.440713    0.006259   -0.400799
     24          1           0       -3.076461    0.792259    0.020686
     25          1           0       -2.405007    0.143984   -1.490702
     26          8           0       -3.076403   -1.234528   -0.071142
     27          1           0       -2.617698   -1.928864   -0.571704
 ---------------------------------------------------------------------
                    Distance matrix (angstroms):
                    1          2          3          4          5
     1  C    0.000000
     2  C    1.537000   0.000000
     3  N    2.429546   1.504208   0.000000
     4  C    2.392505   2.414939   1.476095   0.000000
     5  C    1.537133   2.409290   2.374880   1.530820   0.000000
     6  C    3.533135   2.425031   1.473878   2.501890   3.678743
     7  C    3.752253   2.395485   2.369642   3.660055   4.441402
     8  C    2.626269   1.529567   2.414029   3.479514   3.735381
     9  H    1.094128   2.201895   3.336475   3.368367   2.211747
    10  H    1.097007   2.172865   2.968456   2.790464   2.169535
    11  H    2.175449   1.099080   2.136253   3.150082   2.956862
    12  H    3.365791   3.319487   2.135622   1.095944   2.196566
    13  H    2.806823   2.967729   2.139039   1.103444   2.174714
    14  H    2.178873   2.818364   2.780021   2.169662   1.096804
    15  H    2.211259   3.381249   3.338186   2.194473   1.094352
    16  H    3.724537   2.975464   2.134523   2.596783   3.825582
    17  H    4.270395   2.758177   2.764180   4.210821   4.927067
    18  H    2.714248   2.171871   2.906310   3.605087   3.842258
    19  O    3.376792   2.435182   3.624492   4.737016   4.709226
    20  H    4.200826   3.260222   4.282368   5.417253   5.525954
    21  O    4.909975   3.703514   3.666815   4.796513   5.660814
    22  H    4.843726   3.877262   3.821871   4.708532   5.575850
    23  C    4.878348   3.721737   2.511684   3.374259   4.735433
    24  H    5.674753   4.481965   3.435214   4.295613   5.668449
    25  H    5.129885   3.830246   2.760758   3.827726   5.021888
    26  O    5.357302   4.504725   3.052982   3.313205   4.805194
    27  H    5.021616   4.282683   2.788487   2.874959   4.276962
                    6          7          8          9         10
     6  C    0.000000
     7  C    1.538168   0.000000
     8  C    2.394390   1.531920   0.000000
     9  H    4.489459   4.497414   3.213483   0.000000
    10  H    3.729361   3.888895   2.688795   1.771668   0.000000
    11  H    3.107873   2.869374   2.138784   2.382331   3.027467
    12  H    3.031884   4.370613   4.429130   4.237469   3.847156
    13  H    2.605271   3.797871   3.651868   3.864256   2.767804
    14  H    4.226148   4.955764   4.311557   2.463238   3.065670
    15  H    4.501034   5.327414   4.562188   2.725499   2.447711
    16  H    1.106111   2.155683   2.774254   4.769998   3.618144
    17  H    2.176403   1.096660   2.152864   4.866625   4.621311
    18  H    2.743479   2.144963   1.101950   3.388481   2.321150
    19  O    3.690691   2.487647   1.425338   3.538723   3.498785
    20  H    4.039199   2.643715   1.941593   4.421710   4.151014
    21  O    2.498502   1.423509   2.490348   5.659353   4.802391
    22  H    2.647499   1.947437   2.658049   5.660848   4.532902
    23  C    1.524631   2.547811   3.772586   5.802667   5.186618
    24  H    2.146057   2.767587   4.186657   6.612556   5.841798
    25  H    2.160552   2.790130   3.997827   5.922285   5.622349
    26  O    2.470910   3.830314   4.847393   6.336112   5.658533
    27  H    2.709471   4.116603   4.925193   5.940029   5.465586
                   11         12         13         14         15
    11  H    0.000000
    12  H    3.858918   0.000000
    13  H    3.905431   1.771266   0.000000
    14  H    2.970611   2.438996   3.066236   0.000000
    15  H    3.991950   2.691711   2.436317   1.771907   0.000000
    16  H    3.876329   3.191780   2.216260   4.587723   4.428140
    17  H    2.810045   4.783385   4.569034   5.227377   5.916912
    18  H    3.026835   4.638577   3.459547   4.634783   4.453444
    19  O    2.480806   5.669695   5.009893   5.119458   5.539107
    20  H    3.400470   6.354019   5.555219   6.013886   6.313811
    21  O    4.224177   5.495274   4.678074   6.285190   6.440867
    22  H    4.597870   5.465711   4.374612   6.338369   6.222414
    23  C    4.144772   3.428830   3.554051   5.084370   5.554054
    24  H    4.945485   4.412449   4.279588   6.105318   6.442239
    25  H    3.954478   3.805919   4.268297   5.157879   5.953498
    26  O    4.996275   2.967096   3.405069   5.119984   5.450874
    27  H    4.677053   2.298996   3.215278   4.435495   4.933907
                   16         17         18         19         20
    16  H    0.000000
    17  H    3.059530   0.000000
    18  H    2.670103   3.039614   0.000000
    19  O    4.160291   2.631042   2.079282   0.000000
    20  H    4.397564   2.823628   2.313581   0.972504   0.000000
    21  O    2.650850   2.014676   2.654667   3.142919   2.827718
    22  H    2.387146   2.821212   2.411142   3.480978   3.155811
    23  C    2.138313   2.696919   4.218433   4.907766   5.181744
    24  H    2.452291   2.948162   4.521180   5.246513   5.322555
    25  H    3.056977   2.492788   4.680582   4.915533   5.247158
    26  O    2.689610   4.078634   5.149330   6.099826   6.449963
    27  H    3.078385   4.288144   5.307150   6.153115   6.636272
                   21         22         23         24         25
    21  O    0.000000
    22  H    0.973510   0.000000
    23  C    3.169325   3.491241   0.000000
    24  H    2.863109   3.170739   1.095272   0.000000
    25  H    3.568714   4.120845   1.099150   1.776346   0.000000
    26  O    4.440869   4.565827   1.432595   2.028866   2.089550
    27  H    4.974453   5.137216   1.950701   2.822393   2.277387
                   26         27
    26  O    0.000000
    27  H    0.971121   0.000000
 Stoichiometry    C8H15NO3
 Framework group  C1[X(C8H15NO3)]
 Deg. of freedom    75
 Full point group                 C1      NOp   1
 Largest Abelian subgroup         C1      NOp   1
 Largest concise Abelian subgroup C1      NOp   1
                         Standard orientation:                         
 ---------------------------------------------------------------------
 Center     Atomic      Atomic             Coordinates (Angstroms)
 Number     Number       Type             X           Y           Z
 ---------------------------------------------------------------------
      1          6           0        2.271456   -1.095825    0.214961
      2          6           0        1.276957   -0.150079   -0.477069
      3          7           0       -0.067825   -0.816830   -0.378856
      4          6           0        0.096936   -2.082647    0.362371
      5          6           0        1.564968   -2.459283    0.146874
      6          6           0       -1.038526    0.139501    0.182825
      7          6           0       -0.407128    1.512316   -0.104710
      8          6           0        1.084466    1.244966    0.119900
      9          1           0        3.255198   -1.093206   -0.263955
     10          1           0        2.405449   -0.799266    1.262588
     11          1           0        1.545472   -0.027995   -1.535829
     12          1           0       -0.590684   -2.853285   -0.004221
     13          1           0       -0.107870   -1.945230    1.437899
     14          1           0        1.698827   -2.912577   -0.842866
     15          1           0        1.926288   -3.171341    0.895224
     16          1           0       -1.118485    0.020837    1.279642
     17          1           0       -0.563207    1.789738   -1.154157
     18          1           0        1.265203    1.221736    1.206679
     19          8           0        1.953803    2.189035   -0.500241
     20          1           0        1.737940    3.057531   -0.119607
     21          8           0       -0.941223    2.591000    0.655264
     22          1           0       -0.820087    2.368150    1.595150
     23          6           0       -2.440713    0.006260   -0.400799
     24          1           0       -3.076461    0.792260    0.020686
     25          1           0       -2.405007    0.143985   -1.490702
     26          8           0       -3.076404   -1.234527   -0.071142
     27          1           0       -2.617699   -1.928863   -0.571704
 ---------------------------------------------------------------------
 Rotational constants (GHZ):      1.0192918      0.9476769      0.5301711
 Standard basis: 6-31+G(d,p) (6D, 7F)
 There are   303 symmetry adapted basis functions of A   symmetry.
 Integral buffers will be    131072 words long.
 Raffenetti 2 integral format.
 Two-electron integral symmetry is turned on.
   303 basis functions,   489 primitive gaussians,   303 cartesian basis functions
    47 alpha electrons       47 beta electrons
       nuclear repulsion energy       794.8212834999 Hartrees.
 NAtoms=   27 NActive=   27 NUniq=   27 SFac= 1.00D+00 NAtFMM=   60 NAOKFM=F Big=F
 ------------------------------------------------------------------------------
 Polarizable Continuum Model (PCM)
 =================================
 Model                : PCM.
 Atomic radii         : UFF (Universal Force Field).
 Polarization charges : Total charges.
 Charge compensation  : None.
 Solution method      : Matrix inversion.
 Cavity type          : Scaled VdW (van der Waals Surface) (Alpha=1.100).
 Cavity algorithm     : GePol (No added spheres)
                        Default sphere list used, NSphG=   27.
                        Lebedev-Laikov grids with approx.  5.0 points / Ang**2.
                        Smoothing algorithm: Karplus/York (Gamma=1.0000).
                        Polarization charges: spherical gaussians, with
                                              point-specific exponents (IZeta= 3).
                        Self-potential: point-specific (ISelfS= 7).
                        Self-field    : sphere-specific E.n sum rule (ISelfD= 2).
 Solvent              : Water, Eps=  78.355300 Eps(inf)=   1.777849
 ------------------------------------------------------------------------------
 One-electron integrals computed using PRISM.
 NBasis=   303 RedAO= T  NBF=   303
 NBsUse=   303 1.00D-06 NBFU=   303
 Harris functional with IExCor=  908 diagonalized for initial guess.
 ExpMin= 4.38D-02 ExpMax= 5.48D+03 ExpMxC= 8.25D+02 IAcc=2 IRadAn=         4 AccDes= 0.00D+00
 HarFok:  IExCor=  908 AccDes= 0.00D+00 IRadAn=         4 IDoV= 1
 ScaDFX=  1.000000  1.000000  1.000000  1.000000
 FoFCou: FMM=F IPFlag=           0 FMFlag=      100000 FMFlg1=           0
         NFxFlg=           0 DoJE=T BraDBF=F KetDBF=T FulRan=T
         Omega=  0.000000  0.000000  1.000000  0.000000  0.000000 ICntrl=     500 IOpCl=  0
         NMat0=    1 NMatS0=    1 NMatT0=    0 NMatD0=    1 NMtDS0=    0 NMtDT0=    0
         I1Cent=           4 NGrid=           0.
 Petite list used in FoFCou.
 Initial guess orbital symmetries:
       Occupied  (A) (A) (A) (A) (A) (A) (A) (A) (A) (A) (A) (A)
                 (A) (A) (A) (A) (A) (A) (A) (A) (A) (A) (A) (A)
                 (A) (A) (A) (A) (A) (A) (A) (A) (A) (A) (A) (A)
                 (A) (A) (A) (A) (A) (A) (A) (A) (A) (A) (A)
       Virtual   (A) (A) (A) (A) (A) (A) (A) (A) (A) (A) (A) (A)
                 (A) (A) (A) (A) (A) (A) (A) (A) (A) (A) (A) (A)
                 (A) (A) (A) (A) (A) (A) (A) (A) (A) (A) (A) (A)
                 (A) (A) (A) (A) (A) (A) (A) (A) (A) (A) (A) (A)
                 (A) (A) (A) (A) (A) (A) (A) (A) (A) (A) (A) (A)
                 (A) (A) (A) (A) (A) (A) (A) (A) (A) (A) (A) (A)
                 (A) (A) (A) (A) (A) (A) (A) (A) (A) (A) (A) (A)
                 (A) (A) (A) (A) (A) (A) (A) (A) (A) (A) (A) (A)
                 (A) (A) (A) (A) (A) (A) (A) (A) (A) (A) (A) (A)
                 (A) (A) (A) (A) (A) (A) (A) (A) (A) (A) (A) (A)
                 (A) (A) (A) (A) (A) (A) (A) (A) (A) (A) (A) (A)
                 (A) (A) (A) (A) (A) (A) (A) (A) (A) (A) (A) (A)
                 (A) (A) (A) (A) (A) (A) (A) (A) (A) (A) (A) (A)
                 (A) (A) (A) (A) (A) (A) (A) (A) (A) (A) (A) (A)
                 (A) (A) (A) (A) (A) (A) (A) (A) (A) (A) (A) (A)
                 (A) (A) (A) (A) (A) (A) (A) (A) (A) (A) (A) (A)
                 (A) (A) (A) (A) (A) (A) (A) (A) (A) (A) (A) (A)
                 (A) (A) (A) (A) (A) (A) (A) (A) (A) (A) (A) (A)
                 (A) (A) (A) (A) (A) (A) (A) (A) (A) (A) (A) (A)
                 (A) (A) (A) (A) (A) (A) (A) (A) (A) (A) (A) (A)
                 (A) (A) (A) (A) (A) (A) (A) (A) (A) (A) (A) (A)
                 (A) (A) (A) (A)
 The electronic state of the initial guess is 1-A.
 Requested convergence on RMS density matrix=1.00D-08 within 128 cycles.
 Requested convergence on MAX density matrix=1.00D-06.
 Requested convergence on             energy=1.00D-06.
 No special actions if energy rises.
 Error on total polarization charges =  0.01463
 SCF Done:  E(RmPW1PW91) =  -594.198935834     A.U. after   13 cycles
             Convg  =    0.7866D-08             -V/T =  2.0094
 Range of M.O.s used for correlation:     1   303
 NBasis=   303 NAE=    47 NBE=    47 NFC=     0 NFV=     0
 NROrb=    303 NOA=    47 NOB=    47 NVA=   256 NVB=   256

 **** Warning!!: The largest alpha MO coefficient is  0.55841034D+02

 NEqPCM:  Using equilibrium solvation (IEInf=0, Eps=  78.3553, EpsInf=   1.7778)
          Differentiating once with respect to magnetic field using GIAOs.
          Electric field/nuclear overlap derivatives assumed to be zero.
 FoFCou: FMM=F IPFlag=           0 FMFlag=    10101102 FMFlg1=           0
         NFxFlg=    40000000 DoJE=F BraDBF=F KetDBF=T FulRan=T
         Omega=  0.000000  0.000000  1.000000  0.000000  0.000000 ICntrl=    6100 IOpCl=  0
         NMat0=    1 NMatS0=    1 NMatT0=    0 NMatD0=    1 NMtDS0=    0 NMtDT0=    0
         I1Cent=           7 NGrid=        1853.
 Symmetry not used in FoFCou.
          There are     3 degrees of freedom in the 1st order CPHF.  IDoFFX=0.
      3 vectors produced by pass  0 Test12= 4.01D-13 3.33D-08 XBig12= 4.37D+01 1.09D+00.
 AX will form     3 AO Fock derivatives at one time.
      3 vectors produced by pass  1 Test12= 4.01D-13 3.33D-08 XBig12= 1.19D-01 7.05D-02.
      3 vectors produced by pass  2 Test12= 4.01D-13 3.33D-08 XBig12= 3.06D-04 4.22D-03.
      3 vectors produced by pass  3 Test12= 4.01D-13 3.33D-08 XBig12= 1.21D-06 2.87D-04.
      3 vectors produced by pass  4 Test12= 4.01D-13 3.33D-08 XBig12= 3.95D-09 1.30D-05.
      3 vectors produced by pass  5 Test12= 4.01D-13 3.33D-08 XBig12= 1.13D-11 6.38D-07.
 Inverted reduced A of dimension    18 with in-core refinement.
 Calculating GIAO nuclear magnetic shielding tensors.
 SCF GIAO Magnetic shielding tensor (ppm):
      1  C    Isotropic =   162.5970   Anisotropy =    25.5178
   XX=   160.6867   YX=    -9.6397   ZX=     8.7139
   XY=    -0.1323   YY=   174.7316   ZY=    -6.7314
   XZ=    13.8084   YZ=    -4.6860   ZZ=   152.3726
   Eigenvalues:   144.3987   163.7833   179.6088
      2  C    Isotropic =   128.4730   Anisotropy =    53.7666
   XX=   147.7538   YX=    15.7750   ZX=    -0.2500
   XY=    22.3567   YY=   141.9490   ZY=    -4.2745
   XZ=    -3.2523   YZ=    -2.4457   ZZ=    95.7163
   Eigenvalues:    95.4703   125.6314   164.3174
      3  N    Isotropic =   196.3248   Anisotropy =    90.7015
   XX=   246.5851   YX=   -16.8414   ZX=    -9.5576
   XY=   -25.6290   YY=   211.5402   ZY=    -9.8194
   XZ=   -10.4611   YZ=    -9.4799   ZZ=   130.8492
   Eigenvalues:   128.3509   203.8311   256.7925
      4  C    Isotropic =   136.5317   Anisotropy =    56.8407
   XX=   127.9824   YX=   -10.5895   ZX=     2.6177
   XY=   -20.1392   YY=   157.8440   ZY=   -22.5411
   XZ=    -3.7098   YZ=   -26.0867   ZZ=   123.7687
   Eigenvalues:   107.8038   127.3658   174.4255
      5  C    Isotropic =   164.1918   Anisotropy =    23.8252
   XX=   179.9503   YX=    -0.2836   ZX=     1.3248
   XY=    -0.7568   YY=   177.8921   ZY=   -11.5497
   XZ=    -4.3845   YZ=     0.1591   ZZ=   134.7329
   Eigenvalues:   133.9395   178.5606   180.0753
      6  C    Isotropic =   122.1220   Anisotropy =    37.8640
   XX=   113.9861   YX=    -9.0316   ZX=    -3.9888
   XY=   -18.4433   YY=   137.6917   ZY=    12.8919
   XZ=   -15.0228   YZ=     1.2334   ZZ=   114.6881
   Eigenvalues:   103.7561   115.2453   147.3646
      7  C    Isotropic =   112.4655   Anisotropy =    37.9046
   XX=   126.5750   YX=    -6.6010   ZX=   -11.7677
   XY=    -7.0951   YY=   124.8988   ZY=    23.8062
   XZ=    -7.2716   YZ=     3.3571   ZZ=    85.9225
   Eigenvalues:    80.5391   119.1220   137.7352
      8  C    Isotropic =   111.1223   Anisotropy =    16.3546
   XX=   119.9212   YX=     3.5368   ZX=    -9.0854
   XY=    -0.1619   YY=   114.6257   ZY=    -8.7378
   XZ=    -0.4024   YZ=    -1.0478   ZZ=    98.8199
   Eigenvalues:    96.6899   114.6515   122.0253
      9  H    Isotropic =    29.4998   Anisotropy =     9.7521
   XX=    35.3289   YX=    -0.6869   ZX=    -2.5083
   XY=    -0.0818   YY=    27.5181   ZY=    -0.3169
   XZ=    -2.7186   YZ=    -0.1729   ZZ=    25.6525
   Eigenvalues:    24.9488    27.5495    36.0012
     10  H    Isotropic =    30.0565   Anisotropy =     8.3265
   XX=    28.2744   YX=     0.2597   ZX=     4.4969
   XY=    -0.1248   YY=    29.3385   ZY=     1.3826
   XZ=     4.3751   YZ=     1.5712   ZZ=    32.5564
   Eigenvalues:    25.3511    29.2109    35.6074
     11  H    Isotropic =    28.1522   Anisotropy =     7.0119
   XX=    28.4284   YX=     1.1007   ZX=    -3.3469
   XY=     0.8093   YY=    26.0447   ZY=    -1.7098
   XZ=    -2.4561   YZ=    -1.9737   ZZ=    29.9836
   Eigenvalues:    25.2956    26.3343    32.8268
     12  H    Isotropic =    28.4122   Anisotropy =     8.3837
   XX=    29.4661   YX=     2.2439   ZX=     1.2903
   XY=     2.8441   YY=    32.5356   ZY=     0.3038
   XZ=     1.4718   YZ=    -0.5873   ZZ=    23.2350
   Eigenvalues:    22.8921    28.3433    34.0014
     13  H    Isotropic =    28.9739   Anisotropy =     7.5841
   XX=    27.6038   YX=    -0.3168   ZX=    -1.3105
   XY=    -0.4487   YY=    27.9203   ZY=    -4.4244
   XZ=    -2.4507   YZ=    -2.9193   ZZ=    31.3978
   Eigenvalues:    24.8890    28.0028    34.0300
     14  H    Isotropic =    29.5053   Anisotropy =    10.6145
   XX=    27.6957   YX=    -1.3942   ZX=    -1.8512
   XY=    -1.5317   YY=    31.3150   ZY=     5.2509
   XZ=    -1.9048   YZ=     5.7186   ZZ=    29.5053
   Eigenvalues:    24.7553    27.1790    36.5817
     15  H    Isotropic =    29.4777   Anisotropy =    11.4996
   XX=    27.9611   YX=    -2.9061   ZX=     2.1703
   XY=    -3.3988   YY=    33.1691   ZY=    -4.7790
   XZ=     2.1464   YZ=    -4.1315   ZZ=    27.3028
   Eigenvalues:    24.8114    26.4776    37.1441
     16  H    Isotropic =    29.0155   Anisotropy =     4.8775
   XX=    30.1499   YX=    -0.8980   ZX=    -1.8100
   XY=    -0.5492   YY=    27.5772   ZY=     2.7335
   XZ=    -1.8483   YZ=     0.9460   ZZ=    29.3194
   Eigenvalues:    26.3660    28.4134    32.2672
     17  H    Isotropic =    27.9618   Anisotropy =     1.1729
   XX=    26.7101   YX=    -0.7785   ZX=    -0.0433
   XY=    -0.0917   YY=    28.6506   ZY=     0.8750
   XZ=     0.4449   YZ=    -0.7866   ZZ=    28.5247
   Eigenvalues:    26.5951    28.5466    28.7438
     18  H    Isotropic =    28.0066   Anisotropy =     2.8182
   XX=    26.9163   YX=     1.8924   ZX=    -0.1167
   XY=     1.2698   YY=    28.9462   ZY=    -0.9333
   XZ=     0.5849   YZ=    -0.1315   ZZ=    28.1573
   Eigenvalues:    25.9546    28.1798    29.8854
     19  O    Isotropic =   298.2914   Anisotropy =    39.1500
   XX=   267.7576   YX=    -0.6508   ZX=     6.8348
   XY=    10.4670   YY=   321.1216   ZY=    -8.8749
   XZ=   -15.4115   YZ=    -4.7210   ZZ=   305.9949
   Eigenvalues:   266.9597   303.5232   324.3914
     20  H    Isotropic =    29.3603   Anisotropy =    18.2907
   XX=    25.0357   YX=     1.8207   ZX=    -3.3202
   XY=     0.4265   YY=    40.1999   ZY=     5.2049
   XZ=    -2.4233   YZ=     4.8332   ZZ=    22.8454
   Eigenvalues:    19.7271    26.7996    41.5541
     21  O    Isotropic =   291.0119   Anisotropy =    89.0276
   XX=   255.6407   YX=    -7.8132   ZX=    19.9275
   XY=   -11.8506   YY=   267.7991   ZY=   -15.6208
   XZ=    -3.8463   YZ=    22.5608   ZZ=   349.5960
   Eigenvalues:   249.4024   273.2696   350.3637
     22  H    Isotropic =    30.7850   Anisotropy =    15.3942
   XX=    23.7141   YX=    -2.6048   ZX=    -0.2277
   XY=    -1.7455   YY=    27.6419   ZY=     1.3406
   XZ=    -0.0849   YZ=     0.1984   ZZ=    40.9990
   Eigenvalues:    22.7459    28.5613    41.0478
     23  C    Isotropic =   125.2870   Anisotropy =    49.3823
   XX=   130.5746   YX=    18.0688   ZX=     5.3952
   XY=    24.3558   YY=   138.7178   ZY=   -16.7554
   XZ=     2.5728   YZ=   -14.9588   ZZ=   106.5687
   Eigenvalues:    95.2701   122.3824   158.2086
     24  H    Isotropic =    27.7453   Anisotropy =     5.2368
   XX=    30.6473   YX=     0.0924   ZX=     0.1725
   XY=    -1.5457   YY=    30.2850   ZY=     1.0706
   XZ=    -0.3889   YZ=     0.0673   ZZ=    22.3035
   Eigenvalues:    22.2627    29.7365    31.2365
     25  H    Isotropic =    27.9482   Anisotropy =     5.4963
   XX=    27.0858   YX=     2.3630   ZX=     1.9835
   XY=     2.2982   YY=    28.0856   ZY=    -4.3253
   XZ=     2.4242   YZ=    -2.1118   ZZ=    28.6731
   Eigenvalues:    22.7662    29.4660    31.6123
     26  O    Isotropic =   306.9611   Anisotropy =    22.1279
   XX=   301.9373   YX=   -15.4346   ZX=     2.4005
   XY=    -0.3887   YY=   315.4523   ZY=     1.9457
   XZ=   -13.3274   YZ=     8.0669   ZZ=   303.4938
   Eigenvalues:   296.5896   302.5807   321.7130
     27  H    Isotropic =    30.0636   Anisotropy =    14.7693
   XX=    29.3492   YX=    -1.6461   ZX=    -3.6869
   XY=    -2.3275   YY=    36.0199   ZY=     6.5825
   XZ=    -2.8631   YZ=     6.2536   ZZ=    24.8216
   Eigenvalues:    21.2821    28.9988    39.9097
 End of Minotr Frequency-dependent properties file   721 does not exist.
 End of Minotr Frequency-dependent properties file   722 does not exist.

 **********************************************************************

            Population analysis using the SCF density.

 **********************************************************************

 Orbital symmetries:
       Occupied  (A) (A) (A) (A) (A) (A) (A) (A) (A) (A) (A) (A)
                 (A) (A) (A) (A) (A) (A) (A) (A) (A) (A) (A) (A)
                 (A) (A) (A) (A) (A) (A) (A) (A) (A) (A) (A) (A)
                 (A) (A) (A) (A) (A) (A) (A) (A) (A) (A) (A)
       Virtual   (A) (A) (A) (A) (A) (A) (A) (A) (A) (A) (A) (A)
                 (A) (A) (A) (A) (A) (A) (A) (A) (A) (A) (A) (A)
                 (A) (A) (A) (A) (A) (A) (A) (A) (A) (A) (A) (A)
                 (A) (A) (A) (A) (A) (A) (A) (A) (A) (A) (A) (A)
                 (A) (A) (A) (A) (A) (A) (A) (A) (A) (A) (A) (A)
                 (A) (A) (A) (A) (A) (A) (A) (A) (A) (A) (A) (A)
                 (A) (A) (A) (A) (A) (A) (A) (A) (A) (A) (A) (A)
                 (A) (A) (A) (A) (A) (A) (A) (A) (A) (A) (A) (A)
                 (A) (A) (A) (A) (A) (A) (A) (A) (A) (A) (A) (A)
                 (A) (A) (A) (A) (A) (A) (A) (A) (A) (A) (A) (A)
                 (A) (A) (A) (A) (A) (A) (A) (A) (A) (A) (A) (A)
                 (A) (A) (A) (A) (A) (A) (A) (A) (A) (A) (A) (A)
                 (A) (A) (A) (A) (A) (A) (A) (A) (A) (A) (A) (A)
                 (A) (A) (A) (A) (A) (A) (A) (A) (A) (A) (A) (A)
                 (A) (A) (A) (A) (A) (A) (A) (A) (A) (A) (A) (A)
                 (A) (A) (A) (A) (A) (A) (A) (A) (A) (A) (A) (A)
                 (A) (A) (A) (A) (A) (A) (A) (A) (A) (A) (A) (A)
                 (A) (A) (A) (A) (A) (A) (A) (A) (A) (A) (A) (A)
                 (A) (A) (A) (A) (A) (A) (A) (A) (A) (A) (A) (A)
                 (A) (A) (A) (A) (A) (A) (A) (A) (A) (A) (A) (A)
                 (A) (A) (A) (A) (A) (A) (A) (A) (A) (A) (A) (A)
                 (A) (A) (A) (A)
 The electronic state is 1-A.
 Alpha  occ. eigenvalues --  -19.26626 -19.26141 -19.25666 -14.41582 -10.30813
 Alpha  occ. eigenvalues --  -10.30570 -10.29508 -10.28267 -10.28061 -10.27157
 Alpha  occ. eigenvalues --  -10.24771 -10.24747  -1.07728  -1.05894  -1.05691
 Alpha  occ. eigenvalues --   -0.96864  -0.83295  -0.79618  -0.75495  -0.71715
 Alpha  occ. eigenvalues --   -0.66528  -0.63030  -0.60887  -0.57878  -0.56083
 Alpha  occ. eigenvalues --   -0.53476  -0.52178  -0.50279  -0.49914  -0.46964
 Alpha  occ. eigenvalues --   -0.45752  -0.44611  -0.43470  -0.42896  -0.40639
 Alpha  occ. eigenvalues --   -0.39672  -0.39190  -0.37846  -0.37076  -0.35958
 Alpha  occ. eigenvalues --   -0.34993  -0.34785  -0.33229  -0.32331  -0.30595
 Alpha  occ. eigenvalues --   -0.28093  -0.23266
 Alpha virt. eigenvalues --    0.00886   0.01065   0.01903   0.02273   0.03420
 Alpha virt. eigenvalues --    0.04209   0.04339   0.04903   0.05562   0.06860
 Alpha virt. eigenvalues --    0.07778   0.08078   0.08560   0.09155   0.09476
 Alpha virt. eigenvalues --    0.09914   0.10738   0.11966   0.12224   0.12815
 Alpha virt. eigenvalues --    0.13154   0.13836   0.14206   0.14322   0.15180
 Alpha virt. eigenvalues --    0.15692   0.16124   0.17168   0.17463   0.18021
 Alpha virt. eigenvalues --    0.18425   0.19506   0.19660   0.20512   0.21119
 Alpha virt. eigenvalues --    0.21585   0.22600   0.22799   0.22941   0.23351
 Alpha virt. eigenvalues --    0.24189   0.24724   0.25015   0.25979   0.26085
 Alpha virt. eigenvalues --    0.26346   0.27074   0.27245   0.27929   0.28977
 Alpha virt. eigenvalues --    0.29357   0.30118   0.30631   0.31627   0.31933
 Alpha virt. eigenvalues --    0.32223   0.32543   0.33250   0.34229   0.34632
 Alpha virt. eigenvalues --    0.34840   0.35605   0.36355   0.36832   0.37810
 Alpha virt. eigenvalues --    0.38413   0.38958   0.39296   0.39815   0.40479
 Alpha virt. eigenvalues --    0.41681   0.42383   0.43768   0.44535   0.45218
 Alpha virt. eigenvalues --    0.45533   0.62340   0.64784   0.66462   0.68192
 Alpha virt. eigenvalues --    0.69797   0.70071   0.71501   0.72018   0.74018
 Alpha virt. eigenvalues --    0.74549   0.76537   0.79566   0.80170   0.82126
 Alpha virt. eigenvalues --    0.82884   0.84863   0.86238   0.86447   0.88094
 Alpha virt. eigenvalues --    0.89223   0.91076   0.91320   0.94498   0.97049
 Alpha virt. eigenvalues --    0.97781   0.99509   1.01460   1.03136   1.04052
 Alpha virt. eigenvalues --    1.05847   1.07067   1.07490   1.08039   1.10772
 Alpha virt. eigenvalues --    1.11465   1.12874   1.13675   1.14238   1.15416
 Alpha virt. eigenvalues --    1.18272   1.19049   1.21115   1.21533   1.23505
 Alpha virt. eigenvalues --    1.26374   1.26586   1.28839   1.30363   1.31761
 Alpha virt. eigenvalues --    1.34246   1.36001   1.36608   1.39670   1.41549
 Alpha virt. eigenvalues --    1.43596   1.44203   1.46660   1.47367   1.50158
 Alpha virt. eigenvalues --    1.54121   1.54386   1.56933   1.60715   1.61110
 Alpha virt. eigenvalues --    1.62468   1.63419   1.63890   1.66800   1.68470
 Alpha virt. eigenvalues --    1.71757   1.72864   1.74971   1.77788   1.79557
 Alpha virt. eigenvalues --    1.81194   1.82281   1.83547   1.84567   1.87758
 Alpha virt. eigenvalues --    1.88252   1.88362   1.90904   1.92102   1.95248
 Alpha virt. eigenvalues --    1.96128   1.98838   2.01750   2.02933   2.03072
 Alpha virt. eigenvalues --    2.04549   2.06326   2.08390   2.09323   2.10333
 Alpha virt. eigenvalues --    2.11214   2.13624   2.15025   2.17494   2.17766
 Alpha virt. eigenvalues --    2.20932   2.24342   2.25679   2.26253   2.29252
 Alpha virt. eigenvalues --    2.30225   2.32190   2.34728   2.37273   2.39435
 Alpha virt. eigenvalues --    2.39565   2.41411   2.41953   2.44360   2.45497
 Alpha virt. eigenvalues --    2.47040   2.48239   2.49446   2.52069   2.52462
 Alpha virt. eigenvalues --    2.55645   2.58031   2.59933   2.61217   2.61977
 Alpha virt. eigenvalues --    2.65275   2.66474   2.67597   2.69244   2.70279
 Alpha virt. eigenvalues --    2.71408   2.72285   2.75212   2.76050   2.76841
 Alpha virt. eigenvalues --    2.80001   2.80691   2.82813   2.83888   2.84046
 Alpha virt. eigenvalues --    2.86831   2.89939   2.90159   2.93230   2.95224
 Alpha virt. eigenvalues --    2.97516   3.00147   3.00380   3.02088   3.04174
 Alpha virt. eigenvalues --    3.06839   3.08749   3.10300   3.16945   3.31327
 Alpha virt. eigenvalues --    3.33832   3.35477   3.36033   3.37500   3.42868
 Alpha virt. eigenvalues --    3.47515   3.50357   3.52347   3.54926   3.55773
 Alpha virt. eigenvalues --    3.56508   3.58215   3.59895   3.61185   4.31279
 Alpha virt. eigenvalues --    4.34337   4.38219   4.40175   4.47365   4.47556
 Alpha virt. eigenvalues --    4.57284   4.66512   4.75877   4.78330   4.85641
 Alpha virt. eigenvalues --    4.92868
          Condensed to atoms (all electrons):
              1          2          3          4          5          6
     1  C    6.253231  -1.371177   0.255979  -0.217464   0.160464   0.127799
     2  C   -1.371177  10.559956  -0.749810  -0.545552   0.570336  -0.571674
     3  N    0.255979  -0.749810   7.548453   0.286781  -0.203115  -0.256411
     4  C   -0.217464  -0.545552   0.286781   5.842148  -0.101746  -0.096405
     5  C    0.160464   0.570336  -0.203115  -0.101746   5.803777  -0.241288
     6  C    0.127799  -0.571674  -0.256411  -0.096405  -0.241288   8.931214
     7  C   -0.076700   0.336715  -0.086521  -0.056261   0.026705  -1.176941
     8  C    0.154541  -1.448180   0.111798   0.264837  -0.256451   0.462990
     9  H    0.395286  -0.082950   0.015693   0.035694  -0.031488   0.002498
    10  H    0.513211  -0.232514   0.032750   0.024367  -0.080887   0.017226
    11  H    0.113976   0.035800   0.024854   0.022348  -0.029564   0.032210
    12  H    0.042364  -0.011970  -0.039832   0.365612  -0.015109  -0.004774
    13  H   -0.013981   0.030109  -0.101931   0.421070  -0.038575   0.007440
    14  H   -0.018862  -0.045603   0.013302  -0.027809   0.385619   0.007496
    15  H   -0.069875   0.051045   0.004354  -0.018316   0.378783  -0.006633
    16  H   -0.017459   0.062358  -0.077279   0.020430   0.010705   0.269950
    17  H    0.014197  -0.017794   0.047590   0.010231   0.000351  -0.181841
    18  H    0.058953  -0.290074   0.054442   0.012214  -0.001869   0.000750
    19  O    0.025109  -0.151098   0.027874  -0.003743  -0.000325   0.012029
    20  H   -0.007187   0.047886  -0.003787  -0.000259   0.000090   0.018405
    21  O   -0.005013   0.038270  -0.005935  -0.006769   0.004630   0.008556
    22  H    0.005232  -0.004204   0.010178   0.002509   0.000257  -0.083953
    23  C    0.080545  -0.201216   0.211200  -0.027494   0.023535  -0.923310
    24  H   -0.000212   0.015768   0.012230  -0.003603   0.001573  -0.149299
    25  H   -0.000054   0.006790   0.006267   0.012437   0.003516  -0.094899
    26  O   -0.003877   0.035733   0.020148  -0.012678   0.024917  -0.125286
    27  H   -0.000812   0.013835   0.023520   0.001250   0.010648  -0.098942
              7          8          9         10         11         12
     1  C   -0.076700   0.154541   0.395286   0.513211   0.113976   0.042364
     2  C    0.336715  -1.448180  -0.082950  -0.232514   0.035800  -0.011970
     3  N   -0.086521   0.111798   0.015693   0.032750   0.024854  -0.039832
     4  C   -0.056261   0.264837   0.035694   0.024367   0.022348   0.365612
     5  C    0.026705  -0.256451  -0.031488  -0.080887  -0.029564  -0.015109
     6  C   -1.176941   0.462990   0.002498   0.017226   0.032210  -0.004774
     7  C    6.779490  -0.381780  -0.002087  -0.008761  -0.042041  -0.004314
     8  C   -0.381780   6.487141   0.008522   0.048360   0.078185   0.000814
     9  H   -0.002087   0.008522   0.511006  -0.024105  -0.003753  -0.000104
    10  H   -0.008761   0.048360  -0.024105   0.529856   0.004195  -0.000033
    11  H   -0.042041   0.078185  -0.003753   0.004195   0.561587   0.000234
    12  H   -0.004314   0.000814  -0.000104  -0.000033   0.000234   0.558997
    13  H    0.008933  -0.001596  -0.000136   0.000930  -0.000533  -0.043449
    14  H   -0.001691   0.015075  -0.005036   0.004150   0.000811  -0.006040
    15  H    0.001147   0.001758   0.000394  -0.005482  -0.000129   0.000693
    16  H    0.029142  -0.040361  -0.000005  -0.000163  -0.000603  -0.001097
    17  H    0.478860  -0.081269   0.000004  -0.000007   0.001082   0.000009
    18  H   -0.065784   0.522882   0.000364   0.003397   0.004431   0.000014
    19  O   -0.096194   0.279016   0.000492   0.001789   0.009989   0.000063
    20  H   -0.056939   0.003361  -0.000006  -0.000016  -0.000074   0.000000
    21  O    0.263990  -0.110204  -0.000002  -0.000158  -0.000638   0.000004
    22  H    0.094252  -0.053207   0.000000  -0.000001   0.000006   0.000001
    23  C    0.161319  -0.053950   0.000236   0.001072   0.015949   0.000860
    24  H    0.025113  -0.015508   0.000000   0.000000  -0.000007  -0.000047
    25  H   -0.007309  -0.007170   0.000000   0.000000  -0.000035   0.000033
    26  O    0.018986  -0.022245   0.000000   0.000001  -0.000064  -0.001243
    27  H    0.002071  -0.004040   0.000000   0.000000  -0.000007   0.000643
             13         14         15         16         17         18
     1  C   -0.013981  -0.018862  -0.069875  -0.017459   0.014197   0.058953
     2  C    0.030109  -0.045603   0.051045   0.062358  -0.017794  -0.290074
     3  N   -0.101931   0.013302   0.004354  -0.077279   0.047590   0.054442
     4  C    0.421070  -0.027809  -0.018316   0.020430   0.010231   0.012214
     5  C   -0.038575   0.385619   0.378783   0.010705   0.000351  -0.001869
     6  C    0.007440   0.007496  -0.006633   0.269950  -0.181841   0.000750
     7  C    0.008933  -0.001691   0.001147   0.029142   0.478860  -0.065784
     8  C   -0.001596   0.015075   0.001758  -0.040361  -0.081269   0.522882
     9  H   -0.000136  -0.005036   0.000394  -0.000005   0.000004   0.000364
    10  H    0.000930   0.004150  -0.005482  -0.000163  -0.000007   0.003397
    11  H   -0.000533   0.000811  -0.000129  -0.000603   0.001082   0.004431
    12  H   -0.043449  -0.006040   0.000693  -0.001097   0.000009   0.000014
    13  H    0.573577   0.003885  -0.004366   0.011975  -0.000027  -0.000333
    14  H    0.003885   0.518501  -0.024088  -0.000015  -0.000002  -0.000008
    15  H   -0.004366  -0.024088   0.512166  -0.000007   0.000000  -0.000028
    16  H    0.011975  -0.000015  -0.000007   0.581534   0.004010   0.000570
    17  H   -0.000027  -0.000002   0.000000   0.004010   0.528915   0.004534
    18  H   -0.000333  -0.000008  -0.000028   0.000570   0.004534   0.570106
    19  O   -0.000254   0.000018  -0.000010  -0.001441  -0.003424  -0.044653
    20  H    0.000000   0.000000   0.000000   0.000023  -0.000138  -0.004291
    21  O    0.000068  -0.000004  -0.000005  -0.006761  -0.059509  -0.010819
    22  H   -0.000019   0.000000   0.000000   0.004552   0.007117   0.005013
    23  C   -0.007712  -0.000066  -0.000351  -0.011977   0.056495   0.016139
    24  H    0.000042   0.000000   0.000000  -0.002039   0.000136  -0.000007
    25  H   -0.000011  -0.000001   0.000000   0.004630   0.003477  -0.000003
    26  O   -0.001594  -0.000023  -0.000002   0.002322  -0.000042  -0.000006
    27  H    0.000125  -0.000004   0.000000   0.000181   0.000021   0.000000
             19         20         21         22         23         24
     1  C    0.025109  -0.007187  -0.005013   0.005232   0.080545  -0.000212
     2  C   -0.151098   0.047886   0.038270  -0.004204  -0.201216   0.015768
     3  N    0.027874  -0.003787  -0.005935   0.010178   0.211200   0.012230
     4  C   -0.003743  -0.000259  -0.006769   0.002509  -0.027494  -0.003603
     5  C   -0.000325   0.000090   0.004630   0.000257   0.023535   0.001573
     6  C    0.012029   0.018405   0.008556  -0.083953  -0.923310  -0.149299
     7  C   -0.096194  -0.056939   0.263990   0.094252   0.161319   0.025113
     8  C    0.279016   0.003361  -0.110204  -0.053207  -0.053950  -0.015508
     9  H    0.000492  -0.000006  -0.000002   0.000000   0.000236   0.000000
    10  H    0.001789  -0.000016  -0.000158  -0.000001   0.001072   0.000000
    11  H    0.009989  -0.000074  -0.000638   0.000006   0.015949  -0.000007
    12  H    0.000063   0.000000   0.000004   0.000001   0.000860  -0.000047
    13  H   -0.000254   0.000000   0.000068  -0.000019  -0.007712   0.000042
    14  H    0.000018   0.000000  -0.000004   0.000000  -0.000066   0.000000
    15  H   -0.000010   0.000000  -0.000005   0.000000  -0.000351   0.000000
    16  H   -0.001441   0.000023  -0.006761   0.004552  -0.011977  -0.002039
    17  H   -0.003424  -0.000138  -0.059509   0.007117   0.056495   0.000136
    18  H   -0.044653  -0.004291  -0.010819   0.005013   0.016139  -0.000007
    19  O    8.265824   0.231970  -0.007987  -0.001558   0.001928   0.000012
    20  H    0.231970   0.376730   0.009657   0.000026  -0.001331   0.000000
    21  O   -0.007987   0.009657   8.200530   0.246551  -0.040389   0.006349
    22  H   -0.001558   0.000026   0.246551   0.373420   0.018589  -0.000159
    23  C    0.001928  -0.001331  -0.040389   0.018589   5.808616   0.485647
    24  H    0.000012   0.000000   0.006349  -0.000159   0.485647   0.539779
    25  H   -0.000103   0.000001  -0.001014   0.000061   0.433781  -0.032629
    26  O    0.000077   0.000003  -0.000824   0.000051   0.191026  -0.058807
    27  H   -0.000001   0.000000   0.000092   0.000000   0.043650   0.006575
             25         26         27
     1  C   -0.000054  -0.003877  -0.000812
     2  C    0.006790   0.035733   0.013835
     3  N    0.006267   0.020148   0.023520
     4  C    0.012437  -0.012678   0.001250
     5  C    0.003516   0.024917   0.010648
     6  C   -0.094899  -0.125286  -0.098942
     7  C   -0.007309   0.018986   0.002071
     8  C   -0.007170  -0.022245  -0.004040
     9  H    0.000000   0.000000   0.000000
    10  H    0.000000   0.000001   0.000000
    11  H   -0.000035  -0.000064  -0.000007
    12  H    0.000033  -0.001243   0.000643
    13  H   -0.000011  -0.001594   0.000125
    14  H   -0.000001  -0.000023  -0.000004
    15  H    0.000000  -0.000002   0.000000
    16  H    0.004630   0.002322   0.000181
    17  H    0.003477  -0.000042   0.000021
    18  H   -0.000003  -0.000006   0.000000
    19  O   -0.000103   0.000077  -0.000001
    20  H    0.000001   0.000003   0.000000
    21  O   -0.001014  -0.000824   0.000092
    22  H    0.000061   0.000051   0.000000
    23  C    0.433781   0.191026   0.043650
    24  H   -0.032629  -0.058807   0.006575
    25  H    0.557739  -0.042754  -0.006946
    26  O   -0.042754   8.255115   0.256959
    27  H   -0.006946   0.256959   0.377562
 Mulliken atomic charges:
              1
     1  C   -0.398215
     2  C   -0.080785
     3  N   -0.182793
     4  C   -0.203828
     5  C   -0.405489
     6  C    0.113095
     7  C   -0.163400
     8  C    0.036680
     9  H    0.179481
    10  H    0.170826
    11  H    0.171790
    12  H    0.157671
    13  H    0.156363
    14  H    0.180397
    15  H    0.178951
    16  H    0.156826
    17  H    0.187026
    18  H    0.164065
    19  O   -0.545399
    20  H    0.385877
    21  O   -0.522662
    22  H    0.375288
    23  C   -0.282790
    24  H    0.169096
    25  H    0.164198
    26  O   -0.535889
    27  H    0.373620
 Sum of Mulliken atomic charges =   0.00000
 Mulliken charges with hydrogens summed into heavy atoms:
              1
     1  C   -0.047908
     2  C    0.091006
     3  N   -0.182793
     4  C    0.110207
     5  C   -0.046140
     6  C    0.269921
     7  C    0.023626
     8  C    0.200745
    19  O   -0.159522
    21  O   -0.147374
    23  C    0.050503
    26  O   -0.162269
 Sum of Mulliken charges with hydrogens summed into heavy atoms =   0.00000
 Electronic spatial extent (au):  <R**2>=           2167.2754
 Charge=              0.0000 electrons
 Dipole moment (field-independent basis, Debye):
    X=              2.1432    Y=             -1.0273    Z=              2.1744  Tot=              3.2213
 Quadrupole moment (field-independent basis, Debye-Ang):
   XX=            -87.1785   YY=            -71.5679   ZZ=            -69.7222
   XY=             -3.4870   XZ=              5.1331   YZ=              5.2759
 Traceless Quadrupole moment (field-independent basis, Debye-Ang):
   XX=            -11.0223   YY=              4.5883   ZZ=              6.4340
   XY=             -3.4870   XZ=              5.1331   YZ=              5.2759
 Octapole moment (field-independent basis, Debye-Ang**2):
  XXX=             28.6399  YYY=             -5.1504  ZZZ=             10.3555  XYY=             11.4946
  XXY=              4.1128  XXZ=             -2.4557  XZZ=             -6.4651  YZZ=             10.6876
  YYZ=              6.2027  XYZ=              0.4486
 Hexadecapole moment (field-independent basis, Debye-Ang**3):
 XXXX=          -1540.1397 YYYY=          -1190.6457 ZZZZ=           -182.4974 XXXY=            -73.0186
 XXXZ=             21.7132 YYYX=             98.3996 YYYZ=             25.8530 ZZZX=             -2.4124
 ZZZY=             25.2713 XXYY=           -443.9053 XXZZ=           -251.5875 YYZZ=           -221.5998
 XXYZ=             28.7830 YYXZ=             25.1245 ZZXY=             -7.7730
 N-N= 7.948212834999D+02 E-N=-2.975087376137D+03  KE= 5.886639197549D+02
 1\1\GINC-COMPUTE-3-0\SP\RmPW1PW91\6-31+G(d,p)\C8H15N1O3\MAMICHETTI.IQU
 IR\17-May-2024\0\\# mpw1pw91/6-31+G** nmr scrf=(pcm,solvent=water)\\co
 mment\\0,1\C,0,2.271456,-1.095824,0.214961\C,0,1.276957,-0.150078,-0.4
 77069\N,0,-0.067825,-0.81683,-0.378856\C,0,0.096937,-2.082647,0.362371
 \C,0,1.564969,-2.459282,0.146874\C,0,-1.038526,0.139501,0.182825\C,0,-
 0.407129,1.512316,-0.10471\C,0,1.084465,1.244967,0.1199\H,0,3.255198,-
 1.093204,-0.263955\H,0,2.405449,-0.799265,1.262588\H,0,1.545472,-0.027
 994,-1.535829\H,0,-0.590683,-2.853285,-0.004221\H,0,-0.107869,-1.94523
 ,1.437899\H,0,1.698828,-2.912576,-0.842866\H,0,1.926289,-3.17134,0.895
 224\H,0,-1.118485,0.020837,1.279642\H,0,-0.563208,1.789738,-1.154157\H
 ,0,1.265202,1.221737,1.206679\O,0,1.953802,2.189036,-0.500241\H,0,1.73
 7939,3.057532,-0.119607\O,0,-0.941224,2.591,0.655264\H,0,-0.820088,2.3
 6815,1.59515\C,0,-2.440713,0.006259,-0.400799\H,0,-3.076461,0.792259,0
 .020686\H,0,-2.405007,0.143984,-1.490702\O,0,-3.076403,-1.234528,-0.07
 1142\H,0,-2.617698,-1.928864,-0.571704\\Version=AM64L-G09RevC.01\State
 =1-A\HF=-594.1989358\RMSD=7.866e-09\Dipole=0.8431919,-0.4041734,0.8554
 627\Quadrupole=-8.1948277,3.4112933,4.7835343,-2.5924924,3.8163023,3.9
 22516\PG=C01 [X(C8H15N1O3)]\\@


 A true friend is someone who is there for
 you when he'd rather be anywhere else.
                               -- Len Wein
 Job cpu time:  0 days  0 hours  8 minutes 38.0 seconds.
 File lengths (MBytes):  RWF=    114 Int=      0 D2E=      0 Chk=      7 Scr=      1
 Normal termination of Gaussian 09 at Fri May 17 12:21:19 2024.
