 Entering Gaussian System, Link 0=g09
 Input=/home/mamichetti.iquir/Linux/02_Cardona_A1A3_R__R_R_R_002_OptB.gjc
 Output=/home/mamichetti.iquir/Linux/02_Cardona_A1A3_R__R_R_R_002_OptB.log
 Initial command:
 /opt/ohpc/pub/apps/software/Gaussian/09/AMD64.SSE4a-enabled/g09/l1.exe /local/mamichetti.iquir/Gau-710718.inp -scrdir=/local/mamichetti.iquir/
 Entering Link 1 = /opt/ohpc/pub/apps/software/Gaussian/09/AMD64.SSE4a-enabled/g09/l1.exe PID=    710719.
  
 Copyright (c) 1988,1990,1992,1993,1995,1998,2003,2009,2011,
            Gaussian, Inc.  All Rights Reserved.
  
 This is part of the Gaussian(R) 09 program.  It is based on
 the Gaussian(R) 03 system (copyright 2003, Gaussian, Inc.),
 the Gaussian(R) 98 system (copyright 1998, Gaussian, Inc.),
 the Gaussian(R) 94 system (copyright 1995, Gaussian, Inc.),
 the Gaussian 92(TM) system (copyright 1992, Gaussian, Inc.),
 the Gaussian 90(TM) system (copyright 1990, Gaussian, Inc.),
 the Gaussian 88(TM) system (copyright 1988, Gaussian, Inc.),
 the Gaussian 86(TM) system (copyright 1986, Carnegie Mellon
 University), and the Gaussian 82(TM) system (copyright 1983,
 Carnegie Mellon University). Gaussian is a federally registered
 trademark of Gaussian, Inc.
  
 This software contains proprietary and confidential information,
 including trade secrets, belonging to Gaussian, Inc.
  
 This software is provided under written license and may be
 used, copied, transmitted, or stored only in accord with that
 written license.
  
 The following legend is applicable only to US Government
 contracts under FAR:
  
                    RESTRICTED RIGHTS LEGEND
  
 Use, reproduction and disclosure by the US Government is
 subject to restrictions as set forth in subparagraphs (a)
 and (c) of the Commercial Computer Software - Restricted
 Rights clause in FAR 52.227-19.
  
 Gaussian, Inc.
 340 Quinnipiac St., Bldg. 40, Wallingford CT 06492
  
  
 ---------------------------------------------------------------
 Warning -- This program may not be used in any manner that
 competes with the business of Gaussian, Inc. or will provide
 assistance to any competitor of Gaussian, Inc.  The licensee
 of this program is prohibited from giving any competitor of
 Gaussian, Inc. access to this program.  By using this program,
 the user acknowledges that Gaussian, Inc. is engaged in the
 business of creating and licensing software in the field of
 computational chemistry and represents and warrants to the
 licensee that it is not a competitor of Gaussian, Inc. and that
 it will not use this program in any manner prohibited above.
 ---------------------------------------------------------------
  

 Cite this work as:
 Gaussian 09, Revision C.01,
 M. J. Frisch, G. W. Trucks, H. B. Schlegel, G. E. Scuseria, 
 M. A. Robb, J. R. Cheeseman, G. Scalmani, V. Barone, B. Mennucci, 
 G. A. Petersson, H. Nakatsuji, M. Caricato, X. Li, H. P. Hratchian, 
 A. F. Izmaylov, J. Bloino, G. Zheng, J. L. Sonnenberg, M. Hada, 
 M. Ehara, K. Toyota, R. Fukuda, J. Hasegawa, M. Ishida, T. Nakajima, 
 Y. Honda, O. Kitao, H. Nakai, T. Vreven, J. A. Montgomery, Jr., 
 J. E. Peralta, F. Ogliaro, M. Bearpark, J. J. Heyd, E. Brothers, 
 K. N. Kudin, V. N. Staroverov, T. Keith, R. Kobayashi, J. Normand, 
 K. Raghavachari, A. Rendell, J. C. Burant, S. S. Iyengar, J. Tomasi, 
 M. Cossi, N. Rega, J. M. Millam, M. Klene, J. E. Knox, J. B. Cross, 
 V. Bakken, C. Adamo, J. Jaramillo, R. Gomperts, R. E. Stratmann, 
 O. Yazyev, A. J. Austin, R. Cammi, C. Pomelli, J. W. Ochterski, 
 R. L. Martin, K. Morokuma, V. G. Zakrzewski, G. A. Voth, 
 P. Salvador, J. J. Dannenberg, S. Dapprich, A. D. Daniels, 
 O. Farkas, J. B. Foresman, J. V. Ortiz, J. Cioslowski, 
 and D. J. Fox, Gaussian, Inc., Wallingford CT, 2010.
 
 ******************************************
 Gaussian 09:  AM64L-G09RevC.01 23-Sep-2011
                17-May-2024 
 ******************************************
 %nprocshared=4
 Will use up to    4 processors via shared memory.
 ------------------------------------------------
 # mpw1pw91/6-31+G** nmr scrf=(pcm,solvent=water)
 ------------------------------------------------
 1/38=1/1;
 2/12=2,17=6,18=5,40=1/2;
 3/5=1,6=6,7=111,11=2,16=1,25=1,30=1,70=2201,72=1,74=-7/1,2,8,3;
 4//1;
 5/5=2,38=5,53=1/2;
 8/6=1,10=90,11=11/1;
 10/13=100,45=16/2;
 6/7=2,8=2,9=2,10=2,28=1/1;
 99/9=1/99;
 -------
 comment
 -------
 Charge =  0 Multiplicity = 1
 Symbolic Z-Matrix:
 6                     2.65342  -0.06985   0.08381 
 6                     1.34448   0.34927  -0.61681 
 7                     0.47331  -0.88168  -0.6763 
 6                     1.23963  -1.9824   -0.04554 
 6                     2.25076  -1.3122    0.89217 
 6                    -0.78525  -0.56286   0.03196 
 6                    -0.91674   0.95628  -0.11311 
 6                     0.51831   1.41948   0.11054 
 1                     3.41038  -0.33909  -0.66206 
 1                     3.06315   0.74035   0.69583 
 1                     1.54585   0.7179   -1.62988 
 1                     1.76855  -2.55238  -0.82074 
 1                     0.55918  -2.67395   0.45986 
 1                     3.09807  -1.95886   1.14215 
 1                     1.7607   -1.0199    1.8294 
 1                    -0.71642  -0.78608   1.11053 
 1                    -1.21004   1.20376  -1.14602 
 1                     0.72129   1.39515   1.19167 
 8                     0.82832   2.71021  -0.41392 
 1                     0.32993   3.35773   0.11228 
 8                    -1.82386   1.54647   0.81344 
 1                    -2.63493   1.00535   0.74218 
 6                    -1.9851   -1.31661  -0.52609 
 1                    -2.12105  -1.07113  -1.58688 
 1                    -1.83996  -2.40296  -0.44162 
 8                    -3.13424  -0.90486   0.23846 
 1                    -3.92671  -1.14533  -0.26795 
 
                          Input orientation:                          
 ---------------------------------------------------------------------
 Center     Atomic      Atomic             Coordinates (Angstroms)
 Number     Number       Type             X           Y           Z
 ---------------------------------------------------------------------
      1          6           0        2.653419   -0.069854    0.083807
      2          6           0        1.344477    0.349268   -0.616805
      3          7           0        0.473310   -0.881683   -0.676303
      4          6           0        1.239632   -1.982399   -0.045543
      5          6           0        2.250760   -1.312198    0.892167
      6          6           0       -0.785249   -0.562863    0.031961
      7          6           0       -0.916735    0.956279   -0.113110
      8          6           0        0.518308    1.419477    0.110543
      9          1           0        3.410378   -0.339089   -0.662058
     10          1           0        3.063149    0.740345    0.695829
     11          1           0        1.545849    0.717900   -1.629884
     12          1           0        1.768551   -2.552383   -0.820741
     13          1           0        0.559183   -2.673954    0.459861
     14          1           0        3.098068   -1.958862    1.142152
     15          1           0        1.760702   -1.019901    1.829399
     16          1           0       -0.716416   -0.786080    1.110526
     17          1           0       -1.210044    1.203762   -1.146022
     18          1           0        0.721292    1.395149    1.191667
     19          8           0        0.828321    2.710214   -0.413917
     20          1           0        0.329932    3.357726    0.112276
     21          8           0       -1.823859    1.546472    0.813438
     22          1           0       -2.634932    1.005352    0.742178
     23          6           0       -1.985098   -1.316609   -0.526088
     24          1           0       -2.121053   -1.071130   -1.586878
     25          1           0       -1.839961   -2.402955   -0.441621
     26          8           0       -3.134242   -0.904858    0.238456
     27          1           0       -3.926713   -1.145335   -0.267949
 ---------------------------------------------------------------------
                    Distance matrix (angstroms):
                    1          2          3          4          5
     1  C    0.000000
     2  C    1.542676   0.000000
     3  N    2.447388   1.509209   0.000000
     4  C    2.381880   2.402916   1.482121   0.000000
     5  C    1.535903   2.420499   2.409309   1.533248   0.000000
     6  C    3.474217   2.405954   1.478937   2.474112   3.243271
     7  C    3.719909   2.394838   2.372239   3.645588   4.023629
     8  C    2.603367   1.535232   2.432383   3.481010   3.327818
     9  H    1.096261   2.178034   2.986801   2.791540   2.169624
    10  H    1.094930   2.197677   3.349774   3.359789   2.216181
    11  H    2.187237   1.096708   2.149028   3.145715   3.313448
    12  H    2.786422   2.939559   2.118903   1.097984   2.169018
    13  H    3.362823   3.303902   2.123789   1.093934   2.214204
    14  H    2.210466   3.390645   3.369933   2.205665   1.094805
    15  H    2.178675   2.834040   2.820465   2.171019   1.097269
    16  H    3.594846   2.918898   2.148801   2.567839   3.021360
    17  H    4.249815   2.745143   2.720918   4.166964   4.739349
    18  H    2.665840   2.180091   2.955465   3.634171   3.123892
    19  O    3.362661   2.425211   3.618923   4.724986   4.461949
    20  H    4.140979   3.257557   4.314511   5.419354   5.109403
    21  O    4.815692   3.676581   3.659542   4.751395   4.978023
    22  H    5.436559   4.255934   3.903096   4.955745   5.409577
    23  C    4.841716   3.724170   2.501099   3.327624   4.466986
    24  H    5.156484   3.868911   2.756040   3.807930   5.031553
    25  H    5.090177   4.212608   2.778591   3.133311   4.438777
    26  O    5.849630   4.728977   3.721794   4.513593   5.439808
    27  H    6.676715   5.490080   4.426790   5.238441   6.287677
                    6          7          8          9         10
     6  C    0.000000
     7  C    1.531707   0.000000
     8  C    2.373838   1.524441   0.000000
     9  H    4.258524   4.550080   3.471820   0.000000
    10  H    4.116945   4.067000   2.698147   1.769068   0.000000
    11  H    3.136256   2.902025   2.139424   2.351676   2.776985
    12  H    3.347713   4.474619   4.266857   2.760334   3.849419
    13  H    2.539154   3.960457   4.108512   3.852221   4.240633
    14  H    4.273346   5.117848   4.374077   2.444663   2.736082
    15  H    3.149847   3.853219   3.232425   3.064685   2.465728
    16  H    1.103570   2.138511   2.718270   4.513567   4.097201
    17  H    2.165423   1.101901   2.147717   4.895193   4.676254
    18  H    2.729175   2.139669   1.100283   3.697981   2.481717
    19  O    3.676336   2.492387   1.427294   4.003354   3.179053
    20  H    4.076898   2.715129   1.947382   4.873929   3.829059
    21  O    2.477642   1.424673   2.448660   5.755838   4.954444
    22  H    2.526862   1.919929   3.242435   6.350210   5.704428
    23  C    1.522888   2.545186   3.762779   5.484997   5.586496
    24  H    2.159478   2.780784   4.006318   5.655785   5.947112
    25  H    2.173163   3.499245   4.525186   5.645724   5.934190
    26  O    2.382723   2.916293   4.331283   6.630465   6.428339
    27  H    3.209052   3.674333   5.145846   7.391770   7.303617
                   11         12         13         14         15
    11  H    0.000000
    12  H    3.376249   0.000000
    13  H    4.104293   1.765585   0.000000
    14  H    4.154350   2.443938   2.724484   0.000000
    15  H    3.877209   3.061340   2.460726   1.772711   0.000000
    16  H    3.858710   3.608972   2.369512   3.990828   2.589897
    17  H    2.839917   4.804837   4.554745   5.813584   4.756379
    18  H    3.016573   4.552971   4.137562   4.111071   2.705465
    19  O    2.441872   5.361387   5.461244   5.419721   4.451467
    20  H    3.388548   6.153823   6.046035   6.081885   4.915204
    21  O    4.243971   5.690041   4.859619   6.051511   4.524105
    22  H    4.815417   5.872892   4.880509   6.466362   4.960373
    23  C    4.221988   3.962807   3.047597   5.388329   4.434791
    24  H    4.080275   4.232032   3.733879   5.956081   5.171228
    25  H    4.755567   3.631449   2.577208   5.204775   4.476063
    26  O    5.294081   5.279547   4.101233   6.385083   5.148282
    27  H    5.939314   5.892486   4.794752   7.210947   6.063109
                   16         17         18         19         20
    16  H    0.000000
    17  H    3.048795   0.000000
    18  H    2.613685   3.038335   0.000000
    19  O    4.115120   2.638239   2.078161   0.000000
    20  H    4.388904   2.931621   2.273754   0.971876   0.000000
    21  O    2.599133   2.081755   2.577547   3.145593   2.900187
    22  H    2.650587   2.373810   3.408551   4.029545   3.836777
    23  C    2.137644   2.708745   4.198674   4.913574   5.255119
    24  H    3.054545   2.489864   4.677795   4.936923   5.339402
    25  H    2.507149   3.728456   4.863460   5.767581   6.180670
    26  O    2.573033   3.172632   4.589530   5.403355   5.494183
    27  H    3.512159   3.697237   5.494405   6.123472   6.208152
                   21         22         23         24         25
    21  O    0.000000
    22  H    0.977614   0.000000
    23  C    3.165053   2.724387   0.000000
    24  H    3.563942   3.162333   1.097278   0.000000
    25  H    4.144081   3.694579   1.099248   1.778872   0.000000
    26  O    2.838437   2.037633   1.440347   2.094288   2.093314
    27  H    3.582906   2.704535   1.966174   2.237295   2.442602
                   26         27
    26  O    0.000000
    27  H    0.970714   0.000000
 Stoichiometry    C8H15NO3
 Framework group  C1[X(C8H15NO3)]
 Deg. of freedom    75
 Full point group                 C1      NOp   1
 Largest Abelian subgroup         C1      NOp   1
 Largest concise Abelian subgroup C1      NOp   1
                         Standard orientation:                         
 ---------------------------------------------------------------------
 Center     Atomic      Atomic             Coordinates (Angstroms)
 Number     Number       Type             X           Y           Z
 ---------------------------------------------------------------------
      1          6           0        2.653419   -0.069854    0.083807
      2          6           0        1.344477    0.349268   -0.616805
      3          7           0        0.473310   -0.881683   -0.676303
      4          6           0        1.239632   -1.982399   -0.045543
      5          6           0        2.250760   -1.312198    0.892167
      6          6           0       -0.785249   -0.562863    0.031961
      7          6           0       -0.916735    0.956279   -0.113110
      8          6           0        0.518308    1.419477    0.110543
      9          1           0        3.410378   -0.339089   -0.662058
     10          1           0        3.063149    0.740345    0.695829
     11          1           0        1.545849    0.717900   -1.629884
     12          1           0        1.768551   -2.552383   -0.820741
     13          1           0        0.559183   -2.673954    0.459861
     14          1           0        3.098068   -1.958862    1.142152
     15          1           0        1.760702   -1.019901    1.829399
     16          1           0       -0.716416   -0.786080    1.110526
     17          1           0       -1.210044    1.203762   -1.146022
     18          1           0        0.721292    1.395149    1.191667
     19          8           0        0.828321    2.710214   -0.413917
     20          1           0        0.329932    3.357726    0.112276
     21          8           0       -1.823859    1.546472    0.813438
     22          1           0       -2.634932    1.005352    0.742178
     23          6           0       -1.985098   -1.316609   -0.526088
     24          1           0       -2.121053   -1.071130   -1.586878
     25          1           0       -1.839961   -2.402955   -0.441621
     26          8           0       -3.134242   -0.904858    0.238456
     27          1           0       -3.926713   -1.145335   -0.267949
 ---------------------------------------------------------------------
 Rotational constants (GHZ):      1.2381771      0.8342308      0.5589901
 Standard basis: 6-31+G(d,p) (6D, 7F)
 There are   303 symmetry adapted basis functions of A   symmetry.
 Integral buffers will be    131072 words long.
 Raffenetti 2 integral format.
 Two-electron integral symmetry is turned on.
   303 basis functions,   489 primitive gaussians,   303 cartesian basis functions
    47 alpha electrons       47 beta electrons
       nuclear repulsion energy       801.5190777485 Hartrees.
 NAtoms=   27 NActive=   27 NUniq=   27 SFac= 1.00D+00 NAtFMM=   60 NAOKFM=F Big=F
 ------------------------------------------------------------------------------
 Polarizable Continuum Model (PCM)
 =================================
 Model                : PCM.
 Atomic radii         : UFF (Universal Force Field).
 Polarization charges : Total charges.
 Charge compensation  : None.
 Solution method      : Matrix inversion.
 Cavity type          : Scaled VdW (van der Waals Surface) (Alpha=1.100).
 Cavity algorithm     : GePol (No added spheres)
                        Default sphere list used, NSphG=   27.
                        Lebedev-Laikov grids with approx.  5.0 points / Ang**2.
                        Smoothing algorithm: Karplus/York (Gamma=1.0000).
                        Polarization charges: spherical gaussians, with
                                              point-specific exponents (IZeta= 3).
                        Self-potential: point-specific (ISelfS= 7).
                        Self-field    : sphere-specific E.n sum rule (ISelfD= 2).
 Solvent              : Water, Eps=  78.355300 Eps(inf)=   1.777849
 ------------------------------------------------------------------------------
 One-electron integrals computed using PRISM.
 NBasis=   303 RedAO= T  NBF=   303
 NBsUse=   303 1.00D-06 NBFU=   303
 Harris functional with IExCor=  908 diagonalized for initial guess.
 ExpMin= 4.38D-02 ExpMax= 5.48D+03 ExpMxC= 8.25D+02 IAcc=2 IRadAn=         4 AccDes= 0.00D+00
 HarFok:  IExCor=  908 AccDes= 0.00D+00 IRadAn=         4 IDoV= 1
 ScaDFX=  1.000000  1.000000  1.000000  1.000000
 FoFCou: FMM=F IPFlag=           0 FMFlag=      100000 FMFlg1=           0
         NFxFlg=           0 DoJE=T BraDBF=F KetDBF=T FulRan=T
         Omega=  0.000000  0.000000  1.000000  0.000000  0.000000 ICntrl=     500 IOpCl=  0
         NMat0=    1 NMatS0=    1 NMatT0=    0 NMatD0=    1 NMtDS0=    0 NMtDT0=    0
         I1Cent=           4 NGrid=           0.
 Petite list used in FoFCou.
 Initial guess orbital symmetries:
       Occupied  (A) (A) (A) (A) (A) (A) (A) (A) (A) (A) (A) (A)
                 (A) (A) (A) (A) (A) (A) (A) (A) (A) (A) (A) (A)
                 (A) (A) (A) (A) (A) (A) (A) (A) (A) (A) (A) (A)
                 (A) (A) (A) (A) (A) (A) (A) (A) (A) (A) (A)
       Virtual   (A) (A) (A) (A) (A) (A) (A) (A) (A) (A) (A) (A)
                 (A) (A) (A) (A) (A) (A) (A) (A) (A) (A) (A) (A)
                 (A) (A) (A) (A) (A) (A) (A) (A) (A) (A) (A) (A)
                 (A) (A) (A) (A) (A) (A) (A) (A) (A) (A) (A) (A)
                 (A) (A) (A) (A) (A) (A) (A) (A) (A) (A) (A) (A)
                 (A) (A) (A) (A) (A) (A) (A) (A) (A) (A) (A) (A)
                 (A) (A) (A) (A) (A) (A) (A) (A) (A) (A) (A) (A)
                 (A) (A) (A) (A) (A) (A) (A) (A) (A) (A) (A) (A)
                 (A) (A) (A) (A) (A) (A) (A) (A) (A) (A) (A) (A)
                 (A) (A) (A) (A) (A) (A) (A) (A) (A) (A) (A) (A)
                 (A) (A) (A) (A) (A) (A) (A) (A) (A) (A) (A) (A)
                 (A) (A) (A) (A) (A) (A) (A) (A) (A) (A) (A) (A)
                 (A) (A) (A) (A) (A) (A) (A) (A) (A) (A) (A) (A)
                 (A) (A) (A) (A) (A) (A) (A) (A) (A) (A) (A) (A)
                 (A) (A) (A) (A) (A) (A) (A) (A) (A) (A) (A) (A)
                 (A) (A) (A) (A) (A) (A) (A) (A) (A) (A) (A) (A)
                 (A) (A) (A) (A) (A) (A) (A) (A) (A) (A) (A) (A)
                 (A) (A) (A) (A) (A) (A) (A) (A) (A) (A) (A) (A)
                 (A) (A) (A) (A) (A) (A) (A) (A) (A) (A) (A) (A)
                 (A) (A) (A) (A) (A) (A) (A) (A) (A) (A) (A) (A)
                 (A) (A) (A) (A) (A) (A) (A) (A) (A) (A) (A) (A)
                 (A) (A) (A) (A)
 The electronic state of the initial guess is 1-A.
 Requested convergence on RMS density matrix=1.00D-08 within 128 cycles.
 Requested convergence on MAX density matrix=1.00D-06.
 Requested convergence on             energy=1.00D-06.
 No special actions if energy rises.
 Error on total polarization charges =  0.01458
 SCF Done:  E(RmPW1PW91) =  -594.200839610     A.U. after   13 cycles
             Convg  =    0.6189D-08             -V/T =  2.0094
 Range of M.O.s used for correlation:     1   303
 NBasis=   303 NAE=    47 NBE=    47 NFC=     0 NFV=     0
 NROrb=    303 NOA=    47 NOB=    47 NVA=   256 NVB=   256

 **** Warning!!: The largest alpha MO coefficient is  0.54540596D+02

 NEqPCM:  Using equilibrium solvation (IEInf=0, Eps=  78.3553, EpsInf=   1.7778)
          Differentiating once with respect to magnetic field using GIAOs.
          Electric field/nuclear overlap derivatives assumed to be zero.
 FoFCou: FMM=F IPFlag=           0 FMFlag=    10101102 FMFlg1=           0
         NFxFlg=    40000000 DoJE=F BraDBF=F KetDBF=T FulRan=T
         Omega=  0.000000  0.000000  1.000000  0.000000  0.000000 ICntrl=    6100 IOpCl=  0
         NMat0=    1 NMatS0=    1 NMatT0=    0 NMatD0=    1 NMtDS0=    0 NMtDT0=    0
         I1Cent=           7 NGrid=        1833.
 Symmetry not used in FoFCou.
          There are     3 degrees of freedom in the 1st order CPHF.  IDoFFX=0.
      3 vectors produced by pass  0 Test12= 4.01D-13 3.33D-08 XBig12= 3.22D+01 1.24D+00.
 AX will form     3 AO Fock derivatives at one time.
      3 vectors produced by pass  1 Test12= 4.01D-13 3.33D-08 XBig12= 8.51D-02 5.17D-02.
      3 vectors produced by pass  2 Test12= 4.01D-13 3.33D-08 XBig12= 2.16D-04 2.40D-03.
      3 vectors produced by pass  3 Test12= 4.01D-13 3.33D-08 XBig12= 1.04D-06 2.62D-04.
      3 vectors produced by pass  4 Test12= 4.01D-13 3.33D-08 XBig12= 3.14D-09 1.23D-05.
      3 vectors produced by pass  5 Test12= 4.01D-13 3.33D-08 XBig12= 9.39D-12 5.04D-07.
      1 vectors produced by pass  6 Test12= 4.01D-13 3.33D-08 XBig12= 4.32D-14 3.47D-08.
 Inverted reduced A of dimension    19 with in-core refinement.
 Calculating GIAO nuclear magnetic shielding tensors.
 SCF GIAO Magnetic shielding tensor (ppm):
      1  C    Isotropic =   163.0967   Anisotropy =    24.4977
   XX=   170.5189   YX=     3.7787   ZX=    15.2766
   XY=    -2.7696   YY=   165.5918   ZY=    -4.5304
   XZ=    10.7280   YZ=   -16.9865   ZZ=   153.1795
   Eigenvalues:   142.0916   167.7700   179.4286
      2  C    Isotropic =   127.3680   Anisotropy =    57.2412
   XX=   124.9359   YX=    11.9993   ZX=    11.2743
   XY=    19.8884   YY=   159.1697   ZY=    -1.9706
   XZ=    -1.8869   YZ=     3.3749   ZZ=    97.9983
   Eigenvalues:    97.1311   119.4440   165.5287
      3  N    Isotropic =   201.9290   Anisotropy =    66.2892
   XX=   239.2295   YX=    16.2581   ZX=     3.4074
   XY=     6.1450   YY=   227.0993   ZY=   -17.0693
   XZ=    -0.4831   YZ=    -6.3342   ZZ=   139.4583
   Eigenvalues:   137.8384   221.8269   246.1218
      4  C    Isotropic =   141.2867   Anisotropy =    53.4535
   XX=   139.2288   YX=   -20.8656   ZX=    12.2200
   XY=   -11.7821   YY=   155.9934   ZY=   -18.4758
   XZ=    26.9963   YZ=   -10.4901   ZZ=   128.6379
   Eigenvalues:   113.5423   133.3955   176.9224
      5  C    Isotropic =   171.3030   Anisotropy =    19.8260
   XX=   169.8937   YX=     5.6086   ZX=    14.0212
   XY=     5.2826   YY=   182.0118   ZY=    -4.4433
   XZ=    19.1741   YZ=   -10.5774   ZZ=   162.0033
   Eigenvalues:   146.4709   182.9177   184.5203
      6  C    Isotropic =   128.6254   Anisotropy =    50.1846
   XX=   140.6723   YX=   -20.6617   ZX=   -17.7129
   XY=    -7.4619   YY=   127.7248   ZY=     8.1166
   XZ=   -32.3773   YZ=    -1.8000   ZZ=   117.4791
   Eigenvalues:   100.4711   123.3234   162.0818
      7  C    Isotropic =   112.4492   Anisotropy =    26.0170
   XX=   121.0778   YX=    -3.6375   ZX=   -16.6484
   XY=    -3.4660   YY=   116.0462   ZY=    12.1808
   XZ=    -8.2401   YZ=     1.7758   ZZ=   100.2236
   Eigenvalues:    93.3380   114.2157   129.7939
      8  C    Isotropic =   113.3111   Anisotropy =    28.8630
   XX=   121.8607   YX=    10.6996   ZX=    -4.9695
   XY=     3.0278   YY=   127.4073   ZY=   -13.2345
   XZ=     2.3038   YZ=     3.8346   ZZ=    90.6653
   Eigenvalues:    90.0666   117.3137   132.5531
      9  H    Isotropic =    29.7900   Anisotropy =    11.7716
   XX=    34.8475   YX=    -0.7747   ZX=    -4.5173
   XY=    -2.0267   YY=    25.6983   ZY=    -0.4990
   XZ=    -5.2737   YZ=    -1.2413   ZZ=    28.8243
   Eigenvalues:    24.4096    27.3227    37.6378
     10  H    Isotropic =    29.7109   Anisotropy =     9.4183
   XX=    30.8376   YX=     3.0739   ZX=     3.3689
   XY=     3.5994   YY=    31.6098   ZY=     2.2671
   XZ=     2.6465   YZ=     2.0228   ZZ=    26.6853
   Eigenvalues:    25.0792    28.0637    35.9898
     11  H    Isotropic =    28.2333   Anisotropy =     6.9245
   XX=    27.3173   YX=     1.3367   ZX=    -1.9563
   XY=     0.9605   YY=    27.1546   ZY=    -3.0688
   XZ=    -1.4394   YZ=    -2.9975   ZZ=    30.2279
   Eigenvalues:    25.2854    26.5648    32.8496
     12  H    Isotropic =    28.9559   Anisotropy =    11.9634
   XX=    27.3240   YX=    -5.0928   ZX=    -0.9786
   XY=    -4.5024   YY=    31.9785   ZY=     4.7589
   XZ=     0.0901   YZ=     4.5749   ZZ=    27.5652
   Eigenvalues:    22.9302    27.0060    36.9315
     13  H    Isotropic =    28.8946   Anisotropy =     8.5147
   XX=    28.8109   YX=     1.6915   ZX=     1.6060
   XY=     1.9574   YY=    33.4261   ZY=    -3.1016
   XZ=     0.0613   YZ=    -2.1903   ZZ=    24.4469
   Eigenvalues:    23.4069    28.7058    34.5711
     14  H    Isotropic =    30.0637   Anisotropy =    12.6550
   XX=    32.5791   YX=    -4.5292   ZX=     3.6441
   XY=    -4.9827   YY=    30.5003   ZY=    -3.3573
   XZ=     3.7270   YZ=    -3.0538   ZZ=    27.1118
   Eigenvalues:    25.0023    26.6885    38.5004
     15  H    Isotropic =    29.8078   Anisotropy =     8.7856
   XX=    27.4620   YX=     0.2613   ZX=    -1.3124
   XY=    -0.1572   YY=    26.4331   ZY=     0.3528
   XZ=    -0.8040   YZ=    -0.3943   ZZ=    35.5282
   Eigenvalues:    26.4303    27.3282    35.6648
     16  H    Isotropic =    28.9466   Anisotropy =     5.3397
   XX=    31.6947   YX=     0.3390   ZX=    -1.7212
   XY=    -0.3253   YY=    26.4849   ZY=    -0.5094
   XZ=    -1.7563   YZ=    -1.1724   ZZ=    28.6601
   Eigenvalues:    26.1307    28.2027    32.5064
     17  H    Isotropic =    27.6167   Anisotropy =     1.6674
   XX=    27.9421   YX=    -1.3573   ZX=    -0.7475
   XY=    -1.3562   YY=    26.3832   ZY=     0.4040
   XZ=     0.4424   YZ=    -0.9818   ZZ=    28.5249
   Eigenvalues:    25.5620    28.5599    28.7283
     18  H    Isotropic =    27.8460   Anisotropy =     3.5165
   XX=    25.9671   YX=    -0.3059   ZX=     0.4392
   XY=    -0.5843   YY=    30.1154   ZY=    -1.0940
   XZ=     0.3902   YZ=     0.6326   ZZ=    27.4554
   Eigenvalues:    25.8264    27.5212    30.1903
     19  O    Isotropic =   296.9661   Anisotropy =    42.3373
   XX=   270.4852   YX=   -24.7482   ZX=     6.0271
   XY=   -10.8713   YY=   319.0127   ZY=    -0.5650
   XZ=    -9.7545   YZ=    -6.6552   ZZ=   301.4003
   Eigenvalues:   264.4230   301.2842   325.1910
     20  H    Isotropic =    29.4219   Anisotropy =    18.9831
   XX=    25.3459   YX=    -3.6218   ZX=    -5.6407
   XY=    -4.9455   YY=    37.8796   ZY=     5.6312
   XZ=    -4.8926   YZ=     5.4837   ZZ=    25.0403
   Eigenvalues:    19.8499    26.3386    42.0773
     21  O    Isotropic =   291.9342   Anisotropy =    33.4421
   XX=   310.7699   YX=    12.6847   ZX=    -3.2573
   XY=     8.1428   YY=   280.9437   ZY=     6.5620
   XZ=    -7.6998   YZ=    13.5414   ZZ=   284.0890
   Eigenvalues:   269.1564   292.4173   314.2289
     22  H    Isotropic =    27.7312   Anisotropy =    20.2988
   XX=    36.2378   YX=     8.1594   ZX=    -1.6580
   XY=     7.7981   YY=    28.5344   ZY=     4.2783
   XZ=    -2.6008   YZ=     4.8329   ZZ=    18.4214
   Eigenvalues:    15.3577    26.5721    41.2637
     23  C    Isotropic =   125.4937   Anisotropy =    60.1589
   XX=   153.2773   YX=    -3.9074   ZX=   -25.1548
   XY=    -0.3178   YY=   108.1658   ZY=     8.6896
   XZ=   -23.4454   YZ=     7.5317   ZZ=   115.0381
   Eigenvalues:    98.7229   112.1586   165.5997
     24  H    Isotropic =    27.8422   Anisotropy =     3.7288
   XX=    28.8567   YX=     0.5862   ZX=    -1.2375
   XY=    -0.2629   YY=    24.7833   ZY=     1.9685
   XZ=     0.7090   YZ=     1.0412   ZZ=    29.8865
   Eigenvalues:    24.3612    28.8372    30.3280
     25  H    Isotropic =    27.5148   Anisotropy =     4.9018
   XX=    29.2951   YX=    -0.6396   ZX=    -0.3804
   XY=     0.7825   YY=    30.5067   ZY=     1.0087
   XZ=    -1.5498   YZ=     1.9270   ZZ=    22.7425
   Eigenvalues:    22.3411    29.4206    30.7827
     26  O    Isotropic =   318.4032   Anisotropy =    81.3046
   XX=   351.9079   YX=    13.6113   ZX=    15.1703
   XY=    37.2283   YY=   291.0516   ZY=     7.7908
   XZ=    34.3179   YZ=    10.1509   ZZ=   312.2502
   Eigenvalues:   281.8308   300.7725   372.6063
     27  H    Isotropic =    30.0073   Anisotropy =    21.5450
   XX=    40.8982   YX=     4.2384   ZX=     7.1131
   XY=     3.6004   YY=    22.3887   ZY=     3.8923
   XZ=     5.3084   YZ=     3.4973   ZZ=    26.7348
   Eigenvalues:    20.2683    25.3829    44.3706
 End of Minotr Frequency-dependent properties file   721 does not exist.
 End of Minotr Frequency-dependent properties file   722 does not exist.

 **********************************************************************

            Population analysis using the SCF density.

 **********************************************************************

 Orbital symmetries:
       Occupied  (A) (A) (A) (A) (A) (A) (A) (A) (A) (A) (A) (A)
                 (A) (A) (A) (A) (A) (A) (A) (A) (A) (A) (A) (A)
                 (A) (A) (A) (A) (A) (A) (A) (A) (A) (A) (A) (A)
                 (A) (A) (A) (A) (A) (A) (A) (A) (A) (A) (A)
       Virtual   (A) (A) (A) (A) (A) (A) (A) (A) (A) (A) (A) (A)
                 (A) (A) (A) (A) (A) (A) (A) (A) (A) (A) (A) (A)
                 (A) (A) (A) (A) (A) (A) (A) (A) (A) (A) (A) (A)
                 (A) (A) (A) (A) (A) (A) (A) (A) (A) (A) (A) (A)
                 (A) (A) (A) (A) (A) (A) (A) (A) (A) (A) (A) (A)
                 (A) (A) (A) (A) (A) (A) (A) (A) (A) (A) (A) (A)
                 (A) (A) (A) (A) (A) (A) (A) (A) (A) (A) (A) (A)
                 (A) (A) (A) (A) (A) (A) (A) (A) (A) (A) (A) (A)
                 (A) (A) (A) (A) (A) (A) (A) (A) (A) (A) (A) (A)
                 (A) (A) (A) (A) (A) (A) (A) (A) (A) (A) (A) (A)
                 (A) (A) (A) (A) (A) (A) (A) (A) (A) (A) (A) (A)
                 (A) (A) (A) (A) (A) (A) (A) (A) (A) (A) (A) (A)
                 (A) (A) (A) (A) (A) (A) (A) (A) (A) (A) (A) (A)
                 (A) (A) (A) (A) (A) (A) (A) (A) (A) (A) (A) (A)
                 (A) (A) (A) (A) (A) (A) (A) (A) (A) (A) (A) (A)
                 (A) (A) (A) (A) (A) (A) (A) (A) (A) (A) (A) (A)
                 (A) (A) (A) (A) (A) (A) (A) (A) (A) (A) (A) (A)
                 (A) (A) (A) (A) (A) (A) (A) (A) (A) (A) (A) (A)
                 (A) (A) (A) (A) (A) (A) (A) (A) (A) (A) (A) (A)
                 (A) (A) (A) (A) (A) (A) (A) (A) (A) (A) (A) (A)
                 (A) (A) (A) (A) (A) (A) (A) (A) (A) (A) (A) (A)
                 (A) (A) (A) (A)
 The electronic state is 1-A.
 Alpha  occ. eigenvalues --  -19.26757 -19.25993 -19.25142 -14.41716 -10.30344
 Alpha  occ. eigenvalues --  -10.30073 -10.30031 -10.28237 -10.27920 -10.26981
 Alpha  occ. eigenvalues --  -10.24682 -10.24533  -1.07311  -1.06452  -1.04976
 Alpha  occ. eigenvalues --   -0.96874  -0.82855  -0.79671  -0.75513  -0.71706
 Alpha  occ. eigenvalues --   -0.66337  -0.61694  -0.60133  -0.58616  -0.56039
 Alpha  occ. eigenvalues --   -0.53626  -0.52365  -0.49860  -0.49338  -0.47798
 Alpha  occ. eigenvalues --   -0.46395  -0.44388  -0.43416  -0.42398  -0.40842
 Alpha  occ. eigenvalues --   -0.40319  -0.38838  -0.37415  -0.36001  -0.35589
 Alpha  occ. eigenvalues --   -0.35489  -0.34849  -0.33487  -0.31205  -0.29549
 Alpha  occ. eigenvalues --   -0.28904  -0.23738
 Alpha virt. eigenvalues --    0.00646   0.01402   0.01691   0.02132   0.03691
 Alpha virt. eigenvalues --    0.04027   0.04548   0.05001   0.05489   0.06663
 Alpha virt. eigenvalues --    0.07948   0.08236   0.08530   0.09282   0.09615
 Alpha virt. eigenvalues --    0.10197   0.11436   0.11666   0.12156   0.12697
 Alpha virt. eigenvalues --    0.13298   0.13731   0.14518   0.14776   0.15217
 Alpha virt. eigenvalues --    0.15777   0.16059   0.17040   0.17546   0.18570
 Alpha virt. eigenvalues --    0.18783   0.18969   0.19833   0.20361   0.20922
 Alpha virt. eigenvalues --    0.21461   0.21714   0.22334   0.22645   0.23386
 Alpha virt. eigenvalues --    0.23831   0.24321   0.24639   0.24790   0.25827
 Alpha virt. eigenvalues --    0.26374   0.27153   0.27596   0.28351   0.28963
 Alpha virt. eigenvalues --    0.29598   0.29929   0.30438   0.30756   0.31359
 Alpha virt. eigenvalues --    0.32670   0.32891   0.33272   0.34757   0.34939
 Alpha virt. eigenvalues --    0.35400   0.36600   0.36615   0.37675   0.37965
 Alpha virt. eigenvalues --    0.39380   0.39629   0.41413   0.41618   0.41684
 Alpha virt. eigenvalues --    0.42132   0.42200   0.43924   0.44688   0.45691
 Alpha virt. eigenvalues --    0.48052   0.63298   0.64760   0.66935   0.68257
 Alpha virt. eigenvalues --    0.69866   0.70435   0.70848   0.71966   0.75149
 Alpha virt. eigenvalues --    0.76595   0.78011   0.79493   0.80174   0.82243
 Alpha virt. eigenvalues --    0.83205   0.83609   0.85501   0.86502   0.88042
 Alpha virt. eigenvalues --    0.88352   0.89368   0.91547   0.94478   0.96831
 Alpha virt. eigenvalues --    0.99194   1.00666   1.01587   1.03803   1.04429
 Alpha virt. eigenvalues --    1.05573   1.06377   1.07833   1.09756   1.10500
 Alpha virt. eigenvalues --    1.11686   1.13263   1.13962   1.14502   1.15666
 Alpha virt. eigenvalues --    1.16145   1.18462   1.20557   1.22750   1.24448
 Alpha virt. eigenvalues --    1.26300   1.28160   1.28930   1.30209   1.31126
 Alpha virt. eigenvalues --    1.33498   1.33775   1.36378   1.39176   1.39856
 Alpha virt. eigenvalues --    1.45136   1.46685   1.48104   1.52513   1.53406
 Alpha virt. eigenvalues --    1.55439   1.57068   1.57401   1.59260   1.61971
 Alpha virt. eigenvalues --    1.63017   1.64350   1.67107   1.70033   1.71695
 Alpha virt. eigenvalues --    1.73713   1.74642   1.74783   1.76562   1.78891
 Alpha virt. eigenvalues --    1.81885   1.83386   1.83805   1.85255   1.87884
 Alpha virt. eigenvalues --    1.88446   1.89963   1.92331   1.93740   1.95414
 Alpha virt. eigenvalues --    1.96656   1.99117   2.00733   2.02218   2.02850
 Alpha virt. eigenvalues --    2.03879   2.05091   2.06337   2.07749   2.09668
 Alpha virt. eigenvalues --    2.11092   2.14619   2.15272   2.17451   2.18110
 Alpha virt. eigenvalues --    2.20179   2.22169   2.25097   2.28264   2.29446
 Alpha virt. eigenvalues --    2.31998   2.33745   2.35418   2.36892   2.38351
 Alpha virt. eigenvalues --    2.41027   2.42166   2.42654   2.45422   2.47638
 Alpha virt. eigenvalues --    2.48753   2.49273   2.51401   2.52480   2.54538
 Alpha virt. eigenvalues --    2.56046   2.58897   2.60356   2.61938   2.64333
 Alpha virt. eigenvalues --    2.65083   2.66132   2.66363   2.69186   2.69827
 Alpha virt. eigenvalues --    2.72187   2.73511   2.74442   2.76498   2.77430
 Alpha virt. eigenvalues --    2.79641   2.81008   2.81824   2.83900   2.85694
 Alpha virt. eigenvalues --    2.87288   2.89155   2.91482   2.93549   2.94204
 Alpha virt. eigenvalues --    2.95941   2.99066   3.01064   3.01251   3.04818
 Alpha virt. eigenvalues --    3.05706   3.08371   3.12290   3.18452   3.32288
 Alpha virt. eigenvalues --    3.33363   3.36553   3.38297   3.39215   3.42277
 Alpha virt. eigenvalues --    3.46097   3.52128   3.53169   3.54079   3.55912
 Alpha virt. eigenvalues --    3.55975   3.57162   3.58460   3.63144   4.33370
 Alpha virt. eigenvalues --    4.38786   4.40830   4.46172   4.49668   4.54262
 Alpha virt. eigenvalues --    4.58032   4.64783   4.76191   4.81130   4.86479
 Alpha virt. eigenvalues --    4.93708
          Condensed to atoms (all electrons):
              1          2          3          4          5          6
     1  C    5.889333  -0.678852   0.115911  -0.084514   0.252352  -0.041710
     2  C   -0.678852   8.194315  -0.399833  -0.212843   0.010962  -0.197135
     3  N    0.115911  -0.399833   7.405756   0.201444  -0.154697  -0.124045
     4  C   -0.084514  -0.212843   0.201444   5.711338   0.176910  -0.332738
     5  C    0.252352   0.010962  -0.154697   0.176910   5.364727   0.133854
     6  C   -0.041710  -0.197135  -0.124045  -0.332738   0.133854  10.039474
     7  C    0.084321  -0.066021  -0.038348  -0.156600  -0.074232  -1.842908
     8  C   -0.069639  -0.280335  -0.134721   0.030841  -0.031858   0.354632
     9  H    0.430595  -0.068828   0.010331   0.003858  -0.054260   0.011802
    10  H    0.425753  -0.149675   0.019037   0.025013  -0.024066   0.002469
    11  H    0.061805   0.151360   0.005601  -0.008214   0.009728   0.023890
    12  H    0.007065  -0.027719  -0.024890   0.386433  -0.045906   0.009877
    13  H    0.016202   0.028734  -0.064912   0.354458  -0.020255   0.041932
    14  H   -0.040487   0.027696   0.013171  -0.038352   0.369123  -0.000126
    15  H   -0.054645   0.000301   0.011410  -0.063351   0.414792   0.020740
    16  H    0.003303   0.060412  -0.057524   0.068006  -0.018955   0.228572
    17  H    0.017171  -0.006348   0.052148   0.013261  -0.002812  -0.148998
    18  H    0.069749  -0.213798   0.050101   0.011035  -0.014140   0.039566
    19  O    0.012722  -0.185831   0.031006   0.006932  -0.003472   0.015634
    20  H   -0.009314   0.046044  -0.003289  -0.001761   0.002256   0.019905
    21  O    0.001676   0.024139   0.011712  -0.000435   0.002424  -0.088753
    22  H   -0.000256  -0.000968   0.001844  -0.000171  -0.000165  -0.051207
    23  C    0.139119  -0.220689   0.211882   0.119887  -0.061156  -1.597851
    24  H    0.000870   0.001868   0.015178   0.013589  -0.002162  -0.124523
    25  H    0.001846   0.001166  -0.007340  -0.001280  -0.001037  -0.058951
    26  O   -0.000517   0.025645   0.002245   0.008316  -0.000453   0.020458
    27  H    0.000151  -0.001547  -0.000123  -0.000746   0.000134   0.011623
              7          8          9         10         11         12
     1  C    0.084321  -0.069639   0.430595   0.425753   0.061805   0.007065
     2  C   -0.066021  -0.280335  -0.068828  -0.149675   0.151360  -0.027719
     3  N   -0.038348  -0.134721   0.010331   0.019037   0.005601  -0.024890
     4  C   -0.156600   0.030841   0.003858   0.025013  -0.008214   0.386433
     5  C   -0.074232  -0.031858  -0.054260  -0.024066   0.009728  -0.045906
     6  C   -1.842908   0.354632   0.011802   0.002469   0.023890   0.009877
     7  C    7.656787  -0.404065  -0.007173  -0.003828  -0.025249   0.000764
     8  C   -0.404065   6.429140   0.003436   0.032901   0.030577   0.004854
     9  H   -0.007173   0.003436   0.521500  -0.023737  -0.006477   0.001645
    10  H   -0.003828   0.032901  -0.023737   0.514073   0.002977  -0.000011
    11  H   -0.025249   0.030577  -0.006477   0.002977   0.557151   0.000857
    12  H    0.000764   0.004854   0.001645  -0.000011   0.000857   0.545370
    13  H    0.017671  -0.003832  -0.000111  -0.000141  -0.000165  -0.028525
    14  H    0.004020   0.006307  -0.004905   0.000620  -0.000051  -0.002565
    15  H   -0.006629   0.008240   0.004182  -0.005088  -0.000101   0.004085
    16  H   -0.060734  -0.042420  -0.000004  -0.000050  -0.000567  -0.000327
    17  H    0.451548  -0.169545   0.000007  -0.000006   0.000729   0.000014
    18  H   -0.107195   0.447919   0.000233   0.000536   0.004430   0.000018
    19  O   -0.118603   0.334397  -0.000319   0.003814   0.008281   0.000074
    20  H   -0.052118   0.001978   0.000006  -0.000094   0.000022   0.000000
    21  O    0.390851  -0.253920   0.000029  -0.000080  -0.000497   0.000012
    22  H    0.023450   0.042615   0.000000   0.000000   0.000006   0.000000
    23  C    0.418542  -0.306323  -0.000258   0.000301   0.014450   0.002709
    24  H   -0.030101   0.002484   0.000000   0.000000  -0.000037   0.000019
    25  H    0.001344  -0.005533   0.000000   0.000000   0.000008  -0.000154
    26  O   -0.003825  -0.007414  -0.000002  -0.000004  -0.000067  -0.000022
    27  H    0.002576  -0.000426   0.000000   0.000000   0.000000   0.000000
             13         14         15         16         17         18
     1  C    0.016202  -0.040487  -0.054645   0.003303   0.017171   0.069749
     2  C    0.028734   0.027696   0.000301   0.060412  -0.006348  -0.213798
     3  N   -0.064912   0.013171   0.011410  -0.057524   0.052148   0.050101
     4  C    0.354458  -0.038352  -0.063351   0.068006   0.013261   0.011035
     5  C   -0.020255   0.369123   0.414792  -0.018955  -0.002812  -0.014140
     6  C    0.041932  -0.000126   0.020740   0.228572  -0.148998   0.039566
     7  C    0.017671   0.004020  -0.006629  -0.060734   0.451548  -0.107195
     8  C   -0.003832   0.006307   0.008240  -0.042420  -0.169545   0.447919
     9  H   -0.000111  -0.004905   0.004182  -0.000004   0.000007   0.000233
    10  H   -0.000141   0.000620  -0.005088  -0.000050  -0.000006   0.000536
    11  H   -0.000165  -0.000051  -0.000101  -0.000567   0.000729   0.004430
    12  H   -0.028525  -0.002565   0.004085  -0.000327   0.000014   0.000018
    13  H    0.528963   0.000944  -0.005569   0.000748  -0.000021  -0.000025
    14  H    0.000944   0.515635  -0.022843  -0.000161   0.000000  -0.000049
    15  H   -0.005569  -0.022843   0.522133  -0.000119   0.000002  -0.000002
    16  H    0.000748  -0.000161  -0.000119   0.559841   0.004037  -0.000298
    17  H   -0.000021   0.000000   0.000002   0.004037   0.566607   0.004623
    18  H   -0.000025  -0.000049  -0.000002  -0.000298   0.004623   0.557439
    19  O   -0.000015  -0.000010  -0.000012  -0.001039   0.000066  -0.040335
    20  H    0.000000   0.000000  -0.000001   0.000007  -0.000028  -0.005614
    21  O   -0.000097  -0.000013   0.000002   0.005231  -0.044569   0.001169
    22  H   -0.000001   0.000000   0.000000  -0.001051  -0.003171  -0.000005
    23  C   -0.033909  -0.002140  -0.002274   0.062061   0.090636   0.021321
    24  H    0.000017   0.000000   0.000000   0.004644   0.003061  -0.000008
    25  H    0.001202   0.000000  -0.000006  -0.006142   0.000059   0.000007
    26  O   -0.000036  -0.000005  -0.000047   0.009829  -0.000015  -0.000209
    27  H    0.000005   0.000000   0.000000  -0.000066   0.000038   0.000000
             19         20         21         22         23         24
     1  C    0.012722  -0.009314   0.001676  -0.000256   0.139119   0.000870
     2  C   -0.185831   0.046044   0.024139  -0.000968  -0.220689   0.001868
     3  N    0.031006  -0.003289   0.011712   0.001844   0.211882   0.015178
     4  C    0.006932  -0.001761  -0.000435  -0.000171   0.119887   0.013589
     5  C   -0.003472   0.002256   0.002424  -0.000165  -0.061156  -0.002162
     6  C    0.015634   0.019905  -0.088753  -0.051207  -1.597851  -0.124523
     7  C   -0.118603  -0.052118   0.390851   0.023450   0.418542  -0.030101
     8  C    0.334397   0.001978  -0.253920   0.042615  -0.306323   0.002484
     9  H   -0.000319   0.000006   0.000029   0.000000  -0.000258   0.000000
    10  H    0.003814  -0.000094  -0.000080   0.000000   0.000301   0.000000
    11  H    0.008281   0.000022  -0.000497   0.000006   0.014450  -0.000037
    12  H    0.000074   0.000000   0.000012   0.000000   0.002709   0.000019
    13  H   -0.000015   0.000000  -0.000097  -0.000001  -0.033909   0.000017
    14  H   -0.000010   0.000000  -0.000013   0.000000  -0.002140   0.000000
    15  H   -0.000012  -0.000001   0.000002   0.000000  -0.002274   0.000000
    16  H   -0.001039   0.000007   0.005231  -0.001051   0.062061   0.004644
    17  H    0.000066  -0.000028  -0.044569  -0.003171   0.090636   0.003061
    18  H   -0.040335  -0.005614   0.001169  -0.000005   0.021321  -0.000008
    19  O    8.255647   0.238244  -0.003365   0.000493  -0.000366  -0.000124
    20  H    0.238244   0.373068   0.006491  -0.000178  -0.001343   0.000000
    21  O   -0.003365   0.006491   8.262962   0.241120   0.021909   0.001230
    22  H    0.000493  -0.000178   0.241120   0.349042  -0.021961   0.000443
    23  C   -0.000366  -0.001343   0.021909  -0.021961   6.288628   0.491656
    24  H   -0.000124   0.000000   0.001230   0.000443   0.491656   0.549023
    25  H    0.000040   0.000000  -0.000785  -0.000059   0.441772  -0.042449
    26  O    0.000006  -0.000009  -0.021451   0.018458   0.017513  -0.049943
    27  H   -0.000005   0.000000   0.001762  -0.000899  -0.004677  -0.005809
             25         26         27
     1  C    0.001846  -0.000517   0.000151
     2  C    0.001166   0.025645  -0.001547
     3  N   -0.007340   0.002245  -0.000123
     4  C   -0.001280   0.008316  -0.000746
     5  C   -0.001037  -0.000453   0.000134
     6  C   -0.058951   0.020458   0.011623
     7  C    0.001344  -0.003825   0.002576
     8  C   -0.005533  -0.007414  -0.000426
     9  H    0.000000  -0.000002   0.000000
    10  H    0.000000  -0.000004   0.000000
    11  H    0.000008  -0.000067   0.000000
    12  H   -0.000154  -0.000022   0.000000
    13  H    0.001202  -0.000036   0.000005
    14  H    0.000000  -0.000005   0.000000
    15  H   -0.000006  -0.000047   0.000000
    16  H   -0.006142   0.009829  -0.000066
    17  H    0.000059  -0.000015   0.000038
    18  H    0.000007  -0.000209   0.000000
    19  O    0.000040   0.000006  -0.000005
    20  H    0.000000  -0.000009   0.000000
    21  O   -0.000785  -0.021451   0.001762
    22  H   -0.000059   0.018458  -0.000899
    23  C    0.441772   0.017513  -0.004677
    24  H   -0.042449  -0.049943  -0.005809
    25  H    0.561853  -0.045783  -0.002241
    26  O   -0.045783   8.388607   0.237663
    27  H   -0.002241   0.237663   0.361370
 Mulliken atomic charges:
              1
     1  C   -0.550009
     2  C    0.137780
     3  N   -0.149055
     4  C   -0.230317
     5  C   -0.227637
     6  C   -0.365485
     7  C   -0.054245
     8  C   -0.020288
     9  H    0.178451
    10  H    0.179283
    11  H    0.169553
    12  H    0.166324
    13  H    0.166738
    14  H    0.174192
    15  H    0.174800
    16  H    0.182767
    17  H    0.171505
    18  H    0.173532
    19  O   -0.553859
    20  H    0.385729
    21  O   -0.558753
    22  H    0.402619
    23  C   -0.089440
    24  H    0.171073
    25  H    0.162464
    26  O   -0.598941
    27  H    0.401219
 Sum of Mulliken atomic charges =   0.00000
 Mulliken charges with hydrogens summed into heavy atoms:
              1
     1  C   -0.192274
     2  C    0.307333
     3  N   -0.149055
     4  C    0.102745
     5  C    0.121355
     6  C   -0.182718
     7  C    0.117260
     8  C    0.153244
    19  O   -0.168130
    21  O   -0.156135
    23  C    0.244098
    26  O   -0.197722
 Sum of Mulliken charges with hydrogens summed into heavy atoms =   0.00000
 Electronic spatial extent (au):  <R**2>=           2107.1718
 Charge=              0.0000 electrons
 Dipole moment (field-independent basis, Debye):
    X=             -1.0763    Y=             -3.2290    Z=             -0.0664  Tot=              3.4043
 Quadrupole moment (field-independent basis, Debye-Ang):
   XX=            -62.8492   YY=            -73.3940   ZZ=            -76.7539
   XY=              1.6280   XZ=              8.8624   YZ=              2.1551
 Traceless Quadrupole moment (field-independent basis, Debye-Ang):
   XX=              8.1498   YY=             -2.3950   ZZ=             -5.7549
   XY=              1.6280   XZ=              8.8624   YZ=              2.1551
 Octapole moment (field-independent basis, Debye-Ang**2):
  XXX=            -60.9992  YYY=              3.2008  ZZZ=              1.9841  XYY=            -11.3070
  XXY=            -24.6773  XXZ=            -20.4607  XZZ=             -3.3606  YZZ=              1.3150
  YYZ=              9.2100  XYZ=              0.6941
 Hexadecapole moment (field-independent basis, Debye-Ang**3):
 XXXX=          -1217.4602 YYYY=           -891.7422 ZZZZ=           -251.0620 XXXY=             53.7172
 XXXZ=             54.3082 YYYX=              2.6395 YYYZ=             33.9928 ZZZX=              1.9677
 ZZZY=             -3.0364 XXYY=           -411.9530 XXZZ=           -286.1472 YYZZ=           -217.7003
 XXYZ=             24.6748 YYXZ=             25.9723 ZZXY=              6.1684
 N-N= 8.015190777485D+02 E-N=-2.989144208993D+03  KE= 5.886703790779D+02
 1\1\GINC-COMPUTE-3-0\SP\RmPW1PW91\6-31+G(d,p)\C8H15N1O3\MAMICHETTI.IQU
 IR\17-May-2024\0\\# mpw1pw91/6-31+G** nmr scrf=(pcm,solvent=water)\\co
 mment\\0,1\C,0,2.653419,-0.069854,0.083807\C,0,1.344477,0.349268,-0.61
 6805\N,0,0.47331,-0.881683,-0.676303\C,0,1.239632,-1.982399,-0.045543\
 C,0,2.25076,-1.312198,0.892167\C,0,-0.785249,-0.562863,0.031961\C,0,-0
 .916735,0.956279,-0.11311\C,0,0.518308,1.419477,0.110543\H,0,3.410378,
 -0.339089,-0.662058\H,0,3.063149,0.740345,0.695829\H,0,1.545849,0.7179
 ,-1.629884\H,0,1.768551,-2.552383,-0.820741\H,0,0.559183,-2.673954,0.4
 59861\H,0,3.098068,-1.958862,1.142152\H,0,1.760702,-1.019901,1.829399\
 H,0,-0.716416,-0.78608,1.110526\H,0,-1.210044,1.203762,-1.146022\H,0,0
 .721292,1.395149,1.191667\O,0,0.828321,2.710214,-0.413917\H,0,0.329932
 ,3.357726,0.112276\O,0,-1.823859,1.546472,0.813438\H,0,-2.634932,1.005
 352,0.742178\C,0,-1.985098,-1.316609,-0.526088\H,0,-2.121053,-1.07113,
 -1.586878\H,0,-1.839961,-2.402955,-0.441621\O,0,-3.134242,-0.904858,0.
 238456\H,0,-3.926713,-1.145335,-0.267949\\Version=AM64L-G09RevC.01\Sta
 te=1-A\HF=-594.2008396\RMSD=6.189e-09\Dipole=-0.4234583,-1.2703789,-0.
 0261135\Quadrupole=6.0591964,-1.7806035,-4.2785929,1.2103944,6.5889414
 ,1.6022715\PG=C01 [X(C8H15N1O3)]\\@


 WOE UNTO THEM THAT CALL EVIL GOOD, AND GOOD EVIL      
 Job cpu time:  0 days  0 hours  8 minutes 46.1 seconds.
 File lengths (MBytes):  RWF=    113 Int=      0 D2E=      0 Chk=      7 Scr=      1
 Normal termination of Gaussian 09 at Fri May 17 12:14:43 2024.
