 Entering Gaussian System, Link 0=g09
 Input=/home/mamichetti.iquir/Linux/02_Cardona_A1A3_R__R_R_R_003_OptB.gjc
 Output=/home/mamichetti.iquir/Linux/02_Cardona_A1A3_R__R_R_R_003_OptB.log
 Initial command:
 /opt/ohpc/pub/apps/software/Gaussian/09/AMD64.SSE4a-enabled/g09/l1.exe /local/mamichetti.iquir/Gau-710998.inp -scrdir=/local/mamichetti.iquir/
 Entering Link 1 = /opt/ohpc/pub/apps/software/Gaussian/09/AMD64.SSE4a-enabled/g09/l1.exe PID=    710999.
  
 Copyright (c) 1988,1990,1992,1993,1995,1998,2003,2009,2011,
            Gaussian, Inc.  All Rights Reserved.
  
 This is part of the Gaussian(R) 09 program.  It is based on
 the Gaussian(R) 03 system (copyright 2003, Gaussian, Inc.),
 the Gaussian(R) 98 system (copyright 1998, Gaussian, Inc.),
 the Gaussian(R) 94 system (copyright 1995, Gaussian, Inc.),
 the Gaussian 92(TM) system (copyright 1992, Gaussian, Inc.),
 the Gaussian 90(TM) system (copyright 1990, Gaussian, Inc.),
 the Gaussian 88(TM) system (copyright 1988, Gaussian, Inc.),
 the Gaussian 86(TM) system (copyright 1986, Carnegie Mellon
 University), and the Gaussian 82(TM) system (copyright 1983,
 Carnegie Mellon University). Gaussian is a federally registered
 trademark of Gaussian, Inc.
  
 This software contains proprietary and confidential information,
 including trade secrets, belonging to Gaussian, Inc.
  
 This software is provided under written license and may be
 used, copied, transmitted, or stored only in accord with that
 written license.
  
 The following legend is applicable only to US Government
 contracts under FAR:
  
                    RESTRICTED RIGHTS LEGEND
  
 Use, reproduction and disclosure by the US Government is
 subject to restrictions as set forth in subparagraphs (a)
 and (c) of the Commercial Computer Software - Restricted
 Rights clause in FAR 52.227-19.
  
 Gaussian, Inc.
 340 Quinnipiac St., Bldg. 40, Wallingford CT 06492
  
  
 ---------------------------------------------------------------
 Warning -- This program may not be used in any manner that
 competes with the business of Gaussian, Inc. or will provide
 assistance to any competitor of Gaussian, Inc.  The licensee
 of this program is prohibited from giving any competitor of
 Gaussian, Inc. access to this program.  By using this program,
 the user acknowledges that Gaussian, Inc. is engaged in the
 business of creating and licensing software in the field of
 computational chemistry and represents and warrants to the
 licensee that it is not a competitor of Gaussian, Inc. and that
 it will not use this program in any manner prohibited above.
 ---------------------------------------------------------------
  

 Cite this work as:
 Gaussian 09, Revision C.01,
 M. J. Frisch, G. W. Trucks, H. B. Schlegel, G. E. Scuseria, 
 M. A. Robb, J. R. Cheeseman, G. Scalmani, V. Barone, B. Mennucci, 
 G. A. Petersson, H. Nakatsuji, M. Caricato, X. Li, H. P. Hratchian, 
 A. F. Izmaylov, J. Bloino, G. Zheng, J. L. Sonnenberg, M. Hada, 
 M. Ehara, K. Toyota, R. Fukuda, J. Hasegawa, M. Ishida, T. Nakajima, 
 Y. Honda, O. Kitao, H. Nakai, T. Vreven, J. A. Montgomery, Jr., 
 J. E. Peralta, F. Ogliaro, M. Bearpark, J. J. Heyd, E. Brothers, 
 K. N. Kudin, V. N. Staroverov, T. Keith, R. Kobayashi, J. Normand, 
 K. Raghavachari, A. Rendell, J. C. Burant, S. S. Iyengar, J. Tomasi, 
 M. Cossi, N. Rega, J. M. Millam, M. Klene, J. E. Knox, J. B. Cross, 
 V. Bakken, C. Adamo, J. Jaramillo, R. Gomperts, R. E. Stratmann, 
 O. Yazyev, A. J. Austin, R. Cammi, C. Pomelli, J. W. Ochterski, 
 R. L. Martin, K. Morokuma, V. G. Zakrzewski, G. A. Voth, 
 P. Salvador, J. J. Dannenberg, S. Dapprich, A. D. Daniels, 
 O. Farkas, J. B. Foresman, J. V. Ortiz, J. Cioslowski, 
 and D. J. Fox, Gaussian, Inc., Wallingford CT, 2010.
 
 ******************************************
 Gaussian 09:  AM64L-G09RevC.01 23-Sep-2011
                17-May-2024 
 ******************************************
 %nprocshared=4
 Will use up to    4 processors via shared memory.
 ------------------------------------------------
 # mpw1pw91/6-31+G** nmr scrf=(pcm,solvent=water)
 ------------------------------------------------
 1/38=1/1;
 2/12=2,17=6,18=5,40=1/2;
 3/5=1,6=6,7=111,11=2,16=1,25=1,30=1,70=2201,72=1,74=-7/1,2,8,3;
 4//1;
 5/5=2,38=5,53=1/2;
 8/6=1,10=90,11=11/1;
 10/13=100,45=16/2;
 6/7=2,8=2,9=2,10=2,28=1/1;
 99/9=1/99;
 -------
 comment
 -------
 Charge =  0 Multiplicity = 1
 Symbolic Z-Matrix:
 6                    -1.96965   1.60053  -0.16964 
 6                    -1.13622   0.42484  -0.70755 
 7                     0.30516   0.80829  -0.51622 
 6                     0.32762   2.09041   0.2364 
 6                    -1.05294   2.22814   0.89012 
 6                     0.99563  -0.31051   0.17393 
 6                     0.07763  -1.52151  -0.01672 
 6                    -1.3122   -0.89969   0.05154 
 1                    -2.16955   2.32215  -0.97057 
 1                    -2.93538   1.26584   0.22527 
 1                    -1.34725   0.23699  -1.76784 
 1                     0.49607   2.92554  -0.45652 
 1                     1.1538    2.09289   0.95223 
 1                    -1.31157   3.2651    1.12741 
 1                    -1.09098   1.64761   1.82022 
 1                     1.07333  -0.11861   1.25606 
 1                     0.21678  -1.95433  -1.01942 
 1                    -1.55016  -0.70364   1.1075 
 8                    -2.28066  -1.78271  -0.51213 
 1                    -3.15558  -1.39126  -0.35158 
 8                     0.34723  -2.50316   0.98145 
 1                    -0.21807  -3.26895   0.78433 
 6                     2.40341  -0.53981  -0.36798 
 1                     2.87323  -1.37008   0.16958 
 1                     2.35164  -0.80821  -1.43312 
 8                     3.25845   0.59244  -0.17736 
 1                     2.87778   1.31397  -0.70633 
 
                          Input orientation:                          
 ---------------------------------------------------------------------
 Center     Atomic      Atomic             Coordinates (Angstroms)
 Number     Number       Type             X           Y           Z
 ---------------------------------------------------------------------
      1          6           0       -1.969648    1.600530   -0.169642
      2          6           0       -1.136224    0.424842   -0.707550
      3          7           0        0.305162    0.808293   -0.516216
      4          6           0        0.327615    2.090409    0.236398
      5          6           0       -1.052937    2.228142    0.890124
      6          6           0        0.995631   -0.310506    0.173934
      7          6           0        0.077626   -1.521508   -0.016718
      8          6           0       -1.312198   -0.899691    0.051537
      9          1           0       -2.169545    2.322152   -0.970569
     10          1           0       -2.935381    1.265835    0.225271
     11          1           0       -1.347251    0.236991   -1.767843
     12          1           0        0.496074    2.925536   -0.456517
     13          1           0        1.153805    2.092886    0.952230
     14          1           0       -1.311572    3.265100    1.127408
     15          1           0       -1.090977    1.647607    1.820221
     16          1           0        1.073330   -0.118607    1.256059
     17          1           0        0.216780   -1.954329   -1.019423
     18          1           0       -1.550162   -0.703639    1.107497
     19          8           0       -2.280665   -1.782713   -0.512129
     20          1           0       -3.155585   -1.391263   -0.351578
     21          8           0        0.347231   -2.503164    0.981449
     22          1           0       -0.218072   -3.268950    0.784330
     23          6           0        2.403407   -0.539809   -0.367981
     24          1           0        2.873226   -1.370083    0.169584
     25          1           0        2.351637   -0.808205   -1.433124
     26          8           0        3.258452    0.592440   -0.177359
     27          1           0        2.877779    1.313966   -0.706326
 ---------------------------------------------------------------------
                    Distance matrix (angstroms):
                    1          2          3          4          5
     1  C    0.000000
     2  C    1.538240   0.000000
     3  N    2.433621   1.503741   0.000000
     4  C    2.383751   2.409974   1.486860   0.000000
     5  C    1.535370   2.410682   2.416236   1.533705   0.000000
     6  C    3.544430   2.421272   1.484845   2.492898   3.339804
     7  C    3.736554   2.395612   2.393584   3.629395   4.020001
     8  C    2.594661   1.536739   2.419795   3.415239   3.248659
     9  H    1.096440   2.176400   2.936389   2.783214   2.172057
    10  H    1.095727   2.194172   3.355632   3.365589   2.216226
    11  H    2.191087   1.097288   2.150215   3.202705   3.334080
    12  H    2.813845   2.996812   2.126671   1.098156   2.167772
    13  H    3.355141   3.283515   2.127606   1.093166   2.211755
    14  H    2.210474   3.385983   3.369159   2.204707   1.094750
    15  H    2.175738   2.808350   2.848261   2.171859   1.097064
    16  H    3.774622   3.005533   2.142472   2.544710   3.187813
    17  H    4.259063   2.754694   2.809468   4.236659   4.769865
    18  H    2.667630   2.176973   2.892163   3.477293   2.981581
    19  O    3.414727   2.494240   3.660578   4.729111   4.422735
    20  H    3.223410   2.739119   4.103891   4.959883   4.366125
    21  O    4.851107   3.691419   3.634628   4.653644   4.934984
    22  H    5.262121   4.088130   4.311508   5.414862   5.561134
    23  C    4.872781   3.684406   2.498396   3.404737   4.603335
    24  H    5.691489   4.479599   3.436655   4.296464   5.374119
    25  H    5.106065   3.769886   2.764389   3.909723   5.119376
    26  O    5.324409   4.429714   2.980493   3.317365   4.733193
    27  H    4.885458   4.111297   2.628727   2.827530   4.339919
                    6          7          8          9         10
     6  C    0.000000
     7  C    1.531538   0.000000
     8  C    2.384994   1.524115   0.000000
     9  H    4.273068   4.553387   3.487122   0.000000
    10  H    4.235604   4.111697   2.711901   1.769843   0.000000
    11  H    3.091819   2.861648   2.145558   2.379014   2.748305
    12  H    3.334515   4.488287   4.261494   2.780979   3.872251
    13  H    2.531216   3.893696   3.980947   3.846346   4.234847
    14  H    4.360878   5.113757   4.301509   2.454949   2.729041
    15  H    3.301273   3.844902   3.109004   3.067055   2.468085
    16  H    1.101752   2.139981   2.784189   4.629408   4.364512
    17  H    2.175515   1.100961   2.144059   4.897471   4.674916
    18  H    2.739919   2.140669   1.100052   3.722554   2.564368
    19  O    3.656801   2.423880   1.426666   4.131880   3.204069
    20  H    4.321666   3.253114   1.949928   3.891642   2.727896
    21  O    2.424923   1.425718   2.487884   5.781713   5.054968
    22  H    3.255465   1.944908   2.710625   6.176434   5.316069
    23  C    1.525806   2.548799   3.756492   5.428243   5.667006
    24  H    2.155942   2.805890   4.213428   6.353116   6.378956
    25  H    2.160808   2.772388   3.954273   5.518530   5.916458
    26  O    2.461519   3.822595   4.813490   5.751890   6.243328
    27  H    2.637470   4.044296   4.799015   5.153809   5.887531
                   11         12         13         14         15
    11  H    0.000000
    12  H    3.513644   0.000000
    13  H    4.135024   1.763656   0.000000
    14  H    4.189653   2.427284   2.735481   0.000000
    15  H    3.863899   3.055384   2.447596   1.773397   0.000000
    16  H    3.889685   3.540190   2.233717   4.141712   2.849915
    17  H    2.794317   4.920158   4.598411   5.846981   4.769460
    18  H    3.032085   4.450183   3.893083   3.975954   2.499437
    19  O    2.554855   5.466350   5.381468   5.395150   4.315357
    20  H    2.815509   5.655120   5.692983   5.222021   4.267792
    21  O    4.235366   5.617890   4.666379   6.003816   4.472234
    22  H    4.481100   6.357780   5.537104   6.633796   5.099761
    23  C    4.078047   3.956561   3.199304   5.524001   4.667305
    24  H    4.914136   4.949262   3.944756   6.317823   5.248425
    25  H    3.858270   4.282254   3.942213   6.047085   5.335434
    26  O    4.885538   3.626568   2.820789   5.452582   4.901146
    27  H    4.487491   2.886534   2.515872   4.971938   4.716543
                   16         17         18         19         20
    16  H    0.000000
    17  H    3.046534   0.000000
    18  H    2.692033   3.034814   0.000000
    19  O    4.140655   2.554218   2.078755   0.000000
    20  H    4.699774   3.483663   2.275766   0.971851   0.000000
    21  O    2.507737   2.078876   2.618068   3.107356   3.909348
    22  H    3.437282   2.273950   2.908560   2.853769   3.666739
    23  C    2.141033   2.684508   4.223101   4.848311   5.623845
    24  H    2.446681   2.968465   4.570579   5.215131   6.051332
    25  H    3.056357   2.458122   4.657223   4.822460   5.642623
    26  O    2.708327   4.055474   5.143291   6.036161   6.716048
    27  H    3.026426   4.226192   5.193009   6.019691   6.621600
                   21         22         23         24         25
    21  O    0.000000
    22  H    0.972035   0.000000
    23  C    3.146996   3.955778   0.000000
    24  H    2.885073   3.679637   1.095016   0.000000
    25  H    3.566608   4.192347   1.099657   1.776636   0.000000
    26  O    4.404635   5.284070   1.431582   2.029844   2.088316
    27  H    4.880854   5.727955   1.943190   2.823359   2.304055
                   26         27
    26  O    0.000000
    27  H    0.972275   0.000000
 Stoichiometry    C8H15NO3
 Framework group  C1[X(C8H15NO3)]
 Deg. of freedom    75
 Full point group                 C1      NOp   1
 Largest Abelian subgroup         C1      NOp   1
 Largest concise Abelian subgroup C1      NOp   1
                         Standard orientation:                         
 ---------------------------------------------------------------------
 Center     Atomic      Atomic             Coordinates (Angstroms)
 Number     Number       Type             X           Y           Z
 ---------------------------------------------------------------------
      1          6           0        1.969647   -1.600531   -0.169642
      2          6           0        1.136224   -0.424843   -0.707550
      3          7           0       -0.305163   -0.808293   -0.516216
      4          6           0       -0.327617   -2.090409    0.236398
      5          6           0        1.052935   -2.228143    0.890124
      6          6           0       -0.995631    0.310507    0.173934
      7          6           0       -0.077625    1.521508   -0.016718
      8          6           0        1.312199    0.899690    0.051537
      9          1           0        2.169543   -2.322154   -0.970569
     10          1           0        2.935380   -1.265837    0.225271
     11          1           0        1.347251   -0.236992   -1.767843
     12          1           0       -0.496076   -2.925536   -0.456517
     13          1           0       -1.153807   -2.092885    0.952230
     14          1           0        1.311569   -3.265101    1.127408
     15          1           0        1.090976   -1.647608    1.820221
     16          1           0       -1.073330    0.118608    1.256059
     17          1           0       -0.216779    1.954329   -1.019423
     18          1           0        1.550162    0.703638    1.107497
     19          8           0        2.280666    1.782711   -0.512129
     20          1           0        3.155586    1.391261   -0.351578
     21          8           0       -0.347229    2.503164    0.981449
     22          1           0        0.218074    3.268950    0.784330
     23          6           0       -2.403407    0.539811   -0.367981
     24          1           0       -2.873225    1.370085    0.169584
     25          1           0       -2.351636    0.808207   -1.433124
     26          8           0       -3.258452   -0.592437   -0.177359
     27          1           0       -2.877780   -1.313964   -0.706326
 ---------------------------------------------------------------------
 Rotational constants (GHZ):      1.0833715      0.9177165      0.5625844
 Standard basis: 6-31+G(d,p) (6D, 7F)
 There are   303 symmetry adapted basis functions of A   symmetry.
 Integral buffers will be    131072 words long.
 Raffenetti 2 integral format.
 Two-electron integral symmetry is turned on.
   303 basis functions,   489 primitive gaussians,   303 cartesian basis functions
    47 alpha electrons       47 beta electrons
       nuclear repulsion energy       799.9442164605 Hartrees.
 NAtoms=   27 NActive=   27 NUniq=   27 SFac= 1.00D+00 NAtFMM=   60 NAOKFM=F Big=F
 ------------------------------------------------------------------------------
 Polarizable Continuum Model (PCM)
 =================================
 Model                : PCM.
 Atomic radii         : UFF (Universal Force Field).
 Polarization charges : Total charges.
 Charge compensation  : None.
 Solution method      : Matrix inversion.
 Cavity type          : Scaled VdW (van der Waals Surface) (Alpha=1.100).
 Cavity algorithm     : GePol (No added spheres)
                        Default sphere list used, NSphG=   27.
                        Lebedev-Laikov grids with approx.  5.0 points / Ang**2.
                        Smoothing algorithm: Karplus/York (Gamma=1.0000).
                        Polarization charges: spherical gaussians, with
                                              point-specific exponents (IZeta= 3).
                        Self-potential: point-specific (ISelfS= 7).
                        Self-field    : sphere-specific E.n sum rule (ISelfD= 2).
 Solvent              : Water, Eps=  78.355300 Eps(inf)=   1.777849
 ------------------------------------------------------------------------------
 One-electron integrals computed using PRISM.
 NBasis=   303 RedAO= T  NBF=   303
 NBsUse=   303 1.00D-06 NBFU=   303
 Harris functional with IExCor=  908 diagonalized for initial guess.
 ExpMin= 4.38D-02 ExpMax= 5.48D+03 ExpMxC= 8.25D+02 IAcc=2 IRadAn=         4 AccDes= 0.00D+00
 HarFok:  IExCor=  908 AccDes= 0.00D+00 IRadAn=         4 IDoV= 1
 ScaDFX=  1.000000  1.000000  1.000000  1.000000
 FoFCou: FMM=F IPFlag=           0 FMFlag=      100000 FMFlg1=           0
         NFxFlg=           0 DoJE=T BraDBF=F KetDBF=T FulRan=T
         Omega=  0.000000  0.000000  1.000000  0.000000  0.000000 ICntrl=     500 IOpCl=  0
         NMat0=    1 NMatS0=    1 NMatT0=    0 NMatD0=    1 NMtDS0=    0 NMtDT0=    0
         I1Cent=           4 NGrid=           0.
 Petite list used in FoFCou.
 Initial guess orbital symmetries:
       Occupied  (A) (A) (A) (A) (A) (A) (A) (A) (A) (A) (A) (A)
                 (A) (A) (A) (A) (A) (A) (A) (A) (A) (A) (A) (A)
                 (A) (A) (A) (A) (A) (A) (A) (A) (A) (A) (A) (A)
                 (A) (A) (A) (A) (A) (A) (A) (A) (A) (A) (A)
       Virtual   (A) (A) (A) (A) (A) (A) (A) (A) (A) (A) (A) (A)
                 (A) (A) (A) (A) (A) (A) (A) (A) (A) (A) (A) (A)
                 (A) (A) (A) (A) (A) (A) (A) (A) (A) (A) (A) (A)
                 (A) (A) (A) (A) (A) (A) (A) (A) (A) (A) (A) (A)
                 (A) (A) (A) (A) (A) (A) (A) (A) (A) (A) (A) (A)
                 (A) (A) (A) (A) (A) (A) (A) (A) (A) (A) (A) (A)
                 (A) (A) (A) (A) (A) (A) (A) (A) (A) (A) (A) (A)
                 (A) (A) (A) (A) (A) (A) (A) (A) (A) (A) (A) (A)
                 (A) (A) (A) (A) (A) (A) (A) (A) (A) (A) (A) (A)
                 (A) (A) (A) (A) (A) (A) (A) (A) (A) (A) (A) (A)
                 (A) (A) (A) (A) (A) (A) (A) (A) (A) (A) (A) (A)
                 (A) (A) (A) (A) (A) (A) (A) (A) (A) (A) (A) (A)
                 (A) (A) (A) (A) (A) (A) (A) (A) (A) (A) (A) (A)
                 (A) (A) (A) (A) (A) (A) (A) (A) (A) (A) (A) (A)
                 (A) (A) (A) (A) (A) (A) (A) (A) (A) (A) (A) (A)
                 (A) (A) (A) (A) (A) (A) (A) (A) (A) (A) (A) (A)
                 (A) (A) (A) (A) (A) (A) (A) (A) (A) (A) (A) (A)
                 (A) (A) (A) (A) (A) (A) (A) (A) (A) (A) (A) (A)
                 (A) (A) (A) (A) (A) (A) (A) (A) (A) (A) (A) (A)
                 (A) (A) (A) (A) (A) (A) (A) (A) (A) (A) (A) (A)
                 (A) (A) (A) (A) (A) (A) (A) (A) (A) (A) (A) (A)
                 (A) (A) (A) (A)
 The electronic state of the initial guess is 1-A.
 Requested convergence on RMS density matrix=1.00D-08 within 128 cycles.
 Requested convergence on MAX density matrix=1.00D-06.
 Requested convergence on             energy=1.00D-06.
 No special actions if energy rises.
 Error on total polarization charges =  0.01458
 SCF Done:  E(RmPW1PW91) =  -594.199270692     A.U. after   13 cycles
             Convg  =    0.4528D-08             -V/T =  2.0094
 Range of M.O.s used for correlation:     1   303
 NBasis=   303 NAE=    47 NBE=    47 NFC=     0 NFV=     0
 NROrb=    303 NOA=    47 NOB=    47 NVA=   256 NVB=   256

 **** Warning!!: The largest alpha MO coefficient is  0.65251108D+02

 NEqPCM:  Using equilibrium solvation (IEInf=0, Eps=  78.3553, EpsInf=   1.7778)
          Differentiating once with respect to magnetic field using GIAOs.
          Electric field/nuclear overlap derivatives assumed to be zero.
 FoFCou: FMM=F IPFlag=           0 FMFlag=    10101102 FMFlg1=           0
         NFxFlg=    40000000 DoJE=F BraDBF=F KetDBF=T FulRan=T
         Omega=  0.000000  0.000000  1.000000  0.000000  0.000000 ICntrl=    6100 IOpCl=  0
         NMat0=    1 NMatS0=    1 NMatT0=    0 NMatD0=    1 NMtDS0=    0 NMtDT0=    0
         I1Cent=           7 NGrid=        1830.
 Symmetry not used in FoFCou.
          There are     3 degrees of freedom in the 1st order CPHF.  IDoFFX=0.
      3 vectors produced by pass  0 Test12= 4.01D-13 3.33D-08 XBig12= 3.05D+01 8.14D-01.
 AX will form     3 AO Fock derivatives at one time.
      3 vectors produced by pass  1 Test12= 4.01D-13 3.33D-08 XBig12= 7.49D-02 3.93D-02.
      3 vectors produced by pass  2 Test12= 4.01D-13 3.33D-08 XBig12= 1.40D-04 1.87D-03.
      3 vectors produced by pass  3 Test12= 4.01D-13 3.33D-08 XBig12= 5.64D-07 1.50D-04.
      3 vectors produced by pass  4 Test12= 4.01D-13 3.33D-08 XBig12= 2.18D-09 8.14D-06.
      3 vectors produced by pass  5 Test12= 4.01D-13 3.33D-08 XBig12= 7.46D-12 5.21D-07.
 Inverted reduced A of dimension    18 with in-core refinement.
 Calculating GIAO nuclear magnetic shielding tensors.
 SCF GIAO Magnetic shielding tensor (ppm):
      1  C    Isotropic =   164.9819   Anisotropy =    20.9640
   XX=   170.6209   YX=    -2.4011   ZX=     3.2877
   XY=    -8.0463   YY=   166.7455   ZY=   -11.4839
   XZ=    -8.0942   YZ=   -18.7247   ZZ=   157.5794
   Eigenvalues:   145.3623   170.6256   178.9580
      2  C    Isotropic =   125.8919   Anisotropy =    56.2096
   XX=   150.5123   YX=    15.4680   ZX=    -2.9366
   XY=    25.2979   YY=   128.1473   ZY=   -12.2949
   XZ=    -8.7251   YZ=     4.0699   ZZ=    99.0162
   Eigenvalues:    98.2121   116.0986   163.3650
      3  N    Isotropic =   198.9748   Anisotropy =    75.2339
   XX=   236.3370   YX=   -14.9298   ZX=   -19.1246
   XY=   -24.0561   YY=   209.3671   ZY=   -13.2854
   XZ=   -27.4002   YZ=   -10.2870   ZZ=   151.2203
   Eigenvalues:   141.2543   206.5393   249.1308
      4  C    Isotropic =   138.3629   Anisotropy =    60.2916
   XX=   129.3449   YX=    -7.4005   ZX=    -5.5512
   XY=     3.5565   YY=   161.2466   ZY=   -28.2308
   XZ=     8.9128   YZ=   -32.6552   ZZ=   124.4973
   Eigenvalues:   107.3013   129.2302   178.5573
      5  C    Isotropic =   171.1261   Anisotropy =    19.7320
   XX=   182.5887   YX=     0.8662   ZX=     3.3067
   XY=     2.8412   YY=   169.5888   ZY=   -14.1714
   XZ=     3.2180   YZ=   -22.1369   ZZ=   161.2008
   Eigenvalues:   146.3828   182.7148   184.2808
      6  C    Isotropic =   124.5935   Anisotropy =    40.1118
   XX=   116.8567   YX=    -4.1653   ZX=    -3.2328
   XY=    -5.0646   YY=   144.3682   ZY=    18.0697
   XZ=   -23.3637   YZ=     7.6029   ZZ=   112.5557
   Eigenvalues:   100.0651   122.3807   151.3347
      7  C    Isotropic =   117.8932   Anisotropy =    41.3796
   XX=   121.8866   YX=    -7.9669   ZX=    -6.2703
   XY=    -6.3527   YY=   127.5289   ZY=    31.3785
   XZ=    -4.4940   YZ=    15.5911   ZZ=   104.2640
   Eigenvalues:    89.6679   118.5320   145.4796
      8  C    Isotropic =   113.2941   Anisotropy =    26.3809
   XX=   127.0641   YX=     9.2566   ZX=   -16.9835
   XY=     2.0116   YY=   117.9551   ZY=    -1.3039
   XZ=    -0.4134   YZ=     9.6974   ZZ=    94.8633
   Eigenvalues:    91.5177   117.4833   130.8814
      9  H    Isotropic =    29.8226   Anisotropy =    11.9364
   XX=    27.6971   YX=    -3.4947   ZX=    -3.3403
   XY=    -4.5688   YY=    31.1226   ZY=     3.8964
   XZ=    -4.3144   YZ=     3.7489   ZZ=    30.6481
   Eigenvalues:    24.6320    27.0556    37.7802
     10  H    Isotropic =    29.8647   Anisotropy =     9.6181
   XX=    36.0103   YX=     0.4659   ZX=     1.8434
   XY=     0.9794   YY=    28.0000   ZY=    -0.6877
   XZ=     1.1876   YZ=    -0.3005   ZZ=    25.5837
   Eigenvalues:    25.2395    28.0778    36.2767
     11  H    Isotropic =    28.3368   Anisotropy =     6.8280
   XX=    27.7986   YX=     0.1684   ZX=    -2.7495
   XY=     0.0481   YY=    25.9139   ZY=    -1.1095
   XZ=    -2.4563   YZ=    -1.4726   ZZ=    31.2978
   Eigenvalues:    25.4470    26.6745    32.8887
     12  H    Isotropic =    28.6212   Anisotropy =    11.3301
   XX=    25.9397   YX=     1.7052   ZX=     2.4993
   XY=     2.7732   YY=    34.8619   ZY=     2.8877
   XZ=     3.4360   YZ=     1.6224   ZZ=    25.0620
   Eigenvalues:    22.4954    27.1937    36.1746
     13  H    Isotropic =    28.7666   Anisotropy =     7.0840
   XX=    31.9626   YX=     0.8473   ZX=    -1.7628
   XY=     0.9026   YY=    28.4419   ZY=    -4.4588
   XZ=    -2.2208   YZ=    -2.7888   ZZ=    25.8952
   Eigenvalues:    23.1773    29.6332    33.4892
     14  H    Isotropic =    30.0493   Anisotropy =    12.6670
   XX=    27.3476   YX=    -2.5526   ZX=     0.7988
   XY=    -2.8673   YY=    35.6592   ZY=    -4.6881
   XZ=     1.0648   YZ=    -4.7651   ZZ=    27.1413
   Eigenvalues:    25.0011    26.6529    38.4940
     15  H    Isotropic =    29.8534   Anisotropy =     8.8302
   XX=    27.1428   YX=     0.1430   ZX=     1.0564
   XY=    -0.1096   YY=    26.9346   ZY=     1.4980
   XZ=     1.0970   YZ=     0.5764   ZZ=    35.4826
   Eigenvalues:    26.7614    27.0585    35.7401
     16  H    Isotropic =    28.7949   Anisotropy =     5.5811
   XX=    28.8940   YX=    -1.8407   ZX=    -1.3666
   XY=    -1.9389   YY=    28.0393   ZY=     2.7521
   XZ=    -1.8965   YZ=     1.2475   ZZ=    29.4514
   Eigenvalues:    26.3382    27.5309    32.5156
     17  H    Isotropic =    27.8618   Anisotropy =     1.6568
   XX=    26.1917   YX=    -1.0047   ZX=     0.3045
   XY=     0.0473   YY=    28.5531   ZY=     0.8104
   XZ=     0.6105   YZ=    -0.9105   ZZ=    28.8406
   Eigenvalues:    26.0294    28.5896    28.9663
     18  H    Isotropic =    27.9760   Anisotropy =     4.1788
   XX=    26.9062   YX=     2.2081   ZX=    -0.4284
   XY=     2.1471   YY=    29.4822   ZY=    -1.1104
   XZ=     0.6580   YZ=     0.1804   ZZ=    27.5395
   Eigenvalues:    25.6071    27.5590    30.7619
     19  O    Isotropic =   297.9892   Anisotropy =    35.0490
   XX=   319.4853   YX=     3.9082   ZX=    -5.3890
   XY=    -4.9671   YY=   279.0579   ZY=    -8.5964
   XZ=    -6.5532   YZ=   -28.8025   ZZ=   295.4245
   Eigenvalues:   266.5666   306.0458   321.3552
     20  H    Isotropic =    29.7466   Anisotropy =    18.8871
   XX=    41.9603   YX=    -2.1898   ZX=     1.3765
   XY=    -1.6697   YY=    26.6510   ZY=    -2.8588
   XZ=     1.4668   YZ=    -2.1475   ZZ=    20.6287
   Eigenvalues:    19.7026    27.1992    42.3381
     21  O    Isotropic =   298.1527   Anisotropy =    40.9428
   XX=   277.0967   YX=    23.4809   ZX=    16.7369
   XY=    14.1152   YY=   307.5792   ZY=     1.5047
   XZ=    -6.0181   YZ=    19.5600   ZZ=   309.7821
   Eigenvalues:   268.1351   300.8751   325.4479
     22  H    Isotropic =    29.4488   Anisotropy =    19.1686
   XX=    26.6373   YX=     6.4309   ZX=    -3.6631
   XY=     7.4733   YY=    39.1277   ZY=     1.3212
   XZ=    -2.2044   YZ=     1.3311   ZZ=    22.5813
   Eigenvalues:    19.8045    26.3140    42.2278
     23  C    Isotropic =   125.6066   Anisotropy =    47.9234
   XX=   138.1679   YX=    17.2349   ZX=     3.8814
   XY=    24.4277   YY=   133.4786   ZY=   -15.2652
   XZ=     2.8951   YZ=   -10.7523   ZZ=   105.1733
   Eigenvalues:    96.6809   122.5834   157.5556
     24  H    Isotropic =    27.7644   Anisotropy =     5.5907
   XX=    30.3402   YX=    -0.1934   ZX=     0.1743
   XY=    -1.8061   YY=    30.2280   ZY=     1.8401
   XZ=    -0.8707   YZ=     1.2568   ZZ=    22.7250
   Eigenvalues:    22.4152    29.3864    31.4915
     25  H    Isotropic =    28.0577   Anisotropy =     6.0438
   XX=    28.1380   YX=     2.2841   ZX=     1.3514
   XY=     1.8733   YY=    28.1603   ZY=    -5.0997
   XZ=     2.2699   YZ=    -2.9964   ZZ=    27.8747
   Eigenvalues:    22.6028    29.4835    32.0869
     26  O    Isotropic =   308.6058   Anisotropy =    24.7375
   XX=   303.5635   YX=   -16.1767   ZX=    -1.3016
   XY=    -0.7356   YY=   316.4795   ZY=     5.3185
   XZ=   -17.3313   YZ=     5.3655   ZZ=   305.7743
   Eigenvalues:   294.8303   305.8896   325.0974
     27  H    Isotropic =    29.9400   Anisotropy =    14.0088
   XX=    29.8796   YX=    -0.8528   ZX=    -2.5865
   XY=    -1.9658   YY=    34.6414   ZY=     7.5047
   XZ=    -1.5706   YZ=     7.3445   ZZ=    25.2990
   Eigenvalues:    21.0468    29.4939    39.2792
 End of Minotr Frequency-dependent properties file   721 does not exist.
 End of Minotr Frequency-dependent properties file   722 does not exist.

 **********************************************************************

            Population analysis using the SCF density.

 **********************************************************************

 Orbital symmetries:
       Occupied  (A) (A) (A) (A) (A) (A) (A) (A) (A) (A) (A) (A)
                 (A) (A) (A) (A) (A) (A) (A) (A) (A) (A) (A) (A)
                 (A) (A) (A) (A) (A) (A) (A) (A) (A) (A) (A) (A)
                 (A) (A) (A) (A) (A) (A) (A) (A) (A) (A) (A)
       Virtual   (A) (A) (A) (A) (A) (A) (A) (A) (A) (A) (A) (A)
                 (A) (A) (A) (A) (A) (A) (A) (A) (A) (A) (A) (A)
                 (A) (A) (A) (A) (A) (A) (A) (A) (A) (A) (A) (A)
                 (A) (A) (A) (A) (A) (A) (A) (A) (A) (A) (A) (A)
                 (A) (A) (A) (A) (A) (A) (A) (A) (A) (A) (A) (A)
                 (A) (A) (A) (A) (A) (A) (A) (A) (A) (A) (A) (A)
                 (A) (A) (A) (A) (A) (A) (A) (A) (A) (A) (A) (A)
                 (A) (A) (A) (A) (A) (A) (A) (A) (A) (A) (A) (A)
                 (A) (A) (A) (A) (A) (A) (A) (A) (A) (A) (A) (A)
                 (A) (A) (A) (A) (A) (A) (A) (A) (A) (A) (A) (A)
                 (A) (A) (A) (A) (A) (A) (A) (A) (A) (A) (A) (A)
                 (A) (A) (A) (A) (A) (A) (A) (A) (A) (A) (A) (A)
                 (A) (A) (A) (A) (A) (A) (A) (A) (A) (A) (A) (A)
                 (A) (A) (A) (A) (A) (A) (A) (A) (A) (A) (A) (A)
                 (A) (A) (A) (A) (A) (A) (A) (A) (A) (A) (A) (A)
                 (A) (A) (A) (A) (A) (A) (A) (A) (A) (A) (A) (A)
                 (A) (A) (A) (A) (A) (A) (A) (A) (A) (A) (A) (A)
                 (A) (A) (A) (A) (A) (A) (A) (A) (A) (A) (A) (A)
                 (A) (A) (A) (A) (A) (A) (A) (A) (A) (A) (A) (A)
                 (A) (A) (A) (A) (A) (A) (A) (A) (A) (A) (A) (A)
                 (A) (A) (A) (A) (A) (A) (A) (A) (A) (A) (A) (A)
                 (A) (A) (A) (A)
 The electronic state is 1-A.
 Alpha  occ. eigenvalues --  -19.26276 -19.26202 -19.25541 -14.41687 -10.30813
 Alpha  occ. eigenvalues --  -10.30337 -10.29361 -10.28214 -10.27860 -10.27007
 Alpha  occ. eigenvalues --  -10.24910 -10.24644  -1.07495  -1.05812  -1.05596
 Alpha  occ. eigenvalues --   -0.96689  -0.83078  -0.79501  -0.75556  -0.71997
 Alpha  occ. eigenvalues --   -0.66171  -0.61848  -0.60521  -0.58636  -0.56570
 Alpha  occ. eigenvalues --   -0.53154  -0.52435  -0.49941  -0.49649  -0.46901
 Alpha  occ. eigenvalues --   -0.46187  -0.44724  -0.43114  -0.42449  -0.40687
 Alpha  occ. eigenvalues --   -0.40151  -0.39058  -0.38336  -0.36072  -0.35254
 Alpha  occ. eigenvalues --   -0.35158  -0.34804  -0.33700  -0.31075  -0.29949
 Alpha  occ. eigenvalues --   -0.29261  -0.23478
 Alpha virt. eigenvalues --    0.00671   0.01191   0.01723   0.02214   0.03099
 Alpha virt. eigenvalues --    0.04102   0.04616   0.05056   0.05422   0.06794
 Alpha virt. eigenvalues --    0.07924   0.08170   0.08252   0.09034   0.09458
 Alpha virt. eigenvalues --    0.10330   0.11180   0.11586   0.12068   0.12452
 Alpha virt. eigenvalues --    0.13117   0.13749   0.14517   0.14681   0.14884
 Alpha virt. eigenvalues --    0.15283   0.15698   0.16498   0.17473   0.18030
 Alpha virt. eigenvalues --    0.18781   0.19511   0.19850   0.20618   0.21013
 Alpha virt. eigenvalues --    0.21562   0.21933   0.22352   0.22740   0.23308
 Alpha virt. eigenvalues --    0.23936   0.24480   0.25022   0.25266   0.25683
 Alpha virt. eigenvalues --    0.26609   0.27072   0.27759   0.27996   0.28783
 Alpha virt. eigenvalues --    0.29274   0.30383   0.30674   0.31199   0.32088
 Alpha virt. eigenvalues --    0.32249   0.32735   0.33090   0.33924   0.34722
 Alpha virt. eigenvalues --    0.35335   0.35520   0.36147   0.37875   0.38304
 Alpha virt. eigenvalues --    0.38886   0.39873   0.40584   0.40919   0.41525
 Alpha virt. eigenvalues --    0.41814   0.42563   0.43084   0.45216   0.46352
 Alpha virt. eigenvalues --    0.47399   0.63896   0.64112   0.66537   0.67818
 Alpha virt. eigenvalues --    0.68940   0.71323   0.71554   0.72415   0.74198
 Alpha virt. eigenvalues --    0.76962   0.78386   0.78876   0.80427   0.82147
 Alpha virt. eigenvalues --    0.82847   0.83923   0.85298   0.86615   0.87340
 Alpha virt. eigenvalues --    0.88376   0.90665   0.92492   0.94977   0.96468
 Alpha virt. eigenvalues --    0.98208   1.00392   1.03016   1.03538   1.04634
 Alpha virt. eigenvalues --    1.06466   1.06543   1.07296   1.08897   1.10992
 Alpha virt. eigenvalues --    1.11462   1.12666   1.13365   1.14128   1.15687
 Alpha virt. eigenvalues --    1.17441   1.19349   1.20071   1.22653   1.24596
 Alpha virt. eigenvalues --    1.26744   1.27282   1.27687   1.30683   1.32096
 Alpha virt. eigenvalues --    1.33880   1.36519   1.37983   1.38342   1.42009
 Alpha virt. eigenvalues --    1.43575   1.46498   1.48889   1.51095   1.52040
 Alpha virt. eigenvalues --    1.53986   1.54818   1.57527   1.59113   1.61077
 Alpha virt. eigenvalues --    1.61947   1.62970   1.67938   1.70174   1.70778
 Alpha virt. eigenvalues --    1.71509   1.73588   1.75186   1.78120   1.79013
 Alpha virt. eigenvalues --    1.80882   1.81385   1.83064   1.84928   1.85497
 Alpha virt. eigenvalues --    1.87444   1.89821   1.91308   1.92166   1.93708
 Alpha virt. eigenvalues --    1.95961   2.00250   2.01467   2.03308   2.03699
 Alpha virt. eigenvalues --    2.05208   2.05542   2.07357   2.09040   2.11124
 Alpha virt. eigenvalues --    2.13126   2.14948   2.16837   2.17866   2.20268
 Alpha virt. eigenvalues --    2.20843   2.21300   2.25040   2.27867   2.29788
 Alpha virt. eigenvalues --    2.31973   2.33150   2.33675   2.35441   2.38429
 Alpha virt. eigenvalues --    2.40785   2.41220   2.42823   2.44185   2.45689
 Alpha virt. eigenvalues --    2.48861   2.49356   2.51078   2.52081   2.54570
 Alpha virt. eigenvalues --    2.55722   2.56644   2.58359   2.61038   2.63944
 Alpha virt. eigenvalues --    2.64993   2.66469   2.67623   2.69268   2.69749
 Alpha virt. eigenvalues --    2.71836   2.73104   2.73390   2.75100   2.77434
 Alpha virt. eigenvalues --    2.80323   2.80892   2.81587   2.84064   2.86326
 Alpha virt. eigenvalues --    2.87114   2.88927   2.90991   2.93887   2.95886
 Alpha virt. eigenvalues --    2.98887   3.00096   3.01109   3.02639   3.03031
 Alpha virt. eigenvalues --    3.05605   3.06978   3.11291   3.17946   3.32329
 Alpha virt. eigenvalues --    3.33897   3.36338   3.37944   3.38938   3.42460
 Alpha virt. eigenvalues --    3.46935   3.50979   3.52770   3.53571   3.55841
 Alpha virt. eigenvalues --    3.56581   3.57946   3.60113   3.61272   4.31132
 Alpha virt. eigenvalues --    4.35378   4.38828   4.42066   4.47150   4.54791
 Alpha virt. eigenvalues --    4.58010   4.66515   4.76152   4.80286   4.88827
 Alpha virt. eigenvalues --    4.93151
          Condensed to atoms (all electrons):
              1          2          3          4          5          6
     1  C    5.861456  -0.523382   0.058137  -0.095021   0.287304   0.021740
     2  C   -0.523382   8.022904  -0.308249  -0.153643  -0.057847  -0.613218
     3  N    0.058137  -0.308249   7.451441   0.136493  -0.103760  -0.316510
     4  C   -0.095021  -0.153643   0.136493   5.874404   0.009907  -0.209612
     5  C    0.287304  -0.057847  -0.103760   0.009907   5.482090  -0.007756
     6  C    0.021740  -0.613218  -0.316510  -0.209612  -0.007756   9.302665
     7  C   -0.225999   0.714164  -0.066025  -0.224609   0.119035  -1.021687
     8  C    0.151546  -0.800216   0.019912   0.120732  -0.100089   0.398209
     9  H    0.435560  -0.080967   0.011135  -0.002104  -0.048545   0.009120
    10  H    0.390203  -0.111397   0.016884   0.027238  -0.025607   0.004176
    11  H    0.058541   0.163027   0.004149  -0.009799   0.016692   0.022082
    12  H    0.008798  -0.041401  -0.029233   0.374608  -0.034257   0.017452
    13  H    0.016164   0.030293  -0.071482   0.404562  -0.034266   0.024029
    14  H   -0.038234   0.025068   0.011015  -0.022196   0.357044   0.001505
    15  H   -0.050512  -0.002434   0.012994  -0.080627   0.423055   0.011462
    16  H    0.003079   0.057056  -0.054975   0.053485  -0.016415   0.228432
    17  H    0.015632  -0.010195   0.048108   0.011738  -0.002746  -0.154556
    18  H    0.076350  -0.229934   0.052729   0.012107  -0.013308   0.014892
    19  O    0.001950  -0.156704   0.024087   0.001203  -0.002817  -0.004653
    20  H   -0.028513   0.014840  -0.002288  -0.000957   0.003839  -0.004663
    21  O   -0.006447   0.021024   0.018273  -0.000619   0.003345  -0.151846
    22  H    0.000047   0.003406  -0.004099  -0.000760  -0.000034   0.045674
    23  C    0.056733  -0.078097   0.242339   0.037827  -0.014233  -1.130270
    24  H    0.000042   0.011960   0.012471  -0.004095   0.001339  -0.150903
    25  H    0.002744   0.007773   0.012781   0.010230  -0.001549  -0.155933
    26  O    0.005808   0.006567   0.021974  -0.012098   0.001777  -0.135501
    27  H   -0.001058   0.015859   0.027169  -0.003759   0.007019  -0.072395
              7          8          9         10         11         12
     1  C   -0.225999   0.151546   0.435560   0.390203   0.058541   0.008798
     2  C    0.714164  -0.800216  -0.080967  -0.111397   0.163027  -0.041401
     3  N   -0.066025   0.019912   0.011135   0.016884   0.004149  -0.029233
     4  C   -0.224609   0.120732  -0.002104   0.027238  -0.009799   0.374608
     5  C    0.119035  -0.100089  -0.048545  -0.025607   0.016692  -0.034257
     6  C   -1.021687   0.398209   0.009120   0.004176   0.022082   0.017452
     7  C    6.949292  -0.873078  -0.003904  -0.004640  -0.031832   0.003701
     8  C   -0.873078   6.665611   0.009572   0.032081   0.026688   0.008242
     9  H   -0.003904   0.009572   0.517835  -0.023807  -0.005952   0.001544
    10  H   -0.004640   0.032081  -0.023807   0.520096   0.002251  -0.000024
    11  H   -0.031832   0.026688  -0.005952   0.002251   0.558696   0.000630
    12  H    0.003701   0.008242   0.001544  -0.000024   0.000630   0.549179
    13  H   -0.000510  -0.005637  -0.000104  -0.000137  -0.000188  -0.031360
    14  H    0.001924   0.004780  -0.004694   0.000553  -0.000059  -0.002793
    15  H    0.007890   0.007136   0.004127  -0.005033  -0.000085   0.004105
    16  H   -0.002400  -0.029727   0.000003  -0.000010  -0.000506  -0.000300
    17  H    0.357162  -0.027317   0.000007  -0.000007   0.000737   0.000009
    18  H   -0.154611   0.534508   0.000130   0.000376   0.004324   0.000019
    19  O   -0.138377   0.372955  -0.000072   0.000565   0.005817   0.000066
    20  H    0.051961  -0.027545  -0.000105   0.001118  -0.000367   0.000000
    21  O    0.272266  -0.111935   0.000024  -0.000025  -0.000493   0.000015
    22  H    0.015228  -0.039155   0.000000  -0.000001  -0.000002   0.000000
    23  C    0.105848  -0.111290   0.000188   0.000049   0.012780   0.003667
    24  H    0.026318  -0.005705   0.000000   0.000000  -0.000008  -0.000005
    25  H    0.019723  -0.012069   0.000000   0.000000  -0.000042   0.000015
    26  O    0.038377  -0.019214  -0.000016   0.000002   0.000154   0.000143
    27  H    0.009204  -0.004792   0.000000   0.000000  -0.000030  -0.000807
             13         14         15         16         17         18
     1  C    0.016164  -0.038234  -0.050512   0.003079   0.015632   0.076350
     2  C    0.030293   0.025068  -0.002434   0.057056  -0.010195  -0.229934
     3  N   -0.071482   0.011015   0.012994  -0.054975   0.048108   0.052729
     4  C    0.404562  -0.022196  -0.080627   0.053485   0.011738   0.012107
     5  C   -0.034266   0.357044   0.423055  -0.016415  -0.002746  -0.013308
     6  C    0.024029   0.001505   0.011462   0.228432  -0.154556   0.014892
     7  C   -0.000510   0.001924   0.007890  -0.002400   0.357162  -0.154611
     8  C   -0.005637   0.004780   0.007136  -0.029727  -0.027317   0.534508
     9  H   -0.000104  -0.004694   0.004127   0.000003   0.000007   0.000130
    10  H   -0.000137   0.000553  -0.005033  -0.000010  -0.000007   0.000376
    11  H   -0.000188  -0.000059  -0.000085  -0.000506   0.000737   0.004324
    12  H   -0.031360  -0.002793   0.004105  -0.000300   0.000009   0.000019
    13  H    0.524985   0.000881  -0.005956   0.002993  -0.000015  -0.000019
    14  H    0.000881   0.513691  -0.022756  -0.000115   0.000000  -0.000044
    15  H   -0.005956  -0.022756   0.521178   0.000162   0.000003  -0.000050
    16  H    0.002993  -0.000115   0.000162   0.554744   0.004092   0.000239
    17  H   -0.000015   0.000000   0.000003   0.004092   0.560008   0.004575
    18  H   -0.000019  -0.000044  -0.000050   0.000239   0.004575   0.555256
    19  O   -0.000024  -0.000007  -0.000035  -0.000892   0.000789  -0.043114
    20  H    0.000000   0.000000  -0.000007   0.000005  -0.000007  -0.005605
    21  O   -0.000143  -0.000011  -0.000001   0.001817  -0.040998  -0.002837
    22  H    0.000000   0.000000   0.000000   0.000120  -0.005784  -0.000359
    23  C   -0.027543  -0.000945   0.000339   0.020335   0.062174   0.015998
    24  H   -0.000018   0.000000  -0.000001  -0.002573   0.000240  -0.000008
    25  H    0.000012   0.000000   0.000001   0.004570   0.003353  -0.000003
    26  O    0.001930   0.000030  -0.000168   0.000132   0.000140   0.000023
    27  H   -0.000178  -0.000005   0.000001   0.000281   0.000027   0.000000
             19         20         21         22         23         24
     1  C    0.001950  -0.028513  -0.006447   0.000047   0.056733   0.000042
     2  C   -0.156704   0.014840   0.021024   0.003406  -0.078097   0.011960
     3  N    0.024087  -0.002288   0.018273  -0.004099   0.242339   0.012471
     4  C    0.001203  -0.000957  -0.000619  -0.000760   0.037827  -0.004095
     5  C   -0.002817   0.003839   0.003345  -0.000034  -0.014233   0.001339
     6  C   -0.004653  -0.004663  -0.151846   0.045674  -1.130270  -0.150903
     7  C   -0.138377   0.051961   0.272266   0.015228   0.105848   0.026318
     8  C    0.372955  -0.027545  -0.111935  -0.039155  -0.111290  -0.005705
     9  H   -0.000072  -0.000105   0.000024   0.000000   0.000188   0.000000
    10  H    0.000565   0.001118  -0.000025  -0.000001   0.000049   0.000000
    11  H    0.005817  -0.000367  -0.000493  -0.000002   0.012780  -0.000008
    12  H    0.000066   0.000000   0.000015   0.000000   0.003667  -0.000005
    13  H   -0.000024   0.000000  -0.000143   0.000000  -0.027543  -0.000018
    14  H   -0.000007   0.000000  -0.000011   0.000000  -0.000945   0.000000
    15  H   -0.000035  -0.000007  -0.000001   0.000000   0.000339  -0.000001
    16  H   -0.000892   0.000005   0.001817   0.000120   0.020335  -0.002573
    17  H    0.000789  -0.000007  -0.040998  -0.005784   0.062174   0.000240
    18  H   -0.043114  -0.005605  -0.002837  -0.000359   0.015998  -0.000008
    19  O    8.242137   0.239747  -0.004678   0.007073   0.005193  -0.000006
    20  H    0.239747   0.370203   0.000288  -0.000308   0.000322   0.000000
    21  O   -0.004678   0.000288   8.272734   0.233553   0.046563   0.004924
    22  H    0.007073  -0.000308   0.233553   0.370488  -0.014120  -0.000088
    23  C    0.005193   0.000322   0.046563  -0.014120   5.927496   0.484228
    24  H   -0.000006   0.000000   0.004924  -0.000088   0.484228   0.540078
    25  H   -0.000078   0.000000   0.000372   0.000002   0.465176  -0.034165
    26  O    0.000147  -0.000001  -0.000139   0.000009   0.213048  -0.060024
    27  H   -0.000003   0.000000   0.000056   0.000000   0.020598   0.006704
             25         26         27
     1  C    0.002744   0.005808  -0.001058
     2  C    0.007773   0.006567   0.015859
     3  N    0.012781   0.021974   0.027169
     4  C    0.010230  -0.012098  -0.003759
     5  C   -0.001549   0.001777   0.007019
     6  C   -0.155933  -0.135501  -0.072395
     7  C    0.019723   0.038377   0.009204
     8  C   -0.012069  -0.019214  -0.004792
     9  H    0.000000  -0.000016   0.000000
    10  H    0.000000   0.000002   0.000000
    11  H   -0.000042   0.000154  -0.000030
    12  H    0.000015   0.000143  -0.000807
    13  H    0.000012   0.001930  -0.000178
    14  H    0.000000   0.000030  -0.000005
    15  H    0.000001  -0.000168   0.000001
    16  H    0.004570   0.000132   0.000281
    17  H    0.003353   0.000140   0.000027
    18  H   -0.000003   0.000023   0.000000
    19  O   -0.000078   0.000147  -0.000003
    20  H    0.000000  -0.000001   0.000000
    21  O    0.000372  -0.000139   0.000056
    22  H    0.000002   0.000009   0.000000
    23  C    0.465176   0.213048   0.020598
    24  H   -0.034165  -0.060024   0.006704
    25  H    0.567927  -0.043165  -0.006358
    26  O   -0.043165   8.269920   0.251538
    27  H   -0.006358   0.251538   0.372881
 Mulliken atomic charges:
              1
     1  C   -0.482668
     2  C    0.073742
     3  N   -0.225470
     4  C   -0.254636
     5  C   -0.249215
     6  C    0.028065
     7  C    0.055581
     8  C   -0.184201
     9  H    0.181025
    10  H    0.175096
    11  H    0.172796
    12  H    0.167987
    13  H    0.171730
    14  H    0.175367
    15  H    0.175211
    16  H    0.176368
    17  H    0.172829
    18  H    0.178367
    19  O   -0.550272
    20  H    0.388041
    21  O   -0.555084
    22  H    0.389106
    23  C   -0.344403
    24  H    0.169295
    25  H    0.158684
    26  O   -0.541394
    27  H    0.378050
 Sum of Mulliken atomic charges =   0.00000
 Mulliken charges with hydrogens summed into heavy atoms:
              1
     1  C   -0.126547
     2  C    0.246538
     3  N   -0.225470
     4  C    0.085081
     5  C    0.101363
     6  C    0.204433
     7  C    0.228410
     8  C   -0.005834
    19  O   -0.162230
    21  O   -0.165978
    23  C   -0.016424
    26  O   -0.163344
 Sum of Mulliken charges with hydrogens summed into heavy atoms =   0.00000
 Electronic spatial extent (au):  <R**2>=           2101.3477
 Charge=              0.0000 electrons
 Dipole moment (field-independent basis, Debye):
    X=              4.8275    Y=             -1.6909    Z=             -0.2945  Tot=              5.1236
 Quadrupole moment (field-independent basis, Debye-Ang):
   XX=            -77.9899   YY=            -69.1759   ZZ=            -75.9847
   XY=             -1.6365   XZ=              4.5851   YZ=             -0.9075
 Traceless Quadrupole moment (field-independent basis, Debye-Ang):
   XX=             -3.6064   YY=              5.2076   ZZ=             -1.6012
   XY=             -1.6365   XZ=              4.5851   YZ=             -0.9075
 Octapole moment (field-independent basis, Debye-Ang**2):
  XXX=             81.1043  YYY=              9.1297  ZZZ=             -1.4052  XYY=             -4.6787
  XXY=              6.4808  XXZ=             -3.6027  XZZ=             -1.6651  YZZ=             -2.4163
  YYZ=             -1.5196  XYZ=              5.4342
 Hexadecapole moment (field-independent basis, Debye-Ang**3):
 XXXX=          -1398.4947 YYYY=          -1013.8743 ZZZZ=           -258.6926 XXXY=             10.1418
 XXXZ=             11.7211 YYYX=             28.7770 YYYZ=             21.2625 ZZZX=              3.6886
 ZZZY=             -0.4169 XXYY=           -407.1889 XXZZ=           -259.2557 YYZZ=           -240.6965
 XXYZ=             20.1378 YYXZ=             24.5988 ZZXY=              5.7971
 N-N= 7.999442164605D+02 E-N=-2.985585459268D+03  KE= 5.886620900594D+02
 1\1\GINC-COMPUTE-3-0\SP\RmPW1PW91\6-31+G(d,p)\C8H15N1O3\MAMICHETTI.IQU
 IR\17-May-2024\0\\# mpw1pw91/6-31+G** nmr scrf=(pcm,solvent=water)\\co
 mment\\0,1\C,0,-1.969648,1.60053,-0.169642\C,0,-1.136224,0.424842,-0.7
 0755\N,0,0.305162,0.808293,-0.516216\C,0,0.327615,2.090409,0.236398\C,
 0,-1.052937,2.228142,0.890124\C,0,0.995631,-0.310506,0.173934\C,0,0.07
 7626,-1.521508,-0.016718\C,0,-1.312198,-0.899691,0.051537\H,0,-2.16954
 5,2.322152,-0.970569\H,0,-2.935381,1.265835,0.225271\H,0,-1.347251,0.2
 36991,-1.767843\H,0,0.496074,2.925536,-0.456517\H,0,1.153805,2.092886,
 0.95223\H,0,-1.311572,3.2651,1.127408\H,0,-1.090977,1.647607,1.820221\
 H,0,1.07333,-0.118607,1.256059\H,0,0.21678,-1.954329,-1.019423\H,0,-1.
 550162,-0.703639,1.107497\O,0,-2.280665,-1.782713,-0.512129\H,0,-3.155
 585,-1.391263,-0.351578\O,0,0.347231,-2.503164,0.981449\H,0,-0.218072,
 -3.26895,0.78433\C,0,2.403407,-0.539809,-0.367981\H,0,2.873226,-1.3700
 83,0.169584\H,0,2.351637,-0.808205,-1.433124\O,0,3.258452,0.59244,-0.1
 77359\H,0,2.877779,1.313966,-0.706326\\Version=AM64L-G09RevC.01\State=
 1-A\HF=-594.1992707\RMSD=4.528e-09\Dipole=-1.8993013,0.6652582,-0.1158
 603\Quadrupole=-2.6812894,3.8717536,-1.1904642,-1.2167167,-3.4089231,0
 .6747014\PG=C01 [X(C8H15N1O3)]\\@


 IF NO USE IS MADE OF THE LABOR OF PAST AGES,
 THE WORLD MUST REMAIN ALWAYS IN THE INFANCY OF KNOWLEDGE.

                          -- CICERO
 Job cpu time:  0 days  0 hours  8 minutes 49.8 seconds.
 File lengths (MBytes):  RWF=    113 Int=      0 D2E=      0 Chk=      7 Scr=      1
 Normal termination of Gaussian 09 at Fri May 17 12:17:39 2024.
