 Entering Gaussian System, Link 0=g09
 Input=/home/mamichetti.iquir/Linux/02_Cardona_A1A3_R__R_R_R_025_OptB.gjc
 Output=/home/mamichetti.iquir/Linux/02_Cardona_A1A3_R__R_R_R_025_OptB.log
 Initial command:
 /opt/ohpc/pub/apps/software/Gaussian/09/AMD64.SSE4a-enabled/g09/l1.exe /local/mamichetti.iquir/Gau-713368.inp -scrdir=/local/mamichetti.iquir/
 Entering Link 1 = /opt/ohpc/pub/apps/software/Gaussian/09/AMD64.SSE4a-enabled/g09/l1.exe PID=    713369.
  
 Copyright (c) 1988,1990,1992,1993,1995,1998,2003,2009,2011,
            Gaussian, Inc.  All Rights Reserved.
  
 This is part of the Gaussian(R) 09 program.  It is based on
 the Gaussian(R) 03 system (copyright 2003, Gaussian, Inc.),
 the Gaussian(R) 98 system (copyright 1998, Gaussian, Inc.),
 the Gaussian(R) 94 system (copyright 1995, Gaussian, Inc.),
 the Gaussian 92(TM) system (copyright 1992, Gaussian, Inc.),
 the Gaussian 90(TM) system (copyright 1990, Gaussian, Inc.),
 the Gaussian 88(TM) system (copyright 1988, Gaussian, Inc.),
 the Gaussian 86(TM) system (copyright 1986, Carnegie Mellon
 University), and the Gaussian 82(TM) system (copyright 1983,
 Carnegie Mellon University). Gaussian is a federally registered
 trademark of Gaussian, Inc.
  
 This software contains proprietary and confidential information,
 including trade secrets, belonging to Gaussian, Inc.
  
 This software is provided under written license and may be
 used, copied, transmitted, or stored only in accord with that
 written license.
  
 The following legend is applicable only to US Government
 contracts under FAR:
  
                    RESTRICTED RIGHTS LEGEND
  
 Use, reproduction and disclosure by the US Government is
 subject to restrictions as set forth in subparagraphs (a)
 and (c) of the Commercial Computer Software - Restricted
 Rights clause in FAR 52.227-19.
  
 Gaussian, Inc.
 340 Quinnipiac St., Bldg. 40, Wallingford CT 06492
  
  
 ---------------------------------------------------------------
 Warning -- This program may not be used in any manner that
 competes with the business of Gaussian, Inc. or will provide
 assistance to any competitor of Gaussian, Inc.  The licensee
 of this program is prohibited from giving any competitor of
 Gaussian, Inc. access to this program.  By using this program,
 the user acknowledges that Gaussian, Inc. is engaged in the
 business of creating and licensing software in the field of
 computational chemistry and represents and warrants to the
 licensee that it is not a competitor of Gaussian, Inc. and that
 it will not use this program in any manner prohibited above.
 ---------------------------------------------------------------
  

 Cite this work as:
 Gaussian 09, Revision C.01,
 M. J. Frisch, G. W. Trucks, H. B. Schlegel, G. E. Scuseria, 
 M. A. Robb, J. R. Cheeseman, G. Scalmani, V. Barone, B. Mennucci, 
 G. A. Petersson, H. Nakatsuji, M. Caricato, X. Li, H. P. Hratchian, 
 A. F. Izmaylov, J. Bloino, G. Zheng, J. L. Sonnenberg, M. Hada, 
 M. Ehara, K. Toyota, R. Fukuda, J. Hasegawa, M. Ishida, T. Nakajima, 
 Y. Honda, O. Kitao, H. Nakai, T. Vreven, J. A. Montgomery, Jr., 
 J. E. Peralta, F. Ogliaro, M. Bearpark, J. J. Heyd, E. Brothers, 
 K. N. Kudin, V. N. Staroverov, T. Keith, R. Kobayashi, J. Normand, 
 K. Raghavachari, A. Rendell, J. C. Burant, S. S. Iyengar, J. Tomasi, 
 M. Cossi, N. Rega, J. M. Millam, M. Klene, J. E. Knox, J. B. Cross, 
 V. Bakken, C. Adamo, J. Jaramillo, R. Gomperts, R. E. Stratmann, 
 O. Yazyev, A. J. Austin, R. Cammi, C. Pomelli, J. W. Ochterski, 
 R. L. Martin, K. Morokuma, V. G. Zakrzewski, G. A. Voth, 
 P. Salvador, J. J. Dannenberg, S. Dapprich, A. D. Daniels, 
 O. Farkas, J. B. Foresman, J. V. Ortiz, J. Cioslowski, 
 and D. J. Fox, Gaussian, Inc., Wallingford CT, 2010.
 
 ******************************************
 Gaussian 09:  AM64L-G09RevC.01 23-Sep-2011
                17-May-2024 
 ******************************************
 %nprocshared=4
 Will use up to    4 processors via shared memory.
 ------------------------------------------------
 # mpw1pw91/6-31+G** nmr scrf=(pcm,solvent=water)
 ------------------------------------------------
 1/38=1/1;
 2/12=2,17=6,18=5,40=1/2;
 3/5=1,6=6,7=111,11=2,16=1,25=1,30=1,70=2201,72=1,74=-7/1,2,8,3;
 4//1;
 5/5=2,38=5,53=1/2;
 8/6=1,10=90,11=11/1;
 10/13=100,45=16/2;
 6/7=2,8=2,9=2,10=2,28=1/1;
 99/9=1/99;
 -------
 comment
 -------
 Charge =  0 Multiplicity = 1
 Symbolic Z-Matrix:
 6                     2.2846   -1.07585   0.22863 
 6                     1.29098  -0.13601  -0.47201 
 7                    -0.04463  -0.81959  -0.3991 
 6                     0.12238  -2.09618   0.32002 
 6                     1.59958  -2.44838   0.1238 
 6                    -1.03242   0.11669   0.16497 
 6                    -0.42283   1.49803  -0.09846 
 6                     1.06665   1.25642   0.13775 
 1                     3.28007  -1.05166  -0.22523 
 1                     2.38821  -0.79334   1.28407 
 1                     1.57553   0.00018  -1.52499 
 1                    -0.55162  -2.86422  -0.07469 
 1                    -0.10293  -1.98326   1.39439 
 1                     1.75715  -2.87979  -0.87238 
 1                     1.95893  -3.16974   0.86428 
 1                    -1.119    -0.00898   1.25944 
 1                    -0.57067   1.78337  -1.15116 
 1                     1.23993   1.22731   1.22305 
 8                     1.83193   2.30546  -0.45347 
 1                     2.75357   2.18729  -0.16949 
 8                    -1.00953   2.47224   0.75973 
 1                    -0.65085   3.33485   0.49217 
 6                    -2.42589  -0.02937  -0.42562 
 1                    -3.05142   0.80625  -0.07933 
 1                    -2.36741   0.01838  -1.52209 
 8                    -2.98145  -1.28007  -0.001 
 1                    -3.85302  -1.36271  -0.42093 
 
                          Input orientation:                          
 ---------------------------------------------------------------------
 Center     Atomic      Atomic             Coordinates (Angstroms)
 Number     Number       Type             X           Y           Z
 ---------------------------------------------------------------------
      1          6           0        2.284597   -1.075850    0.228633
      2          6           0        1.290981   -0.136011   -0.472005
      3          7           0       -0.044627   -0.819588   -0.399103
      4          6           0        0.122376   -2.096179    0.320023
      5          6           0        1.599578   -2.448378    0.123801
      6          6           0       -1.032416    0.116688    0.164968
      7          6           0       -0.422825    1.498026   -0.098461
      8          6           0        1.066655    1.256423    0.137747
      9          1           0        3.280073   -1.051658   -0.225232
     10          1           0        2.388210   -0.793343    1.284072
     11          1           0        1.575529    0.000183   -1.524993
     12          1           0       -0.551616   -2.864223   -0.074692
     13          1           0       -0.102933   -1.983256    1.394394
     14          1           0        1.757154   -2.879788   -0.872375
     15          1           0        1.958930   -3.169740    0.864277
     16          1           0       -1.118998   -0.008984    1.259442
     17          1           0       -0.570670    1.783371   -1.151156
     18          1           0        1.239931    1.227313    1.223051
     19          8           0        1.831932    2.305464   -0.453470
     20          1           0        2.753566    2.187286   -0.169487
     21          8           0       -1.009531    2.472240    0.759732
     22          1           0       -0.650849    3.334854    0.492169
     23          6           0       -2.425894   -0.029366   -0.425621
     24          1           0       -3.051420    0.806251   -0.079331
     25          1           0       -2.367412    0.018381   -1.522089
     26          8           0       -2.981452   -1.280072   -0.001001
     27          1           0       -3.853020   -1.362711   -0.420927
 ---------------------------------------------------------------------
                    Distance matrix (angstroms):
                    1          2          3          4          5
     1  C    0.000000
     2  C    1.536705   0.000000
     3  N    2.425903   1.502145   0.000000
     4  C    2.392618   2.415617   1.474692   0.000000
     5  C    1.537555   2.407750   2.372719   1.531232   0.000000
     6  C    3.525447   2.422347   1.473267   2.500873   3.675412
     7  C    3.749928   2.397237   2.367436   3.659328   4.440002
     8  C    2.632706   1.536552   2.415156   3.487811   3.742960
     9  H    1.094327   2.203586   3.337322   3.370368   2.212852
    10  H    1.097496   2.172511   2.958456   2.785817   2.169634
    11  H    2.176196   1.099227   2.136483   3.148090   2.952042
    12  H    3.366658   3.316046   2.131387   1.095425   2.199991
    13  H    2.807612   2.973004   2.138727   1.103535   2.174693
    14  H    2.178212   2.811748   2.777557   2.169874   1.096956
    15  H    2.212347   3.381615   3.336703   2.195832   1.094441
    16  H    3.712847   2.970192   2.135913   2.603824   3.825046
    17  H    4.269837   2.758807   2.760018   4.206612   4.923738
    18  H    2.717490   2.175884   2.910546   3.620772   3.853362
    19  O    3.479002   2.500754   3.645597   4.784907   4.794397
    20  H    3.320616   2.761952   4.113867   5.050827   4.786135
    21  O    4.870553   3.689513   3.620783   4.727051   5.605742
    22  H    5.304772   4.092339   4.291999   5.488500   6.216582
    23  C    4.869487   3.718694   2.509101   3.364726   4.728415
    24  H    5.666588   4.460773   3.433134   4.319325   5.680287
    25  H    5.089554   3.809246   2.712678   3.750171   4.952864
    26  O    5.275008   4.447966   2.999245   3.225343   4.729308
    27  H    6.178556   5.288492   3.846988   4.109836   5.586253
                    6          7          8          9         10
     6  C    0.000000
     7  C    1.532674   0.000000
     8  C    2.388689   1.527323   0.000000
     9  H    4.484958   4.497601   3.218417   0.000000
    10  H    3.712308   3.881197   2.694830   1.772045   0.000000
    11  H    3.109810   2.876099   2.145180   2.387722   3.030013
    12  H    3.028933   4.364215   4.432116   4.241450   3.844133
    13  H    2.604840   3.801351   3.666418   3.864685   2.762944
    14  H    4.223346   4.951415   4.313395   2.465793   3.066227
    15  H    4.498643   5.328007   4.573283   2.723733   2.451076
    16  H    1.105063   2.144676   2.763428   4.758493   3.593930
    17  H    2.173298   1.100657   2.149367   4.870621   4.617874
    18  H    2.741640   2.141130   1.099435   3.384289   2.324934
    19  O    3.657553   2.421140   1.426770   3.663260   3.595984
    20  H    4.328152   3.251090   1.951043   3.281932   3.336236
    21  O    2.429587   1.424715   2.485080   5.638148   4.741688
    22  H    3.257184   1.942878   2.719432   5.933658   5.187003
    23  C    1.520496   2.540127   3.764111   5.800284   5.165492
    24  H    2.147453   2.718167   4.148291   6.600069   5.831564
    25  H    2.153611   2.827982   4.010065   5.892445   5.581163
    26  O    2.403586   3.778081   4.779145   6.269701   5.542706
    27  H    3.238472   4.478174   5.601355   7.142553   6.494933
                   11         12         13         14         15
    11  H    0.000000
    12  H    3.851356   0.000000
    13  H    3.908207   1.770772   0.000000
    14  H    2.958569   2.442736   3.066257   0.000000
    15  H    3.987984   2.697748   2.437221   1.772215   0.000000
    16  H    3.874744   3.202222   2.224489   4.588944   4.429467
    17  H    2.815259   4.770667   4.570129   5.219342   5.915586
    18  H    3.028237   4.651284   3.484307   4.639678   4.469872
    19  O    2.555039   5.705299   5.054842   5.202683   5.632978
    20  H    2.829945   6.037463   5.291383   5.211730   5.513424
    21  O    4.244240   5.420681   4.590878   6.241997   6.376098
    22  H    4.488400   6.225732   5.421855   6.803105   7.018487
    23  C    4.149805   3.416502   3.539250   5.081573   5.545491
    24  H    4.914096   4.440881   4.318193   6.110498   6.465486
    25  H    3.942984   3.701551   4.200034   5.082672   5.880144
    26  O    4.972693   2.901563   3.275281   5.076689   5.359751
    27  H    5.704874   3.643307   4.212318   5.829183   6.220600
                   16         17         18         19         20
    16  H    0.000000
    17  H    3.053552   0.000000
    18  H    2.663513   3.037159   0.000000
    19  O    4.122951   2.555747   2.079326   0.000000
    20  H    4.675702   3.489608   2.269758   0.971608   0.000000
    21  O    2.533410   2.078132   2.612391   3.094121   3.886585
    22  H    3.462531   2.261425   2.924204   2.849224   3.653046
    23  C    2.132564   2.693376   4.211370   4.856057   5.639677
    24  H    2.488207   2.873620   4.504352   5.121987   5.967684
    25  H    3.048967   2.545793   4.691507   4.899713   5.723469
    26  O    2.583238   4.064408   5.060174   6.019091   6.703834
    27  H    3.482972   4.604877   5.945506   6.765741   7.504177
                   21         22         23         24         25
    21  O    0.000000
    22  H    0.971774   0.000000
    23  C    3.109530   3.912940   0.000000
    24  H    2.765657   3.533155   1.099752   0.000000
    25  H    3.615518   4.242973   1.099064   1.780493   0.000000
    26  O    4.306627   5.193503   1.432903   2.088965   2.092065
    27  H    4.917950   5.758017   1.953080   2.337444   2.308030
                   26         27
    26  O    0.000000
    27  H    0.970978   0.000000
 Stoichiometry    C8H15NO3
 Framework group  C1[X(C8H15NO3)]
 Deg. of freedom    75
 Full point group                 C1      NOp   1
 Largest Abelian subgroup         C1      NOp   1
 Largest concise Abelian subgroup C1      NOp   1
                         Standard orientation:                         
 ---------------------------------------------------------------------
 Center     Atomic      Atomic             Coordinates (Angstroms)
 Number     Number       Type             X           Y           Z
 ---------------------------------------------------------------------
      1          6           0        2.284597   -1.075851    0.228633
      2          6           0        1.290981   -0.136011   -0.472005
      3          7           0       -0.044627   -0.819588   -0.399103
      4          6           0        0.122376   -2.096179    0.320023
      5          6           0        1.599577   -2.448378    0.123801
      6          6           0       -1.032416    0.116688    0.164968
      7          6           0       -0.422825    1.498026   -0.098461
      8          6           0        1.066655    1.256423    0.137747
      9          1           0        3.280073   -1.051659   -0.225232
     10          1           0        2.388210   -0.793344    1.284072
     11          1           0        1.575529    0.000183   -1.524993
     12          1           0       -0.551617   -2.864223   -0.074692
     13          1           0       -0.102933   -1.983256    1.394394
     14          1           0        1.757153   -2.879788   -0.872375
     15          1           0        1.958929   -3.169740    0.864277
     16          1           0       -1.118998   -0.008984    1.259442
     17          1           0       -0.570669    1.783371   -1.151156
     18          1           0        1.239931    1.227313    1.223051
     19          8           0        1.831933    2.305464   -0.453470
     20          1           0        2.753567    2.187285   -0.169487
     21          8           0       -1.009530    2.472240    0.759732
     22          1           0       -0.650848    3.334854    0.492169
     23          6           0       -2.425894   -0.029365   -0.425621
     24          1           0       -3.051420    0.806252   -0.079331
     25          1           0       -2.367412    0.018382   -1.522089
     26          8           0       -2.981452   -1.280071   -0.001001
     27          1           0       -3.853020   -1.362710   -0.420927
 ---------------------------------------------------------------------
 Rotational constants (GHZ):      1.0226514      0.9513948      0.5312122
 Standard basis: 6-31+G(d,p) (6D, 7F)
 There are   303 symmetry adapted basis functions of A   symmetry.
 Integral buffers will be    131072 words long.
 Raffenetti 2 integral format.
 Two-electron integral symmetry is turned on.
   303 basis functions,   489 primitive gaussians,   303 cartesian basis functions
    47 alpha electrons       47 beta electrons
       nuclear repulsion energy       794.6659971612 Hartrees.
 NAtoms=   27 NActive=   27 NUniq=   27 SFac= 1.00D+00 NAtFMM=   60 NAOKFM=F Big=F
 ------------------------------------------------------------------------------
 Polarizable Continuum Model (PCM)
 =================================
 Model                : PCM.
 Atomic radii         : UFF (Universal Force Field).
 Polarization charges : Total charges.
 Charge compensation  : None.
 Solution method      : Matrix inversion.
 Cavity type          : Scaled VdW (van der Waals Surface) (Alpha=1.100).
 Cavity algorithm     : GePol (No added spheres)
                        Default sphere list used, NSphG=   27.
                        Lebedev-Laikov grids with approx.  5.0 points / Ang**2.
                        Smoothing algorithm: Karplus/York (Gamma=1.0000).
                        Polarization charges: spherical gaussians, with
                                              point-specific exponents (IZeta= 3).
                        Self-potential: point-specific (ISelfS= 7).
                        Self-field    : sphere-specific E.n sum rule (ISelfD= 2).
 Solvent              : Water, Eps=  78.355300 Eps(inf)=   1.777849
 ------------------------------------------------------------------------------
 One-electron integrals computed using PRISM.
 NBasis=   303 RedAO= T  NBF=   303
 NBsUse=   303 1.00D-06 NBFU=   303
 Harris functional with IExCor=  908 diagonalized for initial guess.
 ExpMin= 4.38D-02 ExpMax= 5.48D+03 ExpMxC= 8.25D+02 IAcc=2 IRadAn=         4 AccDes= 0.00D+00
 HarFok:  IExCor=  908 AccDes= 0.00D+00 IRadAn=         4 IDoV= 1
 ScaDFX=  1.000000  1.000000  1.000000  1.000000
 FoFCou: FMM=F IPFlag=           0 FMFlag=      100000 FMFlg1=           0
         NFxFlg=           0 DoJE=T BraDBF=F KetDBF=T FulRan=T
         Omega=  0.000000  0.000000  1.000000  0.000000  0.000000 ICntrl=     500 IOpCl=  0
         NMat0=    1 NMatS0=    1 NMatT0=    0 NMatD0=    1 NMtDS0=    0 NMtDT0=    0
         I1Cent=           4 NGrid=           0.
 Petite list used in FoFCou.
 Initial guess orbital symmetries:
       Occupied  (A) (A) (A) (A) (A) (A) (A) (A) (A) (A) (A) (A)
                 (A) (A) (A) (A) (A) (A) (A) (A) (A) (A) (A) (A)
                 (A) (A) (A) (A) (A) (A) (A) (A) (A) (A) (A) (A)
                 (A) (A) (A) (A) (A) (A) (A) (A) (A) (A) (A)
       Virtual   (A) (A) (A) (A) (A) (A) (A) (A) (A) (A) (A) (A)
                 (A) (A) (A) (A) (A) (A) (A) (A) (A) (A) (A) (A)
                 (A) (A) (A) (A) (A) (A) (A) (A) (A) (A) (A) (A)
                 (A) (A) (A) (A) (A) (A) (A) (A) (A) (A) (A) (A)
                 (A) (A) (A) (A) (A) (A) (A) (A) (A) (A) (A) (A)
                 (A) (A) (A) (A) (A) (A) (A) (A) (A) (A) (A) (A)
                 (A) (A) (A) (A) (A) (A) (A) (A) (A) (A) (A) (A)
                 (A) (A) (A) (A) (A) (A) (A) (A) (A) (A) (A) (A)
                 (A) (A) (A) (A) (A) (A) (A) (A) (A) (A) (A) (A)
                 (A) (A) (A) (A) (A) (A) (A) (A) (A) (A) (A) (A)
                 (A) (A) (A) (A) (A) (A) (A) (A) (A) (A) (A) (A)
                 (A) (A) (A) (A) (A) (A) (A) (A) (A) (A) (A) (A)
                 (A) (A) (A) (A) (A) (A) (A) (A) (A) (A) (A) (A)
                 (A) (A) (A) (A) (A) (A) (A) (A) (A) (A) (A) (A)
                 (A) (A) (A) (A) (A) (A) (A) (A) (A) (A) (A) (A)
                 (A) (A) (A) (A) (A) (A) (A) (A) (A) (A) (A) (A)
                 (A) (A) (A) (A) (A) (A) (A) (A) (A) (A) (A) (A)
                 (A) (A) (A) (A) (A) (A) (A) (A) (A) (A) (A) (A)
                 (A) (A) (A) (A) (A) (A) (A) (A) (A) (A) (A) (A)
                 (A) (A) (A) (A) (A) (A) (A) (A) (A) (A) (A) (A)
                 (A) (A) (A) (A) (A) (A) (A) (A) (A) (A) (A) (A)
                 (A) (A) (A) (A)
 The electronic state of the initial guess is 1-A.
 Requested convergence on RMS density matrix=1.00D-08 within 128 cycles.
 Requested convergence on MAX density matrix=1.00D-06.
 Requested convergence on             energy=1.00D-06.
 No special actions if energy rises.
 Error on total polarization charges =  0.01443
 SCF Done:  E(RmPW1PW91) =  -594.198267166     A.U. after   13 cycles
             Convg  =    0.6058D-08             -V/T =  2.0094
 Range of M.O.s used for correlation:     1   303
 NBasis=   303 NAE=    47 NBE=    47 NFC=     0 NFV=     0
 NROrb=    303 NOA=    47 NOB=    47 NVA=   256 NVB=   256

 **** Warning!!: The largest alpha MO coefficient is  0.61796093D+02

 NEqPCM:  Using equilibrium solvation (IEInf=0, Eps=  78.3553, EpsInf=   1.7778)
          Differentiating once with respect to magnetic field using GIAOs.
          Electric field/nuclear overlap derivatives assumed to be zero.
 FoFCou: FMM=F IPFlag=           0 FMFlag=    10101102 FMFlg1=           0
         NFxFlg=    40000000 DoJE=F BraDBF=F KetDBF=T FulRan=T
         Omega=  0.000000  0.000000  1.000000  0.000000  0.000000 ICntrl=    6100 IOpCl=  0
         NMat0=    1 NMatS0=    1 NMatT0=    0 NMatD0=    1 NMtDS0=    0 NMtDT0=    0
         I1Cent=           7 NGrid=        1880.
 Symmetry not used in FoFCou.
          There are     3 degrees of freedom in the 1st order CPHF.  IDoFFX=0.
      3 vectors produced by pass  0 Test12= 4.01D-13 3.33D-08 XBig12= 3.94D+01 1.09D+00.
 AX will form     3 AO Fock derivatives at one time.
      3 vectors produced by pass  1 Test12= 4.01D-13 3.33D-08 XBig12= 1.00D-01 5.09D-02.
      3 vectors produced by pass  2 Test12= 4.01D-13 3.33D-08 XBig12= 1.78D-04 2.48D-03.
      3 vectors produced by pass  3 Test12= 4.01D-13 3.33D-08 XBig12= 6.85D-07 2.06D-04.
      3 vectors produced by pass  4 Test12= 4.01D-13 3.33D-08 XBig12= 2.44D-09 1.21D-05.
      3 vectors produced by pass  5 Test12= 4.01D-13 3.33D-08 XBig12= 9.72D-12 5.98D-07.
 Inverted reduced A of dimension    18 with in-core refinement.
 Calculating GIAO nuclear magnetic shielding tensors.
 SCF GIAO Magnetic shielding tensor (ppm):
      1  C    Isotropic =   162.8639   Anisotropy =    24.5268
   XX=   160.6026   YX=    -9.4636   ZX=     8.5963
   XY=     0.1971   YY=   174.9331   ZY=    -6.0863
   XZ=    13.8411   YZ=    -3.9086   ZZ=   153.0562
   Eigenvalues:   144.9279   164.4488   179.2151
      2  C    Isotropic =   126.0395   Anisotropy =    53.7026
   XX=   140.9922   YX=    15.7849   ZX=    -1.0560
   XY=    24.7806   YY=   141.8997   ZY=    -1.8149
   XZ=    -4.2826   YZ=    -0.4466   ZZ=    95.2265
   Eigenvalues:    95.0713   121.2059   161.8412
      3  N    Isotropic =   193.2009   Anisotropy =    94.2883
   XX=   246.7915   YX=   -15.4513   ZX=    -8.8181
   XY=   -25.9177   YY=   208.3640   ZY=    -6.5240
   XZ=    -8.1951   YZ=    -3.8929   ZZ=   124.4471
   Eigenvalues:   123.3216   200.2213   256.0597
      4  C    Isotropic =   136.9549   Anisotropy =    56.5383
   XX=   129.0636   YX=   -10.7227   ZX=     2.5146
   XY=   -20.0776   YY=   158.2949   ZY=   -22.7961
   XZ=    -3.9591   YZ=   -25.4438   ZZ=   123.5063
   Eigenvalues:   107.9502   128.2675   174.6471
      5  C    Isotropic =   164.1364   Anisotropy =    23.4465
   XX=   179.7195   YX=    -0.1140   ZX=     2.2120
   XY=    -0.4676   YY=   177.9912   ZY=   -10.7588
   XZ=    -3.6709   YZ=     0.7560   ZZ=   134.6985
   Eigenvalues:   134.1156   178.5262   179.7674
      6  C    Isotropic =   125.3125   Anisotropy =    41.0691
   XX=   120.8780   YX=   -14.0054   ZX=    -5.4192
   XY=   -18.1253   YY=   139.6142   ZY=    12.6333
   XZ=   -15.6491   YZ=     2.6208   ZZ=   115.4454
   Eigenvalues:   106.5441   116.7015   152.6919
      7  C    Isotropic =   115.0764   Anisotropy =    42.3392
   XX=   127.7501   YX=    -9.2692   ZX=   -11.2287
   XY=   -10.4565   YY=   127.5940   ZY=    27.3458
   XZ=    -3.7678   YZ=     6.5407   ZZ=    89.8851
   Eigenvalues:    83.1029   118.8237   143.3025
      8  C    Isotropic =   110.9717   Anisotropy =    15.5360
   XX=   116.6598   YX=     3.6111   ZX=   -11.7129
   XY=     0.0691   YY=   117.3639   ZY=    -4.7199
   XZ=    -6.2816   YZ=     3.6806   ZZ=    98.8915
   Eigenvalues:    95.1290   116.4571   121.3291
      9  H    Isotropic =    29.5706   Anisotropy =     9.7579
   XX=    35.5308   YX=    -0.4785   ZX=    -2.2745
   XY=     0.1759   YY=    27.5693   ZY=    -0.3594
   XZ=    -2.4977   YZ=    -0.1701   ZZ=    25.6116
   Eigenvalues:    25.0338    27.6020    36.0758
     10  H    Isotropic =    30.1401   Anisotropy =     8.1342
   XX=    28.2898   YX=     0.2518   ZX=     4.3198
   XY=    -0.1973   YY=    29.3336   ZY=     1.2989
   XZ=     4.0823   YZ=     1.5776   ZZ=    32.7969
   Eigenvalues:    25.6316    29.2257    35.5628
     11  H    Isotropic =    28.2565   Anisotropy =     6.9337
   XX=    28.8364   YX=     1.2887   ZX=    -3.1475
   XY=     0.7841   YY=    26.1118   ZY=    -1.7660
   XZ=    -2.4326   YZ=    -2.2293   ZZ=    29.8212
   Eigenvalues:    25.2269    26.6636    32.8789
     12  H    Isotropic =    28.1913   Anisotropy =     8.3380
   XX=    29.2004   YX=     2.2444   ZX=     1.3293
   XY=     2.8200   YY=    32.2332   ZY=     0.6032
   XZ=     1.4850   YZ=    -0.0800   ZZ=    23.1402
   Eigenvalues:    22.8194    28.0045    33.7499
     13  H    Isotropic =    28.9943   Anisotropy =     7.5272
   XX=    27.8529   YX=    -0.3938   ZX=    -1.3512
   XY=    -0.3412   YY=    28.0425   ZY=    -4.6094
   XZ=    -2.5265   YZ=    -3.0431   ZZ=    31.0873
   Eigenvalues:    24.7698    28.2006    34.0124
     14  H    Isotropic =    29.5613   Anisotropy =    10.5435
   XX=    27.8725   YX=    -1.5055   ZX=    -1.9536
   XY=    -1.6165   YY=    31.1199   ZY=     5.1667
   XZ=    -2.0176   YZ=     5.6918   ZZ=    29.6915
   Eigenvalues:    24.8428    27.2508    36.5903
     15  H    Isotropic =    29.5105   Anisotropy =    11.4406
   XX=    28.0340   YX=    -2.9458   ZX=     2.1837
   XY=    -3.4062   YY=    33.2651   ZY=    -4.7037
   XZ=     2.0851   YZ=    -4.0049   ZZ=    27.2325
   Eigenvalues:    24.8565    26.5375    37.1376
     16  H    Isotropic =    28.6921   Anisotropy =     4.3951
   XX=    29.8509   YX=    -0.4355   ZX=    -1.8015
   XY=    -0.3266   YY=    27.0885   ZY=     2.3985
   XZ=    -1.6090   YZ=     0.7439   ZZ=    29.1370
   Eigenvalues:    26.1600    28.2942    31.6222
     17  H    Isotropic =    27.6336   Anisotropy =     1.4705
   XX=    26.3894   YX=    -1.4363   ZX=    -0.1397
   XY=    -0.2596   YY=    27.9998   ZY=     1.0752
   XZ=     0.3752   YZ=    -0.6512   ZZ=    28.5117
   Eigenvalues:    26.0104    28.2765    28.6139
     18  H    Isotropic =    27.7956   Anisotropy =     3.1132
   XX=    26.3866   YX=     1.4979   ZX=    -0.2310
   XY=     1.5927   YY=    29.1344   ZY=    -0.8481
   XZ=     0.5833   YZ=     0.0512   ZZ=    27.8659
   Eigenvalues:    25.6451    27.8707    29.8711
     19  O    Isotropic =   296.3468   Anisotropy =    30.5062
   XX=   314.5136   YX=    17.7498   ZX=     0.2062
   XY=     0.8576   YY=   276.5639   ZY=    -7.5625
   XZ=     7.0253   YZ=   -19.9085   ZZ=   297.9629
   Eigenvalues:   267.7365   304.6196   316.6843
     20  H    Isotropic =    29.7746   Anisotropy =    18.8596
   XX=    41.2632   YX=     2.5583   ZX=     4.2160
   XY=     2.7553   YY=    26.0200   ZY=    -2.4728
   XZ=     3.7423   YZ=    -2.0514   ZZ=    22.0407
   Eigenvalues:    19.9672    27.0090    42.3477
     21  O    Isotropic =   296.1412   Anisotropy =    42.1375
   XX=   269.8553   YX=    12.7768   ZX=    11.6664
   XY=     2.0982   YY=   314.1516   ZY=     5.7715
   XZ=   -14.5417   YZ=    21.4000   ZZ=   304.4166
   Eigenvalues:   268.2389   295.9519   324.2328
     22  H    Isotropic =    29.3566   Anisotropy =    19.1068
   XX=    24.4728   YX=     2.0121   ZX=    -3.9848
   XY=     3.1991   YY=    41.5190   ZY=    -1.5575
   XZ=    -2.5177   YZ=    -1.3244   ZZ=    22.0780
   Eigenvalues:    19.8060    26.1693    42.0945
     23  C    Isotropic =   125.5867   Anisotropy =    48.2958
   XX=   128.9666   YX=    18.4506   ZX=    -0.5411
   XY=    23.8701   YY=   137.0233   ZY=   -14.7938
   XZ=    -4.5694   YZ=   -12.7171   ZZ=   110.7701
   Eigenvalues:   102.6409   116.3352   157.7839
     24  H    Isotropic =    27.4866   Anisotropy =     5.0790
   XX=    30.0207   YX=     0.3175   ZX=     0.2422
   XY=    -1.3547   YY=    30.5469   ZY=     0.6400
   XZ=    -0.7822   YZ=    -0.3745   ZZ=    21.8921
   Eigenvalues:    21.8816    29.7056    30.8726
     25  H    Isotropic =    27.9551   Anisotropy =     4.9728
   XX=    27.0806   YX=     1.7328   ZX=     1.2448
   XY=     2.5509   YY=    27.5542   ZY=    -3.8388
   XZ=     2.0292   YZ=    -1.6665   ZZ=    29.2304
   Eigenvalues:    23.4908    29.1041    31.2703
     26  O    Isotropic =   312.4702   Anisotropy =    90.4876
   XX=   354.2343   YX=    34.3516   ZX=    24.2570
   XY=    13.6173   YY=   283.8393   ZY=    -4.2645
   XZ=    35.4215   YZ=     4.0203   ZZ=   299.3370
   Eigenvalues:   272.0831   292.5322   372.7952
     27  H    Isotropic =    30.2905   Anisotropy =    21.6263
   XX=    40.6707   YX=     4.5665   ZX=     7.7923
   XY=     5.9202   YY=    25.8472   ZY=    -0.2430
   XZ=     7.0931   YZ=    -1.2063   ZZ=    24.3536
   Eigenvalues:    20.1015    26.0620    44.7081
 End of Minotr Frequency-dependent properties file   721 does not exist.
 End of Minotr Frequency-dependent properties file   722 does not exist.

 **********************************************************************

            Population analysis using the SCF density.

 **********************************************************************

 Orbital symmetries:
       Occupied  (A) (A) (A) (A) (A) (A) (A) (A) (A) (A) (A) (A)
                 (A) (A) (A) (A) (A) (A) (A) (A) (A) (A) (A) (A)
                 (A) (A) (A) (A) (A) (A) (A) (A) (A) (A) (A) (A)
                 (A) (A) (A) (A) (A) (A) (A) (A) (A) (A) (A)
       Virtual   (A) (A) (A) (A) (A) (A) (A) (A) (A) (A) (A) (A)
                 (A) (A) (A) (A) (A) (A) (A) (A) (A) (A) (A) (A)
                 (A) (A) (A) (A) (A) (A) (A) (A) (A) (A) (A) (A)
                 (A) (A) (A) (A) (A) (A) (A) (A) (A) (A) (A) (A)
                 (A) (A) (A) (A) (A) (A) (A) (A) (A) (A) (A) (A)
                 (A) (A) (A) (A) (A) (A) (A) (A) (A) (A) (A) (A)
                 (A) (A) (A) (A) (A) (A) (A) (A) (A) (A) (A) (A)
                 (A) (A) (A) (A) (A) (A) (A) (A) (A) (A) (A) (A)
                 (A) (A) (A) (A) (A) (A) (A) (A) (A) (A) (A) (A)
                 (A) (A) (A) (A) (A) (A) (A) (A) (A) (A) (A) (A)
                 (A) (A) (A) (A) (A) (A) (A) (A) (A) (A) (A) (A)
                 (A) (A) (A) (A) (A) (A) (A) (A) (A) (A) (A) (A)
                 (A) (A) (A) (A) (A) (A) (A) (A) (A) (A) (A) (A)
                 (A) (A) (A) (A) (A) (A) (A) (A) (A) (A) (A) (A)
                 (A) (A) (A) (A) (A) (A) (A) (A) (A) (A) (A) (A)
                 (A) (A) (A) (A) (A) (A) (A) (A) (A) (A) (A) (A)
                 (A) (A) (A) (A) (A) (A) (A) (A) (A) (A) (A) (A)
                 (A) (A) (A) (A) (A) (A) (A) (A) (A) (A) (A) (A)
                 (A) (A) (A) (A) (A) (A) (A) (A) (A) (A) (A) (A)
                 (A) (A) (A) (A) (A) (A) (A) (A) (A) (A) (A) (A)
                 (A) (A) (A) (A) (A) (A) (A) (A) (A) (A) (A) (A)
                 (A) (A) (A) (A)
 The electronic state is 1-A.
 Alpha  occ. eigenvalues --  -19.26165 -19.26132 -19.25357 -14.41078 -10.30750
 Alpha  occ. eigenvalues --  -10.30260 -10.29313 -10.28155 -10.27610 -10.26586
 Alpha  occ. eigenvalues --  -10.24624 -10.24538  -1.07422  -1.05707  -1.05423
 Alpha  occ. eigenvalues --   -0.96527  -0.83236  -0.79249  -0.75404  -0.71658
 Alpha  occ. eigenvalues --   -0.65840  -0.61343  -0.60414  -0.58323  -0.55505
 Alpha  occ. eigenvalues --   -0.54034  -0.52422  -0.50550  -0.48674  -0.47443
 Alpha  occ. eigenvalues --   -0.45835  -0.44462  -0.43213  -0.41787  -0.40878
 Alpha  occ. eigenvalues --   -0.39771  -0.38601  -0.37804  -0.35764  -0.35630
 Alpha  occ. eigenvalues --   -0.34801  -0.34344  -0.33649  -0.31096  -0.29601
 Alpha  occ. eigenvalues --   -0.29020  -0.22776
 Alpha virt. eigenvalues --    0.00831   0.01307   0.01771   0.02111   0.03094
 Alpha virt. eigenvalues --    0.04327   0.04605   0.05059   0.05630   0.06845
 Alpha virt. eigenvalues --    0.07812   0.08006   0.08744   0.09216   0.09511
 Alpha virt. eigenvalues --    0.10334   0.11093   0.12001   0.12401   0.12610
 Alpha virt. eigenvalues --    0.13260   0.13851   0.14464   0.14709   0.15748
 Alpha virt. eigenvalues --    0.15983   0.16495   0.17090   0.18056   0.18539
 Alpha virt. eigenvalues --    0.18827   0.19325   0.19740   0.20700   0.21094
 Alpha virt. eigenvalues --    0.21594   0.22007   0.23103   0.23214   0.23498
 Alpha virt. eigenvalues --    0.24115   0.24970   0.25405   0.26016   0.26439
 Alpha virt. eigenvalues --    0.26830   0.27127   0.27585   0.28343   0.28789
 Alpha virt. eigenvalues --    0.29140   0.30384   0.31047   0.31476   0.32337
 Alpha virt. eigenvalues --    0.32605   0.33080   0.33822   0.34264   0.34830
 Alpha virt. eigenvalues --    0.35536   0.35827   0.36662   0.37460   0.38466
 Alpha virt. eigenvalues --    0.38811   0.39161   0.39878   0.40436   0.40982
 Alpha virt. eigenvalues --    0.41386   0.42268   0.44321   0.44411   0.45614
 Alpha virt. eigenvalues --    0.46073   0.63198   0.65281   0.67130   0.68284
 Alpha virt. eigenvalues --    0.70075   0.70592   0.71464   0.72741   0.74538
 Alpha virt. eigenvalues --    0.75397   0.76685   0.80023   0.80483   0.81252
 Alpha virt. eigenvalues --    0.82650   0.85083   0.86668   0.86953   0.87894
 Alpha virt. eigenvalues --    0.88281   0.90540   0.92464   0.95277   0.96404
 Alpha virt. eigenvalues --    0.97982   0.99768   1.02231   1.04292   1.05769
 Alpha virt. eigenvalues --    1.05925   1.06454   1.08529   1.09516   1.10049
 Alpha virt. eigenvalues --    1.11691   1.12613   1.13283   1.14957   1.15399
 Alpha virt. eigenvalues --    1.18497   1.19552   1.20404   1.22224   1.24651
 Alpha virt. eigenvalues --    1.25781   1.28328   1.29146   1.29858   1.31514
 Alpha virt. eigenvalues --    1.32846   1.35482   1.37579   1.39460   1.42186
 Alpha virt. eigenvalues --    1.44012   1.46487   1.49544   1.50450   1.53504
 Alpha virt. eigenvalues --    1.54713   1.56038   1.58364   1.59922   1.60720
 Alpha virt. eigenvalues --    1.61454   1.62827   1.64496   1.66460   1.69480
 Alpha virt. eigenvalues --    1.70934   1.72199   1.76723   1.78486   1.80010
 Alpha virt. eigenvalues --    1.81526   1.84059   1.84587   1.86581   1.87182
 Alpha virt. eigenvalues --    1.88612   1.89250   1.92396   1.93955   1.96356
 Alpha virt. eigenvalues --    1.98562   1.99764   2.00416   2.01189   2.02973
 Alpha virt. eigenvalues --    2.04097   2.05097   2.08899   2.09836   2.11144
 Alpha virt. eigenvalues --    2.12892   2.13374   2.14524   2.17058   2.17513
 Alpha virt. eigenvalues --    2.19829   2.21812   2.25272   2.25759   2.29112
 Alpha virt. eigenvalues --    2.30189   2.32797   2.34624   2.36241   2.38587
 Alpha virt. eigenvalues --    2.39604   2.42448   2.44265   2.44466   2.46749
 Alpha virt. eigenvalues --    2.48110   2.49174   2.50724   2.51950   2.55683
 Alpha virt. eigenvalues --    2.57893   2.58544   2.61216   2.64016   2.64591
 Alpha virt. eigenvalues --    2.66160   2.66955   2.67690   2.68956   2.70632
 Alpha virt. eigenvalues --    2.71704   2.73561   2.74031   2.75510   2.77082
 Alpha virt. eigenvalues --    2.78936   2.80052   2.81051   2.82274   2.85261
 Alpha virt. eigenvalues --    2.86479   2.89650   2.91238   2.94579   2.95211
 Alpha virt. eigenvalues --    2.97913   2.99692   3.00838   3.02493   3.03801
 Alpha virt. eigenvalues --    3.05014   3.07801   3.13249   3.16953   3.31534
 Alpha virt. eigenvalues --    3.35074   3.35927   3.36405   3.38310   3.43739
 Alpha virt. eigenvalues --    3.48940   3.51676   3.53202   3.54239   3.54564
 Alpha virt. eigenvalues --    3.55729   3.57325   3.58028   3.60836   4.34511
 Alpha virt. eigenvalues --    4.35973   4.40630   4.42542   4.46977   4.48200
 Alpha virt. eigenvalues --    4.59021   4.66771   4.76439   4.78861   4.86806
 Alpha virt. eigenvalues --    4.93816
          Condensed to atoms (all electrons):
              1          2          3          4          5          6
     1  C    6.262807  -1.223926   0.158494  -0.284419   0.103291   0.172699
     2  C   -1.223926   9.480049  -0.519546  -0.250735   0.393363  -0.476768
     3  N    0.158494  -0.519546   7.457684   0.226223  -0.187109  -0.102264
     4  C   -0.284419  -0.250735   0.226223   5.579544   0.198511  -0.178911
     5  C    0.103291   0.393363  -0.187109   0.198511   5.536785  -0.048647
     6  C    0.172699  -0.476768  -0.102264  -0.178911  -0.048647   8.797768
     7  C   -0.140924   0.602915  -0.170036  -0.090508  -0.004513  -1.050778
     8  C    0.315113  -1.408081   0.125746   0.193225  -0.198306  -0.008827
     9  H    0.385250  -0.064507   0.013428   0.031427  -0.026929   0.000660
    10  H    0.501943  -0.216806   0.030373   0.018429  -0.072862   0.019875
    11  H    0.108466   0.060826   0.015049   0.016621  -0.030062   0.037551
    12  H    0.044908  -0.024335  -0.042136   0.381417  -0.030838   0.009419
    13  H   -0.014378   0.037591  -0.106230   0.418892  -0.031379  -0.003395
    14  H   -0.022230  -0.042552   0.013007  -0.036921   0.394868   0.009124
    15  H   -0.070790   0.050402   0.004478  -0.022474   0.384039  -0.006213
    16  H   -0.018883   0.075461  -0.077010   0.023593   0.008412   0.208825
    17  H    0.008237  -0.014007   0.044657   0.010763   0.001467  -0.120341
    18  H    0.048413  -0.238529   0.050958   0.009623   0.001657   0.022841
    19  O    0.013348  -0.173584   0.024431  -0.006683   0.003736   0.011882
    20  H   -0.016297   0.006347  -0.001701   0.000024  -0.003357  -0.004766
    21  O   -0.006221   0.052109   0.011025  -0.000303   0.003665  -0.147047
    22  H    0.000084   0.002440  -0.003997  -0.000301  -0.000107   0.051328
    23  C    0.053561  -0.131819   0.145322  -0.018654  -0.024861  -0.896533
    24  H    0.000138   0.006403   0.001989  -0.013181  -0.000900  -0.159818
    25  H   -0.000684   0.013078   0.013530   0.014410   0.002675  -0.156937
    26  O    0.000442   0.005323  -0.016028  -0.013312  -0.007116  -0.010255
    27  H   -0.000126  -0.001848  -0.000425   0.000427  -0.000115   0.049209
              7          8          9         10         11         12
     1  C   -0.140924   0.315113   0.385250   0.501943   0.108466   0.044908
     2  C    0.602915  -1.408081  -0.064507  -0.216806   0.060826  -0.024335
     3  N   -0.170036   0.125746   0.013428   0.030373   0.015049  -0.042136
     4  C   -0.090508   0.193225   0.031427   0.018429   0.016621   0.381417
     5  C   -0.004513  -0.198306  -0.026929  -0.072862  -0.030062  -0.030838
     6  C   -1.050778  -0.008827   0.000660   0.019875   0.037551   0.009419
     7  C    6.731736  -0.579354  -0.003302  -0.012518  -0.034062  -0.002322
     8  C   -0.579354   7.026912   0.005001   0.045514   0.057861   0.002736
     9  H   -0.003302   0.005001   0.513724  -0.024795  -0.003661  -0.000096
    10  H   -0.012518   0.045514  -0.024795   0.531523   0.004296  -0.000024
    11  H   -0.034062   0.057861  -0.003661   0.004296   0.573972   0.000245
    12  H   -0.002322   0.002736  -0.000096  -0.000024   0.000245   0.543920
    13  H    0.008040  -0.003087  -0.000157   0.000946  -0.000565  -0.041978
    14  H   -0.002961   0.015400  -0.005005   0.004173   0.000875  -0.005958
    15  H    0.000605   0.001576   0.000352  -0.005431  -0.000129   0.000824
    16  H    0.041515  -0.049015  -0.000007  -0.000187  -0.000648  -0.001094
    17  H    0.351013  -0.027353   0.000005  -0.000008   0.000818   0.000010
    18  H   -0.141708   0.536346   0.000308   0.004059   0.004490   0.000017
    19  O   -0.165058   0.396134   0.000559   0.000670   0.008537   0.000065
    20  H    0.055590  -0.030205  -0.000066   0.000173  -0.000540   0.000000
    21  O    0.305512  -0.163134   0.000018  -0.000244  -0.000615   0.000022
    22  H    0.000312  -0.032378   0.000000   0.000001  -0.000001   0.000000
    23  C    0.264798  -0.100198   0.000123   0.000901   0.012168   0.000362
    24  H    0.068353  -0.004227   0.000000   0.000000  -0.000009  -0.000037
    25  H    0.000583  -0.014044   0.000000   0.000000  -0.000041   0.000033
    26  O    0.021641  -0.004732  -0.000001  -0.000009  -0.000183  -0.002323
    27  H   -0.005942   0.002426   0.000000   0.000000   0.000000   0.000052
             13         14         15         16         17         18
     1  C   -0.014378  -0.022230  -0.070790  -0.018883   0.008237   0.048413
     2  C    0.037591  -0.042552   0.050402   0.075461  -0.014007  -0.238529
     3  N   -0.106230   0.013007   0.004478  -0.077010   0.044657   0.050958
     4  C    0.418892  -0.036921  -0.022474   0.023593   0.010763   0.009623
     5  C   -0.031379   0.394868   0.384039   0.008412   0.001467   0.001657
     6  C   -0.003395   0.009124  -0.006213   0.208825  -0.120341   0.022841
     7  C    0.008040  -0.002961   0.000605   0.041515   0.351013  -0.141708
     8  C   -0.003087   0.015400   0.001576  -0.049015  -0.027353   0.536346
     9  H   -0.000157  -0.005005   0.000352  -0.000007   0.000005   0.000308
    10  H    0.000946   0.004173  -0.005431  -0.000187  -0.000008   0.004059
    11  H   -0.000565   0.000875  -0.000129  -0.000648   0.000818   0.004490
    12  H   -0.041978  -0.005958   0.000824  -0.001094   0.000010   0.000017
    13  H    0.580957   0.003942  -0.004401   0.012422  -0.000026  -0.000325
    14  H    0.003942   0.521442  -0.024581  -0.000015  -0.000003  -0.000008
    15  H   -0.004401  -0.024581   0.515576  -0.000007   0.000000  -0.000019
    16  H    0.012422  -0.000015  -0.000007   0.577005   0.004110   0.000334
    17  H   -0.000026  -0.000003   0.000000   0.004110   0.555998   0.004608
    18  H   -0.000325  -0.000008  -0.000019   0.000334   0.004608   0.560424
    19  O   -0.000268  -0.000023  -0.000010  -0.001143   0.000921  -0.042138
    20  H    0.000001   0.000002   0.000000   0.000004  -0.000011  -0.005900
    21  O   -0.000152  -0.000007  -0.000007   0.002020  -0.040534  -0.002231
    22  H    0.000001   0.000000   0.000000   0.000077  -0.006250  -0.000414
    23  C   -0.005306  -0.000832  -0.000013   0.024202   0.047858   0.014805
    24  H    0.000040   0.000000   0.000000  -0.002349  -0.000182  -0.000013
    25  H    0.000009  -0.000001   0.000000   0.004901   0.002553  -0.000002
    26  O    0.000818  -0.000046   0.000002   0.006516   0.000402   0.000005
    27  H    0.000003   0.000000   0.000000  -0.000097  -0.000013   0.000000
             19         20         21         22         23         24
     1  C    0.013348  -0.016297  -0.006221   0.000084   0.053561   0.000138
     2  C   -0.173584   0.006347   0.052109   0.002440  -0.131819   0.006403
     3  N    0.024431  -0.001701   0.011025  -0.003997   0.145322   0.001989
     4  C   -0.006683   0.000024  -0.000303  -0.000301  -0.018654  -0.013181
     5  C    0.003736  -0.003357   0.003665  -0.000107  -0.024861  -0.000900
     6  C    0.011882  -0.004766  -0.147047   0.051328  -0.896533  -0.159818
     7  C   -0.165058   0.055590   0.305512   0.000312   0.264798   0.068353
     8  C    0.396134  -0.030205  -0.163134  -0.032378  -0.100198  -0.004227
     9  H    0.000559  -0.000066   0.000018   0.000000   0.000123   0.000000
    10  H    0.000670   0.000173  -0.000244   0.000001   0.000901   0.000000
    11  H    0.008537  -0.000540  -0.000615  -0.000001   0.012168  -0.000009
    12  H    0.000065   0.000000   0.000022   0.000000   0.000362  -0.000037
    13  H   -0.000268   0.000001  -0.000152   0.000001  -0.005306   0.000040
    14  H   -0.000023   0.000002  -0.000007   0.000000  -0.000832   0.000000
    15  H   -0.000010   0.000000  -0.000007   0.000000  -0.000013   0.000000
    16  H   -0.001143   0.000004   0.002020   0.000077   0.024202  -0.002349
    17  H    0.000921  -0.000011  -0.040534  -0.006250   0.047858  -0.000182
    18  H   -0.042138  -0.005900  -0.002231  -0.000414   0.014805  -0.000013
    19  O    8.242227   0.241535  -0.003848   0.007132  -0.002859  -0.000048
    20  H    0.241535   0.368829   0.000143  -0.000292   0.000915   0.000000
    21  O   -0.003848   0.000143   8.270813   0.236112   0.034028   0.006638
    22  H    0.007132  -0.000292   0.236112   0.368944  -0.012953  -0.000097
    23  C   -0.002859   0.000915   0.034028  -0.012953   5.839094   0.467497
    24  H   -0.000048   0.000000   0.006638  -0.000097   0.467497   0.576060
    25  H   -0.000089   0.000000   0.000395  -0.000015   0.489094  -0.045409
    26  O    0.000025  -0.000001  -0.000799   0.000016   0.095905  -0.058103
    27  H    0.000000   0.000000   0.000005   0.000000  -0.035501  -0.004030
             25         26         27
     1  C   -0.000684   0.000442  -0.000126
     2  C    0.013078   0.005323  -0.001848
     3  N    0.013530  -0.016028  -0.000425
     4  C    0.014410  -0.013312   0.000427
     5  C    0.002675  -0.007116  -0.000115
     6  C   -0.156937  -0.010255   0.049209
     7  C    0.000583   0.021641  -0.005942
     8  C   -0.014044  -0.004732   0.002426
     9  H    0.000000  -0.000001   0.000000
    10  H    0.000000  -0.000009   0.000000
    11  H   -0.000041  -0.000183   0.000000
    12  H    0.000033  -0.002323   0.000052
    13  H    0.000009   0.000818   0.000003
    14  H   -0.000001  -0.000046   0.000000
    15  H    0.000000   0.000002   0.000000
    16  H    0.004901   0.006516  -0.000097
    17  H    0.002553   0.000402  -0.000013
    18  H   -0.000002   0.000005   0.000000
    19  O   -0.000089   0.000025   0.000000
    20  H    0.000000  -0.000001   0.000000
    21  O    0.000395  -0.000799   0.000005
    22  H   -0.000015   0.000016   0.000000
    23  C    0.489094   0.095905  -0.035501
    24  H   -0.045409  -0.058103  -0.004030
    25  H    0.568154  -0.047531  -0.004773
    26  O   -0.047531   8.386103   0.229096
    27  H   -0.004773   0.229096   0.379066
 Mulliken atomic charges:
              1
     1  C   -0.378316
     2  C    0.000733
     3  N   -0.109914
     4  C   -0.206728
     5  C   -0.365367
     6  C   -0.019686
     7  C   -0.048625
     8  C   -0.101048
     9  H    0.177672
    10  H    0.170007
    11  H    0.168740
    12  H    0.167111
    13  H    0.147985
    14  H    0.178309
    15  H    0.176221
    16  H    0.161057
    17  H    0.175307
    18  H    0.172400
    19  O   -0.555449
    20  H    0.389572
    21  O   -0.557364
    22  H    0.390359
    23  C   -0.261104
    24  H    0.161286
    25  H    0.160112
    26  O   -0.585858
    27  H    0.392588
 Sum of Mulliken atomic charges =   0.00000
 Mulliken charges with hydrogens summed into heavy atoms:
              1
     1  C   -0.030637
     2  C    0.169473
     3  N   -0.109914
     4  C    0.108369
     5  C   -0.010838
     6  C    0.141372
     7  C    0.126682
     8  C    0.071352
    19  O   -0.165877
    21  O   -0.167005
    23  C    0.060294
    26  O   -0.193270
 Sum of Mulliken charges with hydrogens summed into heavy atoms =   0.00000
 Electronic spatial extent (au):  <R**2>=           2163.8918
 Charge=              0.0000 electrons
 Dipole moment (field-independent basis, Debye):
    X=              2.0806    Y=              0.2959    Z=             -0.3532  Tot=              2.1310
 Quadrupole moment (field-independent basis, Debye-Ang):
   XX=            -59.5009   YY=            -74.0783   ZZ=            -75.9677
   XY=             -0.4506   XZ=              8.3034   YZ=             -0.4772
 Traceless Quadrupole moment (field-independent basis, Debye-Ang):
   XX=             10.3480   YY=             -4.2293   ZZ=             -6.1187
   XY=             -0.4506   XZ=              8.3034   YZ=             -0.4772
 Octapole moment (field-independent basis, Debye-Ang**2):
  XXX=            -21.5491  YYY=             21.0574  ZZZ=              0.0819  XYY=              3.1433
  XXY=              2.8822  XXZ=            -17.1889  XZZ=             -1.3009  YZZ=             -1.0716
  YYZ=              1.4324  XYZ=              4.2951
 Hexadecapole moment (field-independent basis, Debye-Ang**3):
 XXXX=          -1013.2380 YYYY=          -1150.1241 ZZZZ=           -199.3106 XXXY=            121.3953
 XXXZ=             64.9691 YYYX=             -6.5646 YYYZ=             15.6058 ZZZX=              7.0975
 ZZZY=             -1.5932 XXYY=           -418.8205 XXZZ=           -255.0048 YYZZ=           -252.7701
 XXYZ=             24.4754 YYXZ=             28.0493 ZZXY=              4.2324
 N-N= 7.946659971612D+02 E-N=-2.975710338223D+03  KE= 5.886627135204D+02
 1\1\GINC-COMPUTE-3-0\SP\RmPW1PW91\6-31+G(d,p)\C8H15N1O3\MAMICHETTI.IQU
 IR\17-May-2024\0\\# mpw1pw91/6-31+G** nmr scrf=(pcm,solvent=water)\\co
 mment\\0,1\C,0,2.284597,-1.07585,0.228633\C,0,1.290981,-0.136011,-0.47
 2005\N,0,-0.044627,-0.819588,-0.399103\C,0,0.122376,-2.096179,0.320023
 \C,0,1.599578,-2.448378,0.123801\C,0,-1.032416,0.116688,0.164968\C,0,-
 0.422825,1.498026,-0.098461\C,0,1.066655,1.256423,0.137747\H,0,3.28007
 3,-1.051658,-0.225232\H,0,2.38821,-0.793343,1.284072\H,0,1.575529,0.00
 0183,-1.524993\H,0,-0.551616,-2.864223,-0.074692\H,0,-0.102933,-1.9832
 56,1.394394\H,0,1.757154,-2.879788,-0.872375\H,0,1.95893,-3.16974,0.86
 4277\H,0,-1.118998,-0.008984,1.259442\H,0,-0.57067,1.783371,-1.151156\
 H,0,1.239931,1.227313,1.223051\O,0,1.831932,2.305464,-0.45347\H,0,2.75
 3566,2.187286,-0.169487\O,0,-1.009531,2.47224,0.759732\H,0,-0.650849,3
 .334854,0.492169\C,0,-2.425894,-0.029366,-0.425621\H,0,-3.05142,0.8062
 51,-0.079331\H,0,-2.367412,0.018381,-1.522089\O,0,-2.981452,-1.280072,
 -0.001001\H,0,-3.85302,-1.362711,-0.420927\\Version=AM64L-G09RevC.01\S
 tate=1-A\HF=-594.1982672\RMSD=6.058e-09\Dipole=0.8185885,0.1164164,-0.
 1389449\Quadrupole=7.6935029,-3.1444096,-4.5490933,-0.3350265,6.173356
 5,-0.3547962\PG=C01 [X(C8H15N1O3)]\\@


 A FOOL CAN ASK MORE QUESTIONS THAN
 A WISE MAN CAN ANSWER.
 Job cpu time:  0 days  0 hours  8 minutes 25.6 seconds.
 File lengths (MBytes):  RWF=    116 Int=      0 D2E=      0 Chk=      7 Scr=      1
 Normal termination of Gaussian 09 at Fri May 17 12:38:07 2024.
