 Entering Gaussian System, Link 0=g09
 Input=/home/mamichetti.iquir/Linux/03_Cardona_A1A3_R__S_S_R_028_OptB.gjc
 Output=/home/mamichetti.iquir/Linux/03_Cardona_A1A3_R__S_S_R_028_OptB.log
 Initial command:
 /opt/ohpc/pub/apps/software/Gaussian/09/AMD64.SSE4a-enabled/g09/l1.exe /local/mamichetti.iquir/Gau-125001.inp -scrdir=/local/mamichetti.iquir/
 Entering Link 1 = /opt/ohpc/pub/apps/software/Gaussian/09/AMD64.SSE4a-enabled/g09/l1.exe PID=    125002.
  
 Copyright (c) 1988,1990,1992,1993,1995,1998,2003,2009,2011,
            Gaussian, Inc.  All Rights Reserved.
  
 This is part of the Gaussian(R) 09 program.  It is based on
 the Gaussian(R) 03 system (copyright 2003, Gaussian, Inc.),
 the Gaussian(R) 98 system (copyright 1998, Gaussian, Inc.),
 the Gaussian(R) 94 system (copyright 1995, Gaussian, Inc.),
 the Gaussian 92(TM) system (copyright 1992, Gaussian, Inc.),
 the Gaussian 90(TM) system (copyright 1990, Gaussian, Inc.),
 the Gaussian 88(TM) system (copyright 1988, Gaussian, Inc.),
 the Gaussian 86(TM) system (copyright 1986, Carnegie Mellon
 University), and the Gaussian 82(TM) system (copyright 1983,
 Carnegie Mellon University). Gaussian is a federally registered
 trademark of Gaussian, Inc.
  
 This software contains proprietary and confidential information,
 including trade secrets, belonging to Gaussian, Inc.
  
 This software is provided under written license and may be
 used, copied, transmitted, or stored only in accord with that
 written license.
  
 The following legend is applicable only to US Government
 contracts under FAR:
  
                    RESTRICTED RIGHTS LEGEND
  
 Use, reproduction and disclosure by the US Government is
 subject to restrictions as set forth in subparagraphs (a)
 and (c) of the Commercial Computer Software - Restricted
 Rights clause in FAR 52.227-19.
  
 Gaussian, Inc.
 340 Quinnipiac St., Bldg. 40, Wallingford CT 06492
  
  
 ---------------------------------------------------------------
 Warning -- This program may not be used in any manner that
 competes with the business of Gaussian, Inc. or will provide
 assistance to any competitor of Gaussian, Inc.  The licensee
 of this program is prohibited from giving any competitor of
 Gaussian, Inc. access to this program.  By using this program,
 the user acknowledges that Gaussian, Inc. is engaged in the
 business of creating and licensing software in the field of
 computational chemistry and represents and warrants to the
 licensee that it is not a competitor of Gaussian, Inc. and that
 it will not use this program in any manner prohibited above.
 ---------------------------------------------------------------
  

 Cite this work as:
 Gaussian 09, Revision C.01,
 M. J. Frisch, G. W. Trucks, H. B. Schlegel, G. E. Scuseria, 
 M. A. Robb, J. R. Cheeseman, G. Scalmani, V. Barone, B. Mennucci, 
 G. A. Petersson, H. Nakatsuji, M. Caricato, X. Li, H. P. Hratchian, 
 A. F. Izmaylov, J. Bloino, G. Zheng, J. L. Sonnenberg, M. Hada, 
 M. Ehara, K. Toyota, R. Fukuda, J. Hasegawa, M. Ishida, T. Nakajima, 
 Y. Honda, O. Kitao, H. Nakai, T. Vreven, J. A. Montgomery, Jr., 
 J. E. Peralta, F. Ogliaro, M. Bearpark, J. J. Heyd, E. Brothers, 
 K. N. Kudin, V. N. Staroverov, T. Keith, R. Kobayashi, J. Normand, 
 K. Raghavachari, A. Rendell, J. C. Burant, S. S. Iyengar, J. Tomasi, 
 M. Cossi, N. Rega, J. M. Millam, M. Klene, J. E. Knox, J. B. Cross, 
 V. Bakken, C. Adamo, J. Jaramillo, R. Gomperts, R. E. Stratmann, 
 O. Yazyev, A. J. Austin, R. Cammi, C. Pomelli, J. W. Ochterski, 
 R. L. Martin, K. Morokuma, V. G. Zakrzewski, G. A. Voth, 
 P. Salvador, J. J. Dannenberg, S. Dapprich, A. D. Daniels, 
 O. Farkas, J. B. Foresman, J. V. Ortiz, J. Cioslowski, 
 and D. J. Fox, Gaussian, Inc., Wallingford CT, 2010.
 
 ******************************************
 Gaussian 09:  AM64L-G09RevC.01 23-Sep-2011
                17-May-2024 
 ******************************************
 %nprocshared=4
 Will use up to    4 processors via shared memory.
 ------------------------------------------------
 # mpw1pw91/6-31+G** nmr scrf=(pcm,solvent=water)
 ------------------------------------------------
 1/38=1/1;
 2/12=2,17=6,18=5,40=1/2;
 3/5=1,6=6,7=111,11=2,16=1,25=1,30=1,70=2201,72=1,74=-7/1,2,8,3;
 4//1;
 5/5=2,38=5,53=1/2;
 8/6=1,10=90,11=11/1;
 10/13=100,45=16/2;
 6/7=2,8=2,9=2,10=2,28=1/1;
 99/9=1/99;
 -------
 comment
 -------
 Charge =  0 Multiplicity = 1
 Symbolic Z-Matrix:
 6                    -2.38439   0.60574  -0.55312 
 6                    -1.14122  -0.26486  -0.8275 
 7                     0.06031   0.61545  -0.60786 
 6                    -0.43314   1.95403  -0.21203 
 6                    -1.85515   1.74969   0.32772 
 6                     0.95616  -0.04942   0.36658 
 6                     0.59641  -1.54057   0.2455 
 6                    -0.93582  -1.49652   0.08691 
 1                    -2.77192   1.00561  -1.4967 
 1                    -3.18521   0.03381  -0.07661 
 1                    -1.15113  -0.62225  -1.8646 
 1                    -0.4587    2.61135  -1.09186 
 1                     0.24615   2.40866   0.51391 
 1                    -2.46614   2.65631   0.2676 
 1                    -1.82036   1.43914   1.37915 
 1                     0.72874   0.26661   1.40023 
 1                     0.89171  -2.10914   1.13022 
 1                    -1.30939  -2.41241  -0.37741 
 8                    -1.59648  -1.42495   1.35493 
 1                    -1.24341  -0.66804   1.85227 
 8                     1.22759  -2.19434  -0.86276 
 1                     1.04322  -1.67552  -1.66431 
 6                     2.43774   0.23985   0.12868 
 1                     3.03718  -0.3793    0.80493 
 1                     2.71209  -0.01527  -0.90192 
 8                     2.80178   1.59602   0.41832 
 1                     2.41838   2.15088  -0.28022 
 
                          Input orientation:                          
 ---------------------------------------------------------------------
 Center     Atomic      Atomic             Coordinates (Angstroms)
 Number     Number       Type             X           Y           Z
 ---------------------------------------------------------------------
      1          6           0       -2.384392    0.605740   -0.553124
      2          6           0       -1.141221   -0.264860   -0.827502
      3          7           0        0.060312    0.615451   -0.607864
      4          6           0       -0.433144    1.954025   -0.212033
      5          6           0       -1.855148    1.749692    0.327724
      6          6           0        0.956162   -0.049421    0.366579
      7          6           0        0.596406   -1.540573    0.245499
      8          6           0       -0.935816   -1.496521    0.086912
      9          1           0       -2.771923    1.005615   -1.496696
     10          1           0       -3.185213    0.033812   -0.076606
     11          1           0       -1.151131   -0.622253   -1.864604
     12          1           0       -0.458695    2.611353   -1.091860
     13          1           0        0.246154    2.408660    0.513912
     14          1           0       -2.466143    2.656310    0.267603
     15          1           0       -1.820361    1.439140    1.379148
     16          1           0        0.728737    0.266610    1.400233
     17          1           0        0.891710   -2.109140    1.130220
     18          1           0       -1.309388   -2.412413   -0.377407
     19          8           0       -1.596484   -1.424954    1.354930
     20          1           0       -1.243413   -0.668038    1.852265
     21          8           0        1.227589   -2.194336   -0.862756
     22          1           0        1.043221   -1.675518   -1.664312
     23          6           0        2.437738    0.239848    0.128676
     24          1           0        3.037179   -0.379297    0.804928
     25          1           0        2.712090   -0.015266   -0.901916
     26          8           0        2.801784    1.596015    0.418321
     27          1           0        2.418378    2.150883   -0.280216
 ---------------------------------------------------------------------
                    Distance matrix (angstroms):
                    1          2          3          4          5
     1  C    0.000000
     2  C    1.542304   0.000000
     3  N    2.445336   1.505613   0.000000
     4  C    2.396160   2.409072   1.480527   0.000000
     5  C    1.537732   2.429539   2.414708   1.534661   0.000000
     6  C    3.526243   2.423068   1.481263   2.505745   3.337931
     7  C    3.758938   2.407929   2.379930   3.671719   4.103989
     8  C    2.632018   1.547686   2.436270   3.499759   3.382464
     9  H    1.095632   2.172813   2.993961   2.831912   2.173163
    10  H    1.093383   2.197943   3.339756   3.358488   2.208348
    11  H    2.179192   1.097000   2.139837   3.143836   3.305762
    12  H    2.832142   2.967883   2.118312   1.098557   2.169737
    13  H    3.362865   3.297258   2.123327   1.093222   2.210062
    14  H    2.210229   3.389382   3.363707   2.203710   1.094936
    15  H    2.178615   2.869521   2.857203   2.172863   1.096880
    16  H    3.690824   2.956688   2.144979   2.607056   3.166429
    17  H    4.575704   3.371476   3.336998   4.479530   4.804145
    18  H    3.208700   2.200648   3.331238   4.456561   4.256546
    19  O    2.895719   2.513184   3.280364   3.902080   3.346705
    20  H    2.951312   2.711853   3.065824   3.434105   2.922989
    21  O    4.580688   3.055386   3.053262   4.515570   5.145471
    22  H    4.264670   2.731665   2.707532   4.178798   4.909258
    23  C    4.883817   3.738710   2.517086   3.361019   4.555010
    24  H    5.675212   4.487421   3.441982   4.303689   5.356788
    25  H    5.146011   3.862103   2.741568   3.774459   5.048441
    26  O    5.368498   4.534558   3.087107   3.315159   4.660348
    27  H    5.052578   4.336598   2.832910   2.859122   4.335155
                    6          7          8          9         10
     6  C    0.000000
     7  C    1.538707   0.000000
     8  C    2.398310   1.541037   0.000000
     9  H    4.299246   4.567708   3.484220   0.000000
    10  H    4.165853   4.108903   2.725517   1.769708   0.000000
    11  H    3.122018   2.889590   2.149214   2.326430   2.786548
    12  H    3.347922   4.487790   4.300207   2.844874   3.886947
    13  H    2.562807   3.973810   4.102416   3.888428   4.214605
    14  H    4.363823   5.195529   4.429510   2.435374   2.740992
    15  H    3.309107   4.000577   3.327221   3.060048   2.440694
    16  H    1.104553   2.148682   2.757568   4.603580   4.189780
    17  H    2.197668   1.092339   2.191722   5.479470   4.761300
    18  H    3.357077   2.186359   1.092706   3.882619   3.097292
    19  O    3.063483   2.460279   1.431598   3.926970   2.588697
    20  H    2.725450   2.593829   1.974201   4.043884   2.825548
    21  O    2.487086   1.433188   2.463562   5.161169   5.005547
    22  H    2.603131   1.966019   2.648662   4.666036   4.829314
    23  C    1.528183   2.563991   3.794415   5.510790   5.630468
    24  H    2.152115   2.760235   4.189084   6.400088   6.298089
    25  H    2.166455   2.849428   4.059448   5.609845   5.954975
    26  O    2.473147   3.838195   4.862434   5.923012   6.207219
    27  H    2.719882   4.150037   4.968798   5.452585   5.993637
                   11         12         13         14         15
    11  H    0.000000
    12  H    3.395999   0.000000
    13  H    4.098314   1.765333   0.000000
    14  H    4.126080   2.424873   2.734694   0.000000
    15  H    3.901171   3.055176   2.441124   1.770330   0.000000
    16  H    3.870806   3.621925   2.367874   4.147382   2.805917
    17  H    3.918291   5.389275   4.605116   5.893115   4.472984
    18  H    2.332697   5.145128   5.143628   5.238900   4.263923
    19  O    3.347845   4.855216   4.335807   4.312227   2.872933
    20  H    3.718296   4.476389   3.670977   3.880401   2.235376
    21  O    3.022160   5.098106   4.903672   6.200817   5.245787
    22  H    2.442266   4.578287   4.696859   5.900226   5.211895
    23  C    4.194802   3.937394   3.107281   5.468696   4.597107
    24  H    4.972662   4.976236   3.955656   6.307946   5.218442
    25  H    4.027366   4.121782   3.736419   5.942995   5.278415
    26  O    5.075234   3.733936   2.683426   5.375686   4.723560
    27  H    4.789777   3.024624   2.327154   4.941063   4.607274
                   16         17         18         19         20
    16  H    0.000000
    17  H    2.396592   0.000000
    18  H    3.806721   2.685097   0.000000
    19  O    2.875777   2.590312   2.014570   0.000000
    20  H    2.228739   2.675233   2.831719   0.972072   0.000000
    21  O    3.380270   2.022876   2.592175   3.672257   3.975774
    22  H    3.641730   2.832030   2.780990   4.018289   4.313934
    23  C    2.130319   2.985136   4.618610   4.533234   4.164840
    24  H    2.469917   2.775105   4.942077   4.781917   4.416305
    25  H    3.051726   3.439138   4.711020   5.064028   4.863911
    26  O    2.651225   4.228872   5.796759   5.417403   4.852396
    27  H    3.037973   4.740025   5.893162   5.619558   5.089450
                   21         22         23         24         25
    21  O    0.000000
    22  H    0.972448   0.000000
    23  C    2.893553   2.971214   0.000000
    24  H    3.057802   3.428295   1.095439   0.000000
    25  H    2.636972   2.474431   1.096573   1.775251   0.000000
    26  O    4.299536   4.258266   1.433741   2.026508   2.085017
    27  H    4.542935   4.295128   1.954385   2.821748   2.272659
                   26         27
    26  O    0.000000
    27  H    0.970996   0.000000
 Stoichiometry    C8H15NO3
 Framework group  C1[X(C8H15NO3)]
 Deg. of freedom    75
 Full point group                 C1      NOp   1
 Largest Abelian subgroup         C1      NOp   1
 Largest concise Abelian subgroup C1      NOp   1
                         Standard orientation:                         
 ---------------------------------------------------------------------
 Center     Atomic      Atomic             Coordinates (Angstroms)
 Number     Number       Type             X           Y           Z
 ---------------------------------------------------------------------
      1          6           0        2.384392   -0.605739   -0.553124
      2          6           0        1.141221    0.264860   -0.827502
      3          7           0       -0.060312   -0.615451   -0.607864
      4          6           0        0.433145   -1.954025   -0.212033
      5          6           0        1.855149   -1.749691    0.327724
      6          6           0       -0.956162    0.049421    0.366579
      7          6           0       -0.596406    1.540573    0.245499
      8          6           0        0.935816    1.496521    0.086912
      9          1           0        2.771923   -1.005614   -1.496696
     10          1           0        3.185213   -0.033811   -0.076606
     11          1           0        1.151131    0.622253   -1.864604
     12          1           0        0.458696   -2.611353   -1.091860
     13          1           0       -0.246153   -2.408660    0.513912
     14          1           0        2.466144   -2.656309    0.267603
     15          1           0        1.820362   -1.439139    1.379148
     16          1           0       -0.728737   -0.266610    1.400233
     17          1           0       -0.891711    2.109140    1.130220
     18          1           0        1.309387    2.412413   -0.377407
     19          8           0        1.596484    1.424954    1.354930
     20          1           0        1.243413    0.668038    1.852265
     21          8           0       -1.227590    2.194336   -0.862756
     22          1           0       -1.043221    1.675518   -1.664312
     23          6           0       -2.437738   -0.239849    0.128676
     24          1           0       -3.037179    0.379296    0.804928
     25          1           0       -2.712090    0.015265   -0.901916
     26          8           0       -2.801783   -1.596016    0.418321
     27          1           0       -2.418377   -2.150884   -0.280216
 ---------------------------------------------------------------------
 Rotational constants (GHZ):      1.1843327      0.9045884      0.6213255
 Standard basis: 6-31+G(d,p) (6D, 7F)
 There are   303 symmetry adapted basis functions of A   symmetry.
 Integral buffers will be    131072 words long.
 Raffenetti 2 integral format.
 Two-electron integral symmetry is turned on.
   303 basis functions,   489 primitive gaussians,   303 cartesian basis functions
    47 alpha electrons       47 beta electrons
       nuclear repulsion energy       811.1737907311 Hartrees.
 NAtoms=   27 NActive=   27 NUniq=   27 SFac= 1.00D+00 NAtFMM=   60 NAOKFM=F Big=F
 ------------------------------------------------------------------------------
 Polarizable Continuum Model (PCM)
 =================================
 Model                : PCM.
 Atomic radii         : UFF (Universal Force Field).
 Polarization charges : Total charges.
 Charge compensation  : None.
 Solution method      : Matrix inversion.
 Cavity type          : Scaled VdW (van der Waals Surface) (Alpha=1.100).
 Cavity algorithm     : GePol (No added spheres)
                        Default sphere list used, NSphG=   27.
                        Lebedev-Laikov grids with approx.  5.0 points / Ang**2.
                        Smoothing algorithm: Karplus/York (Gamma=1.0000).
                        Polarization charges: spherical gaussians, with
                                              point-specific exponents (IZeta= 3).
                        Self-potential: point-specific (ISelfS= 7).
                        Self-field    : sphere-specific E.n sum rule (ISelfD= 2).
 Solvent              : Water, Eps=  78.355300 Eps(inf)=   1.777849
 ------------------------------------------------------------------------------
 One-electron integrals computed using PRISM.
 NBasis=   303 RedAO= T  NBF=   303
 NBsUse=   303 1.00D-06 NBFU=   303
 Harris functional with IExCor=  908 diagonalized for initial guess.
 ExpMin= 4.38D-02 ExpMax= 5.48D+03 ExpMxC= 8.25D+02 IAcc=2 IRadAn=         4 AccDes= 0.00D+00
 HarFok:  IExCor=  908 AccDes= 0.00D+00 IRadAn=         4 IDoV= 1
 ScaDFX=  1.000000  1.000000  1.000000  1.000000
 FoFCou: FMM=F IPFlag=           0 FMFlag=      100000 FMFlg1=           0
         NFxFlg=           0 DoJE=T BraDBF=F KetDBF=T FulRan=T
         Omega=  0.000000  0.000000  1.000000  0.000000  0.000000 ICntrl=     500 IOpCl=  0
         NMat0=    1 NMatS0=    1 NMatT0=    0 NMatD0=    1 NMtDS0=    0 NMtDT0=    0
         I1Cent=           4 NGrid=           0.
 Petite list used in FoFCou.
 Initial guess orbital symmetries:
       Occupied  (A) (A) (A) (A) (A) (A) (A) (A) (A) (A) (A) (A)
                 (A) (A) (A) (A) (A) (A) (A) (A) (A) (A) (A) (A)
                 (A) (A) (A) (A) (A) (A) (A) (A) (A) (A) (A) (A)
                 (A) (A) (A) (A) (A) (A) (A) (A) (A) (A) (A)
       Virtual   (A) (A) (A) (A) (A) (A) (A) (A) (A) (A) (A) (A)
                 (A) (A) (A) (A) (A) (A) (A) (A) (A) (A) (A) (A)
                 (A) (A) (A) (A) (A) (A) (A) (A) (A) (A) (A) (A)
                 (A) (A) (A) (A) (A) (A) (A) (A) (A) (A) (A) (A)
                 (A) (A) (A) (A) (A) (A) (A) (A) (A) (A) (A) (A)
                 (A) (A) (A) (A) (A) (A) (A) (A) (A) (A) (A) (A)
                 (A) (A) (A) (A) (A) (A) (A) (A) (A) (A) (A) (A)
                 (A) (A) (A) (A) (A) (A) (A) (A) (A) (A) (A) (A)
                 (A) (A) (A) (A) (A) (A) (A) (A) (A) (A) (A) (A)
                 (A) (A) (A) (A) (A) (A) (A) (A) (A) (A) (A) (A)
                 (A) (A) (A) (A) (A) (A) (A) (A) (A) (A) (A) (A)
                 (A) (A) (A) (A) (A) (A) (A) (A) (A) (A) (A) (A)
                 (A) (A) (A) (A) (A) (A) (A) (A) (A) (A) (A) (A)
                 (A) (A) (A) (A) (A) (A) (A) (A) (A) (A) (A) (A)
                 (A) (A) (A) (A) (A) (A) (A) (A) (A) (A) (A) (A)
                 (A) (A) (A) (A) (A) (A) (A) (A) (A) (A) (A) (A)
                 (A) (A) (A) (A) (A) (A) (A) (A) (A) (A) (A) (A)
                 (A) (A) (A) (A) (A) (A) (A) (A) (A) (A) (A) (A)
                 (A) (A) (A) (A) (A) (A) (A) (A) (A) (A) (A) (A)
                 (A) (A) (A) (A) (A) (A) (A) (A) (A) (A) (A) (A)
                 (A) (A) (A) (A) (A) (A) (A) (A) (A) (A) (A) (A)
                 (A) (A) (A) (A)
 The electronic state of the initial guess is 1-A.
 Requested convergence on RMS density matrix=1.00D-08 within 128 cycles.
 Requested convergence on MAX density matrix=1.00D-06.
 Requested convergence on             energy=1.00D-06.
 No special actions if energy rises.
 Error on total polarization charges =  0.01423
 SCF Done:  E(RmPW1PW91) =  -594.192649897     A.U. after   13 cycles
             Convg  =    0.3749D-08             -V/T =  2.0094
 Range of M.O.s used for correlation:     1   303
 NBasis=   303 NAE=    47 NBE=    47 NFC=     0 NFV=     0
 NROrb=    303 NOA=    47 NOB=    47 NVA=   256 NVB=   256

 **** Warning!!: The largest alpha MO coefficient is  0.87090742D+02

 NEqPCM:  Using equilibrium solvation (IEInf=0, Eps=  78.3553, EpsInf=   1.7778)
          Differentiating once with respect to magnetic field using GIAOs.
          Electric field/nuclear overlap derivatives assumed to be zero.
 FoFCou: FMM=F IPFlag=           0 FMFlag=    10101102 FMFlg1=           0
         NFxFlg=    40000000 DoJE=F BraDBF=F KetDBF=T FulRan=T
         Omega=  0.000000  0.000000  1.000000  0.000000  0.000000 ICntrl=    6100 IOpCl=  0
         NMat0=    1 NMatS0=    1 NMatT0=    0 NMatD0=    1 NMtDS0=    0 NMtDT0=    0
         I1Cent=           7 NGrid=        1803.
 Symmetry not used in FoFCou.
          There are     3 degrees of freedom in the 1st order CPHF.  IDoFFX=0.
      3 vectors produced by pass  0 Test12= 4.01D-13 3.33D-08 XBig12= 3.80D+01 1.25D+00.
 AX will form     3 AO Fock derivatives at one time.
      3 vectors produced by pass  1 Test12= 4.01D-13 3.33D-08 XBig12= 8.82D-02 4.10D-02.
      3 vectors produced by pass  2 Test12= 4.01D-13 3.33D-08 XBig12= 1.58D-04 2.21D-03.
      3 vectors produced by pass  3 Test12= 4.01D-13 3.33D-08 XBig12= 7.68D-07 2.10D-04.
      3 vectors produced by pass  4 Test12= 4.01D-13 3.33D-08 XBig12= 2.87D-09 1.28D-05.
      3 vectors produced by pass  5 Test12= 4.01D-13 3.33D-08 XBig12= 9.51D-12 5.19D-07.
 Inverted reduced A of dimension    18 with in-core refinement.
 Calculating GIAO nuclear magnetic shielding tensors.
 SCF GIAO Magnetic shielding tensor (ppm):
      1  C    Isotropic =   168.7802   Anisotropy =    23.6484
   XX=   177.5890   YX=    -1.3094   ZX=     0.2716
   XY=    -1.9940   YY=   174.4310   ZY=   -16.5185
   XZ=    -6.1886   YZ=   -18.4504   ZZ=   154.3207
   Eigenvalues:   143.8659   177.9290   184.5458
      2  C    Isotropic =   126.8688   Anisotropy =    62.5978
   XX=   152.3251   YX=    19.3327   ZX=    -1.5028
   XY=    22.2903   YY=   141.9589   ZY=    -3.8910
   XZ=    -3.7699   YZ=     7.4951   ZZ=    86.3224
   Eigenvalues:    86.0772   125.9284   168.6006
      3  N    Isotropic =   192.2864   Anisotropy =    79.5941
   XX=   231.3101   YX=     5.4200   ZX=   -31.1666
   XY=    -1.9944   YY=   204.9589   ZY=    -4.7930
   XZ=   -44.7129   YZ=    -4.8738   ZZ=   140.5902
   Eigenvalues:   126.6148   204.8952   245.3491
      4  C    Isotropic =   141.2521   Anisotropy =    56.7400
   XX=   140.1501   YX=   -18.4423   ZX=     1.5886
   XY=   -10.2540   YY=   168.2149   ZY=   -16.6243
   XZ=    16.4795   YZ=   -13.7783   ZZ=   115.3913
   Eigenvalues:   110.3423   134.3352   179.0787
      5  C    Isotropic =   167.8468   Anisotropy =    25.0131
   XX=   174.8187   YX=    -0.2590   ZX=     5.6152
   XY=     2.7336   YY=   178.9417   ZY=    -9.0851
   XZ=     9.8645   YZ=   -17.7822   ZZ=   149.7801
   Eigenvalues:   142.7043   176.3139   184.5222
      6  C    Isotropic =   127.6385   Anisotropy =    33.4705
   XX=   132.4512   YX=   -10.0909   ZX=   -11.3872
   XY=    -5.6048   YY=   133.1821   ZY=    14.2326
   XZ=   -22.8177   YZ=    -0.4888   ZZ=   117.2821
   Eigenvalues:   106.0674   126.8959   149.9522
      7  C    Isotropic =   112.2606   Anisotropy =    30.0589
   XX=   123.8726   YX=    -9.2332   ZX=    12.3754
   XY=     2.4727   YY=   106.1854   ZY=     1.0724
   XZ=    12.3596   YZ=   -18.2700   ZZ=   106.7239
   Eigenvalues:    96.0489   108.4331   132.2999
      8  C    Isotropic =   114.6745   Anisotropy =    30.8867
   XX=   120.7887   YX=    -3.9876   ZX=    15.8460
   XY=   -13.2144   YY=   103.2477   ZY=    -7.1919
   XZ=    11.4603   YZ=     7.3354   ZZ=   119.9871
   Eigenvalues:    98.0161   110.7417   135.2656
      9  H    Isotropic =    29.8472   Anisotropy =    12.5948
   XX=    30.2212   YX=    -2.7607   ZX=    -5.7873
   XY=    -3.1432   YY=    26.6789   ZY=     1.2186
   XZ=    -6.2065   YZ=     1.2184   ZZ=    32.6416
   Eigenvalues:    24.1396    27.1583    38.2438
     10  H    Isotropic =    29.4854   Anisotropy =     9.5012
   XX=    34.4954   YX=     2.4468   ZX=     1.1344
   XY=     3.1004   YY=    28.5858   ZY=     1.8258
   XZ=     0.8510   YZ=     1.4488   ZZ=    25.3751
   Eigenvalues:    24.6842    27.9525    35.8195
     11  H    Isotropic =    27.6739   Anisotropy =     8.2784
   XX=    25.9956   YX=     0.1470   ZX=    -1.5704
   XY=    -0.2604   YY=    25.5899   ZY=    -3.5814
   XZ=    -1.9813   YZ=    -2.7787   ZZ=    31.4361
   Eigenvalues:    23.8739    25.9549    33.1928
     12  H    Isotropic =    28.5784   Anisotropy =    11.6132
   XX=    25.7627   YX=    -1.3325   ZX=     0.9795
   XY=    -0.5722   YY=    33.2756   ZY=     5.8442
   XZ=     2.3800   YZ=     4.9823   ZZ=    26.6970
   Eigenvalues:    22.5069    26.9078    36.3205
     13  H    Isotropic =    28.6243   Anisotropy =     7.6498
   XX=    31.0319   YX=     1.3015   ZX=    -1.0373
   XY=     1.6507   YY=    30.8718   ZY=    -3.7869
   XZ=    -2.0382   YZ=    -3.0438   ZZ=    23.9692
   Eigenvalues:    22.4742    29.6745    33.7242
     14  H    Isotropic =    29.9526   Anisotropy =    12.9289
   XX=    30.1767   YX=    -5.2069   ZX=     0.5041
   XY=    -5.8207   YY=    34.5973   ZY=    -1.5711
   XZ=     0.9366   YZ=    -1.8380   ZZ=    25.0839
   Eigenvalues:    24.7645    26.5215    38.5718
     15  H    Isotropic =    30.2300   Anisotropy =     8.2416
   XX=    27.6886   YX=    -0.0609   ZX=     1.3577
   XY=    -0.1203   YY=    27.7619   ZY=    -0.4237
   XZ=     2.0543   YZ=    -1.5154   ZZ=    35.2394
   Eigenvalues:    27.2844    27.6811    35.7244
     16  H    Isotropic =    28.8233   Anisotropy =     5.8868
   XX=    29.1481   YX=    -0.4958   ZX=    -1.4263
   XY=     0.9083   YY=    25.8397   ZY=     1.2551
   XZ=    -2.8363   YZ=    -0.6840   ZZ=    31.4820
   Eigenvalues:    25.7871    27.9349    32.7478
     17  H    Isotropic =    27.5976   Anisotropy =     5.4205
   XX=    25.8414   YX=    -2.0056   ZX=     0.5308
   XY=    -2.3499   YY=    28.3978   ZY=     1.9765
   XZ=     0.1467   YZ=     2.8099   ZZ=    28.5536
   Eigenvalues:    24.0273    27.5543    31.2113
     18  H    Isotropic =    27.8068   Anisotropy =     6.6307
   XX=    25.3869   YX=     1.5717   ZX=     1.3207
   XY=     2.2932   YY=    31.1007   ZY=    -1.6069
   XZ=     1.2147   YZ=    -2.5372   ZZ=    26.9328
   Eigenvalues:    23.6692    27.5238    32.2273
     19  O    Isotropic =   291.0114   Anisotropy =    33.9884
   XX=   282.5482   YX=    19.9487   ZX=   -26.4977
   XY=     9.1540   YY=   288.2344   ZY=   -13.2581
   XZ=     1.6295   YZ=     2.9586   ZZ=   302.2517
   Eigenvalues:   269.1635   290.2005   313.6704
     20  H    Isotropic =    30.9769   Anisotropy =    12.8038
   XX=    26.0022   YX=     4.3171   ZX=     0.4785
   XY=     2.8107   YY=    32.8344   ZY=    -6.0499
   XZ=     0.7647   YZ=    -5.4009   ZZ=    34.0941
   Eigenvalues:    23.5184    29.8996    39.5128
     21  O    Isotropic =   296.8407   Anisotropy =    27.6629
   XX=   289.7041   YX=    -5.0332   ZX=   -18.0373
   XY=     1.9260   YY=   287.1779   ZY=    16.4942
   XZ=     9.2073   YZ=    -7.0984   ZZ=   313.6402
   Eigenvalues:   286.1506   289.0889   315.2826
     22  H    Isotropic =    30.3250   Anisotropy =    12.8048
   XX=    24.0642   YX=    -4.2491   ZX=     1.0737
   XY=    -3.1817   YY=    28.8696   ZY=     2.3981
   XZ=     1.3563   YZ=     3.3217   ZZ=    38.0412
   Eigenvalues:    21.6711    30.4423    38.8615
     23  C    Isotropic =   126.9705   Anisotropy =    46.2922
   XX=   126.9546   YX=     5.2062   ZX=     1.0054
   XY=    16.2291   YY=   151.4983   ZY=   -14.1710
   XZ=    -0.1935   YZ=   -10.1695   ZZ=   102.4586
   Eigenvalues:    99.2903   123.7892   157.8320
     24  H    Isotropic =    27.7279   Anisotropy =     6.4744
   XX=    30.3633   YX=    -0.0146   ZX=    -2.9698
   XY=    -1.4348   YY=    29.5847   ZY=     1.7992
   XZ=    -3.2317   YZ=     0.6774   ZZ=    23.2358
   Eigenvalues:    21.9661    29.1735    32.0442
     25  H    Isotropic =    27.7941   Anisotropy =     6.2145
   XX=    28.0649   YX=     2.4637   ZX=     2.8370
   XY=     0.8256   YY=    29.8529   ZY=    -4.9227
   XZ=     2.8468   YZ=    -2.4225   ZZ=    25.4644
   Eigenvalues:    21.6895    29.7556    31.9371
     26  O    Isotropic =   312.6133   Anisotropy =    46.1070
   XX=   303.3656   YX=   -23.1640   ZX=    -7.9272
   XY=    -2.3520   YY=   311.5150   ZY=    12.8852
   XZ=   -20.1622   YZ=    19.5880   ZZ=   322.9594
   Eigenvalues:   293.7928   300.6959   343.3513
     27  H    Isotropic =    30.2865   Anisotropy =    15.0848
   XX=    27.6945   YX=    -0.0306   ZX=    -5.4367
   XY=    -1.1215   YY=    33.8429   ZY=     7.5489
   XZ=    -4.6751   YZ=     7.2568   ZZ=    29.3223
   Eigenvalues:    21.3861    29.1305    40.3431
 End of Minotr Frequency-dependent properties file   721 does not exist.
 End of Minotr Frequency-dependent properties file   722 does not exist.

 **********************************************************************

            Population analysis using the SCF density.

 **********************************************************************

 Orbital symmetries:
       Occupied  (A) (A) (A) (A) (A) (A) (A) (A) (A) (A) (A) (A)
                 (A) (A) (A) (A) (A) (A) (A) (A) (A) (A) (A) (A)
                 (A) (A) (A) (A) (A) (A) (A) (A) (A) (A) (A) (A)
                 (A) (A) (A) (A) (A) (A) (A) (A) (A) (A) (A)
       Virtual   (A) (A) (A) (A) (A) (A) (A) (A) (A) (A) (A) (A)
                 (A) (A) (A) (A) (A) (A) (A) (A) (A) (A) (A) (A)
                 (A) (A) (A) (A) (A) (A) (A) (A) (A) (A) (A) (A)
                 (A) (A) (A) (A) (A) (A) (A) (A) (A) (A) (A) (A)
                 (A) (A) (A) (A) (A) (A) (A) (A) (A) (A) (A) (A)
                 (A) (A) (A) (A) (A) (A) (A) (A) (A) (A) (A) (A)
                 (A) (A) (A) (A) (A) (A) (A) (A) (A) (A) (A) (A)
                 (A) (A) (A) (A) (A) (A) (A) (A) (A) (A) (A) (A)
                 (A) (A) (A) (A) (A) (A) (A) (A) (A) (A) (A) (A)
                 (A) (A) (A) (A) (A) (A) (A) (A) (A) (A) (A) (A)
                 (A) (A) (A) (A) (A) (A) (A) (A) (A) (A) (A) (A)
                 (A) (A) (A) (A) (A) (A) (A) (A) (A) (A) (A) (A)
                 (A) (A) (A) (A) (A) (A) (A) (A) (A) (A) (A) (A)
                 (A) (A) (A) (A) (A) (A) (A) (A) (A) (A) (A) (A)
                 (A) (A) (A) (A) (A) (A) (A) (A) (A) (A) (A) (A)
                 (A) (A) (A) (A) (A) (A) (A) (A) (A) (A) (A) (A)
                 (A) (A) (A) (A) (A) (A) (A) (A) (A) (A) (A) (A)
                 (A) (A) (A) (A) (A) (A) (A) (A) (A) (A) (A) (A)
                 (A) (A) (A) (A) (A) (A) (A) (A) (A) (A) (A) (A)
                 (A) (A) (A) (A) (A) (A) (A) (A) (A) (A) (A) (A)
                 (A) (A) (A) (A) (A) (A) (A) (A) (A) (A) (A) (A)
                 (A) (A) (A) (A)
 The electronic state is 1-A.
 Alpha  occ. eigenvalues --  -19.26320 -19.26313 -19.25721 -14.41658 -10.31004
 Alpha  occ. eigenvalues --  -10.30635 -10.29688 -10.28558 -10.28103 -10.27145
 Alpha  occ. eigenvalues --  -10.24818 -10.24793  -1.07490  -1.06046  -1.05716
 Alpha  occ. eigenvalues --   -0.96418  -0.82893  -0.79222  -0.75859  -0.72248
 Alpha  occ. eigenvalues --   -0.67293  -0.62825  -0.60770  -0.58611  -0.54599
 Alpha  occ. eigenvalues --   -0.53577  -0.52678  -0.50954  -0.48961  -0.46772
 Alpha  occ. eigenvalues --   -0.45999  -0.45007  -0.43900  -0.42423  -0.40745
 Alpha  occ. eigenvalues --   -0.40492  -0.38500  -0.37729  -0.36052  -0.35828
 Alpha  occ. eigenvalues --   -0.35305  -0.34955  -0.34587  -0.32337  -0.30276
 Alpha  occ. eigenvalues --   -0.28125  -0.23551
 Alpha virt. eigenvalues --    0.00443   0.01177   0.01851   0.02144   0.03280
 Alpha virt. eigenvalues --    0.04242   0.04749   0.04950   0.05348   0.06741
 Alpha virt. eigenvalues --    0.07545   0.07945   0.08351   0.08572   0.09590
 Alpha virt. eigenvalues --    0.09909   0.11408   0.11572   0.12188   0.12290
 Alpha virt. eigenvalues --    0.12810   0.13060   0.14013   0.14741   0.15047
 Alpha virt. eigenvalues --    0.15449   0.16471   0.17392   0.17998   0.18394
 Alpha virt. eigenvalues --    0.19029   0.19667   0.19832   0.20255   0.20631
 Alpha virt. eigenvalues --    0.20776   0.21327   0.22189   0.22527   0.22887
 Alpha virt. eigenvalues --    0.23327   0.24016   0.24506   0.25303   0.25737
 Alpha virt. eigenvalues --    0.25928   0.27173   0.27591   0.28564   0.28965
 Alpha virt. eigenvalues --    0.29416   0.30234   0.30403   0.31127   0.31390
 Alpha virt. eigenvalues --    0.32552   0.32895   0.33383   0.33851   0.34499
 Alpha virt. eigenvalues --    0.34763   0.35719   0.36019   0.36630   0.37232
 Alpha virt. eigenvalues --    0.38627   0.39822   0.40271   0.40925   0.41370
 Alpha virt. eigenvalues --    0.42267   0.43073   0.44319   0.45137   0.45703
 Alpha virt. eigenvalues --    0.46595   0.63957   0.67501   0.67608   0.67982
 Alpha virt. eigenvalues --    0.68276   0.70257   0.71003   0.72870   0.74632
 Alpha virt. eigenvalues --    0.77215   0.77868   0.78960   0.80458   0.80728
 Alpha virt. eigenvalues --    0.83817   0.84661   0.85183   0.87723   0.88072
 Alpha virt. eigenvalues --    0.89833   0.90784   0.93179   0.93566   0.96162
 Alpha virt. eigenvalues --    0.98593   1.00167   1.02969   1.03301   1.03929
 Alpha virt. eigenvalues --    1.04532   1.06126   1.06909   1.07101   1.09864
 Alpha virt. eigenvalues --    1.11056   1.12829   1.14009   1.15048   1.15621
 Alpha virt. eigenvalues --    1.16466   1.17027   1.20301   1.23358   1.25931
 Alpha virt. eigenvalues --    1.26784   1.27692   1.28445   1.32120   1.32440
 Alpha virt. eigenvalues --    1.32951   1.35521   1.37914   1.40461   1.41026
 Alpha virt. eigenvalues --    1.43222   1.44696   1.45837   1.47927   1.50948
 Alpha virt. eigenvalues --    1.54043   1.55207   1.57907   1.58664   1.60229
 Alpha virt. eigenvalues --    1.62311   1.65279   1.66361   1.67593   1.72426
 Alpha virt. eigenvalues --    1.72797   1.75569   1.77231   1.77634   1.79248
 Alpha virt. eigenvalues --    1.80268   1.81443   1.82495   1.86033   1.86862
 Alpha virt. eigenvalues --    1.87327   1.88592   1.89643   1.91389   1.93913
 Alpha virt. eigenvalues --    1.97725   2.00146   2.00927   2.03003   2.03490
 Alpha virt. eigenvalues --    2.05179   2.06234   2.08298   2.09404   2.12131
 Alpha virt. eigenvalues --    2.12977   2.14472   2.15527   2.18210   2.19172
 Alpha virt. eigenvalues --    2.21561   2.23398   2.25902   2.26986   2.29351
 Alpha virt. eigenvalues --    2.30389   2.33337   2.36490   2.38312   2.40733
 Alpha virt. eigenvalues --    2.41726   2.43347   2.44464   2.45046   2.46562
 Alpha virt. eigenvalues --    2.48143   2.49025   2.49571   2.51792   2.53107
 Alpha virt. eigenvalues --    2.56125   2.57535   2.57987   2.60099   2.61571
 Alpha virt. eigenvalues --    2.64005   2.64701   2.67110   2.68861   2.70728
 Alpha virt. eigenvalues --    2.72120   2.72659   2.73905   2.75615   2.77555
 Alpha virt. eigenvalues --    2.79034   2.80722   2.82046   2.83905   2.84399
 Alpha virt. eigenvalues --    2.86215   2.88516   2.90237   2.91632   2.95699
 Alpha virt. eigenvalues --    2.97013   3.00060   3.02016   3.02394   3.03975
 Alpha virt. eigenvalues --    3.04941   3.06029   3.09408   3.17618   3.32329
 Alpha virt. eigenvalues --    3.34599   3.36893   3.39034   3.42533   3.44370
 Alpha virt. eigenvalues --    3.45695   3.49192   3.53308   3.53902   3.55338
 Alpha virt. eigenvalues --    3.58548   3.59259   3.61042   3.62762   4.30649
 Alpha virt. eigenvalues --    4.33506   4.34363   4.41694   4.53172   4.56687
 Alpha virt. eigenvalues --    4.59542   4.68949   4.78853   4.82261   4.87027
 Alpha virt. eigenvalues --    4.99890
          Condensed to atoms (all electrons):
              1          2          3          4          5          6
     1  C    6.275950  -0.712537   0.104585   0.151693   0.030914   0.023422
     2  C   -0.712537   8.129019  -0.263037  -0.200163  -0.017769  -0.914476
     3  N    0.104585  -0.263037   7.579511   0.081721  -0.086110  -0.149231
     4  C    0.151693  -0.200163   0.081721   6.167619  -0.165327  -0.471296
     5  C    0.030914  -0.017769  -0.086110  -0.165327   5.641558   0.133592
     6  C    0.023422  -0.914476  -0.149231  -0.471296   0.133592   9.968339
     7  C   -0.412390   1.196060  -0.245821  -0.195542   0.063452  -1.891094
     8  C    0.063807  -1.202023  -0.038220  -0.063627   0.169537   1.260969
     9  H    0.440280  -0.112353   0.014029   0.000394  -0.044300   0.016479
    10  H    0.417806  -0.123588   0.016940   0.025347  -0.031262   0.000390
    11  H    0.004122   0.240704  -0.014856  -0.024306   0.028293  -0.006306
    12  H    0.019383  -0.045608  -0.028158   0.370149  -0.036529   0.035995
    13  H    0.014639   0.043305  -0.063972   0.387169  -0.025209   0.007670
    14  H   -0.049315   0.033226   0.011444  -0.037255   0.375502   0.003455
    15  H   -0.028779  -0.027626   0.022279  -0.079650   0.413514   0.027284
    16  H    0.003566   0.030272  -0.069647   0.095620  -0.028221   0.223986
    17  H    0.014414  -0.003023   0.024119   0.000907  -0.000251   0.028261
    18  H    0.005804  -0.032146   0.013987  -0.001751  -0.003758   0.015317
    19  O   -0.020479  -0.187835   0.044055  -0.038677   0.052089  -0.009306
    20  H    0.018540  -0.024438   0.011512   0.012938  -0.018789   0.034208
    21  O    0.024373  -0.012239   0.046578   0.016296  -0.006586  -0.186905
    22  H    0.017805   0.027378   0.026224   0.009337  -0.003332  -0.034782
    23  C    0.091955   0.090646   0.172917   0.224189  -0.157093  -1.746558
    24  H    0.000645   0.011738   0.009970  -0.003758   0.000995  -0.148591
    25  H    0.002414  -0.002667   0.018383   0.016291  -0.002790  -0.136639
    26  O    0.000273   0.028356   0.020640  -0.016760  -0.003839  -0.183898
    27  H   -0.001104   0.009220   0.017416  -0.003938   0.006587  -0.069475
              7          8          9         10         11         12
     1  C   -0.412390   0.063807   0.440280   0.417806   0.004122   0.019383
     2  C    1.196060  -1.202023  -0.112353  -0.123588   0.240704  -0.045608
     3  N   -0.245821  -0.038220   0.014029   0.016940  -0.014856  -0.028158
     4  C   -0.195542  -0.063627   0.000394   0.025347  -0.024306   0.370149
     5  C    0.063452   0.169537  -0.044300  -0.031262   0.028293  -0.036529
     6  C   -1.891094   1.260969   0.016479   0.000390  -0.006306   0.035995
     7  C    8.456824  -1.633379  -0.018514  -0.001134   0.006984  -0.005523
     8  C   -1.633379   7.409579   0.037524   0.029931   0.033166   0.009056
     9  H   -0.018514   0.037524   0.518775  -0.023847  -0.007109   0.001278
    10  H   -0.001134   0.029931  -0.023847   0.503966   0.002638  -0.000028
    11  H    0.006984   0.033166  -0.007109   0.002638   0.556319   0.000864
    12  H   -0.005523   0.009056   0.001278  -0.000028   0.000864   0.543851
    13  H    0.015225  -0.023358  -0.000118  -0.000141  -0.000193  -0.031344
    14  H    0.004840  -0.001742  -0.005085   0.000956  -0.000036  -0.002916
    15  H   -0.017143   0.017364   0.004155  -0.005935  -0.000109   0.003999
    16  H   -0.027043  -0.028506  -0.000011  -0.000012  -0.000598  -0.000411
    17  H    0.243005   0.052932   0.000003  -0.000009  -0.000117   0.000003
    18  H    0.025746   0.301457  -0.000045   0.000240  -0.002768   0.000005
    19  O   -0.112691   0.377233   0.000129  -0.000926   0.008195   0.000252
    20  H   -0.031740  -0.035629  -0.000008  -0.000251  -0.000125  -0.000003
    21  O    0.376800  -0.120450  -0.000013  -0.000005  -0.001568   0.000071
    22  H   -0.020124  -0.031982   0.000009  -0.000002  -0.000765   0.000006
    23  C    0.337338  -0.520094  -0.001111   0.000548   0.004098  -0.002853
    24  H    0.035016  -0.003183   0.000000   0.000000  -0.000006  -0.000005
    25  H   -0.000043  -0.015988   0.000000   0.000000  -0.000027   0.000019
    26  O    0.092753  -0.043544  -0.000024   0.000003   0.000043  -0.000869
    27  H    0.009714  -0.001607   0.000000   0.000000  -0.000010  -0.000387
             13         14         15         16         17         18
     1  C    0.014639  -0.049315  -0.028779   0.003566   0.014414   0.005804
     2  C    0.043305   0.033226  -0.027626   0.030272  -0.003023  -0.032146
     3  N   -0.063972   0.011444   0.022279  -0.069647   0.024119   0.013987
     4  C    0.387169  -0.037255  -0.079650   0.095620   0.000907  -0.001751
     5  C   -0.025209   0.375502   0.413514  -0.028221  -0.000251  -0.003758
     6  C    0.007670   0.003455   0.027284   0.223986   0.028261   0.015317
     7  C    0.015225   0.004840  -0.017143  -0.027043   0.243005   0.025746
     8  C   -0.023358  -0.001742   0.017364  -0.028506   0.052932   0.301457
     9  H   -0.000118  -0.005085   0.004155  -0.000011   0.000003  -0.000045
    10  H   -0.000141   0.000956  -0.005935  -0.000012  -0.000009   0.000240
    11  H   -0.000193  -0.000036  -0.000109  -0.000598  -0.000117  -0.002768
    12  H   -0.031344  -0.002916   0.003999  -0.000411   0.000003   0.000005
    13  H    0.528149   0.000978  -0.006317   0.002625  -0.000013   0.000005
    14  H    0.000978   0.511301  -0.023123  -0.000126  -0.000001   0.000004
    15  H   -0.006317  -0.023123   0.537165  -0.000518   0.000026   0.000017
    16  H    0.002625  -0.000126  -0.000518   0.579943  -0.003988  -0.000162
    17  H   -0.000013  -0.000001   0.000026  -0.003988   0.526540  -0.002229
    18  H    0.000005   0.000004   0.000017  -0.000162  -0.002229   0.531422
    19  O    0.000097   0.000353   0.001938  -0.002895  -0.001547  -0.049282
    20  H    0.000064   0.000017   0.000852   0.001296  -0.001543   0.006485
    21  O   -0.000001   0.000004  -0.000003   0.008326  -0.044865  -0.003785
    22  H   -0.000002   0.000000   0.000001  -0.000073   0.006096  -0.000890
    23  C   -0.022910  -0.000276  -0.001764   0.044727  -0.028974   0.013839
    24  H   -0.000019   0.000000  -0.000001  -0.002464   0.001205  -0.000003
    25  H    0.000114   0.000000   0.000001   0.004495   0.000045   0.000002
    26  O    0.005605   0.000054  -0.000364   0.000717  -0.001019   0.000039
    27  H    0.000307  -0.000005   0.000002   0.000036   0.000005   0.000000
             19         20         21         22         23         24
     1  C   -0.020479   0.018540   0.024373   0.017805   0.091955   0.000645
     2  C   -0.187835  -0.024438  -0.012239   0.027378   0.090646   0.011738
     3  N    0.044055   0.011512   0.046578   0.026224   0.172917   0.009970
     4  C   -0.038677   0.012938   0.016296   0.009337   0.224189  -0.003758
     5  C    0.052089  -0.018789  -0.006586  -0.003332  -0.157093   0.000995
     6  C   -0.009306   0.034208  -0.186905  -0.034782  -1.746558  -0.148591
     7  C   -0.112691  -0.031740   0.376800  -0.020124   0.337338   0.035016
     8  C    0.377233  -0.035629  -0.120450  -0.031982  -0.520094  -0.003183
     9  H    0.000129  -0.000008  -0.000013   0.000009  -0.001111   0.000000
    10  H   -0.000926  -0.000251  -0.000005  -0.000002   0.000548   0.000000
    11  H    0.008195  -0.000125  -0.001568  -0.000765   0.004098  -0.000006
    12  H    0.000252  -0.000003   0.000071   0.000006  -0.002853  -0.000005
    13  H    0.000097   0.000064  -0.000001  -0.000002  -0.022910  -0.000019
    14  H    0.000353   0.000017   0.000004   0.000000  -0.000276   0.000000
    15  H    0.001938   0.000852  -0.000003   0.000001  -0.001764  -0.000001
    16  H   -0.002895   0.001296   0.008326  -0.000073   0.044727  -0.002464
    17  H   -0.001547  -0.001543  -0.044865   0.006096  -0.028974   0.001205
    18  H   -0.049282   0.006485  -0.003785  -0.000890   0.013839  -0.000003
    19  O    8.155471   0.256948   0.003703   0.000180   0.024571  -0.000132
    20  H    0.256948   0.371480   0.000195  -0.000032   0.029119  -0.000005
    21  O    0.003703   0.000195   8.136893   0.268855  -0.002917  -0.003571
    22  H    0.000180  -0.000032   0.268855   0.352358   0.001126   0.000367
    23  C    0.024571   0.029119  -0.002917   0.001126   6.565734   0.476439
    24  H   -0.000132  -0.000005  -0.003571   0.000367   0.476439   0.541428
    25  H    0.000057   0.000004   0.007948  -0.000494   0.472252  -0.031326
    26  O   -0.000060   0.000265  -0.002629  -0.000411   0.220862  -0.061050
    27  H   -0.000022  -0.000001  -0.000065   0.000026   0.025657   0.006674
             25         26         27
     1  C    0.002414   0.000273  -0.001104
     2  C   -0.002667   0.028356   0.009220
     3  N    0.018383   0.020640   0.017416
     4  C    0.016291  -0.016760  -0.003938
     5  C   -0.002790  -0.003839   0.006587
     6  C   -0.136639  -0.183898  -0.069475
     7  C   -0.000043   0.092753   0.009714
     8  C   -0.015988  -0.043544  -0.001607
     9  H    0.000000  -0.000024   0.000000
    10  H    0.000000   0.000003   0.000000
    11  H   -0.000027   0.000043  -0.000010
    12  H    0.000019  -0.000869  -0.000387
    13  H    0.000114   0.005605   0.000307
    14  H    0.000000   0.000054  -0.000005
    15  H    0.000001  -0.000364   0.000002
    16  H    0.004495   0.000717   0.000036
    17  H    0.000045  -0.001019   0.000005
    18  H    0.000002   0.000039   0.000000
    19  O    0.000057  -0.000060  -0.000022
    20  H    0.000004   0.000265  -0.000001
    21  O    0.007948  -0.002629  -0.000065
    22  H   -0.000494  -0.000411   0.000026
    23  C    0.472252   0.220862   0.025657
    24  H   -0.031326  -0.061050   0.006674
    25  H    0.552284  -0.043434  -0.007346
    26  O   -0.043434   8.273438   0.260263
    27  H   -0.007346   0.260263   0.372330
 Mulliken atomic charges:
              1
     1  C   -0.501785
     2  C    0.041604
     3  N   -0.277256
     4  C   -0.257616
     5  C   -0.284869
     6  C    0.169192
     7  C   -0.251574
     8  C    0.000778
     9  H    0.179483
    10  H    0.188376
    11  H    0.173471
    12  H    0.169702
    13  H    0.167645
    14  H    0.177744
    15  H    0.162734
    16  H    0.169067
    17  H    0.190018
    18  H    0.182453
    19  O   -0.501416
    20  H    0.368642
    21  O   -0.504441
    22  H    0.383121
    23  C   -0.311467
    24  H    0.169637
    25  H    0.166445
    26  O   -0.545411
    27  H    0.375723
 Sum of Mulliken atomic charges =   0.00000
 Mulliken charges with hydrogens summed into heavy atoms:
              1
     1  C   -0.133926
     2  C    0.215075
     3  N   -0.277256
     4  C    0.079732
     5  C    0.055610
     6  C    0.338259
     7  C   -0.061556
     8  C    0.183230
    19  O   -0.132774
    21  O   -0.121320
    23  C    0.024615
    26  O   -0.169688
 Sum of Mulliken charges with hydrogens summed into heavy atoms =   0.00000
 Electronic spatial extent (au):  <R**2>=           1989.6061
 Charge=              0.0000 electrons
 Dipole moment (field-independent basis, Debye):
    X=              2.1360    Y=             -2.4616    Z=             -1.3091  Tot=              3.5122
 Quadrupole moment (field-independent basis, Debye-Ang):
   XX=            -83.2402   YY=            -78.9248   ZZ=            -70.3302
   XY=             -4.9911   XZ=             -0.5925   YZ=              0.7058
 Traceless Quadrupole moment (field-independent basis, Debye-Ang):
   XX=             -5.7418   YY=             -1.4264   ZZ=              7.1682
   XY=             -4.9911   XZ=             -0.5925   YZ=              0.7058
 Octapole moment (field-independent basis, Debye-Ang**2):
  XXX=             18.2521  YYY=            -28.4859  ZZZ=             -1.5949  XYY=              9.1816
  XXY=              3.5922  XXZ=            -16.7166  XZZ=             -4.6034  YZZ=              3.0711
  YYZ=             -7.7943  XYZ=            -18.8866
 Hexadecapole moment (field-independent basis, Debye-Ang**3):
 XXXX=          -1420.3417 YYYY=           -971.7675 ZZZZ=           -280.0755 XXXY=            -58.7480
 XXXZ=             18.8567 YYYX=             35.2066 YYYZ=             23.8336 ZZZX=             13.4499
 ZZZY=            -17.9211 XXYY=           -413.8150 XXZZ=           -270.7541 YYZZ=           -219.1861
 XXYZ=             20.3107 YYXZ=             -7.3308 ZZXY=            -15.7462
 N-N= 8.111737907311D+02 E-N=-3.007557670990D+03  KE= 5.886498153873D+02
 1\1\GINC-COMPUTE-3-2\SP\RmPW1PW91\6-31+G(d,p)\C8H15N1O3\MAMICHETTI.IQU
 IR\17-May-2024\0\\# mpw1pw91/6-31+G** nmr scrf=(pcm,solvent=water)\\co
 mment\\0,1\C,0,-2.384392,0.60574,-0.553124\C,0,-1.141221,-0.26486,-0.8
 27502\N,0,0.060312,0.615451,-0.607864\C,0,-0.433144,1.954025,-0.212033
 \C,0,-1.855148,1.749692,0.327724\C,0,0.956162,-0.049421,0.366579\C,0,0
 .596406,-1.540573,0.245499\C,0,-0.935816,-1.496521,0.086912\H,0,-2.771
 923,1.005615,-1.496696\H,0,-3.185213,0.033812,-0.076606\H,0,-1.151131,
 -0.622253,-1.864604\H,0,-0.458695,2.611353,-1.09186\H,0,0.246154,2.408
 66,0.513912\H,0,-2.466143,2.65631,0.267603\H,0,-1.820361,1.43914,1.379
 148\H,0,0.728737,0.26661,1.400233\H,0,0.89171,-2.10914,1.13022\H,0,-1.
 309388,-2.412413,-0.377407\O,0,-1.596484,-1.424954,1.35493\H,0,-1.2434
 13,-0.668038,1.852265\O,0,1.227589,-2.194336,-0.862756\H,0,1.043221,-1
 .675518,-1.664312\C,0,2.437738,0.239848,0.128676\H,0,3.037179,-0.37929
 7,0.804928\H,0,2.71209,-0.015266,-0.901916\O,0,2.801784,1.596015,0.418
 321\H,0,2.418378,2.150883,-0.280216\\Version=AM64L-G09RevC.01\State=1-
 A\HF=-594.1926499\RMSD=3.749e-09\Dipole=-0.8403706,0.9684722,-0.515032
 \Quadrupole=-4.268885,-1.0604733,5.3293584,-3.7107786,0.4404958,-0.524
 7732\PG=C01 [X(C8H15N1O3)]\\@


 THERE ARE PEOPLE SO ADDICTED TO EXAGERATING THEY
 CAN'T TELL THE TRUTH WITHOUT LYING. -- FORTUNE COOKIE
 Job cpu time:  0 days  0 hours  8 minutes 52.3 seconds.
 File lengths (MBytes):  RWF=    111 Int=      0 D2E=      0 Chk=      7 Scr=      1
 Normal termination of Gaussian 09 at Fri May 17 12:24:34 2024.
