 Entering Gaussian System, Link 0=g09
 Input=/home/mamichetti.iquir/Linux/03_Cardona_A1A3_R__S_S_R_029_OptB.gjc
 Output=/home/mamichetti.iquir/Linux/03_Cardona_A1A3_R__S_S_R_029_OptB.log
 Initial command:
 /opt/ohpc/pub/apps/software/Gaussian/09/AMD64.SSE4a-enabled/g09/l1.exe /local/mamichetti.iquir/Gau-125779.inp -scrdir=/local/mamichetti.iquir/
 Entering Link 1 = /opt/ohpc/pub/apps/software/Gaussian/09/AMD64.SSE4a-enabled/g09/l1.exe PID=    125780.
  
 Copyright (c) 1988,1990,1992,1993,1995,1998,2003,2009,2011,
            Gaussian, Inc.  All Rights Reserved.
  
 This is part of the Gaussian(R) 09 program.  It is based on
 the Gaussian(R) 03 system (copyright 2003, Gaussian, Inc.),
 the Gaussian(R) 98 system (copyright 1998, Gaussian, Inc.),
 the Gaussian(R) 94 system (copyright 1995, Gaussian, Inc.),
 the Gaussian 92(TM) system (copyright 1992, Gaussian, Inc.),
 the Gaussian 90(TM) system (copyright 1990, Gaussian, Inc.),
 the Gaussian 88(TM) system (copyright 1988, Gaussian, Inc.),
 the Gaussian 86(TM) system (copyright 1986, Carnegie Mellon
 University), and the Gaussian 82(TM) system (copyright 1983,
 Carnegie Mellon University). Gaussian is a federally registered
 trademark of Gaussian, Inc.
  
 This software contains proprietary and confidential information,
 including trade secrets, belonging to Gaussian, Inc.
  
 This software is provided under written license and may be
 used, copied, transmitted, or stored only in accord with that
 written license.
  
 The following legend is applicable only to US Government
 contracts under FAR:
  
                    RESTRICTED RIGHTS LEGEND
  
 Use, reproduction and disclosure by the US Government is
 subject to restrictions as set forth in subparagraphs (a)
 and (c) of the Commercial Computer Software - Restricted
 Rights clause in FAR 52.227-19.
  
 Gaussian, Inc.
 340 Quinnipiac St., Bldg. 40, Wallingford CT 06492
  
  
 ---------------------------------------------------------------
 Warning -- This program may not be used in any manner that
 competes with the business of Gaussian, Inc. or will provide
 assistance to any competitor of Gaussian, Inc.  The licensee
 of this program is prohibited from giving any competitor of
 Gaussian, Inc. access to this program.  By using this program,
 the user acknowledges that Gaussian, Inc. is engaged in the
 business of creating and licensing software in the field of
 computational chemistry and represents and warrants to the
 licensee that it is not a competitor of Gaussian, Inc. and that
 it will not use this program in any manner prohibited above.
 ---------------------------------------------------------------
  

 Cite this work as:
 Gaussian 09, Revision C.01,
 M. J. Frisch, G. W. Trucks, H. B. Schlegel, G. E. Scuseria, 
 M. A. Robb, J. R. Cheeseman, G. Scalmani, V. Barone, B. Mennucci, 
 G. A. Petersson, H. Nakatsuji, M. Caricato, X. Li, H. P. Hratchian, 
 A. F. Izmaylov, J. Bloino, G. Zheng, J. L. Sonnenberg, M. Hada, 
 M. Ehara, K. Toyota, R. Fukuda, J. Hasegawa, M. Ishida, T. Nakajima, 
 Y. Honda, O. Kitao, H. Nakai, T. Vreven, J. A. Montgomery, Jr., 
 J. E. Peralta, F. Ogliaro, M. Bearpark, J. J. Heyd, E. Brothers, 
 K. N. Kudin, V. N. Staroverov, T. Keith, R. Kobayashi, J. Normand, 
 K. Raghavachari, A. Rendell, J. C. Burant, S. S. Iyengar, J. Tomasi, 
 M. Cossi, N. Rega, J. M. Millam, M. Klene, J. E. Knox, J. B. Cross, 
 V. Bakken, C. Adamo, J. Jaramillo, R. Gomperts, R. E. Stratmann, 
 O. Yazyev, A. J. Austin, R. Cammi, C. Pomelli, J. W. Ochterski, 
 R. L. Martin, K. Morokuma, V. G. Zakrzewski, G. A. Voth, 
 P. Salvador, J. J. Dannenberg, S. Dapprich, A. D. Daniels, 
 O. Farkas, J. B. Foresman, J. V. Ortiz, J. Cioslowski, 
 and D. J. Fox, Gaussian, Inc., Wallingford CT, 2010.
 
 ******************************************
 Gaussian 09:  AM64L-G09RevC.01 23-Sep-2011
                17-May-2024 
 ******************************************
 %nprocshared=4
 Will use up to    4 processors via shared memory.
 ------------------------------------------------
 # mpw1pw91/6-31+G** nmr scrf=(pcm,solvent=water)
 ------------------------------------------------
 1/38=1/1;
 2/12=2,17=6,18=5,40=1/2;
 3/5=1,6=6,7=111,11=2,16=1,25=1,30=1,70=2201,72=1,74=-7/1,2,8,3;
 4//1;
 5/5=2,38=5,53=1/2;
 8/6=1,10=90,11=11/1;
 10/13=100,45=16/2;
 6/7=2,8=2,9=2,10=2,28=1/1;
 99/9=1/99;
 -------
 comment
 -------
 Charge =  0 Multiplicity = 1
 Symbolic Z-Matrix:
 6                    -2.4556    0.4421    0.04312 
 6                    -1.12588   0.26598   0.79316 
 7                    -0.56529  -1.05785   0.33707 
 6                    -1.54628  -1.66475  -0.59613 
 6                    -2.87822  -1.00651  -0.23781 
 6                     0.77381  -0.83001  -0.25249 
 6                     0.77089   0.66136  -0.63648 
 6                    -0.02694   1.31082   0.4914 
 1                    -3.19058   1.00753   0.62425 
 1                    -2.29589   0.97413  -0.90146 
 1                    -1.31756   0.22871   1.8721 
 1                    -1.56572  -2.75545  -0.48701 
 1                    -1.29143  -1.44464  -1.64468 
 1                    -3.301    -1.46455   0.66483 
 1                    -3.6164   -1.09528  -1.04099 
 1                     0.89668  -1.46127  -1.13843 
 1                     0.20764   0.7914   -1.57199 
 1                     0.62618   1.43095   1.36529 
 8                    -0.48812   2.59463   0.06902 
 1                    -0.84157   3.04979   0.85143 
 8                     2.09259   1.18507  -0.79854 
 1                     2.02297   2.15376  -0.84691 
 6                     1.88972  -1.21113   0.73439 
 1                     1.83205  -0.59357   1.6432 
 1                     1.75041  -2.25285   1.03886 
 8                     3.19142  -1.1257    0.1469 
 1                     3.26512  -0.20292  -0.16198 
 
                          Input orientation:                          
 ---------------------------------------------------------------------
 Center     Atomic      Atomic             Coordinates (Angstroms)
 Number     Number       Type             X           Y           Z
 ---------------------------------------------------------------------
      1          6           0       -2.455603    0.442103    0.043122
      2          6           0       -1.125883    0.265979    0.793160
      3          7           0       -0.565291   -1.057850    0.337068
      4          6           0       -1.546276   -1.664754   -0.596127
      5          6           0       -2.878223   -1.006506   -0.237806
      6          6           0        0.773810   -0.830008   -0.252491
      7          6           0        0.770887    0.661361   -0.636480
      8          6           0       -0.026935    1.310824    0.491404
      9          1           0       -3.190582    1.007528    0.624254
     10          1           0       -2.295886    0.974130   -0.901461
     11          1           0       -1.317555    0.228712    1.872099
     12          1           0       -1.565723   -2.755446   -0.487008
     13          1           0       -1.291434   -1.444643   -1.644683
     14          1           0       -3.301004   -1.464549    0.664829
     15          1           0       -3.616398   -1.095284   -1.040993
     16          1           0        0.896683   -1.461272   -1.138430
     17          1           0        0.207644    0.791396   -1.571986
     18          1           0        0.626175    1.430946    1.365294
     19          8           0       -0.488116    2.594628    0.069016
     20          1           0       -0.841571    3.049788    0.851425
     21          8           0        2.092590    1.185070   -0.798544
     22          1           0        2.022974    2.153765   -0.846910
     23          6           0        1.889722   -1.211130    0.734385
     24          1           0        1.832051   -0.593570    1.643203
     25          1           0        1.750405   -2.252853    1.038862
     26          8           0        3.191419   -1.125697    0.146904
     27          1           0        3.265120   -0.202919   -0.161977
 ---------------------------------------------------------------------
                    Distance matrix (angstroms):
                    1          2          3          4          5
     1  C    0.000000
     2  C    1.536793   0.000000
     3  N    2.430955   1.508246   0.000000
     4  C    2.382092   2.415487   1.483751   0.000000
     5  C    1.534925   2.398500   2.383856   1.528322   0.000000
     6  C    3.483498   2.429693   1.480771   2.489515   3.656325
     7  C    3.304568   2.407890   2.385132   3.283547   4.031963
     8  C    2.618026   1.546106   2.433981   3.513572   3.745879
     9  H    1.094356   2.200320   3.352673   3.366625   2.212928
    10  H    1.095810   2.177642   2.942423   2.760227   2.168519
    11  H    2.164681   1.096465   2.139501   3.119241   2.900543
    12  H    3.361137   3.310785   2.135837   1.096309   2.200806
    13  H    2.786357   2.982736   2.145747   1.101301   2.165448
    14  H    2.176360   2.782507   2.785131   2.170060   1.096949
    15  H    2.210500   3.379322   3.348090   2.192626   1.094483
    16  H    4.031963   3.287128   2.115942   2.510686   3.907410
    17  H    3.134241   2.765551   2.767964   3.171941   3.812488
    18  H    3.496184   2.180411   2.944647   4.260290   4.559814
    19  O    2.916340   2.520662   3.663114   4.438970   4.333003
    20  H    3.171510   2.798896   4.148926   4.981859   4.667751
    21  O    4.684705   3.706321   3.658502   4.626426   5.461356
    22  H    4.876433   4.021053   4.291316   5.232927   5.863451
    23  C    4.700306   3.358449   2.491675   3.712428   4.870352
    24  H    4.692212   3.195430   2.769259   4.192270   5.088752
    25  H    5.093603   3.831177   2.698702   3.726547   4.960591
    26  O    5.861538   4.581867   3.762132   4.825809   6.082990
    27  H    5.760624   4.518081   3.956261   5.047274   6.196141
                    6          7          8          9         10
     6  C    0.000000
     7  C    1.540012   0.000000
     8  C    2.403692   1.526579   0.000000
     9  H    4.456638   4.171633   3.180928   0.000000
    10  H    3.619269   3.094048   2.683575   1.769012   0.000000
    11  H    3.163634   3.292680   2.177840   2.381575   3.034043
    12  H    3.039033   4.142060   4.456423   4.246769   3.822911
    13  H    2.565386   3.115268   3.708696   3.842913   2.722456
    14  H    4.224716   4.774222   4.295614   2.474875   3.067683
    15  H    4.468337   4.743174   4.584958   2.715913   2.458800
    16  H    1.094751   2.184800   3.345735   5.089967   4.022416
    17  H    2.165771   1.099692   2.140657   4.051928   2.598203
    18  H    2.784051   2.149489   1.097573   3.911017   3.726298
    19  O    3.663872   2.412537   1.428024   3.182844   2.614550
    20  H    4.345216   3.243218   1.953777   3.120943   3.081558
    21  O    2.469391   1.430886   2.484384   5.474284   4.394748
    22  H    3.288867   1.959406   2.589162   5.537088   4.477395
    23  C    1.537673   2.576293   3.176927   5.544733   4.997066
    24  H    2.183903   2.810316   2.899860   5.369228   5.096358
    25  H    2.155416   3.501267   4.019756   5.934251   5.527273
    26  O    2.468153   3.109058   4.051311   6.745995   5.968154
    27  H    2.570615   2.682039   3.681841   6.615091   5.732109
                   11         12         13         14         15
    11  H    0.000000
    12  H    3.812109   0.000000
    13  H    3.894683   1.770212   0.000000
    14  H    2.873796   2.450376   3.061472   0.000000
    15  H    3.940019   2.695979   2.427334   1.773600   0.000000
    16  H    4.101485   2.857040   2.245980   4.568625   4.528945
    17  H    3.808486   4.111216   2.693026   4.733206   4.297070
    18  H    2.341005   5.075561   4.583252   4.929227   5.492857
    19  O    3.088144   5.485772   4.460694   4.974359   4.963237
    20  H    3.037566   6.001378   5.160702   5.144207   5.335029
    21  O    4.435769   5.385905   4.368405   6.184885   6.152344
    22  H    4.717836   6.091685   4.956842   6.612283   6.511260
    23  C    3.695154   3.977036   3.979227   5.197374   5.786428
    24  H    3.263213   4.555916   4.614182   5.297554   6.094442
    25  H    4.032968   3.684777   4.136109   5.126213   5.870974
    26  O    5.014137   5.068365   4.838128   6.521857   6.910745
    27  H    5.032363   5.473398   4.949998   6.737158   6.994589
                   16         17         18         19         20
    16  H    0.000000
    17  H    2.395258   0.000000
    18  H    3.834936   3.035096   0.000000
    19  O    4.452631   2.535471   2.067882   0.000000
    20  H    5.227878   3.474782   2.244769   0.971733   0.000000
    21  O    2.923840   2.075142   2.625457   3.065870   3.848230
    22  H    3.797632   2.382689   2.714288   2.709032   3.448596
    23  C    2.134510   3.486953   2.995858   4.536587   5.062517
    24  H    3.060278   3.859309   2.372770   4.245686   4.587943
    25  H    2.469016   4.296986   3.865336   5.426753   5.905207
    26  O    2.651510   3.941160   3.821174   5.233150   5.847737
    27  H    2.854191   3.510690   3.459205   4.686833   5.335916
                   21         22         23         24         25
    21  O    0.000000
    22  H    0.972397   0.000000
    23  C    2.851807   3.720318   0.000000
    24  H    3.032090   3.712811   1.100298   0.000000
    25  H    3.913115   4.800907   1.094213   1.767799   0.000000
    26  O    2.727809   3.620470   1.430681   2.090443   2.035336
    27  H    1.925242   2.750640   1.926571   2.337727   2.817553
                   26         27
    26  O    0.000000
    27  H    0.975889   0.000000
 Stoichiometry    C8H15NO3
 Framework group  C1[X(C8H15NO3)]
 Deg. of freedom    75
 Full point group                 C1      NOp   1
 Largest Abelian subgroup         C1      NOp   1
 Largest concise Abelian subgroup C1      NOp   1
                         Standard orientation:                         
 ---------------------------------------------------------------------
 Center     Atomic      Atomic             Coordinates (Angstroms)
 Number     Number       Type             X           Y           Z
 ---------------------------------------------------------------------
      1          6           0       -2.455603    0.442103    0.043122
      2          6           0       -1.125883    0.265979    0.793160
      3          7           0       -0.565291   -1.057850    0.337068
      4          6           0       -1.546276   -1.664754   -0.596127
      5          6           0       -2.878223   -1.006506   -0.237806
      6          6           0        0.773810   -0.830008   -0.252491
      7          6           0        0.770887    0.661361   -0.636480
      8          6           0       -0.026935    1.310824    0.491404
      9          1           0       -3.190582    1.007528    0.624254
     10          1           0       -2.295886    0.974130   -0.901461
     11          1           0       -1.317555    0.228712    1.872099
     12          1           0       -1.565723   -2.755446   -0.487008
     13          1           0       -1.291434   -1.444643   -1.644683
     14          1           0       -3.301004   -1.464549    0.664829
     15          1           0       -3.616398   -1.095284   -1.040993
     16          1           0        0.896683   -1.461272   -1.138430
     17          1           0        0.207644    0.791396   -1.571986
     18          1           0        0.626175    1.430946    1.365294
     19          8           0       -0.488116    2.594628    0.069016
     20          1           0       -0.841571    3.049788    0.851425
     21          8           0        2.092590    1.185070   -0.798544
     22          1           0        2.022974    2.153765   -0.846910
     23          6           0        1.889722   -1.211130    0.734385
     24          1           0        1.832051   -0.593570    1.643203
     25          1           0        1.750405   -2.252853    1.038862
     26          8           0        3.191419   -1.125697    0.146904
     27          1           0        3.265120   -0.202919   -0.161977
 ---------------------------------------------------------------------
 Rotational constants (GHZ):      1.3815910      0.7863063      0.5685927
 Standard basis: 6-31+G(d,p) (6D, 7F)
 There are   303 symmetry adapted basis functions of A   symmetry.
 Integral buffers will be    131072 words long.
 Raffenetti 2 integral format.
 Two-electron integral symmetry is turned on.
   303 basis functions,   489 primitive gaussians,   303 cartesian basis functions
    47 alpha electrons       47 beta electrons
       nuclear repulsion energy       805.3602141102 Hartrees.
 NAtoms=   27 NActive=   27 NUniq=   27 SFac= 1.00D+00 NAtFMM=   60 NAOKFM=F Big=F
 ------------------------------------------------------------------------------
 Polarizable Continuum Model (PCM)
 =================================
 Model                : PCM.
 Atomic radii         : UFF (Universal Force Field).
 Polarization charges : Total charges.
 Charge compensation  : None.
 Solution method      : Matrix inversion.
 Cavity type          : Scaled VdW (van der Waals Surface) (Alpha=1.100).
 Cavity algorithm     : GePol (No added spheres)
                        Default sphere list used, NSphG=   27.
                        Lebedev-Laikov grids with approx.  5.0 points / Ang**2.
                        Smoothing algorithm: Karplus/York (Gamma=1.0000).
                        Polarization charges: spherical gaussians, with
                                              point-specific exponents (IZeta= 3).
                        Self-potential: point-specific (ISelfS= 7).
                        Self-field    : sphere-specific E.n sum rule (ISelfD= 2).
 Solvent              : Water, Eps=  78.355300 Eps(inf)=   1.777849
 ------------------------------------------------------------------------------
 One-electron integrals computed using PRISM.
 NBasis=   303 RedAO= T  NBF=   303
 NBsUse=   303 1.00D-06 NBFU=   303
 Harris functional with IExCor=  908 diagonalized for initial guess.
 ExpMin= 4.38D-02 ExpMax= 5.48D+03 ExpMxC= 8.25D+02 IAcc=2 IRadAn=         4 AccDes= 0.00D+00
 HarFok:  IExCor=  908 AccDes= 0.00D+00 IRadAn=         4 IDoV= 1
 ScaDFX=  1.000000  1.000000  1.000000  1.000000
 FoFCou: FMM=F IPFlag=           0 FMFlag=      100000 FMFlg1=           0
         NFxFlg=           0 DoJE=T BraDBF=F KetDBF=T FulRan=T
         Omega=  0.000000  0.000000  1.000000  0.000000  0.000000 ICntrl=     500 IOpCl=  0
         NMat0=    1 NMatS0=    1 NMatT0=    0 NMatD0=    1 NMtDS0=    0 NMtDT0=    0
         I1Cent=           4 NGrid=           0.
 Petite list used in FoFCou.
 Initial guess orbital symmetries:
       Occupied  (A) (A) (A) (A) (A) (A) (A) (A) (A) (A) (A) (A)
                 (A) (A) (A) (A) (A) (A) (A) (A) (A) (A) (A) (A)
                 (A) (A) (A) (A) (A) (A) (A) (A) (A) (A) (A) (A)
                 (A) (A) (A) (A) (A) (A) (A) (A) (A) (A) (A)
       Virtual   (A) (A) (A) (A) (A) (A) (A) (A) (A) (A) (A) (A)
                 (A) (A) (A) (A) (A) (A) (A) (A) (A) (A) (A) (A)
                 (A) (A) (A) (A) (A) (A) (A) (A) (A) (A) (A) (A)
                 (A) (A) (A) (A) (A) (A) (A) (A) (A) (A) (A) (A)
                 (A) (A) (A) (A) (A) (A) (A) (A) (A) (A) (A) (A)
                 (A) (A) (A) (A) (A) (A) (A) (A) (A) (A) (A) (A)
                 (A) (A) (A) (A) (A) (A) (A) (A) (A) (A) (A) (A)
                 (A) (A) (A) (A) (A) (A) (A) (A) (A) (A) (A) (A)
                 (A) (A) (A) (A) (A) (A) (A) (A) (A) (A) (A) (A)
                 (A) (A) (A) (A) (A) (A) (A) (A) (A) (A) (A) (A)
                 (A) (A) (A) (A) (A) (A) (A) (A) (A) (A) (A) (A)
                 (A) (A) (A) (A) (A) (A) (A) (A) (A) (A) (A) (A)
                 (A) (A) (A) (A) (A) (A) (A) (A) (A) (A) (A) (A)
                 (A) (A) (A) (A) (A) (A) (A) (A) (A) (A) (A) (A)
                 (A) (A) (A) (A) (A) (A) (A) (A) (A) (A) (A) (A)
                 (A) (A) (A) (A) (A) (A) (A) (A) (A) (A) (A) (A)
                 (A) (A) (A) (A) (A) (A) (A) (A) (A) (A) (A) (A)
                 (A) (A) (A) (A) (A) (A) (A) (A) (A) (A) (A) (A)
                 (A) (A) (A) (A) (A) (A) (A) (A) (A) (A) (A) (A)
                 (A) (A) (A) (A) (A) (A) (A) (A) (A) (A) (A) (A)
                 (A) (A) (A) (A) (A) (A) (A) (A) (A) (A) (A) (A)
                 (A) (A) (A) (A)
 The electronic state of the initial guess is 1-A.
 Requested convergence on RMS density matrix=1.00D-08 within 128 cycles.
 Requested convergence on MAX density matrix=1.00D-06.
 Requested convergence on             energy=1.00D-06.
 No special actions if energy rises.
 Error on total polarization charges =  0.01452
 SCF Done:  E(RmPW1PW91) =  -594.197019401     A.U. after   13 cycles
             Convg  =    0.7173D-08             -V/T =  2.0094
 Range of M.O.s used for correlation:     1   303
 NBasis=   303 NAE=    47 NBE=    47 NFC=     0 NFV=     0
 NROrb=    303 NOA=    47 NOB=    47 NVA=   256 NVB=   256

 **** Warning!!: The largest alpha MO coefficient is  0.70256185D+02

 NEqPCM:  Using equilibrium solvation (IEInf=0, Eps=  78.3553, EpsInf=   1.7778)
          Differentiating once with respect to magnetic field using GIAOs.
          Electric field/nuclear overlap derivatives assumed to be zero.
 FoFCou: FMM=F IPFlag=           0 FMFlag=    10101102 FMFlg1=           0
         NFxFlg=    40000000 DoJE=F BraDBF=F KetDBF=T FulRan=T
         Omega=  0.000000  0.000000  1.000000  0.000000  0.000000 ICntrl=    6100 IOpCl=  0
         NMat0=    1 NMatS0=    1 NMatT0=    0 NMatD0=    1 NMtDS0=    0 NMtDT0=    0
         I1Cent=           7 NGrid=        1838.
 Symmetry not used in FoFCou.
          There are     3 degrees of freedom in the 1st order CPHF.  IDoFFX=0.
      3 vectors produced by pass  0 Test12= 4.01D-13 3.33D-08 XBig12= 3.19D+01 9.14D-01.
 AX will form     3 AO Fock derivatives at one time.
      3 vectors produced by pass  1 Test12= 4.01D-13 3.33D-08 XBig12= 8.72D-02 6.49D-02.
      3 vectors produced by pass  2 Test12= 4.01D-13 3.33D-08 XBig12= 1.62D-04 3.19D-03.
      3 vectors produced by pass  3 Test12= 4.01D-13 3.33D-08 XBig12= 6.47D-07 1.92D-04.
      3 vectors produced by pass  4 Test12= 4.01D-13 3.33D-08 XBig12= 2.13D-09 1.12D-05.
      3 vectors produced by pass  5 Test12= 4.01D-13 3.33D-08 XBig12= 6.45D-12 5.69D-07.
 Inverted reduced A of dimension    18 with in-core refinement.
 Calculating GIAO nuclear magnetic shielding tensors.
 SCF GIAO Magnetic shielding tensor (ppm):
      1  C    Isotropic =   166.3764   Anisotropy =    19.0093
   XX=   172.1196   YX=     3.8052   ZX=     7.9440
   XY=    -4.9328   YY=   175.4144   ZY=    11.2784
   XZ=     9.6278   YZ=     5.4553   ZZ=   151.5952
   Eigenvalues:   146.1246   173.9554   179.0493
      2  C    Isotropic =   129.8837   Anisotropy =    51.5637
   XX=   132.2287   YX=    -6.2074   ZX=    -1.7456
   XY=   -12.3900   YY=   159.7003   ZY=    12.0223
   XZ=     6.4867   YZ=    11.5725   ZZ=    97.7220
   Eigenvalues:    95.1048   130.2868   164.2595
      3  N    Isotropic =   199.8942   Anisotropy =    73.3748
   XX=   237.2013   YX=    -8.2007   ZX=   -14.1115
   XY=    -5.7890   YY=   207.4870   ZY=    39.9713
   XZ=   -23.4541   YZ=    34.4261   ZZ=   154.9943
   Eigenvalues:   133.9199   216.9519   248.8107
      4  C    Isotropic =   136.9644   Anisotropy =    58.1516
   XX=   158.6916   YX=     2.5514   ZX=    18.0620
   XY=    17.3307   YY=   120.4516   ZY=    18.1070
   XZ=    18.2688   YZ=    30.5010   ZZ=   131.7499
   Eigenvalues:   100.8995   134.2616   175.7321
      5  C    Isotropic =   167.3575   Anisotropy =    19.4442
   XX=   178.8553   YX=    -2.7338   ZX=     7.6688
   XY=     0.8555   YY=   174.6361   ZY=    15.7973
   XZ=    -2.2510   YZ=    10.9865   ZZ=   148.5811
   Eigenvalues:   142.6991   179.0531   180.3203
      6  C    Isotropic =   129.5882   Anisotropy =    55.5862
   XX=   160.2318   YX=     4.5692   ZX=   -17.0489
   XY=     6.3998   YY=   103.5595   ZY=     5.4072
   XZ=   -14.2134   YZ=    -7.5836   ZZ=   124.9732
   Eigenvalues:   103.0241   119.0947   166.6457
      7  C    Isotropic =   117.8940   Anisotropy =    54.6255
   XX=   142.9017   YX=     6.3125   ZX=   -16.1795
   XY=    18.3244   YY=   116.7229   ZY=     0.9230
   XZ=   -25.2237   YZ=    -3.1729   ZZ=    94.0573
   Eigenvalues:    86.1065   113.2645   154.3110
      8  C    Isotropic =   116.6632   Anisotropy =    33.4665
   XX=   120.4671   YX=    -2.7480   ZX=   -15.7990
   XY=   -15.1434   YY=   134.4813   ZY=    -9.1571
   XZ=   -11.0481   YZ=     0.9878   ZZ=    95.0413
   Eigenvalues:    88.0924   122.9231   138.9742
      9  H    Isotropic =    29.9738   Anisotropy =    10.8289
   XX=    33.0122   YX=    -3.3477   ZX=    -2.7481
   XY=    -4.0044   YY=    30.3283   ZY=     3.2210
   XZ=    -3.0624   YZ=     2.8444   ZZ=    26.5809
   Eigenvalues:    24.7839    27.9444    37.1931
     10  H    Isotropic =    29.8388   Anisotropy =     6.6292
   XX=    29.2517   YX=     1.0585   ZX=     2.0513
   XY=     1.2506   YY=    30.5018   ZY=    -3.8776
   XZ=     2.2514   YZ=    -4.1753   ZZ=    29.7629
   Eigenvalues:    24.8148    30.4433    34.2582
     11  H    Isotropic =    28.0866   Anisotropy =     8.1410
   XX=    25.9929   YX=    -1.1594   ZX=    -2.0034
   XY=    -0.3606   YY=    25.3917   ZY=     1.7492
   XZ=    -0.6167   YZ=     1.6203   ZZ=    32.8753
   Eigenvalues:    24.7989    25.9471    33.5139
     12  H    Isotropic =    28.2987   Anisotropy =     9.8500
   XX=    26.9302   YX=     2.1514   ZX=     1.2872
   XY=     1.0559   YY=    34.0650   ZY=     1.5695
   XZ=     1.1769   YZ=     2.4626   ZZ=    23.9007
   Eigenvalues:    23.2700    26.7606    34.8653
     13  H    Isotropic =    28.9977   Anisotropy =     8.2270
   XX=    28.3005   YX=     1.4248   ZX=     1.8602
   XY=     1.1858   YY=    25.6912   ZY=     3.2570
   XZ=    -0.0019   YZ=     3.1100   ZZ=    33.0013
   Eigenvalues:    24.2895    28.2212    34.4823
     14  H    Isotropic =    29.8671   Anisotropy =    11.1518
   XX=    31.1999   YX=     3.3437   ZX=    -4.2785
   XY=     3.4812   YY=    29.6363   ZY=    -2.6974
   XZ=    -4.8471   YZ=    -3.0622   ZZ=    28.7651
   Eigenvalues:    25.2417    27.0579    37.3017
     15  H    Isotropic =    29.6965   Anisotropy =    11.7215
   XX=    33.4451   YX=     1.6470   ZX=     5.3558
   XY=     2.3183   YY=    26.9125   ZY=     1.9590
   XZ=     5.2117   YZ=     1.4713   ZZ=    28.7320
   Eigenvalues:    25.1903    26.3885    37.5109
     16  H    Isotropic =    28.6112   Anisotropy =     5.0053
   XX=    29.6377   YX=    -0.8095   ZX=    -0.8566
   XY=    -0.9868   YY=    28.5002   ZY=     2.9379
   XZ=    -0.9671   YZ=     3.2991   ZZ=    27.6957
   Eigenvalues:    24.9517    28.9338    31.9481
     17  H    Isotropic =    27.0763   Anisotropy =     4.2257
   XX=    29.1003   YX=     1.7885   ZX=     1.3198
   XY=     2.2310   YY=    24.7493   ZY=    -0.3965
   XZ=    -0.8078   YZ=    -1.6065   ZZ=    27.3792
   Eigenvalues:    23.6784    27.6570    29.8934
     18  H    Isotropic =    27.0846   Anisotropy =     3.6729
   XX=    26.0080   YX=    -0.5117   ZX=     2.7180
   XY=    -1.2567   YY=    28.4174   ZY=    -0.8396
   XZ=     2.9250   YZ=     0.9912   ZZ=    26.8283
   Eigenvalues:    23.4619    28.2586    29.5332
     19  O    Isotropic =   307.0185   Anisotropy =    54.8915
   XX=   296.0842   YX=   -29.8669   ZX=    -0.4995
   XY=   -12.8793   YY=   305.4184   ZY=    14.8416
   XZ=   -15.4995   YZ=    28.9236   ZZ=   319.5529
   Eigenvalues:   277.1064   300.3363   343.6129
     20  H    Isotropic =    29.9620   Anisotropy =    20.5345
   XX=    23.5896   YX=    -5.3207   ZX=    -5.3327
   XY=    -5.3015   YY=    33.8575   ZY=     7.6581
   XZ=    -4.9187   YZ=     7.8564   ZZ=    32.4389
   Eigenvalues:    20.8678    25.3666    43.6517
     21  O    Isotropic =   306.6474   Anisotropy =    28.3143
   XX=   305.2131   YX=    -5.0807   ZX=    -1.9828
   XY=    12.0261   YY=   324.3612   ZY=     6.7386
   XZ=    13.2998   YZ=     0.0661   ZZ=   290.3679
   Eigenvalues:   288.3296   306.0890   325.5236
     22  H    Isotropic =    29.2713   Anisotropy =    18.3468
   XX=    26.6967   YX=     2.1685   ZX=    -1.8357
   XY=     1.2120   YY=    40.9266   ZY=    -2.5683
   XZ=    -2.9490   YZ=    -2.5469   ZZ=    20.1905
   Eigenvalues:    19.2330    27.0783    41.5025
     23  C    Isotropic =   128.5377   Anisotropy =    70.1709
   XX=   171.0063   YX=     4.7013   ZX=   -20.5698
   XY=     5.8596   YY=   100.2975   ZY=   -10.6131
   XZ=    -8.6197   YZ=   -10.0676   ZZ=   114.3094
   Eigenvalues:    94.7425   115.5523   175.3183
     24  H    Isotropic =    27.6086   Anisotropy =     3.4386
   XX=    29.3485   YX=    -2.3901   ZX=    -0.5834
   XY=    -0.9970   YY=    24.3024   ZY=    -0.2995
   XZ=     1.0745   YZ=     0.8034   ZZ=    29.1748
   Eigenvalues:    23.7686    29.1561    29.9009
     25  H    Isotropic =    28.0519   Anisotropy =     5.1323
   XX=    29.4060   YX=     0.7601   ZX=    -0.2065
   XY=    -1.3889   YY=    29.3699   ZY=    -3.0549
   XZ=    -0.7269   YZ=    -4.1042   ZZ=    25.3798
   Eigenvalues:    23.2259    29.4564    31.4734
     26  O    Isotropic =   306.6204   Anisotropy =    33.1700
   XX=   308.1710   YX=    -3.9265   ZX=     3.2730
   XY=     8.8326   YY=   318.3996   ZY=   -20.2173
   XZ=    12.8683   YZ=   -17.7135   ZZ=   293.2906
   Eigenvalues:   280.6135   310.5140   328.7337
     27  H    Isotropic =    27.9766   Anisotropy =    19.6796
   XX=    27.5098   YX=    -0.5038   ZX=    -1.5080
   XY=    -1.9113   YY=    37.7862   ZY=    -8.2351
   XZ=    -1.9795   YZ=    -8.9539   ZZ=    18.6337
   Eigenvalues:    15.0029    27.8306    41.0963
 End of Minotr Frequency-dependent properties file   721 does not exist.
 End of Minotr Frequency-dependent properties file   722 does not exist.

 **********************************************************************

            Population analysis using the SCF density.

 **********************************************************************

 Orbital symmetries:
       Occupied  (A) (A) (A) (A) (A) (A) (A) (A) (A) (A) (A) (A)
                 (A) (A) (A) (A) (A) (A) (A) (A) (A) (A) (A) (A)
                 (A) (A) (A) (A) (A) (A) (A) (A) (A) (A) (A) (A)
                 (A) (A) (A) (A) (A) (A) (A) (A) (A) (A) (A)
       Virtual   (A) (A) (A) (A) (A) (A) (A) (A) (A) (A) (A) (A)
                 (A) (A) (A) (A) (A) (A) (A) (A) (A) (A) (A) (A)
                 (A) (A) (A) (A) (A) (A) (A) (A) (A) (A) (A) (A)
                 (A) (A) (A) (A) (A) (A) (A) (A) (A) (A) (A) (A)
                 (A) (A) (A) (A) (A) (A) (A) (A) (A) (A) (A) (A)
                 (A) (A) (A) (A) (A) (A) (A) (A) (A) (A) (A) (A)
                 (A) (A) (A) (A) (A) (A) (A) (A) (A) (A) (A) (A)
                 (A) (A) (A) (A) (A) (A) (A) (A) (A) (A) (A) (A)
                 (A) (A) (A) (A) (A) (A) (A) (A) (A) (A) (A) (A)
                 (A) (A) (A) (A) (A) (A) (A) (A) (A) (A) (A) (A)
                 (A) (A) (A) (A) (A) (A) (A) (A) (A) (A) (A) (A)
                 (A) (A) (A) (A) (A) (A) (A) (A) (A) (A) (A) (A)
                 (A) (A) (A) (A) (A) (A) (A) (A) (A) (A) (A) (A)
                 (A) (A) (A) (A) (A) (A) (A) (A) (A) (A) (A) (A)
                 (A) (A) (A) (A) (A) (A) (A) (A) (A) (A) (A) (A)
                 (A) (A) (A) (A) (A) (A) (A) (A) (A) (A) (A) (A)
                 (A) (A) (A) (A) (A) (A) (A) (A) (A) (A) (A) (A)
                 (A) (A) (A) (A) (A) (A) (A) (A) (A) (A) (A) (A)
                 (A) (A) (A) (A) (A) (A) (A) (A) (A) (A) (A) (A)
                 (A) (A) (A) (A) (A) (A) (A) (A) (A) (A) (A) (A)
                 (A) (A) (A) (A) (A) (A) (A) (A) (A) (A) (A) (A)
                 (A) (A) (A) (A)
 The electronic state is 1-A.
 Alpha  occ. eigenvalues --  -19.27032 -19.26357 -19.24435 -14.41525 -10.30872
 Alpha  occ. eigenvalues --  -10.30637 -10.29130 -10.28278 -10.27829 -10.26986
 Alpha  occ. eigenvalues --  -10.24613 -10.24519  -1.08056  -1.06149  -1.04497
 Alpha  occ. eigenvalues --   -0.96692  -0.83023  -0.79233  -0.74711  -0.71980
 Alpha  occ. eigenvalues --   -0.67135  -0.61140  -0.60359  -0.59235  -0.55428
 Alpha  occ. eigenvalues --   -0.53794  -0.52072  -0.49974  -0.49306  -0.46979
 Alpha  occ. eigenvalues --   -0.46399  -0.45156  -0.43352  -0.41858  -0.41149
 Alpha  occ. eigenvalues --   -0.40050  -0.38182  -0.37776  -0.36989  -0.35592
 Alpha  occ. eigenvalues --   -0.35306  -0.34261  -0.33123  -0.31003  -0.29907
 Alpha  occ. eigenvalues --   -0.28978  -0.23156
 Alpha virt. eigenvalues --    0.00386   0.01187   0.01765   0.02160   0.03774
 Alpha virt. eigenvalues --    0.04537   0.04637   0.04932   0.05546   0.06535
 Alpha virt. eigenvalues --    0.07950   0.08322   0.08928   0.09072   0.09685
 Alpha virt. eigenvalues --    0.10300   0.10782   0.11955   0.12304   0.12845
 Alpha virt. eigenvalues --    0.13266   0.13846   0.14132   0.14857   0.15105
 Alpha virt. eigenvalues --    0.16019   0.16603   0.17473   0.17686   0.18082
 Alpha virt. eigenvalues --    0.18662   0.19361   0.19605   0.20380   0.20962
 Alpha virt. eigenvalues --    0.21429   0.22186   0.22605   0.23051   0.23247
 Alpha virt. eigenvalues --    0.23866   0.24488   0.24955   0.25464   0.25805
 Alpha virt. eigenvalues --    0.26711   0.27530   0.28056   0.28436   0.29025
 Alpha virt. eigenvalues --    0.29329   0.30081   0.30511   0.31133   0.31749
 Alpha virt. eigenvalues --    0.32616   0.32965   0.33852   0.34017   0.35012
 Alpha virt. eigenvalues --    0.35242   0.35907   0.36515   0.36689   0.38681
 Alpha virt. eigenvalues --    0.38909   0.39889   0.40684   0.40734   0.41265
 Alpha virt. eigenvalues --    0.42658   0.43965   0.44728   0.46313   0.48062
 Alpha virt. eigenvalues --    0.49791   0.63210   0.65095   0.66909   0.68601
 Alpha virt. eigenvalues --    0.70740   0.71359   0.72403   0.73385   0.74172
 Alpha virt. eigenvalues --    0.74552   0.75285   0.77766   0.80378   0.81327
 Alpha virt. eigenvalues --    0.81968   0.82824   0.84651   0.85596   0.87202
 Alpha virt. eigenvalues --    0.90274   0.91631   0.94126   0.96319   0.97809
 Alpha virt. eigenvalues --    0.99205   0.99606   1.01576   1.03826   1.05164
 Alpha virt. eigenvalues --    1.05787   1.07574   1.09179   1.10158   1.11086
 Alpha virt. eigenvalues --    1.11409   1.12999   1.14499   1.14730   1.16272
 Alpha virt. eigenvalues --    1.17289   1.17986   1.18760   1.22583   1.23817
 Alpha virt. eigenvalues --    1.26638   1.27464   1.29066   1.31206   1.33324
 Alpha virt. eigenvalues --    1.33931   1.35192   1.36724   1.40355   1.41933
 Alpha virt. eigenvalues --    1.44308   1.44698   1.48185   1.51011   1.52550
 Alpha virt. eigenvalues --    1.53458   1.56001   1.57236   1.59341   1.61309
 Alpha virt. eigenvalues --    1.62626   1.63787   1.65170   1.67786   1.71213
 Alpha virt. eigenvalues --    1.72414   1.75023   1.76411   1.78472   1.79875
 Alpha virt. eigenvalues --    1.80626   1.82294   1.83438   1.85565   1.85888
 Alpha virt. eigenvalues --    1.88332   1.89615   1.90718   1.92092   1.94147
 Alpha virt. eigenvalues --    1.95901   1.99308   2.00619   2.02763   2.04795
 Alpha virt. eigenvalues --    2.05149   2.07003   2.07612   2.09324   2.10361
 Alpha virt. eigenvalues --    2.11393   2.13967   2.17142   2.17987   2.18273
 Alpha virt. eigenvalues --    2.19866   2.22335   2.24402   2.26871   2.29138
 Alpha virt. eigenvalues --    2.30604   2.33227   2.34675   2.36124   2.39669
 Alpha virt. eigenvalues --    2.41077   2.44448   2.44659   2.46059   2.47812
 Alpha virt. eigenvalues --    2.48647   2.49020   2.51341   2.53447   2.55565
 Alpha virt. eigenvalues --    2.56011   2.57702   2.58492   2.59081   2.62908
 Alpha virt. eigenvalues --    2.63715   2.66709   2.67431   2.68227   2.69003
 Alpha virt. eigenvalues --    2.71300   2.72691   2.75874   2.77376   2.78714
 Alpha virt. eigenvalues --    2.79312   2.80275   2.83868   2.84738   2.84942
 Alpha virt. eigenvalues --    2.86704   2.88174   2.89359   2.92123   2.94793
 Alpha virt. eigenvalues --    2.95681   2.99568   3.00492   3.02475   3.05200
 Alpha virt. eigenvalues --    3.07324   3.08308   3.12803   3.17917   3.32185
 Alpha virt. eigenvalues --    3.34654   3.36332   3.37354   3.40488   3.45765
 Alpha virt. eigenvalues --    3.48310   3.51944   3.52932   3.53457   3.54777
 Alpha virt. eigenvalues --    3.56707   3.57819   3.59808   3.64894   4.32641
 Alpha virt. eigenvalues --    4.37229   4.42890   4.46214   4.51978   4.53369
 Alpha virt. eigenvalues --    4.62488   4.66969   4.77245   4.83591   4.84032
 Alpha virt. eigenvalues --    4.95248
          Condensed to atoms (all electrons):
              1          2          3          4          5          6
     1  C    5.834326  -0.312813   0.067243  -0.217947   0.070091  -0.013956
     2  C   -0.312813   7.620991  -0.328994  -0.299043   0.227028   0.160930
     3  N    0.067243  -0.328994   7.491665   0.244201  -0.250474  -0.322673
     4  C   -0.217947  -0.299043   0.244201   5.591796   0.107014  -0.055766
     5  C    0.070091   0.227028  -0.250474   0.107014   5.694092   0.103453
     6  C   -0.013956   0.160930  -0.322673  -0.055766   0.103453   8.527730
     7  C   -0.022683   0.078179  -0.136709  -0.082536   0.013348  -0.021381
     8  C    0.077354  -0.680430   0.087614   0.173380  -0.108097  -0.575494
     9  H    0.354871  -0.044777   0.012502   0.021391  -0.006033  -0.005799
    10  H    0.506589  -0.176478   0.034217   0.028359  -0.101236  -0.002307
    11  H    0.030794   0.204490  -0.002770   0.017021  -0.028999  -0.013352
    12  H    0.022593   0.002528  -0.051229   0.394222  -0.039055  -0.017276
    13  H    0.008871   0.014626  -0.085433   0.414400  -0.032961   0.032206
    14  H   -0.004864  -0.038768   0.017015  -0.021142   0.366119   0.002094
    15  H   -0.055420   0.040041   0.006361  -0.018652   0.376456  -0.008117
    16  H   -0.005432   0.020448  -0.050443  -0.007468   0.010713   0.313001
    17  H   -0.004865   0.006095   0.011808   0.015263  -0.009331  -0.052762
    18  H    0.007357  -0.095476   0.017702   0.007826  -0.003980   0.022405
    19  O   -0.004287  -0.162038   0.023018  -0.004841   0.012637   0.015105
    20  H   -0.002169  -0.033673   0.001380   0.000713  -0.000436  -0.008054
    21  O    0.003211   0.004079   0.047607  -0.008720   0.005237  -0.218555
    22  H    0.000758   0.013104  -0.003246  -0.000983  -0.000279   0.034623
    23  C    0.051259  -0.200670   0.228335  -0.080384  -0.056712  -1.220814
    24  H    0.000021  -0.008661   0.024436   0.008570   0.000938  -0.100318
    25  H    0.002001   0.014965  -0.005060  -0.012244  -0.000933  -0.110435
    26  O    0.000895   0.012222   0.005017   0.002018   0.000168   0.001825
    27  H    0.000367   0.003001   0.001404  -0.000898  -0.000223  -0.079638
              7          8          9         10         11         12
     1  C   -0.022683   0.077354   0.354871   0.506589   0.030794   0.022593
     2  C    0.078179  -0.680430  -0.044777  -0.176478   0.204490   0.002528
     3  N   -0.136709   0.087614   0.012502   0.034217  -0.002770  -0.051229
     4  C   -0.082536   0.173380   0.021391   0.028359   0.017021   0.394222
     5  C    0.013348  -0.108097  -0.006033  -0.101236  -0.028999  -0.039055
     6  C   -0.021381  -0.575494  -0.005799  -0.002307  -0.013352  -0.017276
     7  C    5.956155  -0.026224   0.003149  -0.003877  -0.004540   0.004955
     8  C   -0.026224   6.294023   0.004594   0.035508   0.048397  -0.000638
     9  H    0.003149   0.004594   0.516404  -0.023258  -0.004247  -0.000091
    10  H   -0.003877   0.035508  -0.023258   0.516293   0.004110  -0.000045
    11  H   -0.004540   0.048397  -0.004247   0.004110   0.560070   0.000235
    12  H    0.004955  -0.000638  -0.000091  -0.000045   0.000235   0.552550
    13  H   -0.012289  -0.007352  -0.000126   0.000781  -0.000476  -0.042288
    14  H   -0.001836   0.006112  -0.004629   0.004150   0.000971  -0.006322
    15  H    0.002515  -0.000963   0.000106  -0.005183  -0.000101   0.001017
    16  H    0.011369   0.024214   0.000004  -0.000033  -0.000180   0.000014
    17  H    0.366241  -0.000736   0.000033  -0.000135  -0.000145   0.000032
    18  H   -0.080359   0.455583  -0.000099   0.000068  -0.006234   0.000007
    19  O   -0.104716   0.308150  -0.000885  -0.001758   0.002607   0.000070
    20  H    0.018896   0.030712   0.000022   0.000275   0.000974   0.000000
    21  O    0.232098  -0.053046   0.000012  -0.000078   0.000165   0.000153
    22  H    0.034361  -0.071344  -0.000001  -0.000003  -0.000014   0.000000
    23  C   -0.117507   0.090715   0.000481  -0.000401   0.019486   0.013685
    24  H   -0.007327   0.026858   0.000001  -0.000001  -0.000147   0.000010
    25  H    0.018654  -0.021132   0.000000   0.000000   0.000020   0.000006
    26  O   -0.073505  -0.016138  -0.000001  -0.000007  -0.000057  -0.000039
    27  H    0.038742  -0.019867   0.000000   0.000000   0.000002   0.000000
             13         14         15         16         17         18
     1  C    0.008871  -0.004864  -0.055420  -0.005432  -0.004865   0.007357
     2  C    0.014626  -0.038768   0.040041   0.020448   0.006095  -0.095476
     3  N   -0.085433   0.017015   0.006361  -0.050443   0.011808   0.017702
     4  C    0.414400  -0.021142  -0.018652  -0.007468   0.015263   0.007826
     5  C   -0.032961   0.366119   0.376456   0.010713  -0.009331  -0.003980
     6  C    0.032206   0.002094  -0.008117   0.313001  -0.052762   0.022405
     7  C   -0.012289  -0.001836   0.002515   0.011369   0.366241  -0.080359
     8  C   -0.007352   0.006112  -0.000963   0.024214  -0.000736   0.455583
     9  H   -0.000126  -0.004629   0.000106   0.000004   0.000033  -0.000099
    10  H    0.000781   0.004150  -0.005183  -0.000033  -0.000135   0.000068
    11  H   -0.000476   0.000971  -0.000101  -0.000180  -0.000145  -0.006234
    12  H   -0.042288  -0.006322   0.001017   0.000014   0.000032   0.000007
    13  H    0.564229   0.003984  -0.004987   0.002742   0.000424  -0.000006
    14  H    0.003984   0.522901  -0.024233  -0.000014   0.000005   0.000003
    15  H   -0.004987  -0.024233   0.513330  -0.000013   0.000009   0.000003
    16  H    0.002742  -0.000014  -0.000013   0.533205  -0.007364  -0.000168
    17  H    0.000424   0.000005   0.000009  -0.007364   0.540178   0.004258
    18  H   -0.000006   0.000003   0.000003  -0.000168   0.004258   0.551217
    19  O   -0.000109   0.000065   0.000043  -0.000635  -0.003337  -0.046055
    20  H   -0.000001   0.000001   0.000000   0.000005   0.000072  -0.006549
    21  O   -0.001124  -0.000003  -0.000007   0.003555  -0.043133  -0.002878
    22  H    0.000008   0.000000   0.000000  -0.000187  -0.003477  -0.000838
    23  C   -0.016681   0.000191  -0.000226  -0.031930   0.000653  -0.004693
    24  H   -0.000018  -0.000001   0.000000   0.004613  -0.000132  -0.001292
    25  H    0.000026   0.000001   0.000000  -0.005300  -0.000096   0.000023
    26  O   -0.000028  -0.000001  -0.000001   0.008093  -0.001159  -0.000083
    27  H    0.000000   0.000000   0.000000  -0.000778  -0.000032   0.000107
             19         20         21         22         23         24
     1  C   -0.004287  -0.002169   0.003211   0.000758   0.051259   0.000021
     2  C   -0.162038  -0.033673   0.004079   0.013104  -0.200670  -0.008661
     3  N    0.023018   0.001380   0.047607  -0.003246   0.228335   0.024436
     4  C   -0.004841   0.000713  -0.008720  -0.000983  -0.080384   0.008570
     5  C    0.012637  -0.000436   0.005237  -0.000279  -0.056712   0.000938
     6  C    0.015105  -0.008054  -0.218555   0.034623  -1.220814  -0.100318
     7  C   -0.104716   0.018896   0.232098   0.034361  -0.117507  -0.007327
     8  C    0.308150   0.030712  -0.053046  -0.071344   0.090715   0.026858
     9  H   -0.000885   0.000022   0.000012  -0.000001   0.000481   0.000001
    10  H   -0.001758   0.000275  -0.000078  -0.000003  -0.000401  -0.000001
    11  H    0.002607   0.000974   0.000165  -0.000014   0.019486  -0.000147
    12  H    0.000070   0.000000   0.000153   0.000000   0.013685   0.000010
    13  H   -0.000109  -0.000001  -0.001124   0.000008  -0.016681  -0.000018
    14  H    0.000065   0.000001  -0.000003   0.000000   0.000191  -0.000001
    15  H    0.000043   0.000000  -0.000007   0.000000  -0.000226   0.000000
    16  H   -0.000635   0.000005   0.003555  -0.000187  -0.031930   0.004613
    17  H   -0.003337   0.000072  -0.043133  -0.003477   0.000653  -0.000132
    18  H   -0.046055  -0.006549  -0.002878  -0.000838  -0.004693  -0.001292
    19  O    8.245036   0.241881  -0.009077   0.012785   0.015047  -0.000152
    20  H    0.241881   0.363793   0.000768  -0.000539  -0.000441   0.000009
    21  O   -0.009077   0.000768   8.342259   0.225027   0.041660   0.000751
    22  H    0.012785  -0.000539   0.225027   0.357186  -0.000910  -0.000004
    23  C    0.015047  -0.000441   0.041660  -0.000910   6.121741   0.401776
    24  H   -0.000152   0.000009   0.000751  -0.000004   0.401776   0.584349
    25  H    0.000040   0.000000   0.000204   0.000015   0.502970  -0.036150
    26  O    0.000152  -0.000017  -0.018012   0.002289   0.178430  -0.044164
    27  H    0.000054   0.000000   0.021785   0.000370   0.038608  -0.005916
             25         26         27
     1  C    0.002001   0.000895   0.000367
     2  C    0.014965   0.012222   0.003001
     3  N   -0.005060   0.005017   0.001404
     4  C   -0.012244   0.002018  -0.000898
     5  C   -0.000933   0.000168  -0.000223
     6  C   -0.110435   0.001825  -0.079638
     7  C    0.018654  -0.073505   0.038742
     8  C   -0.021132  -0.016138  -0.019867
     9  H    0.000000  -0.000001   0.000000
    10  H    0.000000  -0.000007   0.000000
    11  H    0.000020  -0.000057   0.000002
    12  H    0.000006  -0.000039   0.000000
    13  H    0.000026  -0.000028   0.000000
    14  H    0.000001  -0.000001   0.000000
    15  H    0.000000  -0.000001   0.000000
    16  H   -0.005300   0.008093  -0.000778
    17  H   -0.000096  -0.001159  -0.000032
    18  H    0.000023  -0.000083   0.000107
    19  O    0.000040   0.000152   0.000054
    20  H    0.000000  -0.000017   0.000000
    21  O    0.000204  -0.018012   0.021785
    22  H    0.000015   0.002289   0.000370
    23  C    0.502970   0.178430   0.038608
    24  H   -0.036150  -0.044164  -0.005916
    25  H    0.532759  -0.055872   0.005862
    26  O   -0.055872   8.294117   0.255799
    27  H    0.005862   0.255799   0.340169
 Mulliken atomic charges:
              1
     1  C   -0.394164
     2  C   -0.040906
     3  N   -0.084492
     4  C   -0.215550
     5  C   -0.348543
     6  C   -0.386675
     7  C   -0.083172
     8  C   -0.081754
     9  H    0.176376
    10  H    0.184448
    11  H    0.171921
    12  H    0.164907
    13  H    0.161581
    14  H    0.178202
    15  H    0.178024
    16  H    0.177968
    17  H    0.181635
    18  H    0.182152
    19  O   -0.538800
    20  H    0.392378
    21  O   -0.573937
    22  H    0.401299
    23  C    0.026333
    24  H    0.151950
    25  H    0.169677
    26  O   -0.551938
    27  H    0.401081
 Sum of Mulliken atomic charges =   0.00000
 Mulliken charges with hydrogens summed into heavy atoms:
              1
     1  C   -0.033339
     2  C    0.131014
     3  N   -0.084492
     4  C    0.110938
     5  C    0.007683
     6  C   -0.208707
     7  C    0.098463
     8  C    0.100398
    19  O   -0.146421
    21  O   -0.172638
    23  C    0.347959
    26  O   -0.150857
 Sum of Mulliken charges with hydrogens summed into heavy atoms =   0.00000
 Electronic spatial extent (au):  <R**2>=           2088.2200
 Charge=              0.0000 electrons
 Dipole moment (field-independent basis, Debye):
    X=             -4.5404    Y=              3.3071    Z=              0.9110  Tot=              5.6905
 Quadrupole moment (field-independent basis, Debye-Ang):
   XX=            -83.6151   YY=            -70.8774   ZZ=            -70.6228
   XY=              8.0116   XZ=             -0.5113   YZ=              6.5189
 Traceless Quadrupole moment (field-independent basis, Debye-Ang):
   XX=             -8.5767   YY=              4.1610   ZZ=              4.4157
   XY=              8.0116   XZ=             -0.5113   YZ=              6.5189
 Octapole moment (field-independent basis, Debye-Ang**2):
  XXX=            -47.9143  YYY=             28.2478  ZZZ=              0.7169  XYY=             -0.7861
  XXY=             34.7462  XXZ=             -0.1283  XZZ=             -0.0159  YZZ=             11.4534
  YYZ=              9.6744  XYZ=             -8.6164
 Hexadecapole moment (field-independent basis, Debye-Ang**3):
 XXXX=          -1736.8684 YYYY=           -775.1436 ZZZZ=           -255.0234 XXXY=            110.9696
 XXXZ=            -21.4163 YYYX=             15.5966 YYYZ=             39.4613 ZZZX=             -1.6704
 ZZZY=              7.9567 XXYY=           -410.5981 XXZZ=           -305.9042 YYZZ=           -167.4209
 XXYZ=              5.4198 YYXZ=            -21.9059 ZZXY=             -4.0652
 N-N= 8.053602141102D+02 E-N=-2.996439711764D+03  KE= 5.886602055560D+02
 1\1\GINC-COMPUTE-3-2\SP\RmPW1PW91\6-31+G(d,p)\C8H15N1O3\MAMICHETTI.IQU
 IR\17-May-2024\0\\# mpw1pw91/6-31+G** nmr scrf=(pcm,solvent=water)\\co
 mment\\0,1\C,0,-2.455603,0.442103,0.043122\C,0,-1.125883,0.265979,0.79
 316\N,0,-0.565291,-1.05785,0.337068\C,0,-1.546276,-1.664754,-0.596127\
 C,0,-2.878223,-1.006506,-0.237806\C,0,0.77381,-0.830008,-0.252491\C,0,
 0.770887,0.661361,-0.63648\C,0,-0.026935,1.310824,0.491404\H,0,-3.1905
 82,1.007528,0.624254\H,0,-2.295886,0.97413,-0.901461\H,0,-1.317555,0.2
 28712,1.872099\H,0,-1.565723,-2.755446,-0.487008\H,0,-1.291434,-1.4446
 43,-1.644683\H,0,-3.301004,-1.464549,0.664829\H,0,-3.616398,-1.095284,
 -1.040993\H,0,0.896683,-1.461272,-1.13843\H,0,0.207644,0.791396,-1.571
 986\H,0,0.626175,1.430946,1.365294\O,0,-0.488116,2.594628,0.069016\H,0
 ,-0.841571,3.049788,0.851425\O,0,2.09259,1.18507,-0.798544\H,0,2.02297
 4,2.153765,-0.84691\C,0,1.889722,-1.21113,0.734385\H,0,1.832051,-0.593
 57,1.643203\H,0,1.750405,-2.252853,1.038862\O,0,3.191419,-1.125697,0.1
 46904\H,0,3.26512,-0.202919,-0.161977\\Version=AM64L-G09RevC.01\State=
 1-A\HF=-594.1970194\RMSD=7.173e-09\Dipole=-1.7863369,1.3011095,0.35840
 94\Quadrupole=-6.3765353,3.093605,3.2829303,5.9564372,-0.380149,4.8466
 495\PG=C01 [X(C8H15N1O3)]\\@


 A MAN THINKING OR WORKING IS ALWAYS ALONE, 
 LET HIM BE WHERE HE WILL.

                                    -- THOREAU
 Job cpu time:  0 days  0 hours  8 minutes 49.6 seconds.
 File lengths (MBytes):  RWF=    113 Int=      0 D2E=      0 Chk=      7 Scr=      1
 Normal termination of Gaussian 09 at Fri May 17 12:27:58 2024.
