 Entering Gaussian System, Link 0=g09
 Input=/home/mamichetti.iquir/Linux/03_Cardona_A1A3_R__S_S_R_005_OptB.gjc
 Output=/home/mamichetti.iquir/Linux/03_Cardona_A1A3_R__S_S_R_005_OptB.log
 Initial command:
 /opt/ohpc/pub/apps/software/Gaussian/09/AMD64.SSE4a-enabled/g09/l1.exe /local/mamichetti.iquir/Gau-131678.inp -scrdir=/local/mamichetti.iquir/
 Entering Link 1 = /opt/ohpc/pub/apps/software/Gaussian/09/AMD64.SSE4a-enabled/g09/l1.exe PID=    131679.
  
 Copyright (c) 1988,1990,1992,1993,1995,1998,2003,2009,2011,
            Gaussian, Inc.  All Rights Reserved.
  
 This is part of the Gaussian(R) 09 program.  It is based on
 the Gaussian(R) 03 system (copyright 2003, Gaussian, Inc.),
 the Gaussian(R) 98 system (copyright 1998, Gaussian, Inc.),
 the Gaussian(R) 94 system (copyright 1995, Gaussian, Inc.),
 the Gaussian 92(TM) system (copyright 1992, Gaussian, Inc.),
 the Gaussian 90(TM) system (copyright 1990, Gaussian, Inc.),
 the Gaussian 88(TM) system (copyright 1988, Gaussian, Inc.),
 the Gaussian 86(TM) system (copyright 1986, Carnegie Mellon
 University), and the Gaussian 82(TM) system (copyright 1983,
 Carnegie Mellon University). Gaussian is a federally registered
 trademark of Gaussian, Inc.
  
 This software contains proprietary and confidential information,
 including trade secrets, belonging to Gaussian, Inc.
  
 This software is provided under written license and may be
 used, copied, transmitted, or stored only in accord with that
 written license.
  
 The following legend is applicable only to US Government
 contracts under FAR:
  
                    RESTRICTED RIGHTS LEGEND
  
 Use, reproduction and disclosure by the US Government is
 subject to restrictions as set forth in subparagraphs (a)
 and (c) of the Commercial Computer Software - Restricted
 Rights clause in FAR 52.227-19.
  
 Gaussian, Inc.
 340 Quinnipiac St., Bldg. 40, Wallingford CT 06492
  
  
 ---------------------------------------------------------------
 Warning -- This program may not be used in any manner that
 competes with the business of Gaussian, Inc. or will provide
 assistance to any competitor of Gaussian, Inc.  The licensee
 of this program is prohibited from giving any competitor of
 Gaussian, Inc. access to this program.  By using this program,
 the user acknowledges that Gaussian, Inc. is engaged in the
 business of creating and licensing software in the field of
 computational chemistry and represents and warrants to the
 licensee that it is not a competitor of Gaussian, Inc. and that
 it will not use this program in any manner prohibited above.
 ---------------------------------------------------------------
  

 Cite this work as:
 Gaussian 09, Revision C.01,
 M. J. Frisch, G. W. Trucks, H. B. Schlegel, G. E. Scuseria, 
 M. A. Robb, J. R. Cheeseman, G. Scalmani, V. Barone, B. Mennucci, 
 G. A. Petersson, H. Nakatsuji, M. Caricato, X. Li, H. P. Hratchian, 
 A. F. Izmaylov, J. Bloino, G. Zheng, J. L. Sonnenberg, M. Hada, 
 M. Ehara, K. Toyota, R. Fukuda, J. Hasegawa, M. Ishida, T. Nakajima, 
 Y. Honda, O. Kitao, H. Nakai, T. Vreven, J. A. Montgomery, Jr., 
 J. E. Peralta, F. Ogliaro, M. Bearpark, J. J. Heyd, E. Brothers, 
 K. N. Kudin, V. N. Staroverov, T. Keith, R. Kobayashi, J. Normand, 
 K. Raghavachari, A. Rendell, J. C. Burant, S. S. Iyengar, J. Tomasi, 
 M. Cossi, N. Rega, J. M. Millam, M. Klene, J. E. Knox, J. B. Cross, 
 V. Bakken, C. Adamo, J. Jaramillo, R. Gomperts, R. E. Stratmann, 
 O. Yazyev, A. J. Austin, R. Cammi, C. Pomelli, J. W. Ochterski, 
 R. L. Martin, K. Morokuma, V. G. Zakrzewski, G. A. Voth, 
 P. Salvador, J. J. Dannenberg, S. Dapprich, A. D. Daniels, 
 O. Farkas, J. B. Foresman, J. V. Ortiz, J. Cioslowski, 
 and D. J. Fox, Gaussian, Inc., Wallingford CT, 2010.
 
 ******************************************
 Gaussian 09:  AM64L-G09RevC.01 23-Sep-2011
                17-May-2024 
 ******************************************
 %nprocshared=4
 Will use up to    4 processors via shared memory.
 ------------------------------------------------
 # mpw1pw91/6-31+G** nmr scrf=(pcm,solvent=water)
 ------------------------------------------------
 1/38=1/1;
 2/12=2,17=6,18=5,40=1/2;
 3/5=1,6=6,7=111,11=2,16=1,25=1,30=1,70=2201,72=1,74=-7/1,2,8,3;
 4//1;
 5/5=2,38=5,53=1/2;
 8/6=1,10=90,11=11/1;
 10/13=100,45=16/2;
 6/7=2,8=2,9=2,10=2,28=1/1;
 99/9=1/99;
 -------
 comment
 -------
 Charge =  0 Multiplicity = 1
 Symbolic Z-Matrix:
 6                     2.24087  -0.79123  -0.07364 
 6                     1.03002  -0.23409  -0.88075 
 7                    -0.18429  -0.992    -0.4293 
 6                     0.33379  -2.21398   0.22105 
 6                     1.62947  -1.79338   0.92588 
 6                    -0.98932  -0.11049   0.4719 
 6                    -0.16362   1.17121   0.65939 
 6                     0.66741   1.24156  -0.61952 
 1                     2.93123  -1.30165  -0.75337 
 1                     2.801     0.00891   0.41731 
 1                     1.19118  -0.40081  -1.9507 
 1                     0.5562   -2.95625  -0.55672 
 1                    -0.42405  -2.64335   0.88177 
 1                     2.2921   -2.63809   1.14104 
 1                     1.39469  -1.30125   1.87774 
 1                    -1.15421  -0.61748   1.42815 
 1                     0.52529   1.04839   1.50756 
 1                     0.02914   1.60874  -1.43432 
 8                     1.76297   2.13333  -0.43403 
 1                     2.16167   2.29245  -1.30574 
 8                    -0.99981   2.30573   0.88048 
 1                    -0.41196   3.07859   0.92873 
 6                    -2.36427   0.13043  -0.172 
 1                    -3.05016   0.59881   0.53918 
 1                    -2.27222   0.79457  -1.0438 
 8                    -2.937    -1.12046  -0.55452 
 1                    -2.19521  -1.57651  -1.00101 
 
                          Input orientation:                          
 ---------------------------------------------------------------------
 Center     Atomic      Atomic             Coordinates (Angstroms)
 Number     Number       Type             X           Y           Z
 ---------------------------------------------------------------------
      1          6           0        2.240873   -0.791231   -0.073636
      2          6           0        1.030016   -0.234085   -0.880748
      3          7           0       -0.184288   -0.992002   -0.429301
      4          6           0        0.333790   -2.213977    0.221052
      5          6           0        1.629473   -1.793384    0.925882
      6          6           0       -0.989319   -0.110485    0.471896
      7          6           0       -0.163621    1.171205    0.659386
      8          6           0        0.667412    1.241556   -0.619517
      9          1           0        2.931233   -1.301646   -0.753365
     10          1           0        2.800996    0.008906    0.417313
     11          1           0        1.191181   -0.400805   -1.950696
     12          1           0        0.556199   -2.956249   -0.556715
     13          1           0       -0.424050   -2.643346    0.881773
     14          1           0        2.292100   -2.638093    1.141040
     15          1           0        1.394686   -1.301248    1.877742
     16          1           0       -1.154209   -0.617484    1.428151
     17          1           0        0.525290    1.048388    1.507557
     18          1           0        0.029137    1.608744   -1.434323
     19          8           0        1.762965    2.133328   -0.434032
     20          1           0        2.161669    2.292445   -1.305743
     21          8           0       -0.999812    2.305726    0.880475
     22          1           0       -0.411957    3.078592    0.928728
     23          6           0       -2.364274    0.130427   -0.172002
     24          1           0       -3.050160    0.598809    0.539177
     25          1           0       -2.272217    0.794572   -1.043802
     26          8           0       -2.936998   -1.120457   -0.554518
     27          1           0       -2.195208   -1.576513   -1.001009
 ---------------------------------------------------------------------
                    Distance matrix (angstroms):
                    1          2          3          4          5
     1  C    0.000000
     2  C    1.558209   0.000000
     3  N    2.459311   1.500925   0.000000
     4  C    2.397501   2.370373   1.478035   0.000000
     5  C    1.541803   2.460625   2.401762   1.533779   0.000000
     6  C    3.345917   2.433647   1.495762   2.497643   3.145842
     7  C    3.189054   2.402420   2.421803   3.449494   3.474909
     8  C    2.627925   1.541830   2.397990   3.571914   3.539022
     9  H    1.095058   2.184156   3.147597   2.920368   2.180884
    10  H    1.093155   2.209158   3.260444   3.326685   2.208927
    11  H    2.185781   1.094787   2.134496   2.956214   3.225845
    12  H    2.785461   2.782027   2.103051   1.097887   2.168471
    13  H    3.383039   3.320441   2.122107   1.093266   2.222912
    14  H    2.211100   3.385223   3.362749   2.204820   1.094943
    15  H    2.187242   2.980115   2.812693   2.168685   1.096978
    16  H    3.716468   3.201382   2.128647   2.493997   3.063315
    17  H    2.971127   2.757442   2.901398   3.512092   3.103745
    18  H    3.535976   2.168922   2.796337   4.176874   4.439157
    19  O    2.985185   2.518216   3.682323   4.622849   4.157674
    20  H    3.321659   2.800824   4.130285   5.097066   4.685870
    21  O    4.582959   3.697668   3.640824   4.758261   4.870103
    22  H    4.797684   4.040708   4.297186   5.391496   5.282385
    23  C    4.697500   3.486602   2.465439   3.595869   4.566882
    24  H    5.504796   4.399743   3.417872   4.411812   5.269829
    25  H    4.880981   3.462581   2.815831   4.176421   5.079405
    26  O    5.210565   4.077902   2.758549   3.534876   4.847378
    27  H    4.599511   3.495518   2.170784   2.880213   4.288138
                    6          7          8          9         10
     6  C    0.000000
     7  C    1.536118   0.000000
     8  C    2.400824   1.526813   0.000000
     9  H    4.276781   4.205827   3.407444   0.000000
    10  H    3.792588   3.193508   2.673317   1.762100   0.000000
    11  H    3.272280   3.334551   2.178009   2.296279   2.892548
    12  H    3.397799   4.362673   4.199748   2.901236   3.844475
    13  H    2.627340   3.829893   4.305534   3.966328   4.201319
    14  H    4.195744   4.557774   4.559698   2.404860   2.790942
    15  H    3.012939   3.166344   3.637455   3.046917   2.413931
    16  H    1.094833   2.184416   3.311688   4.681658   4.130110
    17  H    2.170166   1.099580   2.140550   4.052529   2.729101
    18  H    2.761643   2.147606   1.098240   4.166081   3.697464
    19  O    3.664761   2.415156   1.424745   3.642234   2.513059
    20  H    4.343132   3.244362   1.951430   3.716832   2.931247
    21  O    2.450535   1.426616   2.482352   5.579936   4.464980
    22  H    3.272958   1.942252   2.633781   5.761323   4.472984
    23  C    1.537252   2.572411   3.259754   5.516449   5.200199
    24  H    2.180525   2.945199   3.946649   6.407765   5.882080
    25  H    2.182269   2.736582   3.003536   5.617328   5.337567
    26  O    2.422194   3.796959   4.309884   5.874394   5.928279
    27  H    2.402677   3.799238   4.035052   5.139774   5.430216
                   11         12         13         14         15
    11  H    0.000000
    12  H    2.979376   0.000000
    13  H    3.957378   1.768628   0.000000
    14  H    3.971941   2.448867   2.728501   0.000000
    15  H    3.938166   3.060828   2.470017   1.770660   0.000000
    16  H    4.118788   3.512123   2.221661   4.005289   2.677038
    17  H    3.808292   4.505474   3.862868   4.104399   2.532524
    18  H    2.378082   4.678371   4.863121   5.457941   4.615469
    19  O    3.008162   5.232125   5.415809   5.052454   4.156470
    20  H    2.934520   5.539618   5.986084   5.505812   4.861838
    21  O    4.487905   5.672307   4.982451   5.945244   4.442795
    22  H    4.792425   6.289926   5.722143   6.327518   4.831934
    23  C    4.010888   4.266701   3.545240   5.574101   4.514524
    24  H    5.018732   5.181239   4.186334   6.275310   5.015838
    25  H    3.774455   4.722907   4.352337   6.114713   5.135568
    26  O    4.416908   3.946209   3.270631   5.702771   4.971123
    27  H    3.708345   3.109873   2.796427   5.084413   4.609807
                   16         17         18         19         20
    16  H    0.000000
    17  H    2.366887   0.000000
    18  H    3.814467   3.035593   0.000000
    19  O    4.420927   2.545329   2.069282   0.000000
    20  H    5.190078   3.484260   2.243139   0.971681   0.000000
    21  O    2.978077   2.073660   2.627320   3.064406   3.843786
    22  H    3.802807   2.309806   2.817628   2.735128   3.497776
    23  C    2.141055   3.465999   3.083390   4.595038   5.142358
    24  H    2.421626   3.731451   3.794304   5.144712   5.782326
    25  H    3.058496   3.794720   2.472168   4.294972   4.687385
    26  O    2.713355   4.576405   4.125597   5.717629   6.181314
    27  H    2.811447   4.536972   3.909135   5.454495   5.834730
                   21         22         23         24         25
    21  O    0.000000
    22  H    0.972226   0.000000
    23  C    2.775138   3.703353   0.000000
    24  H    2.689605   3.641592   1.093434   0.000000
    25  H    2.757797   3.545164   1.099817   1.774638   0.000000
    26  O    4.189347   5.119362   1.427950   2.040796   2.085346
    27  H    4.476688   5.345453   1.905119   2.799132   2.372721
                   26         27
    26  O    0.000000
    27  H    0.978567   0.000000
 Stoichiometry    C8H15NO3
 Framework group  C1[X(C8H15NO3)]
 Deg. of freedom    75
 Full point group                 C1      NOp   1
 Largest Abelian subgroup         C1      NOp   1
 Largest concise Abelian subgroup C1      NOp   1
                         Standard orientation:                         
 ---------------------------------------------------------------------
 Center     Atomic      Atomic             Coordinates (Angstroms)
 Number     Number       Type             X           Y           Z
 ---------------------------------------------------------------------
      1          6           0        2.240872   -0.791232   -0.073636
      2          6           0        1.030016   -0.234085   -0.880748
      3          7           0       -0.184289   -0.992002   -0.429301
      4          6           0        0.333789   -2.213977    0.221052
      5          6           0        1.629472   -1.793385    0.925882
      6          6           0       -0.989319   -0.110484    0.471896
      7          6           0       -0.163621    1.171205    0.659386
      8          6           0        0.667412    1.241556   -0.619517
      9          1           0        2.931232   -1.301647   -0.753365
     10          1           0        2.800996    0.008905    0.417313
     11          1           0        1.191181   -0.400805   -1.950696
     12          1           0        0.556197   -2.956249   -0.556715
     13          1           0       -0.424051   -2.643346    0.881773
     14          1           0        2.292099   -2.638094    1.141040
     15          1           0        1.394685   -1.301249    1.877742
     16          1           0       -1.154209   -0.617483    1.428151
     17          1           0        0.525290    1.048388    1.507557
     18          1           0        0.029138    1.608744   -1.434323
     19          8           0        1.762966    2.133327   -0.434032
     20          1           0        2.161670    2.292444   -1.305743
     21          8           0       -0.999811    2.305727    0.880475
     22          1           0       -0.411956    3.078592    0.928728
     23          6           0       -2.364274    0.130428   -0.172002
     24          1           0       -3.050160    0.598811    0.539177
     25          1           0       -2.272217    0.794573   -1.043802
     26          8           0       -2.936999   -1.120455   -0.554518
     27          1           0       -2.195209   -1.576512   -1.001009
 ---------------------------------------------------------------------
 Rotational constants (GHZ):      1.1024605      0.9622415      0.6104585
 Standard basis: 6-31+G(d,p) (6D, 7F)
 There are   303 symmetry adapted basis functions of A   symmetry.
 Integral buffers will be    131072 words long.
 Raffenetti 2 integral format.
 Two-electron integral symmetry is turned on.
   303 basis functions,   489 primitive gaussians,   303 cartesian basis functions
    47 alpha electrons       47 beta electrons
       nuclear repulsion energy       809.7953443705 Hartrees.
 NAtoms=   27 NActive=   27 NUniq=   27 SFac= 1.00D+00 NAtFMM=   60 NAOKFM=F Big=F
 ------------------------------------------------------------------------------
 Polarizable Continuum Model (PCM)
 =================================
 Model                : PCM.
 Atomic radii         : UFF (Universal Force Field).
 Polarization charges : Total charges.
 Charge compensation  : None.
 Solution method      : Matrix inversion.
 Cavity type          : Scaled VdW (van der Waals Surface) (Alpha=1.100).
 Cavity algorithm     : GePol (No added spheres)
                        Default sphere list used, NSphG=   27.
                        Lebedev-Laikov grids with approx.  5.0 points / Ang**2.
                        Smoothing algorithm: Karplus/York (Gamma=1.0000).
                        Polarization charges: spherical gaussians, with
                                              point-specific exponents (IZeta= 3).
                        Self-potential: point-specific (ISelfS= 7).
                        Self-field    : sphere-specific E.n sum rule (ISelfD= 2).
 Solvent              : Water, Eps=  78.355300 Eps(inf)=   1.777849
 ------------------------------------------------------------------------------
 One-electron integrals computed using PRISM.
 NBasis=   303 RedAO= T  NBF=   303
 NBsUse=   303 1.00D-06 NBFU=   303
 Harris functional with IExCor=  908 diagonalized for initial guess.
 ExpMin= 4.38D-02 ExpMax= 5.48D+03 ExpMxC= 8.25D+02 IAcc=2 IRadAn=         4 AccDes= 0.00D+00
 HarFok:  IExCor=  908 AccDes= 0.00D+00 IRadAn=         4 IDoV= 1
 ScaDFX=  1.000000  1.000000  1.000000  1.000000
 FoFCou: FMM=F IPFlag=           0 FMFlag=      100000 FMFlg1=           0
         NFxFlg=           0 DoJE=T BraDBF=F KetDBF=T FulRan=T
         Omega=  0.000000  0.000000  1.000000  0.000000  0.000000 ICntrl=     500 IOpCl=  0
         NMat0=    1 NMatS0=    1 NMatT0=    0 NMatD0=    1 NMtDS0=    0 NMtDT0=    0
         I1Cent=           4 NGrid=           0.
 Petite list used in FoFCou.
 Initial guess orbital symmetries:
       Occupied  (A) (A) (A) (A) (A) (A) (A) (A) (A) (A) (A) (A)
                 (A) (A) (A) (A) (A) (A) (A) (A) (A) (A) (A) (A)
                 (A) (A) (A) (A) (A) (A) (A) (A) (A) (A) (A) (A)
                 (A) (A) (A) (A) (A) (A) (A) (A) (A) (A) (A)
       Virtual   (A) (A) (A) (A) (A) (A) (A) (A) (A) (A) (A) (A)
                 (A) (A) (A) (A) (A) (A) (A) (A) (A) (A) (A) (A)
                 (A) (A) (A) (A) (A) (A) (A) (A) (A) (A) (A) (A)
                 (A) (A) (A) (A) (A) (A) (A) (A) (A) (A) (A) (A)
                 (A) (A) (A) (A) (A) (A) (A) (A) (A) (A) (A) (A)
                 (A) (A) (A) (A) (A) (A) (A) (A) (A) (A) (A) (A)
                 (A) (A) (A) (A) (A) (A) (A) (A) (A) (A) (A) (A)
                 (A) (A) (A) (A) (A) (A) (A) (A) (A) (A) (A) (A)
                 (A) (A) (A) (A) (A) (A) (A) (A) (A) (A) (A) (A)
                 (A) (A) (A) (A) (A) (A) (A) (A) (A) (A) (A) (A)
                 (A) (A) (A) (A) (A) (A) (A) (A) (A) (A) (A) (A)
                 (A) (A) (A) (A) (A) (A) (A) (A) (A) (A) (A) (A)
                 (A) (A) (A) (A) (A) (A) (A) (A) (A) (A) (A) (A)
                 (A) (A) (A) (A) (A) (A) (A) (A) (A) (A) (A) (A)
                 (A) (A) (A) (A) (A) (A) (A) (A) (A) (A) (A) (A)
                 (A) (A) (A) (A) (A) (A) (A) (A) (A) (A) (A) (A)
                 (A) (A) (A) (A) (A) (A) (A) (A) (A) (A) (A) (A)
                 (A) (A) (A) (A) (A) (A) (A) (A) (A) (A) (A) (A)
                 (A) (A) (A) (A) (A) (A) (A) (A) (A) (A) (A) (A)
                 (A) (A) (A) (A) (A) (A) (A) (A) (A) (A) (A) (A)
                 (A) (A) (A) (A) (A) (A) (A) (A) (A) (A) (A) (A)
                 (A) (A) (A) (A)
 The electronic state of the initial guess is 1-A.
 Requested convergence on RMS density matrix=1.00D-08 within 128 cycles.
 Requested convergence on MAX density matrix=1.00D-06.
 Requested convergence on             energy=1.00D-06.
 No special actions if energy rises.
 Error on total polarization charges =  0.01403
 SCF Done:  E(RmPW1PW91) =  -594.197256725     A.U. after   13 cycles
             Convg  =    0.2345D-08             -V/T =  2.0094
 Range of M.O.s used for correlation:     1   303
 NBasis=   303 NAE=    47 NBE=    47 NFC=     0 NFV=     0
 NROrb=    303 NOA=    47 NOB=    47 NVA=   256 NVB=   256

 **** Warning!!: The largest alpha MO coefficient is  0.67861704D+02

 NEqPCM:  Using equilibrium solvation (IEInf=0, Eps=  78.3553, EpsInf=   1.7778)
          Differentiating once with respect to magnetic field using GIAOs.
          Electric field/nuclear overlap derivatives assumed to be zero.
 FoFCou: FMM=F IPFlag=           0 FMFlag=    10101102 FMFlg1=           0
         NFxFlg=    40000000 DoJE=F BraDBF=F KetDBF=T FulRan=T
         Omega=  0.000000  0.000000  1.000000  0.000000  0.000000 ICntrl=    6100 IOpCl=  0
         NMat0=    1 NMatS0=    1 NMatT0=    0 NMatD0=    1 NMtDS0=    0 NMtDT0=    0
         I1Cent=           7 NGrid=        1826.
 Symmetry not used in FoFCou.
          There are     3 degrees of freedom in the 1st order CPHF.  IDoFFX=0.
      3 vectors produced by pass  0 Test12= 4.01D-13 3.33D-08 XBig12= 2.38D+01 7.95D-01.
 AX will form     3 AO Fock derivatives at one time.
      3 vectors produced by pass  1 Test12= 4.01D-13 3.33D-08 XBig12= 5.49D-02 4.11D-02.
      3 vectors produced by pass  2 Test12= 4.01D-13 3.33D-08 XBig12= 1.09D-04 2.12D-03.
      3 vectors produced by pass  3 Test12= 4.01D-13 3.33D-08 XBig12= 4.89D-07 1.42D-04.
      3 vectors produced by pass  4 Test12= 4.01D-13 3.33D-08 XBig12= 1.64D-09 5.26D-06.
      3 vectors produced by pass  5 Test12= 4.01D-13 3.33D-08 XBig12= 5.02D-12 4.00D-07.
 Inverted reduced A of dimension    18 with in-core refinement.
 Calculating GIAO nuclear magnetic shielding tensors.
 SCF GIAO Magnetic shielding tensor (ppm):
      1  C    Isotropic =   169.5275   Anisotropy =    25.2038
   XX=   180.2066   YX=     2.5932   ZX=     4.1101
   XY=     0.3910   YY=   162.8613   ZY=   -18.8259
   XZ=     3.7744   YZ=   -24.1952   ZZ=   165.5146
   Eigenvalues:   142.2577   179.9948   186.3300
      2  C    Isotropic =   128.6311   Anisotropy =    60.8371
   XX=   148.6869   YX=    21.7611   ZX=    -4.4084
   XY=    24.2117   YY=   136.7195   ZY=   -17.8404
   XZ=    -0.5627   YZ=   -19.3959   ZZ=   100.4868
   Eigenvalues:    91.6983   125.0057   169.1892
      3  N    Isotropic =   194.5772   Anisotropy =    63.3850
   XX=   204.8330   YX=    11.4933   ZX=   -26.2829
   XY=    -0.6115   YY=   201.7953   ZY=   -27.5821
   XZ=   -39.8871   YZ=   -20.1837   ZZ=   177.1032
   Eigenvalues:   149.2268   197.6709   236.8338
      4  C    Isotropic =   136.9527   Anisotropy =    59.7306
   XX=   134.1141   YX=   -17.1796   ZX=     6.8225
   XY=    -2.9248   YY=   159.0536   ZY=   -27.7958
   XZ=    22.2192   YZ=   -23.0181   ZZ=   117.6903
   Eigenvalues:   102.8320   131.2530   176.7731
      5  C    Isotropic =   168.8610   Anisotropy =    19.6041
   XX=   174.5792   YX=     4.7898   ZX=     9.9592
   XY=     8.2308   YY=   171.3079   ZY=   -10.6789
   XZ=    12.0531   YZ=   -18.4279   ZZ=   160.6958
   Eigenvalues:   145.0088   179.6437   181.9303
      6  C    Isotropic =   127.2097   Anisotropy =    44.3166
   XX=   129.1651   YX=    -4.9255   ZX=   -13.0675
   XY=   -19.2071   YY=   134.7432   ZY=    20.8785
   XZ=   -16.8688   YZ=    11.5161   ZZ=   117.7209
   Eigenvalues:   105.1817   119.6933   156.7541
      7  C    Isotropic =   119.3655   Anisotropy =    47.8266
   XX=   116.8812   YX=    -8.0629   ZX=   -15.5204
   XY=   -22.2467   YY=   137.7806   ZY=     7.0442
   XZ=   -20.3819   YZ=     9.4282   ZZ=   103.4346
   Eigenvalues:    90.9002   115.9463   151.2499
      8  C    Isotropic =   115.7249   Anisotropy =    36.5087
   XX=   126.6042   YX=     4.5980   ZX=   -14.7698
   XY=    18.9722   YY=   124.0400   ZY=    10.2701
   XZ=   -20.8272   YZ=    -0.4651   ZZ=    96.5305
   Eigenvalues:    85.8529   121.2578   140.0640
      9  H    Isotropic =    30.0685   Anisotropy =    12.3596
   XX=    33.7396   YX=    -4.1245   ZX=    -4.8215
   XY=    -4.3680   YY=    27.0302   ZY=     0.6507
   XZ=    -4.9685   YZ=     0.5643   ZZ=    29.4358
   Eigenvalues:    24.2178    27.6796    38.3082
     10  H    Isotropic =    29.4983   Anisotropy =     7.7988
   XX=    31.2219   YX=     2.6612   ZX=     2.9845
   XY=     2.8346   YY=    31.7979   ZY=     0.0511
   XZ=     2.1779   YZ=     0.4765   ZZ=    25.4751
   Eigenvalues:    24.4023    29.3951    34.6975
     11  H    Isotropic =    28.0637   Anisotropy =     8.6491
   XX=    26.5853   YX=    -0.3574   ZX=    -1.9704
   XY=    -0.5070   YY=    24.1013   ZY=     0.0257
   XZ=    -1.0987   YZ=    -0.2492   ZZ=    33.5047
   Eigenvalues:    24.0127    26.3487    33.8298
     12  H    Isotropic =    28.6827   Anisotropy =    11.5674
   XX=    25.4976   YX=    -2.1984   ZX=     0.8906
   XY=    -1.2037   YY=    34.7930   ZY=     4.4674
   XZ=     2.4334   YZ=     3.5000   ZZ=    25.7576
   Eigenvalues:    22.6038    27.0500    36.3944
     13  H    Isotropic =    28.7440   Anisotropy =     9.0870
   XX=    29.4178   YX=     2.1481   ZX=    -0.3824
   XY=     2.9172   YY=    31.4785   ZY=    -4.7112
   XZ=    -1.0055   YZ=    -3.5785   ZZ=    25.3357
   Eigenvalues:    23.1999    28.2301    34.8020
     14  H    Isotropic =    29.9765   Anisotropy =    12.5399
   XX=    30.3674   YX=    -4.6657   ZX=     2.3234
   XY=    -5.1129   YY=    32.6212   ZY=    -4.0193
   XZ=     2.5424   YZ=    -3.7521   ZZ=    26.9409
   Eigenvalues:    24.9672    26.6259    38.3364
     15  H    Isotropic =    30.1058   Anisotropy =     8.8146
   XX=    27.2377   YX=    -0.0975   ZX=    -0.0196
   XY=    -0.0238   YY=    27.1617   ZY=     1.0934
   XZ=     0.3465   YZ=     0.3782   ZZ=    35.9179
   Eigenvalues:    27.0676    27.2676    35.9822
     16  H    Isotropic =    28.7547   Anisotropy =     5.9111
   XX=    29.0117   YX=    -1.2392   ZX=    -2.7584
   XY=    -1.0601   YY=    26.2224   ZY=    -0.2149
   XZ=    -2.1948   YZ=    -1.2303   ZZ=    31.0299
   Eigenvalues:    25.3152    28.2533    32.6954
     17  H    Isotropic =    27.4431   Anisotropy =     4.9221
   XX=    26.4029   YX=    -2.8620   ZX=     1.5211
   XY=    -2.9959   YY=    28.6083   ZY=     0.2765
   XZ=     0.6954   YZ=     2.5054   ZZ=    27.3181
   Eigenvalues:    23.5902    28.0145    30.7245
     18  H    Isotropic =    27.1433   Anisotropy =     3.2939
   XX=    27.7799   YX=     0.8145   ZX=     2.4101
   XY=     2.5654   YY=    27.4949   ZY=    -1.6398
   XZ=     1.6267   YZ=    -2.5635   ZZ=    26.1551
   Eigenvalues:    23.1328    28.9579    29.3393
     19  O    Isotropic =   301.4881   Anisotropy =    60.2591
   XX=   309.2824   YX=    21.9148   ZX=   -11.0705
   XY=     7.3718   YY=   278.3527   ZY=   -17.4115
   XZ=   -25.1441   YZ=   -23.9539   ZZ=   316.8291
   Eigenvalues:   268.1593   294.6441   341.6608
     20  H    Isotropic =    29.9045   Anisotropy =    20.8971
   XX=    28.1952   YX=     6.0339   ZX=    -8.2902
   XY=     6.2950   YY=    25.8895   ZY=    -4.7534
   XZ=    -7.7033   YZ=    -4.9312   ZZ=    35.6289
   Eigenvalues:    20.5431    25.3346    43.8359
     21  O    Isotropic =   306.2922   Anisotropy =    37.5792
   XX=   301.4297   YX=     9.4182   ZX=     0.9337
   XY=    -1.1231   YY=   330.5270   ZY=     2.0179
   XZ=    16.1321   YZ=   -10.7713   ZZ=   286.9198
   Eigenvalues:   282.2955   305.2361   331.3450
     22  H    Isotropic =    29.7006   Anisotropy =    18.8280
   XX=    28.9411   YX=     4.9627   ZX=    -0.5006
   XY=     6.2597   YY=    39.3059   ZY=     3.6086
   XZ=    -1.5378   YZ=     4.2921   ZZ=    20.8547
   Eigenvalues:    19.4865    27.3627    42.2526
     23  C    Isotropic =   132.4730   Anisotropy =    46.3929
   XX=   126.1980   YX=     9.0061   ZX=     7.0262
   XY=    22.2185   YY=   153.7866   ZY=     6.2642
   XZ=    10.3400   YZ=     9.6519   ZZ=   117.4343
   Eigenvalues:   112.0145   122.0029   163.4016
     24  H    Isotropic =    27.9885   Anisotropy =     6.1008
   XX=    30.6367   YX=    -0.1923   ZX=    -0.9215
   XY=    -1.4015   YY=    28.4238   ZY=     3.1232
   XZ=    -2.2856   YZ=     3.3216   ZZ=    24.9048
   Eigenvalues:    22.8662    29.0435    32.0556
     25  H    Isotropic =    28.1889   Anisotropy =     6.4089
   XX=    27.8439   YX=     2.2718   ZX=     3.0303
   XY=     1.5391   YY=    31.2236   ZY=    -3.6426
   XZ=     3.0903   YZ=    -1.8684   ZZ=    25.4991
   Eigenvalues:    22.1565    29.9487    32.4615
     26  O    Isotropic =   319.1720   Anisotropy =    38.1112
   XX=   335.6344   YX=   -11.5444   ZX=    -8.0532
   XY=    -7.9261   YY=   320.9426   ZY=     7.3672
   XZ=   -24.8967   YZ=   -16.8898   ZZ=   300.9391
   Eigenvalues:   292.0459   320.8907   344.5795
     27  H    Isotropic =    28.5733   Anisotropy =    16.4591
   XX=    36.0837   YX=    -2.8057   ZX=    -3.7537
   XY=    -4.7471   YY=    26.3402   ZY=     6.6528
   XZ=    -3.0682   YZ=     7.5513   ZZ=    23.2959
   Eigenvalues:    17.5500    28.6237    39.5460
 End of Minotr Frequency-dependent properties file   721 does not exist.
 End of Minotr Frequency-dependent properties file   722 does not exist.

 **********************************************************************

            Population analysis using the SCF density.

 **********************************************************************

 Orbital symmetries:
       Occupied  (A) (A) (A) (A) (A) (A) (A) (A) (A) (A) (A) (A)
                 (A) (A) (A) (A) (A) (A) (A) (A) (A) (A) (A) (A)
                 (A) (A) (A) (A) (A) (A) (A) (A) (A) (A) (A) (A)
                 (A) (A) (A) (A) (A) (A) (A) (A) (A) (A) (A)
       Virtual   (A) (A) (A) (A) (A) (A) (A) (A) (A) (A) (A) (A)
                 (A) (A) (A) (A) (A) (A) (A) (A) (A) (A) (A) (A)
                 (A) (A) (A) (A) (A) (A) (A) (A) (A) (A) (A) (A)
                 (A) (A) (A) (A) (A) (A) (A) (A) (A) (A) (A) (A)
                 (A) (A) (A) (A) (A) (A) (A) (A) (A) (A) (A) (A)
                 (A) (A) (A) (A) (A) (A) (A) (A) (A) (A) (A) (A)
                 (A) (A) (A) (A) (A) (A) (A) (A) (A) (A) (A) (A)
                 (A) (A) (A) (A) (A) (A) (A) (A) (A) (A) (A) (A)
                 (A) (A) (A) (A) (A) (A) (A) (A) (A) (A) (A) (A)
                 (A) (A) (A) (A) (A) (A) (A) (A) (A) (A) (A) (A)
                 (A) (A) (A) (A) (A) (A) (A) (A) (A) (A) (A) (A)
                 (A) (A) (A) (A) (A) (A) (A) (A) (A) (A) (A) (A)
                 (A) (A) (A) (A) (A) (A) (A) (A) (A) (A) (A) (A)
                 (A) (A) (A) (A) (A) (A) (A) (A) (A) (A) (A) (A)
                 (A) (A) (A) (A) (A) (A) (A) (A) (A) (A) (A) (A)
                 (A) (A) (A) (A) (A) (A) (A) (A) (A) (A) (A) (A)
                 (A) (A) (A) (A) (A) (A) (A) (A) (A) (A) (A) (A)
                 (A) (A) (A) (A) (A) (A) (A) (A) (A) (A) (A) (A)
                 (A) (A) (A) (A) (A) (A) (A) (A) (A) (A) (A) (A)
                 (A) (A) (A) (A) (A) (A) (A) (A) (A) (A) (A) (A)
                 (A) (A) (A) (A) (A) (A) (A) (A) (A) (A) (A) (A)
                 (A) (A) (A) (A)
 The electronic state is 1-A.
 Alpha  occ. eigenvalues --  -19.26366 -19.26062 -19.24669 -14.42243 -10.30750
 Alpha  occ. eigenvalues --  -10.30576 -10.28965 -10.28387 -10.28025 -10.27110
 Alpha  occ. eigenvalues --  -10.24466 -10.24394  -1.07580  -1.05755  -1.05100
 Alpha  occ. eigenvalues --   -0.96912  -0.82428  -0.79227  -0.75475  -0.71524
 Alpha  occ. eigenvalues --   -0.66838  -0.61992  -0.59968  -0.58696  -0.55872
 Alpha  occ. eigenvalues --   -0.52774  -0.51687  -0.49851  -0.49321  -0.47787
 Alpha  occ. eigenvalues --   -0.45732  -0.44830  -0.44702  -0.41779  -0.40380
 Alpha  occ. eigenvalues --   -0.39462  -0.39113  -0.37631  -0.36584  -0.35510
 Alpha  occ. eigenvalues --   -0.34987  -0.33825  -0.33586  -0.30770  -0.29766
 Alpha  occ. eigenvalues --   -0.28664  -0.24395
 Alpha virt. eigenvalues --    0.00546   0.01143   0.01362   0.02326   0.04018
 Alpha virt. eigenvalues --    0.04306   0.04382   0.04763   0.05134   0.07257
 Alpha virt. eigenvalues --    0.07878   0.08224   0.08821   0.09036   0.09825
 Alpha virt. eigenvalues --    0.10160   0.11128   0.11646   0.12457   0.12714
 Alpha virt. eigenvalues --    0.13254   0.13840   0.13999   0.14733   0.14830
 Alpha virt. eigenvalues --    0.15960   0.16541   0.17026   0.17531   0.17845
 Alpha virt. eigenvalues --    0.18090   0.18844   0.19732   0.20395   0.21149
 Alpha virt. eigenvalues --    0.21849   0.22071   0.22194   0.22755   0.23235
 Alpha virt. eigenvalues --    0.23456   0.24052   0.24853   0.25101   0.26437
 Alpha virt. eigenvalues --    0.26622   0.27128   0.27408   0.27970   0.28590
 Alpha virt. eigenvalues --    0.28893   0.30685   0.30931   0.31858   0.32307
 Alpha virt. eigenvalues --    0.32910   0.33645   0.33820   0.34731   0.35198
 Alpha virt. eigenvalues --    0.35899   0.36497   0.37224   0.37755   0.38346
 Alpha virt. eigenvalues --    0.38896   0.39848   0.40648   0.41086   0.41982
 Alpha virt. eigenvalues --    0.43010   0.43973   0.44448   0.45679   0.47016
 Alpha virt. eigenvalues --    0.48272   0.63015   0.66103   0.67358   0.68790
 Alpha virt. eigenvalues --    0.69567   0.71252   0.72055   0.73124   0.75372
 Alpha virt. eigenvalues --    0.76855   0.77782   0.78380   0.79805   0.80480
 Alpha virt. eigenvalues --    0.81022   0.84561   0.85480   0.86408   0.88155
 Alpha virt. eigenvalues --    0.89054   0.90890   0.93450   0.96017   0.97895
 Alpha virt. eigenvalues --    0.99412   1.00216   1.02574   1.04040   1.05630
 Alpha virt. eigenvalues --    1.06511   1.07217   1.09255   1.09825   1.10258
 Alpha virt. eigenvalues --    1.10934   1.12248   1.13070   1.15043   1.15458
 Alpha virt. eigenvalues --    1.17175   1.18827   1.20548   1.25265   1.25541
 Alpha virt. eigenvalues --    1.27748   1.29078   1.30640   1.31327   1.33174
 Alpha virt. eigenvalues --    1.34225   1.37556   1.38400   1.39695   1.42431
 Alpha virt. eigenvalues --    1.42908   1.45953   1.48186   1.49826   1.51650
 Alpha virt. eigenvalues --    1.53897   1.54745   1.57993   1.58552   1.61162
 Alpha virt. eigenvalues --    1.62010   1.64752   1.67082   1.70733   1.72415
 Alpha virt. eigenvalues --    1.73327   1.74303   1.76786   1.78252   1.78632
 Alpha virt. eigenvalues --    1.79576   1.81995   1.83081   1.83340   1.86954
 Alpha virt. eigenvalues --    1.88460   1.89076   1.90480   1.91663   1.93345
 Alpha virt. eigenvalues --    1.95676   1.98553   2.00730   2.01080   2.02930
 Alpha virt. eigenvalues --    2.05928   2.07053   2.08398   2.10459   2.10830
 Alpha virt. eigenvalues --    2.14112   2.15372   2.16493   2.17661   2.19920
 Alpha virt. eigenvalues --    2.22932   2.23206   2.26140   2.28237   2.30223
 Alpha virt. eigenvalues --    2.32399   2.33755   2.34701   2.38188   2.38629
 Alpha virt. eigenvalues --    2.42458   2.42743   2.44786   2.47147   2.48056
 Alpha virt. eigenvalues --    2.49206   2.49974   2.50515   2.53582   2.55094
 Alpha virt. eigenvalues --    2.56115   2.56537   2.59307   2.60070   2.63286
 Alpha virt. eigenvalues --    2.64328   2.64967   2.66348   2.67365   2.69861
 Alpha virt. eigenvalues --    2.70897   2.72963   2.75439   2.76545   2.77333
 Alpha virt. eigenvalues --    2.78315   2.81096   2.81948   2.84193   2.85201
 Alpha virt. eigenvalues --    2.87236   2.89996   2.90997   2.91515   2.96586
 Alpha virt. eigenvalues --    2.97022   3.00104   3.01364   3.02880   3.05040
 Alpha virt. eigenvalues --    3.05667   3.08273   3.15544   3.17622   3.32341
 Alpha virt. eigenvalues --    3.35646   3.36595   3.38024   3.41008   3.45796
 Alpha virt. eigenvalues --    3.47193   3.51644   3.53109   3.54260   3.54924
 Alpha virt. eigenvalues --    3.55733   3.58788   3.60137   3.64517   4.31219
 Alpha virt. eigenvalues --    4.37761   4.42731   4.44363   4.51938   4.55367
 Alpha virt. eigenvalues --    4.60789   4.67328   4.71382   4.86890   4.89938
 Alpha virt. eigenvalues --    4.93977
          Condensed to atoms (all electrons):
              1          2          3          4          5          6
     1  C    5.679943  -0.195507   0.089547  -0.036518   0.094570  -0.009585
     2  C   -0.195507   7.439180  -0.267240  -0.278119   0.177343  -0.239095
     3  N    0.089547  -0.267240   7.488935   0.150325  -0.256978  -0.143502
     4  C   -0.036518  -0.278119   0.150325   5.642395   0.141372  -0.018265
     5  C    0.094570   0.177343  -0.256978   0.141372   5.486261   0.049811
     6  C   -0.009585  -0.239095  -0.143502  -0.018265   0.049811   8.280794
     7  C   -0.065584   0.204928  -0.157599  -0.058487   0.021309  -0.525619
     8  C   -0.030168  -0.580679   0.117113  -0.038818  -0.005983  -0.394774
     9  H    0.414747  -0.087350   0.012507   0.009759  -0.043500   0.008744
    10  H    0.467459  -0.129581   0.020605   0.026586  -0.053577   0.004166
    11  H   -0.021196   0.293283  -0.041538  -0.020162   0.007561  -0.000400
    12  H    0.014187  -0.026591  -0.035839   0.410313  -0.068181  -0.000287
    13  H    0.012247   0.021283  -0.053858   0.386924  -0.024886   0.001847
    14  H   -0.013087   0.007796   0.015178  -0.029424   0.358111  -0.002063
    15  H   -0.046008  -0.017366   0.011977  -0.060445   0.411673   0.017548
    16  H   -0.010356   0.032832  -0.054329   0.027462  -0.000713   0.302036
    17  H    0.022750   0.007743   0.021990   0.010173  -0.020262  -0.064644
    18  H    0.015139  -0.060251   0.023636   0.007143  -0.004546   0.006569
    19  O    0.005830  -0.156157   0.008237   0.001602   0.007115   0.066993
    20  H   -0.011773  -0.029478  -0.001289  -0.000895   0.003089  -0.007396
    21  O    0.003727  -0.010534   0.036955   0.000969  -0.001089  -0.261839
    22  H    0.000171   0.008242  -0.004050  -0.001134   0.000443   0.069970
    23  C    0.042246  -0.137197   0.159710  -0.047559  -0.027277  -0.574419
    24  H    0.000896   0.002934   0.010062  -0.003162   0.000891  -0.121954
    25  H   -0.002775   0.014934   0.011400   0.000358   0.000627  -0.154744
    26  O    0.002860  -0.017089  -0.009658  -0.017146  -0.002752  -0.055457
    27  H   -0.004077   0.031688   0.052117  -0.009126   0.008132  -0.076409
              7          8          9         10         11         12
     1  C   -0.065584  -0.030168   0.414747   0.467459  -0.021196   0.014187
     2  C    0.204928  -0.580679  -0.087350  -0.129581   0.293283  -0.026591
     3  N   -0.157599   0.117113   0.012507   0.020605  -0.041538  -0.035839
     4  C   -0.058487  -0.038818   0.009759   0.026586  -0.020162   0.410313
     5  C    0.021309  -0.005983  -0.043500  -0.053577   0.007561  -0.068181
     6  C   -0.525619  -0.394774   0.008744   0.004166  -0.000400  -0.000287
     7  C    6.178115   0.118357  -0.011274  -0.005668   0.008956   0.001660
     8  C    0.118357   6.167895   0.031228   0.003146   0.059949   0.011793
     9  H   -0.011274   0.031228   0.522258  -0.024034  -0.007835   0.001279
    10  H   -0.005668   0.003146  -0.024034   0.501505   0.003499  -0.000014
    11  H    0.008956   0.059949  -0.007835   0.003499   0.544683   0.001517
    12  H    0.001660   0.011793   0.001279  -0.000014   0.001517   0.534562
    13  H   -0.002264  -0.002449  -0.000112  -0.000132  -0.000133  -0.024284
    14  H    0.001941   0.000623  -0.005751   0.001449  -0.000001  -0.002838
    15  H   -0.012686   0.019684   0.003963  -0.006534  -0.000158   0.004044
    16  H    0.015957  -0.001834   0.000005  -0.000015  -0.000229   0.000086
    17  H    0.404594  -0.049490   0.000051   0.000219  -0.000167  -0.000003
    18  H   -0.067131   0.392846  -0.000095   0.000143  -0.006797   0.000005
    19  O   -0.150421   0.306372  -0.000695   0.002415  -0.005474  -0.000092
    20  H    0.017471   0.041057  -0.000042   0.000091   0.001482   0.000001
    21  O    0.326975  -0.034277   0.000017  -0.000091  -0.000213   0.000078
    22  H    0.011594  -0.069641   0.000000  -0.000002  -0.000008   0.000000
    23  C   -0.253180   0.121245   0.000620  -0.001262   0.007299   0.006818
    24  H   -0.011116  -0.002818   0.000000   0.000000   0.000002   0.000000
    25  H    0.078279  -0.004370   0.000000   0.000000  -0.000106   0.000013
    26  O    0.026238   0.017507   0.000017   0.000010   0.000524   0.001049
    27  H    0.000919  -0.015643  -0.000002  -0.000001  -0.000277  -0.000519
             13         14         15         16         17         18
     1  C    0.012247  -0.013087  -0.046008  -0.010356   0.022750   0.015139
     2  C    0.021283   0.007796  -0.017366   0.032832   0.007743  -0.060251
     3  N   -0.053858   0.015178   0.011977  -0.054329   0.021990   0.023636
     4  C    0.386924  -0.029424  -0.060445   0.027462   0.010173   0.007143
     5  C   -0.024886   0.358111   0.411673  -0.000713  -0.020262  -0.004546
     6  C    0.001847  -0.002063   0.017548   0.302036  -0.064644   0.006569
     7  C   -0.002264   0.001941  -0.012686   0.015957   0.404594  -0.067131
     8  C   -0.002449   0.000623   0.019684  -0.001834  -0.049490   0.392846
     9  H   -0.000112  -0.005751   0.003963   0.000005   0.000051  -0.000095
    10  H   -0.000132   0.001449  -0.006534  -0.000015   0.000219   0.000143
    11  H   -0.000133  -0.000001  -0.000158  -0.000229  -0.000167  -0.006797
    12  H   -0.024284  -0.002838   0.004044   0.000086  -0.000003   0.000005
    13  H    0.522293   0.001071  -0.005094   0.001744   0.000056   0.000007
    14  H    0.001071   0.517100  -0.023811  -0.000132   0.000066   0.000003
    15  H   -0.005094  -0.023811   0.524400   0.000656  -0.000140   0.000001
    16  H    0.001744  -0.000132   0.000656   0.536975  -0.008681  -0.000110
    17  H    0.000056   0.000066  -0.000140  -0.008681   0.549569   0.004542
    18  H    0.000007   0.000003   0.000001  -0.000110   0.004542   0.557082
    19  O    0.000051   0.000081  -0.000288  -0.000330  -0.002674  -0.041465
    20  H    0.000000   0.000000   0.000001   0.000004   0.000076  -0.007003
    21  O   -0.000016   0.000007   0.000227   0.004190  -0.044482  -0.001237
    22  H    0.000000   0.000000  -0.000004  -0.000152  -0.005323  -0.000903
    23  C   -0.007527   0.000129   0.005695  -0.025737  -0.003555   0.002743
    24  H   -0.000015   0.000000  -0.000001  -0.004723  -0.000115   0.000079
    25  H   -0.000024   0.000000   0.000001   0.004503  -0.000239  -0.000274
    26  O    0.000972   0.000020  -0.000043   0.000990  -0.000534  -0.000531
    27  H   -0.000118  -0.000006   0.000002   0.000364  -0.000009   0.000055
             19         20         21         22         23         24
     1  C    0.005830  -0.011773   0.003727   0.000171   0.042246   0.000896
     2  C   -0.156157  -0.029478  -0.010534   0.008242  -0.137197   0.002934
     3  N    0.008237  -0.001289   0.036955  -0.004050   0.159710   0.010062
     4  C    0.001602  -0.000895   0.000969  -0.001134  -0.047559  -0.003162
     5  C    0.007115   0.003089  -0.001089   0.000443  -0.027277   0.000891
     6  C    0.066993  -0.007396  -0.261839   0.069970  -0.574419  -0.121954
     7  C   -0.150421   0.017471   0.326975   0.011594  -0.253180  -0.011116
     8  C    0.306372   0.041057  -0.034277  -0.069641   0.121245  -0.002818
     9  H   -0.000695  -0.000042   0.000017   0.000000   0.000620   0.000000
    10  H    0.002415   0.000091  -0.000091  -0.000002  -0.001262   0.000000
    11  H   -0.005474   0.001482  -0.000213  -0.000008   0.007299   0.000002
    12  H   -0.000092   0.000001   0.000078   0.000000   0.006818   0.000000
    13  H    0.000051   0.000000  -0.000016   0.000000  -0.007527  -0.000015
    14  H    0.000081   0.000000   0.000007   0.000000   0.000129   0.000000
    15  H   -0.000288   0.000001   0.000227  -0.000004   0.005695  -0.000001
    16  H   -0.000330   0.000004   0.004190  -0.000152  -0.025737  -0.004723
    17  H   -0.002674   0.000076  -0.044482  -0.005323  -0.003555  -0.000115
    18  H   -0.041465  -0.007003  -0.001237  -0.000903   0.002743   0.000079
    19  O    8.264480   0.237218  -0.011938   0.011775   0.005249   0.000074
    20  H    0.237218   0.367325   0.000667  -0.000503  -0.000291   0.000000
    21  O   -0.011938   0.000667   8.283895   0.224338   0.017441   0.003161
    22  H    0.011775  -0.000503   0.224338   0.376223  -0.004682   0.000059
    23  C    0.005249  -0.000291   0.017441  -0.004682   5.721291   0.510240
    24  H    0.000074   0.000000   0.003161   0.000059   0.510240   0.535458
    25  H   -0.000508   0.000005  -0.004618  -0.000137   0.412476  -0.037693
    26  O    0.000041  -0.000013  -0.000918   0.000087   0.152606  -0.059006
    27  H    0.000054   0.000000   0.000072   0.000001   0.034181   0.006625
             25         26         27
     1  C   -0.002775   0.002860  -0.004077
     2  C    0.014934  -0.017089   0.031688
     3  N    0.011400  -0.009658   0.052117
     4  C    0.000358  -0.017146  -0.009126
     5  C    0.000627  -0.002752   0.008132
     6  C   -0.154744  -0.055457  -0.076409
     7  C    0.078279   0.026238   0.000919
     8  C   -0.004370   0.017507  -0.015643
     9  H    0.000000   0.000017  -0.000002
    10  H    0.000000   0.000010  -0.000001
    11  H   -0.000106   0.000524  -0.000277
    12  H    0.000013   0.001049  -0.000519
    13  H   -0.000024   0.000972  -0.000118
    14  H    0.000000   0.000020  -0.000006
    15  H    0.000001  -0.000043   0.000002
    16  H    0.004503   0.000990   0.000364
    17  H   -0.000239  -0.000534  -0.000009
    18  H   -0.000274  -0.000531   0.000055
    19  O   -0.000508   0.000041   0.000054
    20  H    0.000005  -0.000013   0.000000
    21  O   -0.004618  -0.000918   0.000072
    22  H   -0.000137   0.000087   0.000001
    23  C    0.412476   0.152606   0.034181
    24  H   -0.037693  -0.059006   0.006625
    25  H    0.587829  -0.052426  -0.003791
    26  O   -0.052426   8.311925   0.228696
    27  H   -0.003791   0.228696   0.366460
 Mulliken atomic charges:
              1
     1  C   -0.419680
     2  C   -0.009951
     3  N   -0.204415
     4  C   -0.196122
     5  C   -0.258564
     6  C   -0.158026
     7  C   -0.096264
     8  C   -0.177872
     9  H    0.175494
    10  H    0.189619
    11  H    0.175939
    12  H    0.171242
    13  H    0.172418
    14  H    0.173538
    15  H    0.172708
    16  H    0.179537
    17  H    0.178490
    18  H    0.180350
    19  O   -0.547546
    20  H    0.390196
    21  O   -0.531469
    22  H    0.383635
    23  C   -0.117303
    24  H    0.170123
    25  H    0.151278
    26  O   -0.527970
    27  H    0.380613
 Sum of Mulliken atomic charges =   0.00000
 Mulliken charges with hydrogens summed into heavy atoms:
              1
     1  C   -0.054567
     2  C    0.165988
     3  N   -0.204415
     4  C    0.147538
     5  C    0.087682
     6  C    0.021511
     7  C    0.082227
     8  C    0.002478
    19  O   -0.157350
    21  O   -0.147834
    23  C    0.204099
    26  O   -0.147356
 Sum of Mulliken charges with hydrogens summed into heavy atoms =   0.00000
 Electronic spatial extent (au):  <R**2>=           2000.7472
 Charge=              0.0000 electrons
 Dipole moment (field-independent basis, Debye):
    X=              5.3828    Y=              0.2782    Z=             -1.0574  Tot=              5.4927
 Quadrupole moment (field-independent basis, Debye-Ang):
   XX=            -86.7310   YY=            -69.9719   ZZ=            -68.6636
   XY=             -3.2144   XZ=             -5.0445   YZ=             -4.7545
 Traceless Quadrupole moment (field-independent basis, Debye-Ang):
   XX=            -11.6088   YY=              5.1503   ZZ=              6.4585
   XY=             -3.2144   XZ=             -5.0445   YZ=             -4.7545
 Octapole moment (field-independent basis, Debye-Ang**2):
  XXX=             49.8024  YYY=             15.7319  ZZZ=             -8.0752  XYY=             13.9819
  XXY=             16.6402  XXZ=             -3.9727  XZZ=              9.0195  YZZ=             10.4257
  YYZ=             -6.8911  XYZ=             -2.6894
 Hexadecapole moment (field-independent basis, Debye-Ang**3):
 XXXX=          -1384.6651 YYYY=           -943.6049 ZZZZ=           -290.1376 XXXY=            -49.4034
 XXXZ=            -60.5802 YYYX=             20.5636 YYYZ=              8.0397 ZZZX=            -14.1437
 ZZZY=             -9.4408 XXYY=           -402.7448 XXZZ=           -242.6532 YYZZ=           -200.1578
 XXYZ=            -29.4181 YYXZ=            -11.9219 ZZXY=             26.9720
 N-N= 8.097953443705D+02 E-N=-3.005286005993D+03  KE= 5.886586530937D+02
 1\1\GINC-COMPUTE-3-2\SP\RmPW1PW91\6-31+G(d,p)\C8H15N1O3\MAMICHETTI.IQU
 IR\17-May-2024\0\\# mpw1pw91/6-31+G** nmr scrf=(pcm,solvent=water)\\co
 mment\\0,1\C,0,2.240873,-0.791231,-0.073636\C,0,1.030016,-0.234085,-0.
 880748\N,0,-0.184288,-0.992002,-0.429301\C,0,0.33379,-2.213977,0.22105
 2\C,0,1.629473,-1.793384,0.925882\C,0,-0.989319,-0.110485,0.471896\C,0
 ,-0.163621,1.171205,0.659386\C,0,0.667412,1.241556,-0.619517\H,0,2.931
 233,-1.301646,-0.753365\H,0,2.800996,0.008906,0.417313\H,0,1.191181,-0
 .400805,-1.950696\H,0,0.556199,-2.956249,-0.556715\H,0,-0.42405,-2.643
 346,0.881773\H,0,2.2921,-2.638093,1.14104\H,0,1.394686,-1.301248,1.877
 742\H,0,-1.154209,-0.617484,1.428151\H,0,0.52529,1.048388,1.507557\H,0
 ,0.029137,1.608744,-1.434323\O,0,1.762965,2.133328,-0.434032\H,0,2.161
 669,2.292445,-1.305743\O,0,-0.999812,2.305726,0.880475\H,0,-0.411957,3
 .078592,0.928728\C,0,-2.364274,0.130427,-0.172002\H,0,-3.05016,0.59880
 9,0.539177\H,0,-2.272217,0.794572,-1.043802\O,0,-2.936998,-1.120457,-0
 .554518\H,0,-2.195208,-1.576513,-1.001009\\Version=AM64L-G09RevC.01\St
 ate=1-A\HF=-594.1972567\RMSD=2.345e-09\Dipole=2.1177578,0.1094458,-0.4
 16001\Quadrupole=-8.6308613,3.8290875,4.8017738,-2.389856,-3.7504412,-
 3.5348653\PG=C01 [X(C8H15N1O3)]\\@


 ERROR IS A HARDY PLANT... IT FLOURISHETH IN EVERY SOIL.
            MARTIN FARQUHAR TUPPER
 Job cpu time:  0 days  0 hours  9 minutes  7.2 seconds.
 File lengths (MBytes):  RWF=    113 Int=      0 D2E=      0 Chk=      7 Scr=      1
 Normal termination of Gaussian 09 at Fri May 17 12:55:13 2024.
