 Entering Gaussian System, Link 0=g09
 Input=/home/mamichetti.iquir/Linux/03_Cardona_A1A3_R__S_S_R_016_OptB.gjc
 Output=/home/mamichetti.iquir/Linux/03_Cardona_A1A3_R__S_S_R_016_OptB.log
 Initial command:
 /opt/ohpc/pub/apps/software/Gaussian/09/AMD64.SSE4a-enabled/g09/l1.exe /local/mamichetti.iquir/Gau-127408.inp -scrdir=/local/mamichetti.iquir/
 Entering Link 1 = /opt/ohpc/pub/apps/software/Gaussian/09/AMD64.SSE4a-enabled/g09/l1.exe PID=    127409.
  
 Copyright (c) 1988,1990,1992,1993,1995,1998,2003,2009,2011,
            Gaussian, Inc.  All Rights Reserved.
  
 This is part of the Gaussian(R) 09 program.  It is based on
 the Gaussian(R) 03 system (copyright 2003, Gaussian, Inc.),
 the Gaussian(R) 98 system (copyright 1998, Gaussian, Inc.),
 the Gaussian(R) 94 system (copyright 1995, Gaussian, Inc.),
 the Gaussian 92(TM) system (copyright 1992, Gaussian, Inc.),
 the Gaussian 90(TM) system (copyright 1990, Gaussian, Inc.),
 the Gaussian 88(TM) system (copyright 1988, Gaussian, Inc.),
 the Gaussian 86(TM) system (copyright 1986, Carnegie Mellon
 University), and the Gaussian 82(TM) system (copyright 1983,
 Carnegie Mellon University). Gaussian is a federally registered
 trademark of Gaussian, Inc.
  
 This software contains proprietary and confidential information,
 including trade secrets, belonging to Gaussian, Inc.
  
 This software is provided under written license and may be
 used, copied, transmitted, or stored only in accord with that
 written license.
  
 The following legend is applicable only to US Government
 contracts under FAR:
  
                    RESTRICTED RIGHTS LEGEND
  
 Use, reproduction and disclosure by the US Government is
 subject to restrictions as set forth in subparagraphs (a)
 and (c) of the Commercial Computer Software - Restricted
 Rights clause in FAR 52.227-19.
  
 Gaussian, Inc.
 340 Quinnipiac St., Bldg. 40, Wallingford CT 06492
  
  
 ---------------------------------------------------------------
 Warning -- This program may not be used in any manner that
 competes with the business of Gaussian, Inc. or will provide
 assistance to any competitor of Gaussian, Inc.  The licensee
 of this program is prohibited from giving any competitor of
 Gaussian, Inc. access to this program.  By using this program,
 the user acknowledges that Gaussian, Inc. is engaged in the
 business of creating and licensing software in the field of
 computational chemistry and represents and warrants to the
 licensee that it is not a competitor of Gaussian, Inc. and that
 it will not use this program in any manner prohibited above.
 ---------------------------------------------------------------
  

 Cite this work as:
 Gaussian 09, Revision C.01,
 M. J. Frisch, G. W. Trucks, H. B. Schlegel, G. E. Scuseria, 
 M. A. Robb, J. R. Cheeseman, G. Scalmani, V. Barone, B. Mennucci, 
 G. A. Petersson, H. Nakatsuji, M. Caricato, X. Li, H. P. Hratchian, 
 A. F. Izmaylov, J. Bloino, G. Zheng, J. L. Sonnenberg, M. Hada, 
 M. Ehara, K. Toyota, R. Fukuda, J. Hasegawa, M. Ishida, T. Nakajima, 
 Y. Honda, O. Kitao, H. Nakai, T. Vreven, J. A. Montgomery, Jr., 
 J. E. Peralta, F. Ogliaro, M. Bearpark, J. J. Heyd, E. Brothers, 
 K. N. Kudin, V. N. Staroverov, T. Keith, R. Kobayashi, J. Normand, 
 K. Raghavachari, A. Rendell, J. C. Burant, S. S. Iyengar, J. Tomasi, 
 M. Cossi, N. Rega, J. M. Millam, M. Klene, J. E. Knox, J. B. Cross, 
 V. Bakken, C. Adamo, J. Jaramillo, R. Gomperts, R. E. Stratmann, 
 O. Yazyev, A. J. Austin, R. Cammi, C. Pomelli, J. W. Ochterski, 
 R. L. Martin, K. Morokuma, V. G. Zakrzewski, G. A. Voth, 
 P. Salvador, J. J. Dannenberg, S. Dapprich, A. D. Daniels, 
 O. Farkas, J. B. Foresman, J. V. Ortiz, J. Cioslowski, 
 and D. J. Fox, Gaussian, Inc., Wallingford CT, 2010.
 
 ******************************************
 Gaussian 09:  AM64L-G09RevC.01 23-Sep-2011
                17-May-2024 
 ******************************************
 %nprocshared=4
 Will use up to    4 processors via shared memory.
 ------------------------------------------------
 # mpw1pw91/6-31+G** nmr scrf=(pcm,solvent=water)
 ------------------------------------------------
 1/38=1/1;
 2/12=2,17=6,18=5,40=1/2;
 3/5=1,6=6,7=111,11=2,16=1,25=1,30=1,70=2201,72=1,74=-7/1,2,8,3;
 4//1;
 5/5=2,38=5,53=1/2;
 8/6=1,10=90,11=11/1;
 10/13=100,45=16/2;
 6/7=2,8=2,9=2,10=2,28=1/1;
 99/9=1/99;
 -------
 comment
 -------
 Charge =  0 Multiplicity = 1
 Symbolic Z-Matrix:
 6                     2.41738   0.04797  -0.64035 
 6                     0.91307   0.3435   -0.78303 
 7                     0.20122  -0.77172  -0.06519 
 6                     1.2133   -1.58273   0.6377 
 6                     2.45966  -1.43794  -0.23763 
 6                    -0.86724  -0.19043   0.77438 
 6                    -1.07759   1.22885   0.20738 
 6                     0.35619   1.64148  -0.1766 
 1                     2.96595   0.25646  -1.56351 
 1                     2.85143   0.6611    0.15426 
 1                     0.61591   0.32605  -1.83788 
 1                     0.88466  -2.62242   0.7452 
 1                     1.40721  -1.18875   1.65008 
 1                     2.37203  -2.07879  -1.12319 
 1                     3.37646  -1.71507   0.29197 
 1                    -0.53992  -0.08841   1.81991 
 1                    -1.49567   1.90073   0.96903 
 1                     0.3564    2.47009  -0.89603 
 8                     1.10173   1.98871   0.99402 
 1                     0.66874   2.76632   1.38495 
 8                    -1.91301   1.27173  -0.95571 
 1                    -2.28139   0.37256  -1.08863 
 6                    -2.10943  -1.08536   0.74057 
 1                    -1.9314   -2.00254   1.31773 
 1                    -2.9779   -0.57517   1.16743 
 8                    -2.43337  -1.41613  -0.62098 
 1                    -1.55577  -1.62667  -1.00812 
 
                          Input orientation:                          
 ---------------------------------------------------------------------
 Center     Atomic      Atomic             Coordinates (Angstroms)
 Number     Number       Type             X           Y           Z
 ---------------------------------------------------------------------
      1          6           0        2.417382    0.047967   -0.640345
      2          6           0        0.913065    0.343501   -0.783028
      3          7           0        0.201217   -0.771721   -0.065191
      4          6           0        1.213298   -1.582725    0.637699
      5          6           0        2.459661   -1.437944   -0.237626
      6          6           0       -0.867244   -0.190425    0.774379
      7          6           0       -1.077588    1.228853    0.207375
      8          6           0        0.356191    1.641479   -0.176601
      9          1           0        2.965946    0.256455   -1.563512
     10          1           0        2.851430    0.661101    0.154263
     11          1           0        0.615914    0.326048   -1.837881
     12          1           0        0.884658   -2.622424    0.745200
     13          1           0        1.407205   -1.188751    1.650083
     14          1           0        2.372034   -2.078786   -1.123195
     15          1           0        3.376461   -1.715068    0.291967
     16          1           0       -0.539917   -0.088411    1.819909
     17          1           0       -1.495673    1.900730    0.969030
     18          1           0        0.356401    2.470091   -0.896026
     19          8           0        1.101727    1.988712    0.994015
     20          1           0        0.668737    2.766316    1.384948
     21          8           0       -1.913006    1.271731   -0.955711
     22          1           0       -2.281392    0.372563   -1.088626
     23          6           0       -2.109435   -1.085359    0.740573
     24          1           0       -1.931402   -2.002540    1.317728
     25          1           0       -2.977897   -0.575173    1.167432
     26          8           0       -2.433374   -1.416133   -0.620982
     27          1           0       -1.555773   -1.626672   -1.008118
 ---------------------------------------------------------------------
                    Distance matrix (angstroms):
                    1          2          3          4          5
     1  C    0.000000
     2  C    1.539698   0.000000
     3  N    2.431888   1.505237   0.000000
     4  C    2.396325   2.412250   1.475158   0.000000
     5  C    1.540098   2.421357   2.360965   1.529894   0.000000
     6  C    3.584277   2.424890   1.477969   2.507157   3.694422
     7  C    3.785226   2.393208   2.389965   3.652165   4.452186
     8  C    2.646289   1.537078   2.420736   3.434124   3.729766
     9  H    1.093904   2.197966   3.308450   3.361501   2.210268
    10  H    1.093496   2.176383   3.020723   2.819919   2.170956
    11  H    2.180988   1.096047   2.125912   3.182574   3.011957
    12  H    3.376384   3.336615   2.132821   1.095689   2.202175
    13  H    2.792130   2.917533   2.137869   1.103511   2.175593
    14  H    2.181348   2.848118   2.745949   2.165524   1.096626
    15  H    2.212991   3.385504   3.331612   2.194611   1.094435
    16  H    3.849294   3.012140   2.137708   2.589277   3.879711
    17  H    4.618963   3.361055   3.330322   4.425242   5.314831
    18  H    3.190564   2.201143   3.350181   4.417228   4.486639
    19  O    2.858071   2.429032   3.090765   3.590901   3.886244
    20  H    3.814314   3.260345   3.852166   4.446244   4.849325
    21  O    4.511021   2.979615   3.072240   4.523345   5.194054
    22  H    4.731257   3.209173   2.918930   4.360758   5.145845
    23  C    4.866563   3.674031   2.467131   3.361326   4.685918
    24  H    5.191392   4.243592   2.824083   3.244661   4.692476
    25  H    5.724107   4.448353   3.415371   4.343028   5.682042
    26  O    5.066932   3.784339   2.768617   3.861379   4.908078
    27  H    4.327312   3.166608   2.169577   3.221552   4.093041
                    6          7          8          9         10
     6  C    0.000000
     7  C    1.542753   0.000000
     8  C    2.399381   1.540591   0.000000
     9  H    4.512071   4.520151   3.263837   0.000000
    10  H    3.864994   3.970182   2.701264   1.768503   0.000000
    11  H    3.048016   2.804653   2.134869   2.367018   3.013043
    12  H    2.997437   4.355686   4.394299   4.236727   3.872846
    13  H    2.633748   3.755051   3.528683   3.852984   2.783023
    14  H    4.202335   4.960926   4.335901   2.449482   3.060833
    15  H    4.535007   5.339698   4.539603   2.738289   2.437375
    16  H    1.100310   2.150474   2.789549   4.884419   3.851932
    17  H    2.192200   1.098332   2.192962   5.387342   4.593237
    18  H    3.371336   2.194195   1.097347   3.486466   3.255875
    19  O    2.945119   2.438361   1.430642   3.607904   2.351424
    20  H    3.387381   2.607704   1.949712   4.502220   3.272715
    21  O    2.494941   1.432666   2.427546   5.020396   4.929986
    22  H    2.405734   1.965196   3.065743   5.270062   5.289035
    23  C    1.531368   2.589321   3.788953   5.733129   5.291887
    24  H    2.170581   3.521900   4.554665   6.114623   5.596795
    25  H    2.181141   2.790590   4.223282   6.593855   6.044497
    26  O    2.429435   3.085495   4.162708   5.730495   5.731061
    27  H    2.390434   3.140081   3.876576   4.929561   5.099850
                   11         12         13         14         15
    11  H    0.000000
    12  H    3.929124   0.000000
    13  H    3.884154   1.774059   0.000000
    14  H    3.062346   2.449230   3.068245   0.000000
    15  H    4.040177   2.690315   2.449379   1.773090   0.000000
    16  H    3.858387   3.099296   2.242961   4.593791   4.507620
    17  H    3.849308   5.116151   4.293650   5.930692   6.104924
    18  H    2.356132   5.376466   4.579736   4.980629   5.296003
    19  O    3.319654   4.622943   3.258836   4.758235   4.402871
    20  H    4.042812   5.430876   4.032144   5.715507   5.348755
    21  O    2.840418   5.087678   4.885482   5.442020   6.201301
    22  H    2.992980   4.728291   4.852214   5.259722   6.186723
    23  C    4.008494   3.365588   3.633821   4.954200   5.540112
    24  H    4.676431   2.939768   3.452392   4.948078   5.413708
    25  H    4.770700   4.391907   4.454049   6.010789   6.514880
    26  O    3.716745   3.785621   4.467604   4.876810   5.888720
    27  H    3.036091   3.165652   4.004628   3.955416   5.101467
                   16         17         18         19         20
    16  H    0.000000
    17  H    2.365195   0.000000
    18  H    3.837398   2.689384   0.000000
    19  O    2.773362   2.599010   2.087940   0.000000
    20  H    3.130416   2.367889   2.321238   0.972099   0.000000
    21  O    3.382222   2.067471   2.567068   3.661162   3.791816
    22  H    3.421229   2.680783   3.375599   4.288919   4.533418
    23  C    2.149944   3.057061   4.626016   4.452607   4.792584
    24  H    2.419154   3.942964   5.489916   5.023421   5.432056
    25  H    2.570294   2.892481   4.964779   4.821505   4.950838
    26  O    3.362436   3.795919   4.791788   5.167023   5.580298
    27  H    3.375788   4.044168   4.522438   4.913435   5.474811
                   21         22         23         24         25
    21  O    0.000000
    22  H    0.980754   0.000000
    23  C    2.910642   2.345437   0.000000
    24  H    3.986190   3.399139   1.098192   0.000000
    25  H    3.008784   2.544233   1.093949   1.776265   0.000000
    26  O    2.758159   1.855053   1.438117   2.086731   2.049913
    27  H    2.920805   2.128367   1.912454   2.385777   2.803766
                   26         27
    26  O    0.000000
    27  H    0.982031   0.000000
 Stoichiometry    C8H15NO3
 Framework group  C1[X(C8H15NO3)]
 Deg. of freedom    75
 Full point group                 C1      NOp   1
 Largest Abelian subgroup         C1      NOp   1
 Largest concise Abelian subgroup C1      NOp   1
                         Standard orientation:                         
 ---------------------------------------------------------------------
 Center     Atomic      Atomic             Coordinates (Angstroms)
 Number     Number       Type             X           Y           Z
 ---------------------------------------------------------------------
      1          6           0        2.417382    0.047967   -0.640345
      2          6           0        0.913065    0.343501   -0.783028
      3          7           0        0.201217   -0.771721   -0.065191
      4          6           0        1.213298   -1.582725    0.637699
      5          6           0        2.459661   -1.437944   -0.237626
      6          6           0       -0.867244   -0.190425    0.774379
      7          6           0       -1.077588    1.228853    0.207375
      8          6           0        0.356191    1.641479   -0.176601
      9          1           0        2.965946    0.256454   -1.563512
     10          1           0        2.851430    0.661100    0.154263
     11          1           0        0.615914    0.326048   -1.837881
     12          1           0        0.884657   -2.622424    0.745200
     13          1           0        1.407205   -1.188751    1.650083
     14          1           0        2.372033   -2.078786   -1.123195
     15          1           0        3.376461   -1.715069    0.291967
     16          1           0       -0.539917   -0.088411    1.819909
     17          1           0       -1.495673    1.900730    0.969030
     18          1           0        0.356401    2.470091   -0.896026
     19          8           0        1.101727    1.988712    0.994015
     20          1           0        0.668738    2.766316    1.384948
     21          8           0       -1.913006    1.271731   -0.955711
     22          1           0       -2.281392    0.372564   -1.088626
     23          6           0       -2.109435   -1.085358    0.740573
     24          1           0       -1.931403   -2.002540    1.317728
     25          1           0       -2.977897   -0.575172    1.167432
     26          8           0       -2.433374   -1.416132   -0.620982
     27          1           0       -1.555773   -1.626672   -1.008118
 ---------------------------------------------------------------------
 Rotational constants (GHZ):      1.3175130      0.8798124      0.6527373
 Standard basis: 6-31+G(d,p) (6D, 7F)
 There are   303 symmetry adapted basis functions of A   symmetry.
 Integral buffers will be    131072 words long.
 Raffenetti 2 integral format.
 Two-electron integral symmetry is turned on.
   303 basis functions,   489 primitive gaussians,   303 cartesian basis functions
    47 alpha electrons       47 beta electrons
       nuclear repulsion energy       819.4119444121 Hartrees.
 NAtoms=   27 NActive=   27 NUniq=   27 SFac= 1.00D+00 NAtFMM=   60 NAOKFM=F Big=F
 ------------------------------------------------------------------------------
 Polarizable Continuum Model (PCM)
 =================================
 Model                : PCM.
 Atomic radii         : UFF (Universal Force Field).
 Polarization charges : Total charges.
 Charge compensation  : None.
 Solution method      : Matrix inversion.
 Cavity type          : Scaled VdW (van der Waals Surface) (Alpha=1.100).
 Cavity algorithm     : GePol (No added spheres)
                        Default sphere list used, NSphG=   27.
                        Lebedev-Laikov grids with approx.  5.0 points / Ang**2.
                        Smoothing algorithm: Karplus/York (Gamma=1.0000).
                        Polarization charges: spherical gaussians, with
                                              point-specific exponents (IZeta= 3).
                        Self-potential: point-specific (ISelfS= 7).
                        Self-field    : sphere-specific E.n sum rule (ISelfD= 2).
 Solvent              : Water, Eps=  78.355300 Eps(inf)=   1.777849
 ------------------------------------------------------------------------------
 One-electron integrals computed using PRISM.
 NBasis=   303 RedAO= T  NBF=   303
 NBsUse=   303 1.00D-06 NBFU=   303
 Harris functional with IExCor=  908 diagonalized for initial guess.
 ExpMin= 4.38D-02 ExpMax= 5.48D+03 ExpMxC= 8.25D+02 IAcc=2 IRadAn=         4 AccDes= 0.00D+00
 HarFok:  IExCor=  908 AccDes= 0.00D+00 IRadAn=         4 IDoV= 1
 ScaDFX=  1.000000  1.000000  1.000000  1.000000
 FoFCou: FMM=F IPFlag=           0 FMFlag=      100000 FMFlg1=           0
         NFxFlg=           0 DoJE=T BraDBF=F KetDBF=T FulRan=T
         Omega=  0.000000  0.000000  1.000000  0.000000  0.000000 ICntrl=     500 IOpCl=  0
         NMat0=    1 NMatS0=    1 NMatT0=    0 NMatD0=    1 NMtDS0=    0 NMtDT0=    0
         I1Cent=           4 NGrid=           0.
 Petite list used in FoFCou.
 Initial guess orbital symmetries:
       Occupied  (A) (A) (A) (A) (A) (A) (A) (A) (A) (A) (A) (A)
                 (A) (A) (A) (A) (A) (A) (A) (A) (A) (A) (A) (A)
                 (A) (A) (A) (A) (A) (A) (A) (A) (A) (A) (A) (A)
                 (A) (A) (A) (A) (A) (A) (A) (A) (A) (A) (A)
       Virtual   (A) (A) (A) (A) (A) (A) (A) (A) (A) (A) (A) (A)
                 (A) (A) (A) (A) (A) (A) (A) (A) (A) (A) (A) (A)
                 (A) (A) (A) (A) (A) (A) (A) (A) (A) (A) (A) (A)
                 (A) (A) (A) (A) (A) (A) (A) (A) (A) (A) (A) (A)
                 (A) (A) (A) (A) (A) (A) (A) (A) (A) (A) (A) (A)
                 (A) (A) (A) (A) (A) (A) (A) (A) (A) (A) (A) (A)
                 (A) (A) (A) (A) (A) (A) (A) (A) (A) (A) (A) (A)
                 (A) (A) (A) (A) (A) (A) (A) (A) (A) (A) (A) (A)
                 (A) (A) (A) (A) (A) (A) (A) (A) (A) (A) (A) (A)
                 (A) (A) (A) (A) (A) (A) (A) (A) (A) (A) (A) (A)
                 (A) (A) (A) (A) (A) (A) (A) (A) (A) (A) (A) (A)
                 (A) (A) (A) (A) (A) (A) (A) (A) (A) (A) (A) (A)
                 (A) (A) (A) (A) (A) (A) (A) (A) (A) (A) (A) (A)
                 (A) (A) (A) (A) (A) (A) (A) (A) (A) (A) (A) (A)
                 (A) (A) (A) (A) (A) (A) (A) (A) (A) (A) (A) (A)
                 (A) (A) (A) (A) (A) (A) (A) (A) (A) (A) (A) (A)
                 (A) (A) (A) (A) (A) (A) (A) (A) (A) (A) (A) (A)
                 (A) (A) (A) (A) (A) (A) (A) (A) (A) (A) (A) (A)
                 (A) (A) (A) (A) (A) (A) (A) (A) (A) (A) (A) (A)
                 (A) (A) (A) (A) (A) (A) (A) (A) (A) (A) (A) (A)
                 (A) (A) (A) (A) (A) (A) (A) (A) (A) (A) (A) (A)
                 (A) (A) (A) (A)
 The electronic state of the initial guess is 1-A.
 Requested convergence on RMS density matrix=1.00D-08 within 128 cycles.
 Requested convergence on MAX density matrix=1.00D-06.
 Requested convergence on             energy=1.00D-06.
 No special actions if energy rises.
 Error on total polarization charges =  0.01406
 SCF Done:  E(RmPW1PW91) =  -594.203123475     A.U. after   13 cycles
             Convg  =    0.3397D-08             -V/T =  2.0094
 Range of M.O.s used for correlation:     1   303
 NBasis=   303 NAE=    47 NBE=    47 NFC=     0 NFV=     0
 NROrb=    303 NOA=    47 NOB=    47 NVA=   256 NVB=   256

 **** Warning!!: The largest alpha MO coefficient is  0.67211019D+02

 NEqPCM:  Using equilibrium solvation (IEInf=0, Eps=  78.3553, EpsInf=   1.7778)
          Differentiating once with respect to magnetic field using GIAOs.
          Electric field/nuclear overlap derivatives assumed to be zero.
 FoFCou: FMM=F IPFlag=           0 FMFlag=    10101102 FMFlg1=           0
         NFxFlg=    40000000 DoJE=F BraDBF=F KetDBF=T FulRan=T
         Omega=  0.000000  0.000000  1.000000  0.000000  0.000000 ICntrl=    6100 IOpCl=  0
         NMat0=    1 NMatS0=    1 NMatT0=    0 NMatD0=    1 NMtDS0=    0 NMtDT0=    0
         I1Cent=           7 NGrid=        1832.
 Symmetry not used in FoFCou.
          There are     3 degrees of freedom in the 1st order CPHF.  IDoFFX=0.
      3 vectors produced by pass  0 Test12= 4.01D-13 3.33D-08 XBig12= 3.17D+01 1.28D+00.
 AX will form     3 AO Fock derivatives at one time.
      3 vectors produced by pass  1 Test12= 4.01D-13 3.33D-08 XBig12= 7.57D-02 4.28D-02.
      3 vectors produced by pass  2 Test12= 4.01D-13 3.33D-08 XBig12= 1.79D-04 2.39D-03.
      3 vectors produced by pass  3 Test12= 4.01D-13 3.33D-08 XBig12= 6.76D-07 1.18D-04.
      3 vectors produced by pass  4 Test12= 4.01D-13 3.33D-08 XBig12= 2.24D-09 6.28D-06.
      3 vectors produced by pass  5 Test12= 4.01D-13 3.33D-08 XBig12= 7.45D-12 3.92D-07.
 Inverted reduced A of dimension    18 with in-core refinement.
 Calculating GIAO nuclear magnetic shielding tensors.
 SCF GIAO Magnetic shielding tensor (ppm):
      1  C    Isotropic =   171.8111   Anisotropy =    20.3679
   XX=   180.0893   YX=    -5.7836   ZX=    -3.9035
   XY=     1.4840   YY=   179.5257   ZY=   -17.0532
   XZ=    -4.3643   YZ=    -9.2372   ZZ=   155.8183
   Eigenvalues:   149.2697   180.7739   185.3897
      2  C    Isotropic =   126.2969   Anisotropy =    59.8317
   XX=   134.5284   YX=    10.6544   ZX=   -19.7223
   XY=    12.1746   YY=   149.6903   ZY=   -22.4681
   XZ=   -21.3674   YZ=   -16.3882   ZZ=    94.6720
   Eigenvalues:    83.0264   129.6796   166.1847
      3  N    Isotropic =   196.0360   Anisotropy =    75.8065
   XX=   221.9506   YX=   -16.0793   ZX=   -46.6825
   XY=   -27.3170   YY=   214.7465   ZY=   -43.4519
   XZ=   -49.8981   YZ=   -46.4748   ZZ=   151.4110
   Eigenvalues:   104.3183   237.2160   246.5737
      4  C    Isotropic =   140.2517   Anisotropy =    53.8688
   XX=   152.4224   YX=   -22.0707   ZX=    11.3162
   XY=   -30.4271   YY=   130.8250   ZY=    -7.3758
   XZ=     9.1498   YZ=   -17.2766   ZZ=   137.5078
   Eigenvalues:   112.2639   132.3271   176.1642
      5  C    Isotropic =   163.3218   Anisotropy =    25.9700
   XX=   174.0400   YX=    -4.9138   ZX=   -10.8583
   XY=    -8.3566   YY=   169.4411   ZY=   -19.0808
   XZ=   -19.0215   YZ=   -13.3389   ZZ=   146.4842
   Eigenvalues:   131.7940   177.5362   180.6351
      6  C    Isotropic =   127.9516   Anisotropy =    48.4298
   XX=   140.5104   YX=   -16.7035   ZX=   -16.7732
   XY=   -13.6376   YY=   122.0231   ZY=    14.0675
   XZ=   -17.0745   YZ=    10.8057   ZZ=   121.3213
   Eigenvalues:   109.0099   114.6067   160.2381
      7  C    Isotropic =   107.4285   Anisotropy =    30.6596
   XX=   125.1660   YX=    -3.2822   ZX=     9.1362
   XY=    10.6037   YY=    98.5785   ZY=     2.9988
   XZ=     7.9255   YZ=   -10.8427   ZZ=    98.5409
   Eigenvalues:    92.2908   102.1264   127.8682
      8  C    Isotropic =   117.7107   Anisotropy =    34.0753
   XX=   125.1155   YX=    13.2279   ZX=    15.2972
   XY=     4.8360   YY=   107.3913   ZY=    -0.4352
   XZ=    13.0122   YZ=    11.0229   ZZ=   120.6253
   Eigenvalues:   103.5556   109.1489   140.4276
      9  H    Isotropic =    29.8895   Anisotropy =    11.6786
   XX=    30.9280   YX=     0.8110   ZX=    -5.6271
   XY=     1.7232   YY=    27.2033   ZY=    -3.2356
   XZ=    -5.6980   YZ=    -2.1695   ZZ=    31.5372
   Eigenvalues:    24.9892    27.0041    37.6753
     10  H    Isotropic =    29.3474   Anisotropy =     7.5510
   XX=    31.5129   YX=     1.2517   ZX=     1.7707
   XY=     1.2787   YY=    30.4817   ZY=     4.1590
   XZ=     2.2396   YZ=     3.6981   ZZ=    26.0475
   Eigenvalues:    23.5928    30.0679    34.3814
     11  H    Isotropic =    27.5360   Anisotropy =     7.3975
   XX=    26.2757   YX=     0.4131   ZX=     0.1005
   XY=    -0.4807   YY=    24.3877   ZY=    -2.6694
   XZ=    -0.4443   YZ=    -1.4249   ZZ=    31.9447
   Eigenvalues:    23.8664    26.2740    32.4676
     12  H    Isotropic =    28.4109   Anisotropy =     9.7229
   XX=    27.1186   YX=    -0.7135   ZX=    -0.1189
   XY=     0.1515   YY=    33.7986   ZY=    -3.2984
   XZ=     0.0258   YZ=    -3.4773   ZZ=    24.3155
   Eigenvalues:    23.2251    27.1147    34.8928
     13  H    Isotropic =    29.1849   Anisotropy =     8.5666
   XX=    28.0800   YX=    -1.4237   ZX=     2.9257
   XY=    -1.8638   YY=    26.2166   ZY=    -2.0719
   XZ=     2.0867   YZ=    -1.5908   ZZ=    33.2582
   Eigenvalues:    25.2402    27.4186    34.8960
     14  H    Isotropic =    29.3510   Anisotropy =    10.5461
   XX=    26.5901   YX=    -1.5488   ZX=    -2.6472
   XY=    -1.9049   YY=    32.0899   ZY=     4.6158
   XZ=    -2.6661   YZ=     4.4616   ZZ=    29.3732
   Eigenvalues:    24.7736    26.8978    36.3818
     15  H    Isotropic =    29.4434   Anisotropy =    11.7788
   XX=    34.2555   YX=    -3.8203   ZX=     2.4620
   XY=    -4.5976   YY=    28.2955   ZY=    -2.0827
   XZ=     2.5674   YZ=    -1.9004   ZZ=    25.7792
   Eigenvalues:    24.6751    26.3591    37.2959
     16  H    Isotropic =    28.6037   Anisotropy =     5.2192
   XX=    27.2547   YX=     0.0761   ZX=    -1.1366
   XY=     1.2033   YY=    26.6227   ZY=     0.9251
   XZ=    -0.4393   YZ=    -0.0452   ZZ=    31.9336
   Eigenvalues:    26.1157    27.6122    32.0831
     17  H    Isotropic =    27.2465   Anisotropy =     5.3226
   XX=    27.5574   YX=    -1.6998   ZX=     0.6549
   XY=    -2.7008   YY=    27.3062   ZY=     2.4840
   XZ=     0.5203   YZ=     3.8281   ZZ=    26.8759
   Eigenvalues:    23.0593    27.8852    30.7949
     18  H    Isotropic =    27.7167   Anisotropy =     6.6882
   XX=    24.9596   YX=     0.1974   ZX=     1.9723
   XY=     0.6783   YY=    30.3115   ZY=    -2.1165
   XZ=     2.0869   YZ=    -3.3626   ZZ=    27.8789
   Eigenvalues:    23.4659    27.5087    32.1755
     19  O    Isotropic =   291.3294   Anisotropy =    80.3144
   XX=   276.7260   YX=   -23.4501   ZX=   -31.5037
   XY=   -14.9636   YY=   304.9789   ZY=    33.1229
   XZ=    -6.5090   YZ=    36.9220   ZZ=   292.2833
   Eigenvalues:   261.9456   267.1702   344.8723
     20  H    Isotropic =    30.3297   Anisotropy =    20.1389
   XX=    26.4159   YX=    -4.2804   ZX=     0.2214
   XY=    -4.5932   YY=    36.3040   ZY=     9.0977
   XZ=    -0.8435   YZ=    10.5201   ZZ=    28.2693
   Eigenvalues:    20.7129    26.5207    43.7556
     21  O    Isotropic =   299.7252   Anisotropy =    38.8038
   XX=   298.2521   YX=    13.8272   ZX=    13.1393
   XY=    22.3000   YY=   313.6547   ZY=     1.5719
   XZ=    12.6495   YZ=   -19.4909   ZZ=   287.2687
   Eigenvalues:   271.0870   302.4942   325.5944
     22  H    Isotropic =    26.5126   Anisotropy =    23.9140
   XX=    21.3463   YX=     7.8694   ZX=     5.9583
   XY=     7.5981   YY=    39.5532   ZY=    -0.9014
   XZ=     5.8711   YZ=    -0.9643   ZZ=    18.6384
   Eigenvalues:    12.6751    24.4076    42.4553
     23  C    Isotropic =   133.9455   Anisotropy =    56.4566
   XX=   117.3538   YX=    10.8441   ZX=     9.9778
   XY=     9.8428   YY=   119.4079   ZY=    13.4879
   XZ=    15.2731   YZ=     8.4667   ZZ=   165.0749
   Eigenvalues:   107.8965   122.3569   171.5832
     24  H    Isotropic =    27.6507   Anisotropy =     8.8001
   XX=    25.3916   YX=     2.4873   ZX=     0.2989
   XY=     2.4594   YY=    27.6075   ZY=    -3.4171
   XZ=     0.3579   YZ=    -5.3416   ZZ=    29.9530
   Eigenvalues:    22.5279    26.9068    33.5174
     25  H    Isotropic =    27.6658   Anisotropy =     7.0507
   XX=    29.4752   YX=     0.9634   ZX=    -2.6124
   XY=    -0.7048   YY=    25.2304   ZY=     0.9375
   XZ=    -4.1535   YZ=     1.1838   ZZ=    28.2916
   Eigenvalues:    24.4135    26.2176    32.3662
     26  O    Isotropic =   311.5986   Anisotropy =    36.8626
   XX=   331.8522   YX=    -2.4191   ZX=    -9.1065
   XY=    -1.5508   YY=   303.2079   ZY=   -20.4576
   XZ=   -15.4741   YZ=    -4.6280   ZZ=   299.7358
   Eigenvalues:   286.2715   312.3508   336.1737
     27  H    Isotropic =    27.6438   Anisotropy =    16.7754
   XX=    37.5422   YX=    -0.8883   ZX=    -2.6579
   XY=    -0.4142   YY=    21.2657   ZY=     6.3699
   XZ=    -4.9357   YZ=     5.2849   ZZ=    24.1233
   Eigenvalues:    16.5275    27.5764    38.8274
 End of Minotr Frequency-dependent properties file   721 does not exist.
 End of Minotr Frequency-dependent properties file   722 does not exist.

 **********************************************************************

            Population analysis using the SCF density.

 **********************************************************************

 Orbital symmetries:
       Occupied  (A) (A) (A) (A) (A) (A) (A) (A) (A) (A) (A) (A)
                 (A) (A) (A) (A) (A) (A) (A) (A) (A) (A) (A) (A)
                 (A) (A) (A) (A) (A) (A) (A) (A) (A) (A) (A) (A)
                 (A) (A) (A) (A) (A) (A) (A) (A) (A) (A) (A)
       Virtual   (A) (A) (A) (A) (A) (A) (A) (A) (A) (A) (A) (A)
                 (A) (A) (A) (A) (A) (A) (A) (A) (A) (A) (A) (A)
                 (A) (A) (A) (A) (A) (A) (A) (A) (A) (A) (A) (A)
                 (A) (A) (A) (A) (A) (A) (A) (A) (A) (A) (A) (A)
                 (A) (A) (A) (A) (A) (A) (A) (A) (A) (A) (A) (A)
                 (A) (A) (A) (A) (A) (A) (A) (A) (A) (A) (A) (A)
                 (A) (A) (A) (A) (A) (A) (A) (A) (A) (A) (A) (A)
                 (A) (A) (A) (A) (A) (A) (A) (A) (A) (A) (A) (A)
                 (A) (A) (A) (A) (A) (A) (A) (A) (A) (A) (A) (A)
                 (A) (A) (A) (A) (A) (A) (A) (A) (A) (A) (A) (A)
                 (A) (A) (A) (A) (A) (A) (A) (A) (A) (A) (A) (A)
                 (A) (A) (A) (A) (A) (A) (A) (A) (A) (A) (A) (A)
                 (A) (A) (A) (A) (A) (A) (A) (A) (A) (A) (A) (A)
                 (A) (A) (A) (A) (A) (A) (A) (A) (A) (A) (A) (A)
                 (A) (A) (A) (A) (A) (A) (A) (A) (A) (A) (A) (A)
                 (A) (A) (A) (A) (A) (A) (A) (A) (A) (A) (A) (A)
                 (A) (A) (A) (A) (A) (A) (A) (A) (A) (A) (A) (A)
                 (A) (A) (A) (A) (A) (A) (A) (A) (A) (A) (A) (A)
                 (A) (A) (A) (A) (A) (A) (A) (A) (A) (A) (A) (A)
                 (A) (A) (A) (A) (A) (A) (A) (A) (A) (A) (A) (A)
                 (A) (A) (A) (A) (A) (A) (A) (A) (A) (A) (A) (A)
                 (A) (A) (A) (A)
 The electronic state is 1-A.
 Alpha  occ. eigenvalues --  -19.26333 -19.25874 -19.24636 -14.41813 -10.30510
 Alpha  occ. eigenvalues --  -10.30221 -10.30055 -10.28524 -10.27837 -10.27027
 Alpha  occ. eigenvalues --  -10.24634 -10.24397  -1.07478  -1.06379  -1.04452
 Alpha  occ. eigenvalues --   -0.96383  -0.82777  -0.79145  -0.75413  -0.71782
 Alpha  occ. eigenvalues --   -0.66992  -0.61530  -0.60714  -0.57562  -0.55881
 Alpha  occ. eigenvalues --   -0.52885  -0.51774  -0.50729  -0.48559  -0.48366
 Alpha  occ. eigenvalues --   -0.45689  -0.45257  -0.43098  -0.41885  -0.40764
 Alpha  occ. eigenvalues --   -0.39981  -0.38746  -0.38115  -0.36447  -0.35547
 Alpha  occ. eigenvalues --   -0.35131  -0.34274  -0.33523  -0.31591  -0.29545
 Alpha  occ. eigenvalues --   -0.28306  -0.23990
 Alpha virt. eigenvalues --    0.00647   0.01614   0.01830   0.02502   0.04141
 Alpha virt. eigenvalues --    0.04354   0.04559   0.05019   0.05531   0.07089
 Alpha virt. eigenvalues --    0.07565   0.08026   0.08823   0.09119   0.09703
 Alpha virt. eigenvalues --    0.10239   0.11132   0.11849   0.12155   0.12496
 Alpha virt. eigenvalues --    0.13555   0.14152   0.14578   0.15415   0.15819
 Alpha virt. eigenvalues --    0.15914   0.16773   0.17247   0.18083   0.18502
 Alpha virt. eigenvalues --    0.19044   0.20111   0.20349   0.20826   0.21080
 Alpha virt. eigenvalues --    0.21304   0.21757   0.22152   0.22509   0.22849
 Alpha virt. eigenvalues --    0.23184   0.23924   0.24432   0.24938   0.25901
 Alpha virt. eigenvalues --    0.26522   0.26887   0.27830   0.28580   0.29212
 Alpha virt. eigenvalues --    0.29908   0.30529   0.31026   0.31462   0.31638
 Alpha virt. eigenvalues --    0.32043   0.32925   0.33286   0.34218   0.35108
 Alpha virt. eigenvalues --    0.35345   0.36030   0.36726   0.37198   0.38400
 Alpha virt. eigenvalues --    0.39164   0.39781   0.40418   0.40858   0.42913
 Alpha virt. eigenvalues --    0.43595   0.43689   0.45337   0.46794   0.48620
 Alpha virt. eigenvalues --    0.51203   0.63756   0.65640   0.67831   0.68248
 Alpha virt. eigenvalues --    0.68905   0.70759   0.71591   0.73344   0.74579
 Alpha virt. eigenvalues --    0.75041   0.75833   0.79339   0.80431   0.81285
 Alpha virt. eigenvalues --    0.82520   0.82942   0.84537   0.86966   0.89542
 Alpha virt. eigenvalues --    0.90233   0.92841   0.93427   0.95238   0.96724
 Alpha virt. eigenvalues --    0.97908   0.99199   1.01881   1.02353   1.05720
 Alpha virt. eigenvalues --    1.06489   1.06930   1.09103   1.10555   1.11171
 Alpha virt. eigenvalues --    1.12680   1.13434   1.14640   1.15766   1.16731
 Alpha virt. eigenvalues --    1.17427   1.19201   1.20474   1.22681   1.23590
 Alpha virt. eigenvalues --    1.28189   1.28499   1.29959   1.31921   1.32913
 Alpha virt. eigenvalues --    1.34638   1.37027   1.38232   1.39537   1.41694
 Alpha virt. eigenvalues --    1.42897   1.43843   1.46744   1.49050   1.50841
 Alpha virt. eigenvalues --    1.51809   1.57913   1.58796   1.60783   1.62493
 Alpha virt. eigenvalues --    1.64012   1.65233   1.66315   1.67956   1.70392
 Alpha virt. eigenvalues --    1.73915   1.74473   1.75903   1.77816   1.78983
 Alpha virt. eigenvalues --    1.81547   1.82832   1.83848   1.85761   1.87224
 Alpha virt. eigenvalues --    1.88391   1.89759   1.93195   1.94433   1.97300
 Alpha virt. eigenvalues --    1.99330   2.01244   2.01806   2.03713   2.05770
 Alpha virt. eigenvalues --    2.06621   2.08292   2.09009   2.09400   2.10870
 Alpha virt. eigenvalues --    2.12618   2.14559   2.16016   2.16620   2.18585
 Alpha virt. eigenvalues --    2.20615   2.23917   2.24629   2.25100   2.28952
 Alpha virt. eigenvalues --    2.29972   2.32013   2.33616   2.38196   2.40044
 Alpha virt. eigenvalues --    2.41500   2.43689   2.45572   2.46997   2.49121
 Alpha virt. eigenvalues --    2.49392   2.50917   2.53172   2.53440   2.56745
 Alpha virt. eigenvalues --    2.57319   2.59175   2.59824   2.61549   2.63817
 Alpha virt. eigenvalues --    2.65315   2.66104   2.66883   2.67302   2.70007
 Alpha virt. eigenvalues --    2.71688   2.72868   2.75196   2.76053   2.78000
 Alpha virt. eigenvalues --    2.79222   2.80363   2.83268   2.83879   2.85027
 Alpha virt. eigenvalues --    2.86454   2.89262   2.92708   2.93364   2.95576
 Alpha virt. eigenvalues --    2.97120   3.00544   3.01750   3.02547   3.03129
 Alpha virt. eigenvalues --    3.04808   3.09832   3.12319   3.14183   3.32378
 Alpha virt. eigenvalues --    3.34809   3.36098   3.37893   3.45162   3.47020
 Alpha virt. eigenvalues --    3.48399   3.49115   3.51916   3.53124   3.56342
 Alpha virt. eigenvalues --    3.57873   3.58421   3.63602   3.65260   4.31534
 Alpha virt. eigenvalues --    4.35787   4.39824   4.42554   4.51397   4.59030
 Alpha virt. eigenvalues --    4.61083   4.71810   4.78554   4.79979   4.92308
 Alpha virt. eigenvalues --    4.96892
          Condensed to atoms (all electrons):
              1          2          3          4          5          6
     1  C    6.193941  -0.909029   0.115042  -0.174426   0.194645   0.295022
     2  C   -0.909029   8.511186  -0.344650  -0.357967   0.201422  -0.520043
     3  N    0.115042  -0.344650   7.824117   0.258083  -0.161211  -0.312295
     4  C   -0.174426  -0.357967   0.258083   5.621306   0.158801  -0.229482
     5  C    0.194645   0.201422  -0.161211   0.158801   5.536468  -0.050433
     6  C    0.295022  -0.520043  -0.312295  -0.229482  -0.050433   8.581037
     7  C   -0.319598   0.744283  -0.055412   0.107847  -0.008442  -1.815846
     8  C    0.188187  -1.003348  -0.122677   0.046358  -0.077857   0.748920
     9  H    0.382419  -0.068159   0.012715   0.022698  -0.021348   0.004711
    10  H    0.517904  -0.223907   0.030301   0.023287  -0.079498   0.006351
    11  H    0.065971   0.174058  -0.020131   0.027382  -0.041028   0.037163
    12  H    0.034425   0.007388  -0.063273   0.383475  -0.031323   0.012968
    13  H   -0.005906  -0.005847  -0.076154   0.436580  -0.024506  -0.034812
    14  H   -0.016396  -0.059364   0.019551  -0.034541   0.402258   0.002791
    15  H   -0.077063   0.060473   0.002828  -0.020889   0.379773  -0.004470
    16  H   -0.010193   0.016139  -0.031014   0.029138   0.004649   0.226902
    17  H    0.008638  -0.015296   0.035860   0.002012   0.003416   0.009589
    18  H   -0.006007  -0.036008   0.017306   0.000582  -0.001178  -0.004028
    19  O    0.067844  -0.254121   0.047810   0.035429  -0.043162  -0.069865
    20  H   -0.007231   0.041089  -0.001849  -0.001894   0.004863  -0.013257
    21  O    0.023679  -0.016034   0.075668   0.014476   0.002880  -0.123991
    22  H   -0.000629  -0.010668   0.006538   0.000900   0.000055  -0.056567
    23  C   -0.032648   0.008465  -0.048386  -0.089835  -0.029821  -0.505124
    24  H    0.000577   0.003230  -0.004122   0.012464   0.002526  -0.114659
    25  H    0.000252   0.008024   0.014862  -0.000636  -0.000530  -0.133515
    26  O    0.010366  -0.033932   0.045730   0.024557  -0.005514  -0.283887
    27  H   -0.002851   0.017839   0.047283   0.005753  -0.004176  -0.037564
              7          8          9         10         11         12
     1  C   -0.319598   0.188187   0.382419   0.517904   0.065971   0.034425
     2  C    0.744283  -1.003348  -0.068159  -0.223907   0.174058   0.007388
     3  N   -0.055412  -0.122677   0.012715   0.030301  -0.020131  -0.063273
     4  C    0.107847   0.046358   0.022698   0.023287   0.027382   0.383475
     5  C   -0.008442  -0.077857  -0.021348  -0.079498  -0.041028  -0.031323
     6  C   -1.815846   0.748920   0.004711   0.006351   0.037163   0.012968
     7  C    8.174057  -1.580966  -0.009344  -0.010228  -0.045370  -0.003059
     8  C   -1.580966   7.313713   0.018448   0.060147   0.070807  -0.008219
     9  H   -0.009344   0.018448   0.519667  -0.024971  -0.005447  -0.000114
    10  H   -0.010228   0.060147  -0.024971   0.507209   0.003732  -0.000063
    11  H   -0.045370   0.070807  -0.005447   0.003732   0.546628   0.000069
    12  H   -0.003059  -0.008219  -0.000114  -0.000063   0.000069   0.540079
    13  H    0.016803   0.003929  -0.000116   0.001142  -0.000481  -0.040966
    14  H   -0.002078   0.016494  -0.005405   0.003996   0.000650  -0.005781
    15  H    0.003345  -0.005144   0.000639  -0.005601  -0.000119   0.000462
    16  H    0.061354  -0.013209  -0.000004  -0.000027  -0.000492  -0.001132
    17  H    0.287915   0.025964   0.000003  -0.000015  -0.000086   0.000004
    18  H    0.057520   0.283850   0.000237   0.000128  -0.002049   0.000005
    19  O    0.103818   0.127985  -0.000258   0.000989   0.006836   0.000135
    20  H   -0.050742   0.047652  -0.000009  -0.000005  -0.000261  -0.000001
    21  O    0.235096  -0.111665   0.000059   0.000037   0.000763  -0.000051
    22  H    0.059598  -0.001262   0.000000   0.000000  -0.000319   0.000007
    23  C    0.230687  -0.095694   0.000301  -0.000674   0.003474   0.006157
    24  H    0.049837  -0.022727   0.000000   0.000000   0.000005   0.000136
    25  H    0.001518  -0.001869   0.000000   0.000000  -0.000007  -0.000014
    26  O    0.139816  -0.040031   0.000014   0.000029   0.002333   0.001547
    27  H   -0.018370   0.001270  -0.000004  -0.000001  -0.000919  -0.000591
             13         14         15         16         17         18
     1  C   -0.005906  -0.016396  -0.077063  -0.010193   0.008638  -0.006007
     2  C   -0.005847  -0.059364   0.060473   0.016139  -0.015296  -0.036008
     3  N   -0.076154   0.019551   0.002828  -0.031014   0.035860   0.017306
     4  C    0.436580  -0.034541  -0.020889   0.029138   0.002012   0.000582
     5  C   -0.024506   0.402258   0.379773   0.004649   0.003416  -0.001178
     6  C   -0.034812   0.002791  -0.004470   0.226902   0.009589  -0.004028
     7  C    0.016803  -0.002078   0.003345   0.061354   0.287915   0.057520
     8  C    0.003929   0.016494  -0.005144  -0.013209   0.025964   0.283850
     9  H   -0.000116  -0.005405   0.000639  -0.000004   0.000003   0.000237
    10  H    0.001142   0.003996  -0.005601  -0.000027  -0.000015   0.000128
    11  H   -0.000481   0.000650  -0.000119  -0.000492  -0.000086  -0.002049
    12  H   -0.040966  -0.005781   0.000462  -0.001132   0.000004   0.000005
    13  H    0.574334   0.004030  -0.003827   0.011738  -0.000039  -0.000024
    14  H    0.004030   0.521639  -0.024696  -0.000006   0.000000   0.000000
    15  H   -0.003827  -0.024696   0.517993  -0.000006   0.000000   0.000002
    16  H    0.011738  -0.000006  -0.000006   0.559280  -0.003499  -0.000173
    17  H   -0.000039   0.000000   0.000000  -0.003499   0.565587  -0.003102
    18  H   -0.000024   0.000000   0.000002  -0.000173  -0.003102   0.556578
    19  O    0.000927   0.000096   0.000289   0.004673  -0.011925  -0.035841
    20  H    0.000087   0.000000  -0.000001   0.000609   0.005066  -0.006374
    21  O   -0.000008  -0.000001  -0.000006   0.009028  -0.046712  -0.003727
    22  H   -0.000002   0.000000   0.000000  -0.000024   0.002237   0.000102
    23  C   -0.009204  -0.000631   0.001176  -0.045568  -0.030842   0.012937
    24  H    0.000093   0.000005   0.000000  -0.002437  -0.000125   0.000003
    25  H    0.000000   0.000000   0.000000   0.001445   0.001433  -0.000006
    26  O   -0.000641   0.000048  -0.000007   0.009949   0.000134   0.000130
    27  H    0.000141   0.000003  -0.000001   0.000560  -0.000091  -0.000015
             19         20         21         22         23         24
     1  C    0.067844  -0.007231   0.023679  -0.000629  -0.032648   0.000577
     2  C   -0.254121   0.041089  -0.016034  -0.010668   0.008465   0.003230
     3  N    0.047810  -0.001849   0.075668   0.006538  -0.048386  -0.004122
     4  C    0.035429  -0.001894   0.014476   0.000900  -0.089835   0.012464
     5  C   -0.043162   0.004863   0.002880   0.000055  -0.029821   0.002526
     6  C   -0.069865  -0.013257  -0.123991  -0.056567  -0.505124  -0.114659
     7  C    0.103818  -0.050742   0.235096   0.059598   0.230687   0.049837
     8  C    0.127985   0.047652  -0.111665  -0.001262  -0.095694  -0.022727
     9  H   -0.000258  -0.000009   0.000059   0.000000   0.000301   0.000000
    10  H    0.000989  -0.000005   0.000037   0.000000  -0.000674   0.000000
    11  H    0.006836  -0.000261   0.000763  -0.000319   0.003474   0.000005
    12  H    0.000135  -0.000001  -0.000051   0.000007   0.006157   0.000136
    13  H    0.000927   0.000087  -0.000008  -0.000002  -0.009204   0.000093
    14  H    0.000096   0.000000  -0.000001   0.000000  -0.000631   0.000005
    15  H    0.000289  -0.000001  -0.000006   0.000000   0.001176   0.000000
    16  H    0.004673   0.000609   0.009028  -0.000024  -0.045568  -0.002437
    17  H   -0.011925   0.005066  -0.046712   0.002237  -0.030842  -0.000125
    18  H   -0.035841  -0.006374  -0.003727   0.000102   0.012937   0.000003
    19  O    8.326527   0.226838   0.007979  -0.000452   0.029926   0.000167
    20  H    0.226838   0.372530   0.000549  -0.000006  -0.005573   0.000000
    21  O    0.007979   0.000549   8.305246   0.226793  -0.013049  -0.002581
    22  H   -0.000452  -0.000006   0.226793   0.325654  -0.014935   0.000896
    23  C    0.029926  -0.005573  -0.013049  -0.014935   5.803949   0.436504
    24  H    0.000167   0.000000  -0.002581   0.000896   0.436504   0.557659
    25  H   -0.000099   0.000003   0.004230  -0.002519   0.482941  -0.033913
    26  O    0.000514   0.000015  -0.029506   0.063079   0.218812  -0.046965
    27  H   -0.000089   0.000000  -0.000827  -0.007016   0.001797  -0.003781
             25         26         27
     1  C    0.000252   0.010366  -0.002851
     2  C    0.008024  -0.033932   0.017839
     3  N    0.014862   0.045730   0.047283
     4  C   -0.000636   0.024557   0.005753
     5  C   -0.000530  -0.005514  -0.004176
     6  C   -0.133515  -0.283887  -0.037564
     7  C    0.001518   0.139816  -0.018370
     8  C   -0.001869  -0.040031   0.001270
     9  H    0.000000   0.000014  -0.000004
    10  H    0.000000   0.000029  -0.000001
    11  H   -0.000007   0.002333  -0.000919
    12  H   -0.000014   0.001547  -0.000591
    13  H    0.000000  -0.000641   0.000141
    14  H    0.000000   0.000048   0.000003
    15  H    0.000000  -0.000007  -0.000001
    16  H    0.001445   0.009949   0.000560
    17  H    0.001433   0.000134  -0.000091
    18  H   -0.000006   0.000130  -0.000015
    19  O   -0.000099   0.000514  -0.000089
    20  H    0.000003   0.000015   0.000000
    21  O    0.004230  -0.029506  -0.000827
    22  H   -0.002519   0.063079  -0.007016
    23  C    0.482941   0.218812   0.001797
    24  H   -0.033913  -0.046965  -0.003781
    25  H    0.525634  -0.050734   0.005960
    26  O   -0.050734   8.316362   0.248096
    27  H    0.005960   0.248096   0.333295
 Mulliken atomic charges:
              1
     1  C   -0.536933
     2  C    0.064778
     3  N   -0.312518
     4  C   -0.301458
     5  C   -0.311730
     6  C    0.384384
     7  C   -0.354039
     8  C    0.130943
     9  H    0.173269
    10  H    0.189740
    11  H    0.176837
    12  H    0.167728
    13  H    0.152727
    14  H    0.177339
    15  H    0.174849
    16  H    0.172321
    17  H    0.163873
    18  H    0.169152
    19  O   -0.572972
    20  H    0.387901
    21  O   -0.558323
    22  H    0.408541
    23  C   -0.315144
    24  H    0.167209
    25  H    0.177538
    26  O   -0.590313
    27  H    0.414302
 Sum of Mulliken atomic charges =   0.00000
 Mulliken charges with hydrogens summed into heavy atoms:
              1
     1  C   -0.173924
     2  C    0.241614
     3  N   -0.312518
     4  C    0.018996
     5  C    0.040458
     6  C    0.556705
     7  C   -0.190165
     8  C    0.300096
    19  O   -0.185071
    21  O   -0.149782
    23  C    0.029603
    26  O   -0.176012
 Sum of Mulliken charges with hydrogens summed into heavy atoms =   0.00000
 Electronic spatial extent (au):  <R**2>=           1931.8928
 Charge=              0.0000 electrons
 Dipole moment (field-independent basis, Debye):
    X=              2.1567    Y=             -0.2802    Z=              2.5876  Tot=              3.3802
 Quadrupole moment (field-independent basis, Debye-Ang):
   XX=            -81.5066   YY=            -69.6854   ZZ=            -71.3864
   XY=             -2.3853   XZ=             -8.8127   YZ=              2.4625
 Traceless Quadrupole moment (field-independent basis, Debye-Ang):
   XX=             -7.3138   YY=              4.5074   ZZ=              2.8064
   XY=             -2.3853   XZ=             -8.8127   YZ=              2.4625
 Octapole moment (field-independent basis, Debye-Ang**2):
  XXX=             15.2088  YYY=             22.9711  ZZZ=              0.7097  XYY=              8.3199
  XXY=             -3.3789  XXZ=             12.9231  XZZ=             -2.8853  YZZ=              0.7761
  YYZ=             16.4957  XYZ=             -4.9504
 Hexadecapole moment (field-independent basis, Debye-Ang**3):
 XXXX=          -1391.8395 YYYY=           -743.3086 ZZZZ=           -326.0066 XXXY=            -25.1833
 XXXZ=            -33.3348 YYYX=              9.5669 YYYZ=             45.1142 ZZZX=              4.3877
 ZZZY=             23.3413 XXYY=           -412.0533 XXZZ=           -277.1197 YYZZ=           -176.7561
 XXYZ=             -6.5583 YYXZ=            -16.2597 ZZXY=             11.1029
 N-N= 8.194119444121D+02 E-N=-3.024640818369D+03  KE= 5.886639342379D+02
 1\1\GINC-COMPUTE-3-2\SP\RmPW1PW91\6-31+G(d,p)\C8H15N1O3\MAMICHETTI.IQU
 IR\17-May-2024\0\\# mpw1pw91/6-31+G** nmr scrf=(pcm,solvent=water)\\co
 mment\\0,1\C,0,2.417382,0.047967,-0.640345\C,0,0.913065,0.343501,-0.78
 3028\N,0,0.201217,-0.771721,-0.065191\C,0,1.213298,-1.582725,0.637699\
 C,0,2.459661,-1.437944,-0.237626\C,0,-0.867244,-0.190425,0.774379\C,0,
 -1.077588,1.228853,0.207375\C,0,0.356191,1.641479,-0.176601\H,0,2.9659
 46,0.256455,-1.563512\H,0,2.85143,0.661101,0.154263\H,0,0.615914,0.326
 048,-1.837881\H,0,0.884658,-2.622424,0.7452\H,0,1.407205,-1.188751,1.6
 50083\H,0,2.372034,-2.078786,-1.123195\H,0,3.376461,-1.715068,0.291967
 \H,0,-0.539917,-0.088411,1.819909\H,0,-1.495673,1.90073,0.96903\H,0,0.
 356401,2.470091,-0.896026\O,0,1.101727,1.988712,0.994015\H,0,0.668737,
 2.766316,1.384948\O,0,-1.913006,1.271731,-0.955711\H,0,-2.281392,0.372
 563,-1.088626\C,0,-2.109435,-1.085359,0.740573\H,0,-1.931402,-2.00254,
 1.317728\H,0,-2.977897,-0.575173,1.167432\O,0,-2.433374,-1.416133,-0.6
 20982\H,0,-1.555773,-1.626672,-1.008118\\Version=AM64L-G09RevC.01\Stat
 e=1-A\HF=-594.2031235\RMSD=3.397e-09\Dipole=0.8485245,-0.1102475,1.018
 0286\Quadrupole=-5.4376498,3.3511316,2.0865183,-1.7734022,-6.5520613,1
 .8308058\PG=C01 [X(C8H15N1O3)]\\@


 THE REAL VOYAGE OF DISCOVERY CONSISTS NOT IN SEEKING NEW LANDSCAPES 
 BUT IN HAVING NEW EYES.
                                                    -- MARCEL PROUST
 Job cpu time:  0 days  0 hours  9 minutes 17.3 seconds.
 File lengths (MBytes):  RWF=    113 Int=      0 D2E=      0 Chk=      7 Scr=      1
 Normal termination of Gaussian 09 at Fri May 17 12:35:03 2024.
