 Entering Gaussian System, Link 0=g09
 Input=/home/mamichetti.iquir/Linux/03_Cardona_A1A3_R__S_S_R_019_OptB.gjc
 Output=/home/mamichetti.iquir/Linux/03_Cardona_A1A3_R__S_S_R_019_OptB.log
 Initial command:
 /opt/ohpc/pub/apps/software/Gaussian/09/AMD64.SSE4a-enabled/g09/l1.exe /local/mamichetti.iquir/Gau-129395.inp -scrdir=/local/mamichetti.iquir/
 Entering Link 1 = /opt/ohpc/pub/apps/software/Gaussian/09/AMD64.SSE4a-enabled/g09/l1.exe PID=    129396.
  
 Copyright (c) 1988,1990,1992,1993,1995,1998,2003,2009,2011,
            Gaussian, Inc.  All Rights Reserved.
  
 This is part of the Gaussian(R) 09 program.  It is based on
 the Gaussian(R) 03 system (copyright 2003, Gaussian, Inc.),
 the Gaussian(R) 98 system (copyright 1998, Gaussian, Inc.),
 the Gaussian(R) 94 system (copyright 1995, Gaussian, Inc.),
 the Gaussian 92(TM) system (copyright 1992, Gaussian, Inc.),
 the Gaussian 90(TM) system (copyright 1990, Gaussian, Inc.),
 the Gaussian 88(TM) system (copyright 1988, Gaussian, Inc.),
 the Gaussian 86(TM) system (copyright 1986, Carnegie Mellon
 University), and the Gaussian 82(TM) system (copyright 1983,
 Carnegie Mellon University). Gaussian is a federally registered
 trademark of Gaussian, Inc.
  
 This software contains proprietary and confidential information,
 including trade secrets, belonging to Gaussian, Inc.
  
 This software is provided under written license and may be
 used, copied, transmitted, or stored only in accord with that
 written license.
  
 The following legend is applicable only to US Government
 contracts under FAR:
  
                    RESTRICTED RIGHTS LEGEND
  
 Use, reproduction and disclosure by the US Government is
 subject to restrictions as set forth in subparagraphs (a)
 and (c) of the Commercial Computer Software - Restricted
 Rights clause in FAR 52.227-19.
  
 Gaussian, Inc.
 340 Quinnipiac St., Bldg. 40, Wallingford CT 06492
  
  
 ---------------------------------------------------------------
 Warning -- This program may not be used in any manner that
 competes with the business of Gaussian, Inc. or will provide
 assistance to any competitor of Gaussian, Inc.  The licensee
 of this program is prohibited from giving any competitor of
 Gaussian, Inc. access to this program.  By using this program,
 the user acknowledges that Gaussian, Inc. is engaged in the
 business of creating and licensing software in the field of
 computational chemistry and represents and warrants to the
 licensee that it is not a competitor of Gaussian, Inc. and that
 it will not use this program in any manner prohibited above.
 ---------------------------------------------------------------
  

 Cite this work as:
 Gaussian 09, Revision C.01,
 M. J. Frisch, G. W. Trucks, H. B. Schlegel, G. E. Scuseria, 
 M. A. Robb, J. R. Cheeseman, G. Scalmani, V. Barone, B. Mennucci, 
 G. A. Petersson, H. Nakatsuji, M. Caricato, X. Li, H. P. Hratchian, 
 A. F. Izmaylov, J. Bloino, G. Zheng, J. L. Sonnenberg, M. Hada, 
 M. Ehara, K. Toyota, R. Fukuda, J. Hasegawa, M. Ishida, T. Nakajima, 
 Y. Honda, O. Kitao, H. Nakai, T. Vreven, J. A. Montgomery, Jr., 
 J. E. Peralta, F. Ogliaro, M. Bearpark, J. J. Heyd, E. Brothers, 
 K. N. Kudin, V. N. Staroverov, T. Keith, R. Kobayashi, J. Normand, 
 K. Raghavachari, A. Rendell, J. C. Burant, S. S. Iyengar, J. Tomasi, 
 M. Cossi, N. Rega, J. M. Millam, M. Klene, J. E. Knox, J. B. Cross, 
 V. Bakken, C. Adamo, J. Jaramillo, R. Gomperts, R. E. Stratmann, 
 O. Yazyev, A. J. Austin, R. Cammi, C. Pomelli, J. W. Ochterski, 
 R. L. Martin, K. Morokuma, V. G. Zakrzewski, G. A. Voth, 
 P. Salvador, J. J. Dannenberg, S. Dapprich, A. D. Daniels, 
 O. Farkas, J. B. Foresman, J. V. Ortiz, J. Cioslowski, 
 and D. J. Fox, Gaussian, Inc., Wallingford CT, 2010.
 
 ******************************************
 Gaussian 09:  AM64L-G09RevC.01 23-Sep-2011
                17-May-2024 
 ******************************************
 %nprocshared=4
 Will use up to    4 processors via shared memory.
 ------------------------------------------------
 # mpw1pw91/6-31+G** nmr scrf=(pcm,solvent=water)
 ------------------------------------------------
 1/38=1/1;
 2/12=2,17=6,18=5,40=1/2;
 3/5=1,6=6,7=111,11=2,16=1,25=1,30=1,70=2201,72=1,74=-7/1,2,8,3;
 4//1;
 5/5=2,38=5,53=1/2;
 8/6=1,10=90,11=11/1;
 10/13=100,45=16/2;
 6/7=2,8=2,9=2,10=2,28=1/1;
 99/9=1/99;
 -------
 comment
 -------
 Charge =  0 Multiplicity = 1
 Symbolic Z-Matrix:
 6                    -2.4588    0.44907   0.05042 
 6                    -1.1254    0.2717    0.79686 
 7                    -0.56759  -1.0529    0.33289 
 6                    -1.5565   -1.65903  -0.59229 
 6                    -2.88473  -0.99979  -0.22336 
 6                     0.76236  -0.82064  -0.27122 
 6                     0.75779   0.67588  -0.65307 
 6                    -0.02904   1.31003   0.50084 
 1                    -3.18949   1.01721   0.63398 
 1                    -2.30416   0.97601  -0.8976 
 1                    -1.31912   0.2254    1.87465 
 1                    -1.57519  -2.74958  -0.48281 
 1                    -1.30996  -1.43855  -1.64277 
 1                    -3.29973  -1.4557    0.68399 
 1                    -3.63009  -1.08941  -1.01969 
 1                     0.88086  -1.4519   -1.15796 
 1                     0.16216   0.80006  -1.56758 
 1                     0.63976   1.40931   1.36728 
 8                    -0.58812   2.5876    0.19297 
 1                     0.16238   3.18021   0.01588 
 8                     2.02633   1.28635  -0.88644 
 1                     2.69944   0.67776  -0.5126 
 6                     1.86948  -1.20266   0.71784 
 1                     1.81036  -0.59702   1.63022 
 1                     1.75463  -2.25577   1.00331 
 8                     3.14314  -0.99901   0.07174 
 1                     3.82944  -1.02458   0.7592 
 
                          Input orientation:                          
 ---------------------------------------------------------------------
 Center     Atomic      Atomic             Coordinates (Angstroms)
 Number     Number       Type             X           Y           Z
 ---------------------------------------------------------------------
      1          6           0       -2.458803    0.449069    0.050416
      2          6           0       -1.125395    0.271700    0.796855
      3          7           0       -0.567594   -1.052902    0.332887
      4          6           0       -1.556500   -1.659032   -0.592292
      5          6           0       -2.884732   -0.999791   -0.223355
      6          6           0        0.762361   -0.820636   -0.271218
      7          6           0        0.757793    0.675875   -0.653072
      8          6           0       -0.029041    1.310029    0.500844
      9          1           0       -3.189488    1.017209    0.633980
     10          1           0       -2.304164    0.976013   -0.897598
     11          1           0       -1.319121    0.225400    1.874650
     12          1           0       -1.575187   -2.749583   -0.482807
     13          1           0       -1.309961   -1.438549   -1.642774
     14          1           0       -3.299733   -1.455696    0.683994
     15          1           0       -3.630087   -1.089410   -1.019690
     16          1           0        0.880858   -1.451904   -1.157958
     17          1           0        0.162162    0.800058   -1.567583
     18          1           0        0.639762    1.409314    1.367281
     19          8           0       -0.588116    2.587602    0.192968
     20          1           0        0.162379    3.180211    0.015883
     21          8           0        2.026333    1.286347   -0.886439
     22          1           0        2.699444    0.677762   -0.512597
     23          6           0        1.869484   -1.202661    0.717840
     24          1           0        1.810355   -0.597017    1.630223
     25          1           0        1.754634   -2.255768    1.003306
     26          8           0        3.143140   -0.999007    0.071742
     27          1           0        3.829442   -1.024576    0.759203
 ---------------------------------------------------------------------
                    Distance matrix (angstroms):
                    1          2          3          4          5
     1  C    0.000000
     2  C    1.538378   0.000000
     3  N    2.431538   1.510291   0.000000
     4  C    2.381452   2.417293   1.483673   0.000000
     5  C    1.534784   2.398496   2.383559   1.528042   0.000000
     6  C    3.477283   2.428498   1.479078   2.486587   3.651804
     7  C    3.300428   2.410818   2.391116   3.288075   4.032431
     8  C    2.616846   1.538747   2.429340   3.513318   3.743622
     9  H    1.094180   2.200634   3.354153   3.366401   2.212733
    10  H    1.095588   2.180992   2.940453   2.756025   2.166902
    11  H    2.162575   1.096045   2.139131   3.113396   2.890304
    12  H    3.361023   3.311797   2.135258   1.096192   2.200908
    13  H    2.783852   2.985097   2.145476   1.101320   2.164986
    14  H    2.176399   2.779277   2.783901   2.170049   1.096976
    15  H    2.209966   3.380228   3.348083   2.192465   1.094411
    16  H    4.028300   3.288944   2.116562   2.510696   3.906092
    17  H    3.100092   2.743635   2.752779   3.154697   3.785494
    18  H    3.501044   2.176081   2.930902   4.251851   4.555872
    19  O    2.844840   2.452907   3.643250   4.425867   4.279855
    20  H    3.785621   3.275319   4.307273   5.171334   5.178275
    21  O    4.657808   3.714347   3.699635   4.647416   5.457533
    22  H    5.193919   4.063120   3.792569   4.855926   5.837882
    23  C    4.680570   3.339054   2.471834   3.696226   4.850729
    24  H    4.670738   3.172980   2.746917   4.171710   5.063775
    25  H    5.096783   3.837354   2.699832   3.723659   4.960433
    26  O    5.786117   4.512303   3.720302   4.791992   6.035091
    27  H    6.497387   5.121734   4.417745   5.589047   6.785733
                    6          7          8          9         10
     6  C    0.000000
     7  C    1.544467   0.000000
     8  C    2.400444   1.533878   0.000000
     9  H    4.451311   4.165818   3.176774   0.000000
    10  H    3.608861   3.086334   2.691355   1.769527   0.000000
    11  H    3.167256   3.302405   2.174412   2.380020   3.036295
    12  H    3.038048   4.147957   4.454053   4.247576   3.818838
    13  H    2.560762   3.118638   3.713561   3.840179   2.715481
    14  H    4.220941   4.774396   4.287214   2.475866   3.066888
    15  H    4.463860   4.743852   4.586596   2.714147   2.457428
    16  H    1.094919   2.190319   3.347807   5.086775   4.013344
    17  H    2.160428   1.098421   2.138929   4.015917   2.561758
    18  H    2.769907   2.152601   1.099030   3.918499   3.739536
    19  O    3.695314   2.486354   1.428126   3.070466   2.594489
    20  H    4.055759   2.659646   1.941497   4.036785   3.431730
    21  O    2.532884   1.427000   2.479854   5.439568   4.341617
    22  H    2.460844   1.946727   2.978499   6.009108   5.027253
    23  C    1.532938   2.577626   3.156754   5.525220   4.977509
    24  H    2.182607   2.818080   2.880226   5.347584   5.078737
    25  H    2.160699   3.511668   4.018566   5.940802   5.525548
    26  O    2.411959   3.003409   3.946962   6.669589   5.874814
    27  H    3.241966   3.784321   4.517192   7.310947   6.660966
                   11         12         13         14         15
    11  H    0.000000
    12  H    3.804431   0.000000
    13  H    3.891154   1.770502   0.000000
    14  H    2.857721   2.451454   3.061590   0.000000
    15  H    3.930203   2.695743   2.427574   1.773651   0.000000
    16  H    4.104871   2.858663   2.243861   4.568385   4.527598
    17  H    3.791227   4.098179   2.680329   4.705608   4.272169
    18  H    2.344419   5.062139   4.579539   4.918819   5.492983
    19  O    2.990388   5.469600   4.483403   4.893080   4.923875
    20  H    3.792198   6.199216   5.123658   5.824451   5.803867
    21  O    4.465566   5.424260   4.373552   6.192902   6.136535
    22  H    4.696003   5.479056   4.672408   6.478703   6.591131
    23  C    3.680322   3.962358   3.966990   5.175517   5.768632
    24  H    3.244955   4.534350   4.599680   5.267417   6.071482
    25  H    4.045171   3.679687   4.130536   5.127251   5.869252
    26  O    4.966027   5.063067   4.791959   6.487991   6.861195
    27  H    5.414274   5.807603   5.688087   7.142595   7.668979
                   16         17         18         19         20
    16  H    0.000000
    17  H    2.399093   0.000000
    18  H    3.823811   3.035247   0.000000
    19  O    4.505607   2.618735   2.067621   0.000000
    20  H    4.832246   2.858757   2.278211   0.972516   0.000000
    21  O    2.980579   2.043421   2.648953   3.113475   2.806284
    22  H    2.873886   2.750591   2.882950   3.866958   3.602533
    23  C    2.134976   3.485540   2.959122   4.547679   4.755683
    24  H    3.060841   3.859316   2.337689   4.237943   4.425988
    25  H    2.465916   4.299245   3.848148   5.440897   5.749795
    26  O    2.614421   3.848409   3.707470   5.176942   5.133607
    27  H    3.542917   4.710856   4.058034   5.734394   5.628509
                   21         22         23         24         25
    21  O    0.000000
    22  H    0.981434   0.000000
    23  C    2.965379   2.395579   0.000000
    24  H    3.150761   2.647115   1.096697   0.000000
    25  H    4.023871   3.434563   1.097140   1.774143   0.000000
    26  O    2.718126   1.830266   1.442608   2.089683   2.091700
    27  H    3.361503   2.406725   1.968467   2.240133   2.424922
                   26         27
    26  O    0.000000
    27  H    0.971734   0.000000
 Stoichiometry    C8H15NO3
 Framework group  C1[X(C8H15NO3)]
 Deg. of freedom    75
 Full point group                 C1      NOp   1
 Largest Abelian subgroup         C1      NOp   1
 Largest concise Abelian subgroup C1      NOp   1
                         Standard orientation:                         
 ---------------------------------------------------------------------
 Center     Atomic      Atomic             Coordinates (Angstroms)
 Number     Number       Type             X           Y           Z
 ---------------------------------------------------------------------
      1          6           0       -2.458803    0.449069    0.050416
      2          6           0       -1.125395    0.271700    0.796855
      3          7           0       -0.567594   -1.052902    0.332887
      4          6           0       -1.556500   -1.659032   -0.592292
      5          6           0       -2.884732   -0.999791   -0.223355
      6          6           0        0.762361   -0.820636   -0.271218
      7          6           0        0.757793    0.675875   -0.653072
      8          6           0       -0.029041    1.310029    0.500844
      9          1           0       -3.189488    1.017209    0.633980
     10          1           0       -2.304164    0.976013   -0.897598
     11          1           0       -1.319121    0.225400    1.874650
     12          1           0       -1.575187   -2.749583   -0.482807
     13          1           0       -1.309961   -1.438549   -1.642774
     14          1           0       -3.299733   -1.455696    0.683994
     15          1           0       -3.630087   -1.089410   -1.019690
     16          1           0        0.880858   -1.451904   -1.157958
     17          1           0        0.162162    0.800058   -1.567583
     18          1           0        0.639762    1.409314    1.367281
     19          8           0       -0.588116    2.587602    0.192968
     20          1           0        0.162379    3.180211    0.015883
     21          8           0        2.026333    1.286347   -0.886439
     22          1           0        2.699444    0.677762   -0.512597
     23          6           0        1.869484   -1.202661    0.717840
     24          1           0        1.810355   -0.597017    1.630223
     25          1           0        1.754634   -2.255768    1.003306
     26          8           0        3.143140   -0.999007    0.071742
     27          1           0        3.829442   -1.024576    0.759203
 ---------------------------------------------------------------------
 Rotational constants (GHZ):      1.3896413      0.7851629      0.5718676
 Standard basis: 6-31+G(d,p) (6D, 7F)
 There are   303 symmetry adapted basis functions of A   symmetry.
 Integral buffers will be    131072 words long.
 Raffenetti 2 integral format.
 Two-electron integral symmetry is turned on.
   303 basis functions,   489 primitive gaussians,   303 cartesian basis functions
    47 alpha electrons       47 beta electrons
       nuclear repulsion energy       805.6439358615 Hartrees.
 NAtoms=   27 NActive=   27 NUniq=   27 SFac= 1.00D+00 NAtFMM=   60 NAOKFM=F Big=F
 ------------------------------------------------------------------------------
 Polarizable Continuum Model (PCM)
 =================================
 Model                : PCM.
 Atomic radii         : UFF (Universal Force Field).
 Polarization charges : Total charges.
 Charge compensation  : None.
 Solution method      : Matrix inversion.
 Cavity type          : Scaled VdW (van der Waals Surface) (Alpha=1.100).
 Cavity algorithm     : GePol (No added spheres)
                        Default sphere list used, NSphG=   27.
                        Lebedev-Laikov grids with approx.  5.0 points / Ang**2.
                        Smoothing algorithm: Karplus/York (Gamma=1.0000).
                        Polarization charges: spherical gaussians, with
                                              point-specific exponents (IZeta= 3).
                        Self-potential: point-specific (ISelfS= 7).
                        Self-field    : sphere-specific E.n sum rule (ISelfD= 2).
 Solvent              : Water, Eps=  78.355300 Eps(inf)=   1.777849
 ------------------------------------------------------------------------------
 One-electron integrals computed using PRISM.
 NBasis=   303 RedAO= T  NBF=   303
 NBsUse=   303 1.00D-06 NBFU=   303
 Harris functional with IExCor=  908 diagonalized for initial guess.
 ExpMin= 4.38D-02 ExpMax= 5.48D+03 ExpMxC= 8.25D+02 IAcc=2 IRadAn=         4 AccDes= 0.00D+00
 HarFok:  IExCor=  908 AccDes= 0.00D+00 IRadAn=         4 IDoV= 1
 ScaDFX=  1.000000  1.000000  1.000000  1.000000
 FoFCou: FMM=F IPFlag=           0 FMFlag=      100000 FMFlg1=           0
         NFxFlg=           0 DoJE=T BraDBF=F KetDBF=T FulRan=T
         Omega=  0.000000  0.000000  1.000000  0.000000  0.000000 ICntrl=     500 IOpCl=  0
         NMat0=    1 NMatS0=    1 NMatT0=    0 NMatD0=    1 NMtDS0=    0 NMtDT0=    0
         I1Cent=           4 NGrid=           0.
 Petite list used in FoFCou.
 Initial guess orbital symmetries:
       Occupied  (A) (A) (A) (A) (A) (A) (A) (A) (A) (A) (A) (A)
                 (A) (A) (A) (A) (A) (A) (A) (A) (A) (A) (A) (A)
                 (A) (A) (A) (A) (A) (A) (A) (A) (A) (A) (A) (A)
                 (A) (A) (A) (A) (A) (A) (A) (A) (A) (A) (A)
       Virtual   (A) (A) (A) (A) (A) (A) (A) (A) (A) (A) (A) (A)
                 (A) (A) (A) (A) (A) (A) (A) (A) (A) (A) (A) (A)
                 (A) (A) (A) (A) (A) (A) (A) (A) (A) (A) (A) (A)
                 (A) (A) (A) (A) (A) (A) (A) (A) (A) (A) (A) (A)
                 (A) (A) (A) (A) (A) (A) (A) (A) (A) (A) (A) (A)
                 (A) (A) (A) (A) (A) (A) (A) (A) (A) (A) (A) (A)
                 (A) (A) (A) (A) (A) (A) (A) (A) (A) (A) (A) (A)
                 (A) (A) (A) (A) (A) (A) (A) (A) (A) (A) (A) (A)
                 (A) (A) (A) (A) (A) (A) (A) (A) (A) (A) (A) (A)
                 (A) (A) (A) (A) (A) (A) (A) (A) (A) (A) (A) (A)
                 (A) (A) (A) (A) (A) (A) (A) (A) (A) (A) (A) (A)
                 (A) (A) (A) (A) (A) (A) (A) (A) (A) (A) (A) (A)
                 (A) (A) (A) (A) (A) (A) (A) (A) (A) (A) (A) (A)
                 (A) (A) (A) (A) (A) (A) (A) (A) (A) (A) (A) (A)
                 (A) (A) (A) (A) (A) (A) (A) (A) (A) (A) (A) (A)
                 (A) (A) (A) (A) (A) (A) (A) (A) (A) (A) (A) (A)
                 (A) (A) (A) (A) (A) (A) (A) (A) (A) (A) (A) (A)
                 (A) (A) (A) (A) (A) (A) (A) (A) (A) (A) (A) (A)
                 (A) (A) (A) (A) (A) (A) (A) (A) (A) (A) (A) (A)
                 (A) (A) (A) (A) (A) (A) (A) (A) (A) (A) (A) (A)
                 (A) (A) (A) (A) (A) (A) (A) (A) (A) (A) (A) (A)
                 (A) (A) (A) (A)
 The electronic state of the initial guess is 1-A.
 Requested convergence on RMS density matrix=1.00D-08 within 128 cycles.
 Requested convergence on MAX density matrix=1.00D-06.
 Requested convergence on             energy=1.00D-06.
 No special actions if energy rises.
 Error on total polarization charges =  0.01433
 SCF Done:  E(RmPW1PW91) =  -594.195849049     A.U. after   13 cycles
             Convg  =    0.7657D-08             -V/T =  2.0094
 Range of M.O.s used for correlation:     1   303
 NBasis=   303 NAE=    47 NBE=    47 NFC=     0 NFV=     0
 NROrb=    303 NOA=    47 NOB=    47 NVA=   256 NVB=   256

 **** Warning!!: The largest alpha MO coefficient is  0.65280102D+02

 NEqPCM:  Using equilibrium solvation (IEInf=0, Eps=  78.3553, EpsInf=   1.7778)
          Differentiating once with respect to magnetic field using GIAOs.
          Electric field/nuclear overlap derivatives assumed to be zero.
 FoFCou: FMM=F IPFlag=           0 FMFlag=    10101102 FMFlg1=           0
         NFxFlg=    40000000 DoJE=F BraDBF=F KetDBF=T FulRan=T
         Omega=  0.000000  0.000000  1.000000  0.000000  0.000000 ICntrl=    6100 IOpCl=  0
         NMat0=    1 NMatS0=    1 NMatT0=    0 NMatD0=    1 NMtDS0=    0 NMtDT0=    0
         I1Cent=           7 NGrid=        1841.
 Symmetry not used in FoFCou.
          There are     3 degrees of freedom in the 1st order CPHF.  IDoFFX=0.
      3 vectors produced by pass  0 Test12= 4.01D-13 3.33D-08 XBig12= 2.98D+01 9.69D-01.
 AX will form     3 AO Fock derivatives at one time.
      3 vectors produced by pass  1 Test12= 4.01D-13 3.33D-08 XBig12= 8.22D-02 3.88D-02.
      3 vectors produced by pass  2 Test12= 4.01D-13 3.33D-08 XBig12= 1.97D-04 3.03D-03.
      3 vectors produced by pass  3 Test12= 4.01D-13 3.33D-08 XBig12= 9.02D-07 1.83D-04.
      3 vectors produced by pass  4 Test12= 4.01D-13 3.33D-08 XBig12= 3.00D-09 9.62D-06.
      3 vectors produced by pass  5 Test12= 4.01D-13 3.33D-08 XBig12= 8.40D-12 4.81D-07.
 Inverted reduced A of dimension    18 with in-core refinement.
 Calculating GIAO nuclear magnetic shielding tensors.
 SCF GIAO Magnetic shielding tensor (ppm):
      1  C    Isotropic =   166.4617   Anisotropy =    18.7856
   XX=   172.3470   YX=     3.6248   ZX=     8.0368
   XY=    -5.4464   YY=   175.4897   ZY=    11.3265
   XZ=     9.4008   YZ=     5.7471   ZZ=   151.5484
   Eigenvalues:   146.0095   174.3902   178.9854
      2  C    Isotropic =   131.2327   Anisotropy =    52.6924
   XX=   132.6334   YX=    -7.7161   ZX=    -3.0490
   XY=   -13.5739   YY=   160.4432   ZY=    13.1396
   XZ=     5.9816   YZ=    13.7090   ZZ=   100.6214
   Eigenvalues:    97.3495   129.9876   166.3609
      3  N    Isotropic =   201.8251   Anisotropy =    71.5198
   XX=   238.7852   YX=    -8.2376   ZX=   -13.4064
   XY=    -5.8944   YY=   210.1380   ZY=    41.3844
   XZ=   -19.1803   YZ=    34.4344   ZZ=   156.5519
   Eigenvalues:   135.6779   220.2924   249.5049
      4  C    Isotropic =   137.2087   Anisotropy =    57.8230
   XX=   159.1043   YX=     2.3554   ZX=    17.8241
   XY=    17.4207   YY=   120.7730   ZY=    18.0812
   XZ=    17.9377   YZ=    30.4976   ZZ=   131.7489
   Eigenvalues:   101.1221   134.7468   175.7574
      5  C    Isotropic =   167.3110   Anisotropy =    19.3791
   XX=   178.6905   YX=    -2.6779   ZX=     7.4895
   XY=     1.2137   YY=   174.5798   ZY=    15.6316
   XZ=    -2.3769   YZ=    10.8727   ZZ=   148.6627
   Eigenvalues:   142.8916   178.8110   180.2304
      6  C    Isotropic =   132.7031   Anisotropy =    56.2686
   XX=   160.7756   YX=     4.7705   ZX=   -18.1497
   XY=    11.3114   YY=   109.7026   ZY=     4.0183
   XZ=   -18.9834   YZ=    -8.4761   ZZ=   127.6309
   Eigenvalues:   108.4365   119.4573   170.2155
      7  C    Isotropic =   117.4758   Anisotropy =    50.1587
   XX=   139.4294   YX=     3.9192   ZX=   -17.2144
   XY=    16.9266   YY=   114.7770   ZY=     4.1350
   XZ=   -25.9575   YZ=    -0.9291   ZZ=    98.2211
   Eigenvalues:    87.7746   113.7379   150.9150
      8  C    Isotropic =   115.8722   Anisotropy =    32.1581
   XX=   113.0347   YX=    -3.8210   ZX=   -16.1804
   XY=   -18.8972   YY=   131.0045   ZY=    -6.3035
   XZ=   -12.2184   YZ=     3.0574   ZZ=   103.5775
   Eigenvalues:    91.6373   118.6685   137.3110
      9  H    Isotropic =    29.9155   Anisotropy =    10.7832
   XX=    32.9137   YX=    -3.3509   ZX=    -2.7438
   XY=    -3.9307   YY=    30.3550   ZY=     3.1876
   XZ=    -3.0317   YZ=     2.9252   ZZ=    26.4779
   Eigenvalues:    24.6850    27.9572    37.1044
     10  H    Isotropic =    29.7659   Anisotropy =     6.7459
   XX=    29.2564   YX=     1.0246   ZX=     2.2444
   XY=     1.2791   YY=    30.3447   ZY=    -3.9456
   XZ=     2.3748   YZ=    -4.2702   ZZ=    29.6965
   Eigenvalues:    24.5734    30.4611    34.2632
     11  H    Isotropic =    27.9799   Anisotropy =     8.5150
   XX=    25.7914   YX=    -1.1009   ZX=    -1.9583
   XY=    -0.2822   YY=    25.0885   ZY=     1.7066
   XZ=    -0.7399   YZ=     1.5826   ZZ=    33.0597
   Eigenvalues:    24.5834    25.6997    33.6566
     12  H    Isotropic =    28.3093   Anisotropy =     9.8510
   XX=    26.9640   YX=     2.0830   ZX=     1.2965
   XY=     1.1392   YY=    34.0791   ZY=     1.5769
   XZ=     1.1456   YZ=     2.4304   ZZ=    23.8848
   Eigenvalues:    23.2673    26.7840    34.8767
     13  H    Isotropic =    29.0071   Anisotropy =     8.3189
   XX=    28.3269   YX=     1.3377   ZX=     1.8927
   XY=     1.2355   YY=    25.6308   ZY=     3.2657
   XZ=     0.0490   YZ=     3.1398   ZZ=    33.0635
   Eigenvalues:    24.2477    28.2206    34.5530
     14  H    Isotropic =    29.8741   Anisotropy =    11.1610
   XX=    31.1659   YX=     3.2670   ZX=    -4.2916
   XY=     3.4467   YY=    29.5805   ZY=    -2.7286
   XZ=    -4.9386   YZ=    -3.0693   ZZ=    28.8760
   Eigenvalues:    25.2456    27.0620    37.3148
     15  H    Isotropic =    29.6974   Anisotropy =    11.7478
   XX=    33.5489   YX=     1.6314   ZX=     5.3138
   XY=     2.3562   YY=    26.8908   ZY=     1.9252
   XZ=     5.1931   YZ=     1.4673   ZZ=    28.6525
   Eigenvalues:    25.1903    26.3726    37.5292
     16  H    Isotropic =    28.5872   Anisotropy =     5.1839
   XX=    29.7251   YX=    -0.9341   ZX=    -0.7766
   XY=    -1.1894   YY=    28.1060   ZY=     3.1009
   XZ=    -0.7299   YZ=     3.5158   ZZ=    27.9304
   Eigenvalues:    24.7002    29.0182    32.0431
     17  H    Isotropic =    27.3854   Anisotropy =     4.4632
   XX=    29.5570   YX=     1.5621   ZX=     0.9564
   XY=     2.4935   YY=    24.8649   ZY=    -0.3630
   XZ=    -0.8849   YZ=    -1.8178   ZZ=    27.7344
   Eigenvalues:    23.8344    27.9610    30.3609
     18  H    Isotropic =    27.2284   Anisotropy =     4.0980
   XX=    25.9403   YX=    -1.4491   ZX=     2.7155
   XY=    -1.4659   YY=    28.6840   ZY=    -0.9127
   XZ=     3.1860   YZ=     1.5709   ZZ=    27.0610
   Eigenvalues:    23.1708    28.5541    29.9604
     19  O    Isotropic =   309.1008   Anisotropy =    41.4571
   XX=   311.0963   YX=    19.3635   ZX=    -5.0587
   XY=    16.1698   YY=   321.7550   ZY=   -10.6984
   XZ=    15.7088   YZ=   -17.6689   ZZ=   294.4512
   Eigenvalues:   282.5676   307.9960   336.7389
     20  H    Isotropic =    29.5634   Anisotropy =    19.1743
   XX=    32.3164   YX=     6.8619   ZX=    -1.8911
   XY=     7.6107   YY=    36.3747   ZY=    -2.7725
   XZ=    -3.0422   YZ=    -1.7482   ZZ=    19.9991
   Eigenvalues:    19.4665    26.8775    42.3463
     21  O    Isotropic =   315.2496   Anisotropy =    50.7868
   XX=   335.9004   YX=   -13.6744   ZX=     8.8569
   XY=   -12.4428   YY=   304.9090   ZY=    -3.5757
   XZ=    27.2176   YZ=   -10.1985   ZZ=   304.9394
   Eigenvalues:   296.4829   300.1583   349.1075
     22  H    Isotropic =    26.1732   Anisotropy =    25.7060
   XX=    32.3243   YX=    -8.5868   ZX=     4.8419
   XY=    -8.3019   YY=    30.1523   ZY=    -8.5580
   XZ=     4.8959   YZ=    -9.8356   ZZ=    16.0430
   Eigenvalues:    11.4830    23.7261    43.3105
     23  C    Isotropic =   128.5509   Anisotropy =    70.8533
   XX=   169.9899   YX=     5.6867   ZX=   -23.7021
   XY=     5.2071   YY=   106.3083   ZY=   -12.1578
   XZ=   -11.7452   YZ=   -10.6666   ZZ=   109.3546
   Eigenvalues:    95.4016   114.4647   175.7865
     24  H    Isotropic =    27.5418   Anisotropy =     3.5211
   XX=    29.4355   YX=    -2.5835   ZX=    -0.5817
   XY=    -0.5296   YY=    24.5202   ZY=    -0.4624
   XZ=     0.7158   YZ=     0.5474   ZZ=    28.6698
   Eigenvalues:    24.0680    28.6683    29.8892
     25  H    Isotropic =    27.6263   Anisotropy =     5.5138
   XX=    29.0274   YX=     0.9232   ZX=    -0.1930
   XY=    -1.2418   YY=    29.3491   ZY=    -3.0517
   XZ=    -0.9700   YZ=    -4.2176   ZZ=    24.5024
   Eigenvalues:    22.5044    29.0724    31.3022
     26  O    Isotropic =   311.2140   Anisotropy =    85.4547
   XX=   336.1486   YX=    -6.0912   ZX=    22.7587
   XY=   -16.7876   YY=   280.8160   ZY=    -3.3321
   XZ=    55.2934   YZ=    -5.1356   ZZ=   316.6775
   Eigenvalues:   277.6836   287.7747   368.1838
     27  H    Isotropic =    29.9711   Anisotropy =    20.9762
   XX=    38.3070   YX=    -1.0339   ZX=     9.4208
   XY=    -0.8190   YY=    20.6803   ZY=    -1.4932
   XZ=     7.5233   YZ=    -1.1829   ZZ=    30.9259
   Eigenvalues:    20.5061    25.4519    43.9552
 End of Minotr Frequency-dependent properties file   721 does not exist.
 End of Minotr Frequency-dependent properties file   722 does not exist.

 **********************************************************************

            Population analysis using the SCF density.

 **********************************************************************

 Orbital symmetries:
       Occupied  (A) (A) (A) (A) (A) (A) (A) (A) (A) (A) (A) (A)
                 (A) (A) (A) (A) (A) (A) (A) (A) (A) (A) (A) (A)
                 (A) (A) (A) (A) (A) (A) (A) (A) (A) (A) (A) (A)
                 (A) (A) (A) (A) (A) (A) (A) (A) (A) (A) (A)
       Virtual   (A) (A) (A) (A) (A) (A) (A) (A) (A) (A) (A) (A)
                 (A) (A) (A) (A) (A) (A) (A) (A) (A) (A) (A) (A)
                 (A) (A) (A) (A) (A) (A) (A) (A) (A) (A) (A) (A)
                 (A) (A) (A) (A) (A) (A) (A) (A) (A) (A) (A) (A)
                 (A) (A) (A) (A) (A) (A) (A) (A) (A) (A) (A) (A)
                 (A) (A) (A) (A) (A) (A) (A) (A) (A) (A) (A) (A)
                 (A) (A) (A) (A) (A) (A) (A) (A) (A) (A) (A) (A)
                 (A) (A) (A) (A) (A) (A) (A) (A) (A) (A) (A) (A)
                 (A) (A) (A) (A) (A) (A) (A) (A) (A) (A) (A) (A)
                 (A) (A) (A) (A) (A) (A) (A) (A) (A) (A) (A) (A)
                 (A) (A) (A) (A) (A) (A) (A) (A) (A) (A) (A) (A)
                 (A) (A) (A) (A) (A) (A) (A) (A) (A) (A) (A) (A)
                 (A) (A) (A) (A) (A) (A) (A) (A) (A) (A) (A) (A)
                 (A) (A) (A) (A) (A) (A) (A) (A) (A) (A) (A) (A)
                 (A) (A) (A) (A) (A) (A) (A) (A) (A) (A) (A) (A)
                 (A) (A) (A) (A) (A) (A) (A) (A) (A) (A) (A) (A)
                 (A) (A) (A) (A) (A) (A) (A) (A) (A) (A) (A) (A)
                 (A) (A) (A) (A) (A) (A) (A) (A) (A) (A) (A) (A)
                 (A) (A) (A) (A) (A) (A) (A) (A) (A) (A) (A) (A)
                 (A) (A) (A) (A) (A) (A) (A) (A) (A) (A) (A) (A)
                 (A) (A) (A) (A) (A) (A) (A) (A) (A) (A) (A) (A)
                 (A) (A) (A) (A)
 The electronic state is 1-A.
 Alpha  occ. eigenvalues --  -19.27276 -19.25760 -19.24609 -14.41601 -10.30262
 Alpha  occ. eigenvalues --  -10.30049 -10.29977 -10.28615 -10.27849 -10.26995
 Alpha  occ. eigenvalues --  -10.24576 -10.24453  -1.07620  -1.06379  -1.04385
 Alpha  occ. eigenvalues --   -0.96710  -0.82980  -0.79099  -0.75146  -0.71870
 Alpha  occ. eigenvalues --   -0.66963  -0.61196  -0.60846  -0.57973  -0.54567
 Alpha  occ. eigenvalues --   -0.54429  -0.53263  -0.50069  -0.48755  -0.47722
 Alpha  occ. eigenvalues --   -0.46492  -0.43840  -0.43191  -0.42355  -0.40872
 Alpha  occ. eigenvalues --   -0.40444  -0.38786  -0.37318  -0.36109  -0.35597
 Alpha  occ. eigenvalues --   -0.35252  -0.34415  -0.33969  -0.31765  -0.30336
 Alpha  occ. eigenvalues --   -0.27436  -0.23304
 Alpha virt. eigenvalues --    0.00458   0.01340   0.01773   0.01932   0.03574
 Alpha virt. eigenvalues --    0.04507   0.04873   0.05070   0.05488   0.06445
 Alpha virt. eigenvalues --    0.08056   0.08412   0.08964   0.09453   0.09537
 Alpha virt. eigenvalues --    0.10216   0.10720   0.12142   0.12380   0.12806
 Alpha virt. eigenvalues --    0.13483   0.13936   0.14275   0.14916   0.15149
 Alpha virt. eigenvalues --    0.16064   0.16557   0.17413   0.17696   0.18181
 Alpha virt. eigenvalues --    0.18914   0.19331   0.19784   0.19889   0.20774
 Alpha virt. eigenvalues --    0.21657   0.22059   0.22387   0.22848   0.23458
 Alpha virt. eigenvalues --    0.23803   0.24176   0.25171   0.25364   0.26235
 Alpha virt. eigenvalues --    0.26859   0.27516   0.27967   0.28046   0.28465
 Alpha virt. eigenvalues --    0.29374   0.29968   0.30816   0.31417   0.31591
 Alpha virt. eigenvalues --    0.32299   0.32868   0.33804   0.34427   0.35271
 Alpha virt. eigenvalues --    0.35587   0.36375   0.36552   0.37624   0.37846
 Alpha virt. eigenvalues --    0.38760   0.40034   0.40646   0.41183   0.42161
 Alpha virt. eigenvalues --    0.42826   0.43806   0.45609   0.46956   0.47493
 Alpha virt. eigenvalues --    0.48687   0.63097   0.65278   0.67250   0.68239
 Alpha virt. eigenvalues --    0.70162   0.71279   0.71999   0.73227   0.73949
 Alpha virt. eigenvalues --    0.74616   0.74964   0.77737   0.80422   0.81570
 Alpha virt. eigenvalues --    0.81793   0.82418   0.84630   0.85615   0.87141
 Alpha virt. eigenvalues --    0.90196   0.91484   0.94282   0.96316   0.97429
 Alpha virt. eigenvalues --    0.99196   0.99766   1.01711   1.03989   1.04952
 Alpha virt. eigenvalues --    1.05128   1.07362   1.08894   1.10241   1.10499
 Alpha virt. eigenvalues --    1.11834   1.13650   1.14449   1.15928   1.16675
 Alpha virt. eigenvalues --    1.17991   1.18938   1.20279   1.22424   1.24122
 Alpha virt. eigenvalues --    1.25844   1.27829   1.29459   1.30154   1.31483
 Alpha virt. eigenvalues --    1.33054   1.36113   1.37774   1.39754   1.42433
 Alpha virt. eigenvalues --    1.44318   1.46234   1.48204   1.49821   1.51474
 Alpha virt. eigenvalues --    1.53371   1.57538   1.58792   1.60325   1.60725
 Alpha virt. eigenvalues --    1.63365   1.65048   1.66421   1.67386   1.71182
 Alpha virt. eigenvalues --    1.72101   1.74689   1.77767   1.78040   1.80033
 Alpha virt. eigenvalues --    1.81036   1.81506   1.84152   1.85933   1.86842
 Alpha virt. eigenvalues --    1.87451   1.90350   1.90910   1.91428   1.94164
 Alpha virt. eigenvalues --    1.95759   1.99493   2.00212   2.00907   2.02761
 Alpha virt. eigenvalues --    2.04274   2.05835   2.07545   2.07692   2.10775
 Alpha virt. eigenvalues --    2.11518   2.14080   2.14913   2.16629   2.18101
 Alpha virt. eigenvalues --    2.21176   2.21961   2.23268   2.24828   2.28672
 Alpha virt. eigenvalues --    2.30850   2.32371   2.36237   2.39421   2.42123
 Alpha virt. eigenvalues --    2.42868   2.43755   2.44863   2.46733   2.47673
 Alpha virt. eigenvalues --    2.48434   2.50056   2.53161   2.54083   2.54902
 Alpha virt. eigenvalues --    2.56160   2.58761   2.59221   2.61322   2.63998
 Alpha virt. eigenvalues --    2.64815   2.66114   2.67246   2.67715   2.70836
 Alpha virt. eigenvalues --    2.72338   2.73128   2.75077   2.77042   2.78685
 Alpha virt. eigenvalues --    2.79460   2.79757   2.83445   2.84534   2.84827
 Alpha virt. eigenvalues --    2.85722   2.87110   2.90144   2.91999   2.93924
 Alpha virt. eigenvalues --    2.94935   2.97842   3.00396   3.01640   3.05681
 Alpha virt. eigenvalues --    3.07225   3.08478   3.14307   3.16874   3.32476
 Alpha virt. eigenvalues --    3.35242   3.36335   3.37284   3.40495   3.45175
 Alpha virt. eigenvalues --    3.48887   3.52110   3.52757   3.54220   3.55132
 Alpha virt. eigenvalues --    3.56602   3.58202   3.58306   3.64946   4.34871
 Alpha virt. eigenvalues --    4.40097   4.43046   4.49091   4.50604   4.53571
 Alpha virt. eigenvalues --    4.58691   4.66625   4.76650   4.83944   4.84641
 Alpha virt. eigenvalues --    4.95186
          Condensed to atoms (all electrons):
              1          2          3          4          5          6
     1  C    5.771318  -0.277204   0.094878  -0.150805   0.103422  -0.027925
     2  C   -0.277204   7.802145  -0.385803  -0.347718   0.213301   0.228221
     3  N    0.094878  -0.385803   7.445002   0.235265  -0.254560  -0.280660
     4  C   -0.150805  -0.347718   0.235265   5.619681   0.047932  -0.072559
     5  C    0.103422   0.213301  -0.254560   0.047932   5.690454   0.143091
     6  C   -0.027925   0.228221  -0.280660  -0.072559   0.143091   8.865187
     7  C   -0.023471  -0.040819  -0.004764  -0.044545  -0.038176  -0.676686
     8  C   -0.036438  -0.622767   0.070827   0.146392  -0.037100  -0.500538
     9  H    0.365229  -0.056685   0.013781   0.021409  -0.010459  -0.004594
    10  H    0.504551  -0.180001   0.035138   0.031523  -0.097273  -0.004328
    11  H    0.042114   0.193470  -0.000139   0.021864  -0.032040  -0.019883
    12  H    0.020847   0.005773  -0.052200   0.393865  -0.040872  -0.013457
    13  H    0.005433   0.013217  -0.083782   0.412042  -0.027100   0.026245
    14  H   -0.007335  -0.040616   0.017290  -0.020385   0.369161   0.001958
    15  H   -0.055401   0.038996   0.006626  -0.015908   0.373745  -0.007881
    16  H   -0.004964   0.016791  -0.043670  -0.008737   0.008806   0.284824
    17  H   -0.003753   0.002823   0.007665   0.023437  -0.015053  -0.038826
    18  H   -0.004028  -0.098556   0.015258   0.008357  -0.004527   0.040672
    19  O    0.011383  -0.233941   0.033246  -0.003171   0.011185  -0.016201
    20  H   -0.009431   0.065537  -0.004708  -0.001102  -0.000299   0.020443
    21  O    0.002314   0.008004   0.032646  -0.015983   0.005515  -0.081664
    22  H    0.001252   0.001064   0.005649   0.003574  -0.001181  -0.063814
    23  C    0.055501  -0.256614   0.174693  -0.060823  -0.058438  -1.149068
    24  H    0.000095  -0.016458   0.019391   0.006050   0.000853  -0.095740
    25  H    0.001027   0.017869  -0.008125  -0.013987  -0.000552  -0.098356
    26  O    0.000703   0.034798  -0.002769  -0.002921   0.000388  -0.071271
    27  H   -0.000029  -0.003009  -0.000410  -0.000464   0.000039   0.039038
              7          8          9         10         11         12
     1  C   -0.023471  -0.036438   0.365229   0.504551   0.042114   0.020847
     2  C   -0.040819  -0.622767  -0.056685  -0.180001   0.193470   0.005773
     3  N   -0.004764   0.070827   0.013781   0.035138  -0.000139  -0.052200
     4  C   -0.044545   0.146392   0.021409   0.031523   0.021864   0.393865
     5  C   -0.038176  -0.037100  -0.010459  -0.097273  -0.032040  -0.040872
     6  C   -0.676686  -0.500538  -0.004594  -0.004328  -0.019883  -0.013457
     7  C    6.475541  -0.266963   0.004298   0.000525   0.005793   0.004710
     8  C   -0.266963   6.491254   0.005257   0.029833   0.033984  -0.003679
     9  H    0.004298   0.005257   0.517170  -0.022922  -0.004212  -0.000093
    10  H    0.000525   0.029833  -0.022922   0.516752   0.004092  -0.000048
    11  H    0.005793   0.033984  -0.004212   0.004092   0.560641   0.000227
    12  H    0.004710  -0.003679  -0.000093  -0.000048   0.000227   0.552354
    13  H   -0.012187  -0.002492  -0.000129   0.000803  -0.000475  -0.042214
    14  H   -0.002158   0.006917  -0.004656   0.004166   0.001048  -0.006322
    15  H    0.002661  -0.000763   0.000139  -0.005141  -0.000097   0.001027
    16  H    0.018693   0.022640   0.000003  -0.000021  -0.000163  -0.000012
    17  H    0.452500  -0.077669   0.000038  -0.000007  -0.000142   0.000032
    18  H   -0.053446   0.436224  -0.000059   0.000037  -0.007106   0.000007
    19  O   -0.057581   0.312007   0.000888   0.001076   0.008547   0.000070
    20  H   -0.077765   0.020372   0.000003  -0.000210  -0.000296   0.000000
    21  O    0.301747  -0.160391   0.000003  -0.000048   0.000199   0.000137
    22  H    0.026757  -0.011466   0.000000  -0.000001   0.000004   0.000000
    23  C    0.084128   0.129388   0.000345  -0.000587   0.021056   0.015101
    24  H    0.008741   0.025254   0.000001   0.000000   0.000023   0.000014
    25  H    0.014274  -0.018104   0.000000   0.000000   0.000019   0.000012
    26  O    0.079155  -0.044398  -0.000001  -0.000008  -0.000075  -0.000030
    27  H   -0.013219   0.005797   0.000000   0.000000   0.000001   0.000000
             13         14         15         16         17         18
     1  C    0.005433  -0.007335  -0.055401  -0.004964  -0.003753  -0.004028
     2  C    0.013217  -0.040616   0.038996   0.016791   0.002823  -0.098556
     3  N   -0.083782   0.017290   0.006626  -0.043670   0.007665   0.015258
     4  C    0.412042  -0.020385  -0.015908  -0.008737   0.023437   0.008357
     5  C   -0.027100   0.369161   0.373745   0.008806  -0.015053  -0.004527
     6  C    0.026245   0.001958  -0.007881   0.284824  -0.038826   0.040672
     7  C   -0.012187  -0.002158   0.002661   0.018693   0.452500  -0.053446
     8  C   -0.002492   0.006917  -0.000763   0.022640  -0.077669   0.436224
     9  H   -0.000129  -0.004656   0.000139   0.000003   0.000038  -0.000059
    10  H    0.000803   0.004166  -0.005141  -0.000021  -0.000007   0.000037
    11  H   -0.000475   0.001048  -0.000097  -0.000163  -0.000142  -0.007106
    12  H   -0.042214  -0.006322   0.001027  -0.000012   0.000032   0.000007
    13  H    0.563675   0.003987  -0.004994   0.003129   0.000486  -0.000007
    14  H    0.003987   0.522923  -0.024255  -0.000011   0.000008   0.000004
    15  H   -0.004994  -0.024255   0.513397  -0.000013   0.000012   0.000002
    16  H    0.003129  -0.000011  -0.000013   0.531977  -0.007699  -0.000265
    17  H    0.000486   0.000008   0.000012  -0.007699   0.542842   0.004234
    18  H   -0.000007   0.000004   0.000002  -0.000265   0.004234   0.563843
    19  O   -0.000185   0.000106   0.000028  -0.000647  -0.007608  -0.045287
    20  H    0.000002   0.000000   0.000000  -0.000002   0.000120  -0.005243
    21  O   -0.001012  -0.000001  -0.000006   0.005653  -0.062982  -0.006295
    22  H   -0.000007   0.000000   0.000000  -0.000517   0.004918   0.000931
    23  C   -0.016149   0.000207  -0.000136  -0.014009   0.001204  -0.010295
    24  H   -0.000017  -0.000001   0.000000   0.004678  -0.000179  -0.002196
    25  H    0.000022   0.000001   0.000000  -0.005763  -0.000105   0.000044
    26  O    0.000003  -0.000001  -0.000001   0.009639  -0.002645   0.000273
    27  H    0.000000   0.000000   0.000000  -0.000053  -0.000003  -0.000035
             19         20         21         22         23         24
     1  C    0.011383  -0.009431   0.002314   0.001252   0.055501   0.000095
     2  C   -0.233941   0.065537   0.008004   0.001064  -0.256614  -0.016458
     3  N    0.033246  -0.004708   0.032646   0.005649   0.174693   0.019391
     4  C   -0.003171  -0.001102  -0.015983   0.003574  -0.060823   0.006050
     5  C    0.011185  -0.000299   0.005515  -0.001181  -0.058438   0.000853
     6  C   -0.016201   0.020443  -0.081664  -0.063814  -1.149068  -0.095740
     7  C   -0.057581  -0.077765   0.301747   0.026757   0.084128   0.008741
     8  C    0.312007   0.020372  -0.160391  -0.011466   0.129388   0.025254
     9  H    0.000888   0.000003   0.000003   0.000000   0.000345   0.000001
    10  H    0.001076  -0.000210  -0.000048  -0.000001  -0.000587   0.000000
    11  H    0.008547  -0.000296   0.000199   0.000004   0.021056   0.000023
    12  H    0.000070   0.000000   0.000137   0.000000   0.015101   0.000014
    13  H   -0.000185   0.000002  -0.001012  -0.000007  -0.016149  -0.000017
    14  H    0.000106   0.000000  -0.000001   0.000000   0.000207  -0.000001
    15  H    0.000028   0.000000  -0.000006   0.000000  -0.000136   0.000000
    16  H   -0.000647  -0.000002   0.005653  -0.000517  -0.014009   0.004678
    17  H   -0.007608   0.000120  -0.062982   0.004918   0.001204  -0.000179
    18  H   -0.045287  -0.005243  -0.006295   0.000931  -0.010295  -0.002196
    19  O    8.296166   0.219391  -0.004888   0.000323   0.011629   0.000053
    20  H    0.219391   0.380858   0.009635  -0.000025  -0.001277  -0.000003
    21  O   -0.004888   0.009635   8.295617   0.254377   0.012501   0.000508
    22  H    0.000323  -0.000025   0.254377   0.330729   0.018887  -0.000728
    23  C    0.011629  -0.001277   0.012501   0.018887   6.043368   0.417454
    24  H    0.000053  -0.000003   0.000508  -0.000728   0.417454   0.558357
    25  H    0.000032   0.000000  -0.001265   0.000308   0.482572  -0.038988
    26  O    0.000352  -0.000025  -0.036287   0.023832   0.057239  -0.054912
    27  H    0.000009   0.000000   0.001465  -0.002637  -0.021532  -0.005351
             25         26         27
     1  C    0.001027   0.000703  -0.000029
     2  C    0.017869   0.034798  -0.003009
     3  N   -0.008125  -0.002769  -0.000410
     4  C   -0.013987  -0.002921  -0.000464
     5  C   -0.000552   0.000388   0.000039
     6  C   -0.098356  -0.071271   0.039038
     7  C    0.014274   0.079155  -0.013219
     8  C   -0.018104  -0.044398   0.005797
     9  H    0.000000  -0.000001   0.000000
    10  H    0.000000  -0.000008   0.000000
    11  H    0.000019  -0.000075   0.000001
    12  H    0.000012  -0.000030   0.000000
    13  H    0.000022   0.000003   0.000000
    14  H    0.000001  -0.000001   0.000000
    15  H    0.000000  -0.000001   0.000000
    16  H   -0.005763   0.009639  -0.000053
    17  H   -0.000105  -0.002645  -0.000003
    18  H    0.000044   0.000273  -0.000035
    19  O    0.000032   0.000352   0.000009
    20  H    0.000000  -0.000025   0.000000
    21  O   -0.001265  -0.036287   0.001465
    22  H    0.000308   0.023832  -0.002637
    23  C    0.482572   0.057239  -0.021532
    24  H   -0.038988  -0.054912  -0.005351
    25  H    0.535565  -0.041027  -0.002786
    26  O   -0.041027   8.403271   0.242603
    27  H   -0.002786   0.242603   0.352100
 Mulliken atomic charges:
              1
     1  C   -0.379285
     2  C   -0.081820
     3  N   -0.085763
     4  C   -0.212282
     5  C   -0.350265
     6  C   -0.426230
     7  C   -0.167743
     8  C    0.046623
     9  H    0.175245
    10  H    0.182098
    11  H    0.171547
    12  H    0.164750
    13  H    0.161704
    14  H    0.177966
    15  H    0.177965
    16  H    0.179712
    17  H    0.176353
    18  H    0.167457
    19  O   -0.536983
    20  H    0.384026
    21  O   -0.559500
    22  H    0.407768
    23  C    0.063656
    24  H    0.173099
    25  H    0.177313
    26  O   -0.595886
    27  H    0.408473
 Sum of Mulliken atomic charges =   0.00000
 Mulliken charges with hydrogens summed into heavy atoms:
              1
     1  C   -0.021942
     2  C    0.089727
     3  N   -0.085763
     4  C    0.114173
     5  C    0.005666
     6  C   -0.246517
     7  C    0.008610
     8  C    0.214081
    19  O   -0.152957
    21  O   -0.151732
    23  C    0.414069
    26  O   -0.187413
 Sum of Mulliken charges with hydrogens summed into heavy atoms =   0.00000
 Electronic spatial extent (au):  <R**2>=           2081.7203
 Charge=              0.0000 electrons
 Dipole moment (field-independent basis, Debye):
    X=              0.8279    Y=             -2.3444    Z=              2.1489  Tot=              3.2862
 Quadrupole moment (field-independent basis, Debye-Ang):
   XX=            -66.6505   YY=            -76.8219   ZZ=            -72.4483
   XY=              0.2586   XZ=             11.1817   YZ=              1.8952
 Traceless Quadrupole moment (field-independent basis, Debye-Ang):
   XX=              5.3231   YY=             -4.8483   ZZ=             -0.4748
   XY=              0.2586   XZ=             11.1817   YZ=              1.8952
 Octapole moment (field-independent basis, Debye-Ang**2):
  XXX=             41.7136  YYY=              6.3245  ZZZ=              3.3389  XYY=             14.2631
  XXY=            -16.4435  XXZ=             31.7741  XZZ=              5.4952  YZZ=             -1.1742
  YYZ=              0.0196  XYZ=             -2.7275
 Hexadecapole moment (field-independent basis, Debye-Ang**3):
 XXXX=          -1364.7530 YYYY=           -784.1106 ZZZZ=           -261.3367 XXXY=            -40.1403
 XXXZ=            105.3706 YYYX=             25.8606 YYYZ=             -6.9191 ZZZX=             14.5451
 ZZZY=              3.3697 XXYY=           -423.1899 XXZZ=           -289.2333 YYZZ=           -192.1653
 XXYZ=            -15.1855 YYXZ=             23.6637 ZZXY=            -14.6160
 N-N= 8.056439358615D+02 E-N=-2.997319939682D+03  KE= 5.886577375427D+02
 1\1\GINC-COMPUTE-3-2\SP\RmPW1PW91\6-31+G(d,p)\C8H15N1O3\MAMICHETTI.IQU
 IR\17-May-2024\0\\# mpw1pw91/6-31+G** nmr scrf=(pcm,solvent=water)\\co
 mment\\0,1\C,0,-2.458803,0.449069,0.050416\C,0,-1.125395,0.2717,0.7968
 55\N,0,-0.567594,-1.052902,0.332887\C,0,-1.5565,-1.659032,-0.592292\C,
 0,-2.884732,-0.999791,-0.223355\C,0,0.762361,-0.820636,-0.271218\C,0,0
 .757793,0.675875,-0.653072\C,0,-0.029041,1.310029,0.500844\H,0,-3.1894
 88,1.017209,0.63398\H,0,-2.304164,0.976013,-0.897598\H,0,-1.319121,0.2
 254,1.87465\H,0,-1.575187,-2.749583,-0.482807\H,0,-1.309961,-1.438549,
 -1.642774\H,0,-3.299733,-1.455696,0.683994\H,0,-3.630087,-1.08941,-1.0
 1969\H,0,0.880858,-1.451904,-1.157958\H,0,0.162162,0.800058,-1.567583\
 H,0,0.639762,1.409314,1.367281\O,0,-0.588116,2.587602,0.192968\H,0,0.1
 62379,3.180211,0.015883\O,0,2.026333,1.286347,-0.886439\H,0,2.699444,0
 .677762,-0.512597\C,0,1.869484,-1.202661,0.71784\H,0,1.810355,-0.59701
 7,1.630223\H,0,1.754634,-2.255768,1.003306\O,0,3.14314,-0.999007,0.071
 742\H,0,3.829442,-1.024576,0.759203\\Version=AM64L-G09RevC.01\State=1-
 A\HF=-594.195849\RMSD=7.657e-09\Dipole=0.3257034,-0.9223521,0.8454471\
 Quadrupole=3.9575887,-3.60462,-0.3529688,0.192258,8.3132908,1.4090419\
 PG=C01 [X(C8H15N1O3)]\\@


 THAT'S WHAT MAKES US A GREAT COUNTRY.
 THE LITTLE THINGS ARE SERIOUS AND THE BIG ONES ARE NOT.
           WILL ROGERS
 Job cpu time:  0 days  0 hours  8 minutes 26.1 seconds.
 File lengths (MBytes):  RWF=    114 Int=      0 D2E=      0 Chk=      7 Scr=      1
 Normal termination of Gaussian 09 at Fri May 17 12:44:23 2024.
