 Entering Gaussian System, Link 0=g09
 Input=/home/mamichetti.iquir/Linux/03_Cardona_A1A3_R__S_S_R_045_OptB.gjc
 Output=/home/mamichetti.iquir/Linux/03_Cardona_A1A3_R__S_S_R_045_OptB.log
 Initial command:
 /opt/ohpc/pub/apps/software/Gaussian/09/AMD64.SSE4a-enabled/g09/l1.exe /local/mamichetti.iquir/Gau-124065.inp -scrdir=/local/mamichetti.iquir/
 Entering Link 1 = /opt/ohpc/pub/apps/software/Gaussian/09/AMD64.SSE4a-enabled/g09/l1.exe PID=    124066.
  
 Copyright (c) 1988,1990,1992,1993,1995,1998,2003,2009,2011,
            Gaussian, Inc.  All Rights Reserved.
  
 This is part of the Gaussian(R) 09 program.  It is based on
 the Gaussian(R) 03 system (copyright 2003, Gaussian, Inc.),
 the Gaussian(R) 98 system (copyright 1998, Gaussian, Inc.),
 the Gaussian(R) 94 system (copyright 1995, Gaussian, Inc.),
 the Gaussian 92(TM) system (copyright 1992, Gaussian, Inc.),
 the Gaussian 90(TM) system (copyright 1990, Gaussian, Inc.),
 the Gaussian 88(TM) system (copyright 1988, Gaussian, Inc.),
 the Gaussian 86(TM) system (copyright 1986, Carnegie Mellon
 University), and the Gaussian 82(TM) system (copyright 1983,
 Carnegie Mellon University). Gaussian is a federally registered
 trademark of Gaussian, Inc.
  
 This software contains proprietary and confidential information,
 including trade secrets, belonging to Gaussian, Inc.
  
 This software is provided under written license and may be
 used, copied, transmitted, or stored only in accord with that
 written license.
  
 The following legend is applicable only to US Government
 contracts under FAR:
  
                    RESTRICTED RIGHTS LEGEND
  
 Use, reproduction and disclosure by the US Government is
 subject to restrictions as set forth in subparagraphs (a)
 and (c) of the Commercial Computer Software - Restricted
 Rights clause in FAR 52.227-19.
  
 Gaussian, Inc.
 340 Quinnipiac St., Bldg. 40, Wallingford CT 06492
  
  
 ---------------------------------------------------------------
 Warning -- This program may not be used in any manner that
 competes with the business of Gaussian, Inc. or will provide
 assistance to any competitor of Gaussian, Inc.  The licensee
 of this program is prohibited from giving any competitor of
 Gaussian, Inc. access to this program.  By using this program,
 the user acknowledges that Gaussian, Inc. is engaged in the
 business of creating and licensing software in the field of
 computational chemistry and represents and warrants to the
 licensee that it is not a competitor of Gaussian, Inc. and that
 it will not use this program in any manner prohibited above.
 ---------------------------------------------------------------
  

 Cite this work as:
 Gaussian 09, Revision C.01,
 M. J. Frisch, G. W. Trucks, H. B. Schlegel, G. E. Scuseria, 
 M. A. Robb, J. R. Cheeseman, G. Scalmani, V. Barone, B. Mennucci, 
 G. A. Petersson, H. Nakatsuji, M. Caricato, X. Li, H. P. Hratchian, 
 A. F. Izmaylov, J. Bloino, G. Zheng, J. L. Sonnenberg, M. Hada, 
 M. Ehara, K. Toyota, R. Fukuda, J. Hasegawa, M. Ishida, T. Nakajima, 
 Y. Honda, O. Kitao, H. Nakai, T. Vreven, J. A. Montgomery, Jr., 
 J. E. Peralta, F. Ogliaro, M. Bearpark, J. J. Heyd, E. Brothers, 
 K. N. Kudin, V. N. Staroverov, T. Keith, R. Kobayashi, J. Normand, 
 K. Raghavachari, A. Rendell, J. C. Burant, S. S. Iyengar, J. Tomasi, 
 M. Cossi, N. Rega, J. M. Millam, M. Klene, J. E. Knox, J. B. Cross, 
 V. Bakken, C. Adamo, J. Jaramillo, R. Gomperts, R. E. Stratmann, 
 O. Yazyev, A. J. Austin, R. Cammi, C. Pomelli, J. W. Ochterski, 
 R. L. Martin, K. Morokuma, V. G. Zakrzewski, G. A. Voth, 
 P. Salvador, J. J. Dannenberg, S. Dapprich, A. D. Daniels, 
 O. Farkas, J. B. Foresman, J. V. Ortiz, J. Cioslowski, 
 and D. J. Fox, Gaussian, Inc., Wallingford CT, 2010.
 
 ******************************************
 Gaussian 09:  AM64L-G09RevC.01 23-Sep-2011
                17-May-2024 
 ******************************************
 %nprocshared=4
 Will use up to    4 processors via shared memory.
 ------------------------------------------------
 # mpw1pw91/6-31+G** nmr scrf=(pcm,solvent=water)
 ------------------------------------------------
 1/38=1/1;
 2/12=2,17=6,18=5,40=1/2;
 3/5=1,6=6,7=111,11=2,16=1,25=1,30=1,70=2201,72=1,74=-7/1,2,8,3;
 4//1;
 5/5=2,38=5,53=1/2;
 8/6=1,10=90,11=11/1;
 10/13=100,45=16/2;
 6/7=2,8=2,9=2,10=2,28=1/1;
 99/9=1/99;
 -------
 comment
 -------
 Charge =  0 Multiplicity = 1
 Symbolic Z-Matrix:
 6                     2.37278   0.12695  -0.1273 
 6                     0.98324   0.13486  -0.78378 
 7                     0.21804  -0.99622  -0.13961 
 6                     1.14246  -1.69458   0.79183 
 6                     2.54111  -1.34233   0.28335 
 6                    -0.9984   -0.43661   0.49451 
 6                    -0.72062   1.07002   0.65518 
 6                     0.12659   1.40607  -0.56789 
 1                     3.15417   0.48419  -0.80502 
 1                     2.38202   0.76689   0.76227 
 1                     1.08893  -0.06273  -1.85684 
 1                     0.94367  -2.77216   0.79844 
 1                     1.01802  -1.32825   1.82238 
 1                     2.79902  -1.95667  -0.58808 
 1                     3.31153  -1.49531   1.04534 
 1                    -1.15142  -0.92226   1.46428 
 1                    -0.10709   1.23041   1.55265 
 1                    -0.54114   1.55509  -1.427 
 8                     0.86637   2.60401  -0.33329 
 1                     1.32109   2.82862  -1.16229 
 8                    -1.87824   1.90465   0.70018 
 1                    -2.32817   1.72965   1.54396 
 6                    -2.22057  -0.75107  -0.37799 
 1                    -3.14742  -0.49878   0.14503 
 1                    -2.19302  -0.17305  -1.31388 
 8                    -2.25271  -2.1511   -0.65883 
 1                    -1.31933  -2.35226  -0.87595 
 
                          Input orientation:                          
 ---------------------------------------------------------------------
 Center     Atomic      Atomic             Coordinates (Angstroms)
 Number     Number       Type             X           Y           Z
 ---------------------------------------------------------------------
      1          6           0        2.372775    0.126945   -0.127301
      2          6           0        0.983236    0.134858   -0.783778
      3          7           0        0.218043   -0.996223   -0.139612
      4          6           0        1.142461   -1.694582    0.791825
      5          6           0        2.541107   -1.342331    0.283352
      6          6           0       -0.998399   -0.436613    0.494513
      7          6           0       -0.720624    1.070019    0.655183
      8          6           0        0.126593    1.406070   -0.567890
      9          1           0        3.154173    0.484185   -0.805018
     10          1           0        2.382017    0.766890    0.762273
     11          1           0        1.088930   -0.062730   -1.856836
     12          1           0        0.943671   -2.772162    0.798444
     13          1           0        1.018020   -1.328249    1.822381
     14          1           0        2.799023   -1.956668   -0.588083
     15          1           0        3.311530   -1.495313    1.045345
     16          1           0       -1.151416   -0.922256    1.464276
     17          1           0       -0.107094    1.230407    1.552652
     18          1           0       -0.541143    1.555092   -1.427002
     19          8           0        0.866366    2.604009   -0.333289
     20          1           0        1.321089    2.828616   -1.162292
     21          8           0       -1.878236    1.904646    0.700177
     22          1           0       -2.328168    1.729649    1.543957
     23          6           0       -2.220571   -0.751071   -0.377989
     24          1           0       -3.147416   -0.498783    0.145032
     25          1           0       -2.193023   -0.173048   -1.313880
     26          8           0       -2.252708   -2.151101   -0.658826
     27          1           0       -1.319332   -2.352263   -0.875951
 ---------------------------------------------------------------------
                    Distance matrix (angstroms):
                    1          2          3          4          5
     1  C    0.000000
     2  C    1.536829   0.000000
     3  N    2.429923   1.509905   0.000000
     4  C    2.382525   2.419655   1.486549   0.000000
     5  C    1.534843   2.397460   2.386486   1.529325   0.000000
     6  C    3.474056   2.426414   1.481556   2.500832   3.659647
     7  C    3.327279   2.418320   2.404610   3.336581   4.073890
     8  C    2.622139   1.548039   2.441884   3.534806   3.756088
     9  H    1.094305   2.198965   3.354882   3.368073   2.212817
    10  H    1.095882   2.178607   2.933385   2.756124   2.168753
    11  H    2.162296   1.096205   2.139792   3.111465   2.885585
    12  H    3.362166   3.309948   2.135520   1.095783   2.204890
    13  H    2.784638   2.988973   2.144673   1.100787   2.165318
    14  H    2.176109   2.776663   2.790168   2.171873   1.096964
    15  H    2.210900   3.379956   3.350056   2.192907   1.094344
    16  H    4.006727   3.275359   2.110295   2.512081   3.899458
    17  H    3.192119   2.801420   2.815555   3.270444   3.904238
    18  H    3.495675   2.180489   2.956847   4.279965   4.562964
    19  O    2.906466   2.512629   3.663264   4.451965   4.331120
    20  H    3.078356   2.741122   4.109985   4.930497   4.579861
    21  O    4.681457   3.677267   3.676231   4.699729   5.499745
    22  H    5.240289   4.350529   4.092429   4.933186   5.893728
    23  C    4.683224   3.348718   2.462471   3.683566   4.843608
    24  H    5.562213   4.280943   3.413910   4.500147   5.752391
    25  H    4.726994   3.234878   2.805310   4.227826   5.131312
    26  O    5.183349   3.963907   2.776317   3.720211   4.952017
    27  H    4.509834   3.390588   2.178201   3.045397   4.155350
                    6          7          8          9         10
     6  C    0.000000
     7  C    1.540426   0.000000
     8  C    2.406198   1.525324   0.000000
     9  H    4.447528   4.182038   3.173695   0.000000
    10  H    3.598239   3.119253   2.695333   1.769901   0.000000
    11  H    3.166319   3.296642   2.178267   2.381316   3.036458
    12  H    3.052671   4.189601   4.471253   4.249848   3.820345
    13  H    2.573751   3.183854   3.739591   3.840741   2.715497
    14  H    4.231193   4.805670   4.295381   2.476077   3.068407
    15  H    4.472108   4.794937   4.600475   2.714225   2.462049
    16  H    1.095310   2.193028   3.344265   5.066149   3.978840
    17  H    2.166342   1.098906   2.140599   4.092837   2.652399
    18  H    2.805030   2.145461   1.098250   3.897315   3.736181
    19  O    3.661692   2.418417   1.427361   3.154401   2.621538
    20  H    4.334368   3.250303   1.950326   2.997365   3.013342
    21  O    2.509563   1.427828   2.424028   5.441366   4.410000
    22  H    2.749965   1.951725   3.254298   6.093023   4.870706
    23  C    1.534226   2.575588   3.193509   5.531373   4.978777
    24  H    2.178136   2.934402   3.854330   6.448166   5.705922
    25  H    2.183318   2.755065   2.903572   5.411414   5.111251
    26  O    2.417220   3.801252   4.280515   6.016682   5.658168
    27  H    2.377159   3.796688   4.038647   5.297425   5.110076
                   11         12         13         14         15
    11  H    0.000000
    12  H    3.796397   0.000000
    13  H    3.891427   1.771683   0.000000
    14  H    2.849764   2.455569   3.062224   0.000000
    15  H    3.926181   2.701492   2.427320   1.773020   0.000000
    16  H    4.097282   2.873130   2.235961   4.570356   4.519047
    17  H    3.837615   4.206364   2.808088   4.815154   4.401579
    18  H    2.336502   5.087476   4.615532   4.918633   5.500960
    19  O    3.079323   5.494544   4.486933   4.959824   4.968289
    20  H    2.982645   5.946061   5.126368   5.041126   5.247083
    21  O    4.383259   5.463090   4.483219   6.200493   6.213898
    22  H    5.143401   5.614893   4.541501   6.665029   6.515765
    23  C    3.689661   3.934620   3.957680   5.166617   5.760548
    24  H    4.705767   4.725695   4.566440   6.166281   6.597092
    25  H    3.328391   4.588699   4.634805   5.350571   6.133060
    26  O    4.118624   3.567379   4.187020   5.055966   5.856193
    27  H    3.464653   2.846242   3.713868   4.147314   5.086317
                   16         17         18         19         20
    16  H    0.000000
    17  H    2.394238   0.000000
    18  H    3.856057   3.028557   0.000000
    19  O    4.442660   2.528078   2.068216   0.000000
    20  H    5.203958   3.459032   2.271529   0.971837   0.000000
    21  O    3.017199   2.078041   2.536710   3.014963   3.815520
    22  H    2.902360   2.276508   3.471387   3.807047   4.674247
    23  C    2.136899   3.481439   3.039621   4.559357   5.096337
    24  H    2.429763   3.770285   3.671832   5.095739   5.722606
    25  H    3.060132   3.812846   2.393318   4.246583   4.624062
    26  O    2.688953   4.574810   4.153964   5.696110   6.150048
    27  H    2.747686   4.494792   4.022022   5.443931   5.821969
                   21         22         23         24         25
    21  O    0.000000
    22  H    0.972125   0.000000
    23  C    2.886601   3.139972   0.000000
    24  H    2.774072   2.755734   1.093728   0.000000
    25  H    2.910727   3.435950   1.100346   1.773526   0.000000
    26  O    4.293740   4.462977   1.428281   2.043733   2.084551
    27  H    4.573601   4.851362   1.903684   2.796370   2.388325
                   26         27
    26  O    0.000000
    27  H    0.979183   0.000000
 Stoichiometry    C8H15NO3
 Framework group  C1[X(C8H15NO3)]
 Deg. of freedom    75
 Full point group                 C1      NOp   1
 Largest Abelian subgroup         C1      NOp   1
 Largest concise Abelian subgroup C1      NOp   1
                         Standard orientation:                         
 ---------------------------------------------------------------------
 Center     Atomic      Atomic             Coordinates (Angstroms)
 Number     Number       Type             X           Y           Z
 ---------------------------------------------------------------------
      1          6           0        2.372775    0.126944   -0.127301
      2          6           0        0.983236    0.134858   -0.783778
      3          7           0        0.218043   -0.996223   -0.139612
      4          6           0        1.142460   -1.694582    0.791825
      5          6           0        2.541107   -1.342332    0.283352
      6          6           0       -0.998399   -0.436613    0.494513
      7          6           0       -0.720624    1.070019    0.655183
      8          6           0        0.126593    1.406070   -0.567890
      9          1           0        3.154173    0.484184   -0.805018
     10          1           0        2.382017    0.766889    0.762273
     11          1           0        1.088930   -0.062730   -1.856836
     12          1           0        0.943670   -2.772162    0.798444
     13          1           0        1.018020   -1.328249    1.822381
     14          1           0        2.799022   -1.956669   -0.588083
     15          1           0        3.311530   -1.495314    1.045345
     16          1           0       -1.151416   -0.922256    1.464276
     17          1           0       -0.107094    1.230407    1.552652
     18          1           0       -0.541143    1.555092   -1.427002
     19          8           0        0.866367    2.604009   -0.333289
     20          1           0        1.321090    2.828616   -1.162292
     21          8           0       -1.878236    1.904646    0.700177
     22          1           0       -2.328168    1.729650    1.543957
     23          6           0       -2.220571   -0.751070   -0.377989
     24          1           0       -3.147416   -0.498782    0.145032
     25          1           0       -2.193023   -0.173047   -1.313880
     26          8           0       -2.252709   -2.151100   -0.658826
     27          1           0       -1.319333   -2.352263   -0.875951
 ---------------------------------------------------------------------
 Rotational constants (GHZ):      1.0876693      0.9474404      0.5883937
 Standard basis: 6-31+G(d,p) (6D, 7F)
 There are   303 symmetry adapted basis functions of A   symmetry.
 Integral buffers will be    131072 words long.
 Raffenetti 2 integral format.
 Two-electron integral symmetry is turned on.
   303 basis functions,   489 primitive gaussians,   303 cartesian basis functions
    47 alpha electrons       47 beta electrons
       nuclear repulsion energy       805.6791391297 Hartrees.
 NAtoms=   27 NActive=   27 NUniq=   27 SFac= 1.00D+00 NAtFMM=   60 NAOKFM=F Big=F
 ------------------------------------------------------------------------------
 Polarizable Continuum Model (PCM)
 =================================
 Model                : PCM.
 Atomic radii         : UFF (Universal Force Field).
 Polarization charges : Total charges.
 Charge compensation  : None.
 Solution method      : Matrix inversion.
 Cavity type          : Scaled VdW (van der Waals Surface) (Alpha=1.100).
 Cavity algorithm     : GePol (No added spheres)
                        Default sphere list used, NSphG=   27.
                        Lebedev-Laikov grids with approx.  5.0 points / Ang**2.
                        Smoothing algorithm: Karplus/York (Gamma=1.0000).
                        Polarization charges: spherical gaussians, with
                                              point-specific exponents (IZeta= 3).
                        Self-potential: point-specific (ISelfS= 7).
                        Self-field    : sphere-specific E.n sum rule (ISelfD= 2).
 Solvent              : Water, Eps=  78.355300 Eps(inf)=   1.777849
 ------------------------------------------------------------------------------
 One-electron integrals computed using PRISM.
 NBasis=   303 RedAO= T  NBF=   303
 NBsUse=   303 1.00D-06 NBFU=   303
 Harris functional with IExCor=  908 diagonalized for initial guess.
 ExpMin= 4.38D-02 ExpMax= 5.48D+03 ExpMxC= 8.25D+02 IAcc=2 IRadAn=         4 AccDes= 0.00D+00
 HarFok:  IExCor=  908 AccDes= 0.00D+00 IRadAn=         4 IDoV= 1
 ScaDFX=  1.000000  1.000000  1.000000  1.000000
 FoFCou: FMM=F IPFlag=           0 FMFlag=      100000 FMFlg1=           0
         NFxFlg=           0 DoJE=T BraDBF=F KetDBF=T FulRan=T
         Omega=  0.000000  0.000000  1.000000  0.000000  0.000000 ICntrl=     500 IOpCl=  0
         NMat0=    1 NMatS0=    1 NMatT0=    0 NMatD0=    1 NMtDS0=    0 NMtDT0=    0
         I1Cent=           4 NGrid=           0.
 Petite list used in FoFCou.
 Initial guess orbital symmetries:
       Occupied  (A) (A) (A) (A) (A) (A) (A) (A) (A) (A) (A) (A)
                 (A) (A) (A) (A) (A) (A) (A) (A) (A) (A) (A) (A)
                 (A) (A) (A) (A) (A) (A) (A) (A) (A) (A) (A) (A)
                 (A) (A) (A) (A) (A) (A) (A) (A) (A) (A) (A)
       Virtual   (A) (A) (A) (A) (A) (A) (A) (A) (A) (A) (A) (A)
                 (A) (A) (A) (A) (A) (A) (A) (A) (A) (A) (A) (A)
                 (A) (A) (A) (A) (A) (A) (A) (A) (A) (A) (A) (A)
                 (A) (A) (A) (A) (A) (A) (A) (A) (A) (A) (A) (A)
                 (A) (A) (A) (A) (A) (A) (A) (A) (A) (A) (A) (A)
                 (A) (A) (A) (A) (A) (A) (A) (A) (A) (A) (A) (A)
                 (A) (A) (A) (A) (A) (A) (A) (A) (A) (A) (A) (A)
                 (A) (A) (A) (A) (A) (A) (A) (A) (A) (A) (A) (A)
                 (A) (A) (A) (A) (A) (A) (A) (A) (A) (A) (A) (A)
                 (A) (A) (A) (A) (A) (A) (A) (A) (A) (A) (A) (A)
                 (A) (A) (A) (A) (A) (A) (A) (A) (A) (A) (A) (A)
                 (A) (A) (A) (A) (A) (A) (A) (A) (A) (A) (A) (A)
                 (A) (A) (A) (A) (A) (A) (A) (A) (A) (A) (A) (A)
                 (A) (A) (A) (A) (A) (A) (A) (A) (A) (A) (A) (A)
                 (A) (A) (A) (A) (A) (A) (A) (A) (A) (A) (A) (A)
                 (A) (A) (A) (A) (A) (A) (A) (A) (A) (A) (A) (A)
                 (A) (A) (A) (A) (A) (A) (A) (A) (A) (A) (A) (A)
                 (A) (A) (A) (A) (A) (A) (A) (A) (A) (A) (A) (A)
                 (A) (A) (A) (A) (A) (A) (A) (A) (A) (A) (A) (A)
                 (A) (A) (A) (A) (A) (A) (A) (A) (A) (A) (A) (A)
                 (A) (A) (A) (A) (A) (A) (A) (A) (A) (A) (A) (A)
                 (A) (A) (A) (A)
 The electronic state of the initial guess is 1-A.
 Requested convergence on RMS density matrix=1.00D-08 within 128 cycles.
 Requested convergence on MAX density matrix=1.00D-06.
 Requested convergence on             energy=1.00D-06.
 No special actions if energy rises.
 Error on total polarization charges =  0.01409
 SCF Done:  E(RmPW1PW91) =  -594.197400230     A.U. after   12 cycles
             Convg  =    0.9775D-08             -V/T =  2.0094
 Range of M.O.s used for correlation:     1   303
 NBasis=   303 NAE=    47 NBE=    47 NFC=     0 NFV=     0
 NROrb=    303 NOA=    47 NOB=    47 NVA=   256 NVB=   256

 **** Warning!!: The largest alpha MO coefficient is  0.56252665D+02

 NEqPCM:  Using equilibrium solvation (IEInf=0, Eps=  78.3553, EpsInf=   1.7778)
          Differentiating once with respect to magnetic field using GIAOs.
          Electric field/nuclear overlap derivatives assumed to be zero.
 FoFCou: FMM=F IPFlag=           0 FMFlag=    10101102 FMFlg1=           0
         NFxFlg=    40000000 DoJE=F BraDBF=F KetDBF=T FulRan=T
         Omega=  0.000000  0.000000  1.000000  0.000000  0.000000 ICntrl=    6100 IOpCl=  0
         NMat0=    1 NMatS0=    1 NMatT0=    0 NMatD0=    1 NMtDS0=    0 NMtDT0=    0
         I1Cent=           7 NGrid=        1846.
 Symmetry not used in FoFCou.
          There are     3 degrees of freedom in the 1st order CPHF.  IDoFFX=0.
      3 vectors produced by pass  0 Test12= 4.01D-13 3.33D-08 XBig12= 2.88D+01 7.67D-01.
 AX will form     3 AO Fock derivatives at one time.
      3 vectors produced by pass  1 Test12= 4.01D-13 3.33D-08 XBig12= 7.23D-02 4.21D-02.
      3 vectors produced by pass  2 Test12= 4.01D-13 3.33D-08 XBig12= 1.25D-04 2.28D-03.
      3 vectors produced by pass  3 Test12= 4.01D-13 3.33D-08 XBig12= 5.71D-07 1.74D-04.
      3 vectors produced by pass  4 Test12= 4.01D-13 3.33D-08 XBig12= 1.97D-09 9.28D-06.
      3 vectors produced by pass  5 Test12= 4.01D-13 3.33D-08 XBig12= 5.92D-12 4.46D-07.
 Inverted reduced A of dimension    18 with in-core refinement.
 Calculating GIAO nuclear magnetic shielding tensors.
 SCF GIAO Magnetic shielding tensor (ppm):
      1  C    Isotropic =   166.1643   Anisotropy =    18.6959
   XX=   173.0136   YX=    -3.3918   ZX=     4.1042
   XY=     5.0237   YY=   173.1416   ZY=   -14.5354
   XZ=     6.5277   YZ=    -8.3743   ZZ=   152.3378
   Eigenvalues:   146.2572   173.6075   178.6283
      2  C    Isotropic =   129.5589   Anisotropy =    51.6703
   XX=   136.8519   YX=     7.8264   ZX=    -7.8630
   XY=    15.2219   YY=   152.3222   ZY=   -19.2255
   XZ=     0.1870   YZ=   -19.2047   ZZ=    99.5027
   Eigenvalues:    93.2520   131.4190   164.0058
      3  N    Isotropic =   200.6944   Anisotropy =    77.3078
   XX=   228.9308   YX=    -4.4203   ZX=   -26.7664
   XY=    -4.6074   YY=   196.0549   ZY=   -46.7826
   XZ=   -38.4483   YZ=   -46.6422   ZZ=   177.0974
   Eigenvalues:   130.6383   219.2119   252.2329
      4  C    Isotropic =   136.4159   Anisotropy =    59.2613
   XX=   156.3118   YX=    -9.5148   ZX=    14.5354
   XY=   -24.2604   YY=   120.0473   ZY=   -17.8397
   XZ=    13.5528   YZ=   -31.8140   ZZ=   132.8887
   Eigenvalues:   100.3442   132.9801   175.9234
      5  C    Isotropic =   167.2148   Anisotropy =    19.5793
   XX=   178.9603   YX=     1.4664   ZX=     2.2649
   XY=    -3.5794   YY=   171.5141   ZY=   -18.9804
   XZ=    -5.8461   YZ=   -12.9303   ZZ=   151.1701
   Eigenvalues:   142.3023   179.0745   180.2677
      6  C    Isotropic =   126.1433   Anisotropy =    40.0961
   XX=   141.4420   YX=    -0.7047   ZX=   -10.3512
   XY=   -27.0154   YY=   121.0685   ZY=    10.3908
   XZ=    -6.1387   YZ=    12.7528   ZZ=   115.9194
   Eigenvalues:   106.4332   119.1226   152.8740
      7  C    Isotropic =   120.3741   Anisotropy =    50.9723
   XX=   137.4601   YX=   -10.0831   ZX=   -16.4931
   XY=   -21.0726   YY=   128.4575   ZY=    -0.8657
   XZ=   -23.0187   YZ=     5.2200   ZZ=    95.2046
   Eigenvalues:    87.0421   119.7245   154.3556
      8  C    Isotropic =   117.5029   Anisotropy =    37.2099
   XX=   121.3878   YX=     6.5832   ZX=   -14.3717
   XY=    16.3413   YY=   134.8405   ZY=     7.3980
   XZ=   -15.5135   YZ=    -3.9937   ZZ=    96.2803
   Eigenvalues:    88.3940   121.8052   142.3095
      9  H    Isotropic =    29.9124   Anisotropy =    10.8809
   XX=    33.6886   YX=     2.1503   ZX=    -4.0091
   XY=     2.7702   YY=    28.4929   ZY=    -2.9876
   XZ=    -4.2897   YZ=    -2.5091   ZZ=    27.5557
   Eigenvalues:    24.7775    27.7934    37.1663
     10  H    Isotropic =    29.7686   Anisotropy =     6.9556
   XX=    29.0259   YX=    -0.1180   ZX=     2.7580
   XY=    -0.2274   YY=    31.5707   ZY=     3.3739
   XZ=     3.1392   YZ=     3.6111   ZZ=    28.7093
   Eigenvalues:    24.7565    30.1436    34.4057
     11  H    Isotropic =    28.0078   Anisotropy =     8.0615
   XX=    25.8963   YX=     0.8456   ZX=    -1.7251
   XY=     0.4874   YY=    24.9931   ZY=    -0.5159
   XZ=    -0.5763   YZ=    -0.8204   ZZ=    33.1340
   Eigenvalues:    24.6393    26.0020    33.3822
     12  H    Isotropic =    28.2963   Anisotropy =     9.5265
   XX=    27.0528   YX=    -0.6538   ZX=     1.1764
   XY=     0.0721   YY=    33.4858   ZY=    -2.8161
   XZ=     1.2506   YZ=    -3.9092   ZZ=    24.3503
   Eigenvalues:    22.9674    27.2742    34.6473
     13  H    Isotropic =    28.9814   Anisotropy =     8.6631
   XX=    27.7709   YX=    -1.6074   ZX=     1.8511
   XY=    -1.8662   YY=    25.4222   ZY=    -2.6643
   XZ=     0.5068   YZ=    -2.1100   ZZ=    33.7509
   Eigenvalues:    24.2152    27.9721    34.7568
     14  H    Isotropic =    29.7837   Anisotropy =    11.0486
   XX=    29.3646   YX=    -3.3149   ZX=    -3.4147
   XY=    -3.6080   YY=    31.5011   ZY=     3.5333
   XZ=    -3.7471   YZ=     4.0217   ZZ=    28.4854
   Eigenvalues:    25.2126    26.9890    37.1495
     15  H    Isotropic =    29.6566   Anisotropy =    11.7590
   XX=    33.2478   YX=    -2.3392   ZX=     4.8198
   XY=    -3.1453   YY=    27.3032   ZY=    -2.5508
   XZ=     4.9056   YZ=    -2.0471   ZZ=    28.4187
   Eigenvalues:    25.1509    26.3229    37.4959
     16  H    Isotropic =    28.7617   Anisotropy =     6.0139
   XX=    29.6456   YX=    -0.1228   ZX=    -3.0319
   XY=     0.7805   YY=    26.0600   ZY=    -1.0687
   XZ=    -1.6781   YZ=    -1.7721   ZZ=    30.5796
   Eigenvalues:    25.6130    27.9012    32.7710
     17  H    Isotropic =    27.1588   Anisotropy =     3.6229
   XX=    27.9535   YX=    -1.6597   ZX=     1.5683
   XY=    -2.7627   YY=    26.3864   ZY=     1.0741
   XZ=    -0.0683   YZ=     2.1674   ZZ=    27.1367
   Eigenvalues:    23.8733    28.0291    29.5741
     18  H    Isotropic =    27.1356   Anisotropy =     3.3484
   XX=    26.5779   YX=     0.6035   ZX=     2.8336
   XY=     2.2935   YY=    28.0815   ZY=    -0.4526
   XZ=     2.4929   YZ=    -1.9042   ZZ=    26.7473
   Eigenvalues:    23.2770    28.7619    29.3678
     19  O    Isotropic =   301.5203   Anisotropy =    57.4823
   XX=   301.2396   YX=    28.0465   ZX=   -10.4728
   XY=     9.0155   YY=   287.1837   ZY=   -11.2414
   XZ=   -25.8106   YZ=   -22.8865   ZZ=   316.1375
   Eigenvalues:   273.8783   290.8407   339.8418
     20  H    Isotropic =    30.1518   Anisotropy =    19.9572
   XX=    26.6472   YX=     5.7416   ZX=    -7.9393
   XY=     5.9806   YY=    29.7401   ZY=    -5.5235
   XZ=    -7.4697   YZ=    -5.6411   ZZ=    34.0679
   Eigenvalues:    21.0491    25.9496    43.4566
     21  O    Isotropic =   306.9865   Anisotropy =    69.6225
   XX=   315.2530   YX=    -9.5291   ZX=   -25.9390
   XY=     6.6528   YY=   276.4734   ZY=    -9.3868
   XZ=   -34.2732   YZ=    -4.1020   ZZ=   329.2330
   Eigenvalues:   274.5426   293.0154   353.4015
     22  H    Isotropic =    30.1844   Anisotropy =    20.0722
   XX=    30.5389   YX=    -2.5512   ZX=   -10.4215
   XY=    -2.9894   YY=    24.3289   ZY=    -0.3792
   XZ=    -9.6937   YZ=    -0.9655   ZZ=    35.6854
   Eigenvalues:    20.7878    26.1995    43.5658
     23  C    Isotropic =   133.7556   Anisotropy =    50.4514
   XX=   116.6005   YX=    -4.5508   ZX=     4.1628
   XY=     6.6647   YY=   165.9121   ZY=     7.2917
   XZ=     4.5525   YZ=     9.2908   ZZ=   118.7541
   Eigenvalues:   112.8039   121.0730   167.3899
     24  H    Isotropic =    28.0349   Anisotropy =     5.9594
   XX=    31.4613   YX=     0.2225   ZX=    -0.8097
   XY=    -1.2198   YY=    28.6556   ZY=     2.3750
   XZ=    -2.0245   YZ=     2.1347   ZZ=    23.9876
   Eigenvalues:    22.9249    29.1719    32.0078
     25  H    Isotropic =    28.2692   Anisotropy =     5.9490
   XX=    25.9522   YX=     1.2831   ZX=     3.5398
   XY=     1.0602   YY=    31.4274   ZY=    -2.8104
   XZ=     3.4832   YZ=    -1.0886   ZZ=    27.4281
   Eigenvalues:    22.5805    29.9920    32.2352
     26  O    Isotropic =   316.9177   Anisotropy =    34.2915
   XX=   339.5919   YX=    -2.1783   ZX=    -0.1904
   XY=    -2.1257   YY=   314.3884   ZY=    -0.7030
   XZ=    -2.7481   YZ=   -24.5411   ZZ=   296.7727
   Eigenvalues:   290.0824   320.8920   339.7787
     27  H    Isotropic =    28.5825   Anisotropy =    16.7875
   XX=    39.2762   YX=    -0.4041   ZX=    -2.7824
   XY=    -1.7510   YY=    26.5042   ZY=     4.3163
   XZ=    -1.8264   YZ=     5.7106   ZZ=    19.9670
   Eigenvalues:    17.1457    28.8276    39.7742
 End of Minotr Frequency-dependent properties file   721 does not exist.
 End of Minotr Frequency-dependent properties file   722 does not exist.

 **********************************************************************

            Population analysis using the SCF density.

 **********************************************************************

 Orbital symmetries:
       Occupied  (A) (A) (A) (A) (A) (A) (A) (A) (A) (A) (A) (A)
                 (A) (A) (A) (A) (A) (A) (A) (A) (A) (A) (A) (A)
                 (A) (A) (A) (A) (A) (A) (A) (A) (A) (A) (A) (A)
                 (A) (A) (A) (A) (A) (A) (A) (A) (A) (A) (A)
       Virtual   (A) (A) (A) (A) (A) (A) (A) (A) (A) (A) (A) (A)
                 (A) (A) (A) (A) (A) (A) (A) (A) (A) (A) (A) (A)
                 (A) (A) (A) (A) (A) (A) (A) (A) (A) (A) (A) (A)
                 (A) (A) (A) (A) (A) (A) (A) (A) (A) (A) (A) (A)
                 (A) (A) (A) (A) (A) (A) (A) (A) (A) (A) (A) (A)
                 (A) (A) (A) (A) (A) (A) (A) (A) (A) (A) (A) (A)
                 (A) (A) (A) (A) (A) (A) (A) (A) (A) (A) (A) (A)
                 (A) (A) (A) (A) (A) (A) (A) (A) (A) (A) (A) (A)
                 (A) (A) (A) (A) (A) (A) (A) (A) (A) (A) (A) (A)
                 (A) (A) (A) (A) (A) (A) (A) (A) (A) (A) (A) (A)
                 (A) (A) (A) (A) (A) (A) (A) (A) (A) (A) (A) (A)
                 (A) (A) (A) (A) (A) (A) (A) (A) (A) (A) (A) (A)
                 (A) (A) (A) (A) (A) (A) (A) (A) (A) (A) (A) (A)
                 (A) (A) (A) (A) (A) (A) (A) (A) (A) (A) (A) (A)
                 (A) (A) (A) (A) (A) (A) (A) (A) (A) (A) (A) (A)
                 (A) (A) (A) (A) (A) (A) (A) (A) (A) (A) (A) (A)
                 (A) (A) (A) (A) (A) (A) (A) (A) (A) (A) (A) (A)
                 (A) (A) (A) (A) (A) (A) (A) (A) (A) (A) (A) (A)
                 (A) (A) (A) (A) (A) (A) (A) (A) (A) (A) (A) (A)
                 (A) (A) (A) (A) (A) (A) (A) (A) (A) (A) (A) (A)
                 (A) (A) (A) (A) (A) (A) (A) (A) (A) (A) (A) (A)
                 (A) (A) (A) (A)
 The electronic state is 1-A.
 Alpha  occ. eigenvalues --  -19.26135 -19.25992 -19.24655 -14.42041 -10.30707
 Alpha  occ. eigenvalues --  -10.30622 -10.29042 -10.28126 -10.27978 -10.27157
 Alpha  occ. eigenvalues --  -10.24711 -10.24599  -1.07291  -1.05623  -1.05086
 Alpha  occ. eigenvalues --   -0.96644  -0.82969  -0.79290  -0.74844  -0.72127
 Alpha  occ. eigenvalues --   -0.66696  -0.61269  -0.60177  -0.58747  -0.55966
 Alpha  occ. eigenvalues --   -0.53510  -0.51540  -0.49986  -0.49212  -0.46669
 Alpha  occ. eigenvalues --   -0.45406  -0.44937  -0.44195  -0.43348  -0.40354
 Alpha  occ. eigenvalues --   -0.39600  -0.38288  -0.37555  -0.36426  -0.35700
 Alpha  occ. eigenvalues --   -0.35113  -0.34334  -0.32767  -0.31019  -0.29946
 Alpha  occ. eigenvalues --   -0.29077  -0.23678
 Alpha virt. eigenvalues --    0.00636   0.01006   0.01596   0.02029   0.03746
 Alpha virt. eigenvalues --    0.04501   0.04555   0.04965   0.05366   0.07236
 Alpha virt. eigenvalues --    0.08104   0.08283   0.08629   0.09361   0.09786
 Alpha virt. eigenvalues --    0.10034   0.10839   0.11619   0.12508   0.12878
 Alpha virt. eigenvalues --    0.13187   0.13552   0.14191   0.14716   0.15520
 Alpha virt. eigenvalues --    0.16203   0.16532   0.16827   0.17723   0.18072
 Alpha virt. eigenvalues --    0.18546   0.18980   0.19669   0.19859   0.21159
 Alpha virt. eigenvalues --    0.21327   0.21482   0.22457   0.23092   0.23361
 Alpha virt. eigenvalues --    0.23801   0.24473   0.24800   0.25928   0.26272
 Alpha virt. eigenvalues --    0.26884   0.27238   0.27880   0.28608   0.28921
 Alpha virt. eigenvalues --    0.29698   0.29928   0.30827   0.31257   0.31499
 Alpha virt. eigenvalues --    0.32324   0.33544   0.33622   0.34794   0.35149
 Alpha virt. eigenvalues --    0.35880   0.36025   0.36712   0.37425   0.37860
 Alpha virt. eigenvalues --    0.38506   0.39396   0.39840   0.41159   0.41459
 Alpha virt. eigenvalues --    0.42840   0.44166   0.44787   0.45295   0.47065
 Alpha virt. eigenvalues --    0.48034   0.65196   0.66285   0.67877   0.68435
 Alpha virt. eigenvalues --    0.69847   0.70599   0.71410   0.74273   0.74923
 Alpha virt. eigenvalues --    0.76035   0.76790   0.77541   0.80249   0.80905
 Alpha virt. eigenvalues --    0.82360   0.83239   0.84307   0.85821   0.86686
 Alpha virt. eigenvalues --    0.89959   0.93031   0.94915   0.96141   0.97895
 Alpha virt. eigenvalues --    0.99061   1.00088   1.01633   1.03928   1.05682
 Alpha virt. eigenvalues --    1.07235   1.07949   1.09444   1.09840   1.10622
 Alpha virt. eigenvalues --    1.11567   1.12108   1.14117   1.15493   1.15966
 Alpha virt. eigenvalues --    1.16731   1.17938   1.19270   1.21582   1.25134
 Alpha virt. eigenvalues --    1.25617   1.27692   1.30199   1.32068   1.33848
 Alpha virt. eigenvalues --    1.33951   1.34834   1.38313   1.39780   1.42195
 Alpha virt. eigenvalues --    1.43282   1.45876   1.47782   1.51438   1.53146
 Alpha virt. eigenvalues --    1.54734   1.57409   1.58217   1.59422   1.62444
 Alpha virt. eigenvalues --    1.63453   1.64119   1.64838   1.66591   1.71070
 Alpha virt. eigenvalues --    1.72730   1.75626   1.76381   1.78350   1.79220
 Alpha virt. eigenvalues --    1.80379   1.81992   1.83142   1.85469   1.86104
 Alpha virt. eigenvalues --    1.88177   1.89726   1.91538   1.91946   1.94419
 Alpha virt. eigenvalues --    1.95404   1.99220   2.02309   2.02711   2.03870
 Alpha virt. eigenvalues --    2.05871   2.07271   2.08199   2.10139   2.10552
 Alpha virt. eigenvalues --    2.12693   2.14372   2.17355   2.18139   2.20168
 Alpha virt. eigenvalues --    2.21056   2.22504   2.23778   2.25490   2.27442
 Alpha virt. eigenvalues --    2.29964   2.31521   2.32845   2.36009   2.39070
 Alpha virt. eigenvalues --    2.40573   2.42975   2.44347   2.46081   2.48770
 Alpha virt. eigenvalues --    2.48861   2.49583   2.51639   2.52899   2.55481
 Alpha virt. eigenvalues --    2.56646   2.57474   2.59699   2.59876   2.62531
 Alpha virt. eigenvalues --    2.64985   2.66744   2.67185   2.67892   2.69449
 Alpha virt. eigenvalues --    2.71298   2.72172   2.75564   2.76552   2.78513
 Alpha virt. eigenvalues --    2.79224   2.80236   2.82893   2.82912   2.85191
 Alpha virt. eigenvalues --    2.87264   2.89490   2.90589   2.93593   2.95579
 Alpha virt. eigenvalues --    2.96716   2.98819   3.01273   3.01437   3.03223
 Alpha virt. eigenvalues --    3.05843   3.07687   3.16314   3.19558   3.31929
 Alpha virt. eigenvalues --    3.34603   3.36236   3.37611   3.40687   3.46572
 Alpha virt. eigenvalues --    3.48706   3.51818   3.52251   3.53177   3.54361
 Alpha virt. eigenvalues --    3.56865   3.57623   3.59944   3.64360   4.32908
 Alpha virt. eigenvalues --    4.36075   4.41568   4.43063   4.51892   4.53423
 Alpha virt. eigenvalues --    4.63568   4.66372   4.77444   4.81649   4.85058
 Alpha virt. eigenvalues --    4.94126
          Condensed to atoms (all electrons):
              1          2          3          4          5          6
     1  C    5.990168  -0.577616   0.125118  -0.132801  -0.011192  -0.036463
     2  C   -0.577616   7.939565  -0.258673  -0.373444   0.366432  -0.362054
     3  N    0.125118  -0.258673   7.500420   0.186496  -0.255833  -0.134364
     4  C   -0.132801  -0.373444   0.186496   5.594764   0.057167   0.028554
     5  C   -0.011192   0.366432  -0.255833   0.057167   5.728360   0.012206
     6  C   -0.036463  -0.362054  -0.134364   0.028554   0.012206   7.910022
     7  C   -0.110080   0.410299  -0.093960  -0.197959   0.139735  -0.737045
     8  C    0.185269  -0.635810   0.015198   0.220231  -0.204849   0.004602
     9  H    0.362505  -0.040055   0.012573   0.022256  -0.009666  -0.003922
    10  H    0.524338  -0.208674   0.037187   0.027807  -0.101460   0.005301
    11  H    0.051381   0.192275  -0.009738   0.018248  -0.034424   0.010488
    12  H    0.027613   0.008608  -0.051991   0.403500  -0.032364  -0.025553
    13  H    0.007312  -0.006343  -0.076745   0.412916  -0.030799   0.022643
    14  H    0.002371  -0.050690   0.019713  -0.021660   0.364274   0.004563
    15  H   -0.062833   0.049057   0.004566  -0.019852   0.377550  -0.006405
    16  H   -0.003289   0.028471  -0.056128   0.001373   0.013372   0.325707
    17  H   -0.001374  -0.017739   0.013294   0.014298  -0.008932  -0.001000
    18  H    0.006352  -0.087665   0.014609   0.005483  -0.003342   0.035389
    19  O   -0.003022  -0.134687   0.018762  -0.003143   0.017192   0.035776
    20  H    0.000607  -0.041029   0.001779   0.001299  -0.000224  -0.011476
    21  O    0.002898   0.045010   0.031733  -0.005561   0.003915  -0.123340
    22  H    0.002166  -0.011818   0.003062   0.003415  -0.001416  -0.043844
    23  C    0.052130  -0.189286   0.095446  -0.013854  -0.051785  -0.391365
    24  H    0.001398   0.005916   0.009137  -0.003252  -0.000719  -0.117465
    25  H   -0.003097   0.017201   0.005668  -0.002282   0.004080  -0.152847
    26  O    0.006303  -0.022311   0.001121  -0.022422   0.001236  -0.116919
    27  H    0.000153   0.024945   0.050099  -0.003496  -0.002853  -0.076766
              7          8          9         10         11         12
     1  C   -0.110080   0.185269   0.362505   0.524338   0.051381   0.027613
     2  C    0.410299  -0.635810  -0.040055  -0.208674   0.192275   0.008608
     3  N   -0.093960   0.015198   0.012573   0.037187  -0.009738  -0.051991
     4  C   -0.197959   0.220231   0.022256   0.027807   0.018248   0.403500
     5  C    0.139735  -0.204849  -0.009666  -0.101460  -0.034424  -0.032364
     6  C   -0.737045   0.004602  -0.003922   0.005301   0.010488  -0.025553
     7  C    6.588347  -0.277125   0.001950  -0.010077  -0.014111   0.001420
     8  C   -0.277125   6.091886  -0.004734   0.047615   0.048887  -0.006346
     9  H    0.001950  -0.004734   0.514838  -0.023342  -0.004501  -0.000099
    10  H   -0.010077   0.047615  -0.023342   0.514937   0.004014  -0.000051
    11  H   -0.014111   0.048887  -0.004501   0.004014   0.552823   0.000188
    12  H    0.001420  -0.006346  -0.000099  -0.000051   0.000188   0.544547
    13  H   -0.009875   0.007209  -0.000114   0.000882  -0.000440  -0.040222
    14  H   -0.002814   0.009459  -0.004592   0.004134   0.000979  -0.006221
    15  H    0.001159  -0.001407   0.000036  -0.005219  -0.000105   0.000921
    16  H    0.037638  -0.006289   0.000004  -0.000031  -0.000192   0.000031
    17  H    0.338807  -0.008398   0.000037   0.000156  -0.000051   0.000033
    18  H   -0.079132   0.430334  -0.000095   0.000041  -0.006275   0.000007
    19  O   -0.159267   0.326477  -0.001218  -0.002579   0.001704   0.000072
    20  H    0.028801   0.024024   0.000043   0.000241   0.001137   0.000000
    21  O    0.317642  -0.200932   0.000007  -0.000184   0.000088   0.000113
    22  H    0.038161   0.031774   0.000000   0.000004   0.000004   0.000000
    23  C   -0.126565  -0.010980   0.000294  -0.001007   0.012214   0.005933
    24  H   -0.007956  -0.005191   0.000000   0.000000  -0.000002  -0.000009
    25  H    0.099771  -0.012764   0.000001  -0.000001  -0.000151   0.000009
    26  O    0.030076   0.006158   0.000013   0.000036   0.001642   0.003361
    27  H    0.012780  -0.013273  -0.000002  -0.000001  -0.000374  -0.001302
             13         14         15         16         17         18
     1  C    0.007312   0.002371  -0.062833  -0.003289  -0.001374   0.006352
     2  C   -0.006343  -0.050690   0.049057   0.028471  -0.017739  -0.087665
     3  N   -0.076745   0.019713   0.004566  -0.056128   0.013294   0.014609
     4  C    0.412916  -0.021660  -0.019852   0.001373   0.014298   0.005483
     5  C   -0.030799   0.364274   0.377550   0.013372  -0.008932  -0.003342
     6  C    0.022643   0.004563  -0.006405   0.325707  -0.001000   0.035389
     7  C   -0.009875  -0.002814   0.001159   0.037638   0.338807  -0.079132
     8  C    0.007209   0.009459  -0.001407  -0.006289  -0.008398   0.430334
     9  H   -0.000114  -0.004592   0.000036   0.000004   0.000037  -0.000095
    10  H    0.000882   0.004134  -0.005219  -0.000031   0.000156   0.000041
    11  H   -0.000440   0.000979  -0.000105  -0.000192  -0.000051  -0.006275
    12  H   -0.040222  -0.006221   0.000921   0.000031   0.000033   0.000007
    13  H    0.556994   0.003930  -0.004907   0.003602  -0.000046  -0.000007
    14  H    0.003930   0.521772  -0.024217  -0.000013   0.000004   0.000003
    15  H   -0.004907  -0.024217   0.512955  -0.000015   0.000008   0.000003
    16  H    0.003602  -0.000013  -0.000015   0.534666  -0.008078  -0.000195
    17  H   -0.000046   0.000004   0.000008  -0.008078   0.546568   0.004573
    18  H   -0.000007   0.000003   0.000003  -0.000195   0.004573   0.557211
    19  O   -0.000103   0.000057   0.000037  -0.000574  -0.001330  -0.043356
    20  H   -0.000001   0.000001   0.000000   0.000004   0.000162  -0.006121
    21  O   -0.000860  -0.000004  -0.000005  -0.002209  -0.043843  -0.002443
    22  H    0.000005   0.000000   0.000000   0.001333  -0.005755   0.000182
    23  C   -0.009269   0.000098   0.000491  -0.053783   0.000357  -0.000716
    24  H    0.000011   0.000000   0.000000  -0.004825  -0.000114   0.000114
    25  H   -0.000010  -0.000001   0.000000   0.004660  -0.000278  -0.001389
    26  O   -0.000905   0.000001  -0.000005   0.004580  -0.000763  -0.000544
    27  H    0.000321   0.000020  -0.000002  -0.000327  -0.000014   0.000029
             19         20         21         22         23         24
     1  C   -0.003022   0.000607   0.002898   0.002166   0.052130   0.001398
     2  C   -0.134687  -0.041029   0.045010  -0.011818  -0.189286   0.005916
     3  N    0.018762   0.001779   0.031733   0.003062   0.095446   0.009137
     4  C   -0.003143   0.001299  -0.005561   0.003415  -0.013854  -0.003252
     5  C    0.017192  -0.000224   0.003915  -0.001416  -0.051785  -0.000719
     6  C    0.035776  -0.011476  -0.123340  -0.043844  -0.391365  -0.117465
     7  C   -0.159267   0.028801   0.317642   0.038161  -0.126565  -0.007956
     8  C    0.326477   0.024024  -0.200932   0.031774  -0.010980  -0.005191
     9  H   -0.001218   0.000043   0.000007   0.000000   0.000294   0.000000
    10  H   -0.002579   0.000241  -0.000184   0.000004  -0.001007   0.000000
    11  H    0.001704   0.001137   0.000088   0.000004   0.012214  -0.000002
    12  H    0.000072   0.000000   0.000113   0.000000   0.005933  -0.000009
    13  H   -0.000103  -0.000001  -0.000860   0.000005  -0.009269   0.000011
    14  H    0.000057   0.000001  -0.000004   0.000000   0.000098   0.000000
    15  H    0.000037   0.000000  -0.000005   0.000000   0.000491   0.000000
    16  H   -0.000574   0.000004  -0.002209   0.001333  -0.053783  -0.004825
    17  H   -0.001330   0.000162  -0.043843  -0.005755   0.000357  -0.000114
    18  H   -0.043356  -0.006121  -0.002443   0.000182  -0.000716   0.000114
    19  O    8.220408   0.242575   0.010258  -0.001233   0.009572   0.000060
    20  H    0.242575   0.370370  -0.000923   0.000018   0.000444   0.000000
    21  O    0.010258  -0.000923   8.243229   0.245007   0.016864   0.005183
    22  H   -0.001233   0.000018   0.245007   0.365625  -0.016757   0.000035
    23  C    0.009572   0.000444   0.016864  -0.016757   5.617477   0.499571
    24  H    0.000060   0.000000   0.005183   0.000035   0.499571   0.542361
    25  H   -0.000507   0.000006  -0.009180   0.000334   0.401635  -0.038402
    26  O    0.000149  -0.000007  -0.000134  -0.000001   0.212467  -0.058900
    27  H    0.000008   0.000000  -0.000048  -0.000002   0.030050   0.006643
             25         26         27
     1  C   -0.003097   0.006303   0.000153
     2  C    0.017201  -0.022311   0.024945
     3  N    0.005668   0.001121   0.050099
     4  C   -0.002282  -0.022422  -0.003496
     5  C    0.004080   0.001236  -0.002853
     6  C   -0.152847  -0.116919  -0.076766
     7  C    0.099771   0.030076   0.012780
     8  C   -0.012764   0.006158  -0.013273
     9  H    0.000001   0.000013  -0.000002
    10  H   -0.000001   0.000036  -0.000001
    11  H   -0.000151   0.001642  -0.000374
    12  H    0.000009   0.003361  -0.001302
    13  H   -0.000010  -0.000905   0.000321
    14  H   -0.000001   0.000001   0.000020
    15  H    0.000000  -0.000005  -0.000002
    16  H    0.004660   0.004580  -0.000327
    17  H   -0.000278  -0.000763  -0.000014
    18  H   -0.001389  -0.000544   0.000029
    19  O   -0.000507   0.000149   0.000008
    20  H    0.000006  -0.000007   0.000000
    21  O   -0.009180  -0.000134  -0.000048
    22  H    0.000334  -0.000001  -0.000002
    23  C    0.401635   0.212467   0.030050
    24  H   -0.038402  -0.058900   0.006643
    25  H    0.588592  -0.048475  -0.003605
    26  O   -0.048475   8.310493   0.227840
    27  H   -0.003605   0.227840   0.366427
 Mulliken atomic charges:
              1
     1  C   -0.406314
     2  C   -0.069883
     3  N   -0.208549
     4  C   -0.198080
     5  C   -0.335659
     6  C   -0.054420
     7  C   -0.220622
     8  C   -0.061022
     9  H    0.177783
    10  H    0.185934
    11  H    0.174292
    12  H    0.167800
    13  H    0.164822
    14  H    0.178834
    15  H    0.178191
    16  H    0.180504
    17  H    0.179415
    18  H    0.176950
    19  O   -0.532090
    20  H    0.388271
    21  O   -0.532278
    22  H    0.389703
    23  C   -0.089677
    24  H    0.166406
    25  H    0.151032
    26  O   -0.534090
    27  H    0.382749
 Sum of Mulliken atomic charges =   0.00000
 Mulliken charges with hydrogens summed into heavy atoms:
              1
     1  C   -0.042597
     2  C    0.104409
     3  N   -0.208549
     4  C    0.134542
     5  C    0.021366
     6  C    0.126084
     7  C   -0.041208
     8  C    0.115927
    19  O   -0.143819
    21  O   -0.142576
    23  C    0.227761
    26  O   -0.151341
 Sum of Mulliken charges with hydrogens summed into heavy atoms =   0.00000
 Electronic spatial extent (au):  <R**2>=           2046.0699
 Charge=              0.0000 electrons
 Dipole moment (field-independent basis, Debye):
    X=              3.7100    Y=              0.1367    Z=              0.9193  Tot=              3.8247
 Quadrupole moment (field-independent basis, Debye-Ang):
   XX=            -75.2521   YY=            -86.9446   ZZ=            -64.5861
   XY=             -6.1666   XZ=             -8.4985   YZ=             -5.6809
 Traceless Quadrupole moment (field-independent basis, Debye-Ang):
   XX=              0.3421   YY=            -11.3503   ZZ=             11.0081
   XY=             -6.1666   XZ=             -8.4985   YZ=             -5.6809
 Octapole moment (field-independent basis, Debye-Ang**2):
  XXX=             12.3387  YYY=             -7.0377  ZZZ=              3.8072  XYY=             31.7018
  XXY=             24.6904  XXZ=             14.0879  XZZ=             -4.9475  YZZ=             17.6596
  YYZ=             -8.6045  XYZ=             -7.4004
 Hexadecapole moment (field-independent basis, Debye-Ang**3):
 XXXX=          -1300.4014 YYYY=          -1128.9857 ZZZZ=           -257.3525 XXXY=            -54.1801
 XXXZ=            -61.9103 YYYX=            -13.1269 YYYZ=            -40.2690 ZZZX=            -29.4271
 ZZZY=              2.8813 XXYY=           -451.7387 XXZZ=           -235.4219 YYZZ=           -191.1405
 XXYZ=            -14.3199 YYXZ=            -40.9493 ZZXY=             -8.7077
 N-N= 8.056791391297D+02 E-N=-2.997048332499D+03  KE= 5.886507739392D+02
 1\1\GINC-COMPUTE-3-2\SP\RmPW1PW91\6-31+G(d,p)\C8H15N1O3\MAMICHETTI.IQU
 IR\17-May-2024\0\\# mpw1pw91/6-31+G** nmr scrf=(pcm,solvent=water)\\co
 mment\\0,1\C,0,2.372775,0.126945,-0.127301\C,0,0.983236,0.134858,-0.78
 3778\N,0,0.218043,-0.996223,-0.139612\C,0,1.142461,-1.694582,0.791825\
 C,0,2.541107,-1.342331,0.283352\C,0,-0.998399,-0.436613,0.494513\C,0,-
 0.720624,1.070019,0.655183\C,0,0.126593,1.40607,-0.56789\H,0,3.154173,
 0.484185,-0.805018\H,0,2.382017,0.76689,0.762273\H,0,1.08893,-0.06273,
 -1.856836\H,0,0.943671,-2.772162,0.798444\H,0,1.01802,-1.328249,1.8223
 81\H,0,2.799023,-1.956668,-0.588083\H,0,3.31153,-1.495313,1.045345\H,0
 ,-1.151416,-0.922256,1.464276\H,0,-0.107094,1.230407,1.552652\H,0,-0.5
 41143,1.555092,-1.427002\O,0,0.866366,2.604009,-0.333289\H,0,1.321089,
 2.828616,-1.162292\O,0,-1.878236,1.904646,0.700177\H,0,-2.328168,1.729
 649,1.543957\C,0,-2.220571,-0.751071,-0.377989\H,0,-3.147416,-0.498783
 ,0.145032\H,0,-2.193023,-0.173048,-1.31388\O,0,-2.252708,-2.151101,-0.
 658826\H,0,-1.319332,-2.352263,-0.875951\\Version=AM64L-G09RevC.01\Sta
 te=1-A\HF=-594.1974002\RMSD=9.775e-09\Dipole=1.4596319,0.053765,0.3616
 967\Quadrupole=0.2543764,-8.4386628,8.1842865,-4.58471,-6.3184046,-4.2
 236338\PG=C01 [X(C8H15N1O3)]\\@


 I think that all right-thinking people in this
 country are sick and tired of being told that
 ordinary, decent people are fed up in this country
 with being sick and tired.  I'm certainly not!
 But I'm sick and tired of being told that I am!
                               -- Monty Python
 Job cpu time:  0 days  0 hours  8 minutes 21.3 seconds.
 File lengths (MBytes):  RWF=    114 Int=      0 D2E=      0 Chk=      7 Scr=      1
 Normal termination of Gaussian 09 at Fri May 17 12:20:01 2024.
