 Entering Gaussian System, Link 0=g09
 Input=/home/mamichetti.iquir/Linux/04_Cardona_A1A3_R__S_R_S_038_OptB.gjc
 Output=/home/mamichetti.iquir/Linux/04_Cardona_A1A3_R__S_R_S_038_OptB.log
 Initial command:
 /opt/ohpc/pub/apps/software/Gaussian/09/AMD64.SSE4a-enabled/g09/l1.exe /local/mamichetti.iquir/Gau-410828.inp -scrdir=/local/mamichetti.iquir/
 Entering Link 1 = /opt/ohpc/pub/apps/software/Gaussian/09/AMD64.SSE4a-enabled/g09/l1.exe PID=    410829.
  
 Copyright (c) 1988,1990,1992,1993,1995,1998,2003,2009,2011,
            Gaussian, Inc.  All Rights Reserved.
  
 This is part of the Gaussian(R) 09 program.  It is based on
 the Gaussian(R) 03 system (copyright 2003, Gaussian, Inc.),
 the Gaussian(R) 98 system (copyright 1998, Gaussian, Inc.),
 the Gaussian(R) 94 system (copyright 1995, Gaussian, Inc.),
 the Gaussian 92(TM) system (copyright 1992, Gaussian, Inc.),
 the Gaussian 90(TM) system (copyright 1990, Gaussian, Inc.),
 the Gaussian 88(TM) system (copyright 1988, Gaussian, Inc.),
 the Gaussian 86(TM) system (copyright 1986, Carnegie Mellon
 University), and the Gaussian 82(TM) system (copyright 1983,
 Carnegie Mellon University). Gaussian is a federally registered
 trademark of Gaussian, Inc.
  
 This software contains proprietary and confidential information,
 including trade secrets, belonging to Gaussian, Inc.
  
 This software is provided under written license and may be
 used, copied, transmitted, or stored only in accord with that
 written license.
  
 The following legend is applicable only to US Government
 contracts under FAR:
  
                    RESTRICTED RIGHTS LEGEND
  
 Use, reproduction and disclosure by the US Government is
 subject to restrictions as set forth in subparagraphs (a)
 and (c) of the Commercial Computer Software - Restricted
 Rights clause in FAR 52.227-19.
  
 Gaussian, Inc.
 340 Quinnipiac St., Bldg. 40, Wallingford CT 06492
  
  
 ---------------------------------------------------------------
 Warning -- This program may not be used in any manner that
 competes with the business of Gaussian, Inc. or will provide
 assistance to any competitor of Gaussian, Inc.  The licensee
 of this program is prohibited from giving any competitor of
 Gaussian, Inc. access to this program.  By using this program,
 the user acknowledges that Gaussian, Inc. is engaged in the
 business of creating and licensing software in the field of
 computational chemistry and represents and warrants to the
 licensee that it is not a competitor of Gaussian, Inc. and that
 it will not use this program in any manner prohibited above.
 ---------------------------------------------------------------
  

 Cite this work as:
 Gaussian 09, Revision C.01,
 M. J. Frisch, G. W. Trucks, H. B. Schlegel, G. E. Scuseria, 
 M. A. Robb, J. R. Cheeseman, G. Scalmani, V. Barone, B. Mennucci, 
 G. A. Petersson, H. Nakatsuji, M. Caricato, X. Li, H. P. Hratchian, 
 A. F. Izmaylov, J. Bloino, G. Zheng, J. L. Sonnenberg, M. Hada, 
 M. Ehara, K. Toyota, R. Fukuda, J. Hasegawa, M. Ishida, T. Nakajima, 
 Y. Honda, O. Kitao, H. Nakai, T. Vreven, J. A. Montgomery, Jr., 
 J. E. Peralta, F. Ogliaro, M. Bearpark, J. J. Heyd, E. Brothers, 
 K. N. Kudin, V. N. Staroverov, T. Keith, R. Kobayashi, J. Normand, 
 K. Raghavachari, A. Rendell, J. C. Burant, S. S. Iyengar, J. Tomasi, 
 M. Cossi, N. Rega, J. M. Millam, M. Klene, J. E. Knox, J. B. Cross, 
 V. Bakken, C. Adamo, J. Jaramillo, R. Gomperts, R. E. Stratmann, 
 O. Yazyev, A. J. Austin, R. Cammi, C. Pomelli, J. W. Ochterski, 
 R. L. Martin, K. Morokuma, V. G. Zakrzewski, G. A. Voth, 
 P. Salvador, J. J. Dannenberg, S. Dapprich, A. D. Daniels, 
 O. Farkas, J. B. Foresman, J. V. Ortiz, J. Cioslowski, 
 and D. J. Fox, Gaussian, Inc., Wallingford CT, 2010.
 
 ******************************************
 Gaussian 09:  AM64L-G09RevC.01 23-Sep-2011
                17-May-2024 
 ******************************************
 %nprocshared=4
 Will use up to    4 processors via shared memory.
 ------------------------------------------------
 # mpw1pw91/6-31+G** nmr scrf=(pcm,solvent=water)
 ------------------------------------------------
 1/38=1/1;
 2/12=2,17=6,18=5,40=1/2;
 3/5=1,6=6,7=111,11=2,16=1,25=1,30=1,70=2201,72=1,74=-7/1,2,8,3;
 4//1;
 5/5=2,38=5,53=1/2;
 8/6=1,10=90,11=11/1;
 10/13=100,45=16/2;
 6/7=2,8=2,9=2,10=2,28=1/1;
 99/9=1/99;
 -------
 comment
 -------
 Charge =  0 Multiplicity = 1
 Symbolic Z-Matrix:
 6                    -1.46801   1.6186    0.26831 
 6                    -1.05799   0.64919  -0.88238 
 7                     0.4356    0.61925  -0.93379 
 6                     0.88638   1.78803  -0.1554 
 6                    -0.1464    2.01258   0.95631 
 6                     0.89228  -0.74624  -0.51852 
 6                    -0.3304   -1.47777   0.04903 
 6                    -1.47613  -0.83452  -0.73656 
 1                    -1.95459   2.50179  -0.15952 
 1                    -2.18285   1.15944   0.95624 
 1                    -1.45391   1.03473  -1.82891 
 1                     0.89064   2.66223  -0.82192 
 1                     1.91014   1.65761   0.19584 
 1                    -0.15238   3.04523   1.32158 
 1                     0.05832   1.3538    1.80593 
 1                     1.17072  -1.29008  -1.43356 
 1                    -0.26372  -2.55923  -0.12951 
 1                    -1.51304  -1.29025  -1.73499 
 8                    -2.70039  -1.07877  -0.04781 
 1                    -3.37588  -0.47594  -0.40093 
 8                    -0.48308  -1.23443   1.45067 
 1                    -1.44484  -1.23696   1.61188 
 6                     2.10687  -0.8275    0.39388 
 1                     1.96367  -0.24018   1.30725 
 1                     2.23623  -1.87761   0.69281 
 8                     3.26098  -0.37436  -0.32706 
 1                     4.00258  -0.37309   0.3 
 
                          Input orientation:                          
 ---------------------------------------------------------------------
 Center     Atomic      Atomic             Coordinates (Angstroms)
 Number     Number       Type             X           Y           Z
 ---------------------------------------------------------------------
      1          6           0       -1.468011    1.618596    0.268310
      2          6           0       -1.057990    0.649189   -0.882382
      3          7           0        0.435602    0.619245   -0.933792
      4          6           0        0.886376    1.788031   -0.155404
      5          6           0       -0.146395    2.012582    0.956314
      6          6           0        0.892277   -0.746239   -0.518522
      7          6           0       -0.330400   -1.477773    0.049026
      8          6           0       -1.476130   -0.834519   -0.736562
      9          1           0       -1.954586    2.501792   -0.159515
     10          1           0       -2.182847    1.159436    0.956241
     11          1           0       -1.453914    1.034734   -1.828912
     12          1           0        0.890636    2.662230   -0.821916
     13          1           0        1.910141    1.657607    0.195836
     14          1           0       -0.152384    3.045229    1.321577
     15          1           0        0.058320    1.353797    1.805927
     16          1           0        1.170724   -1.290076   -1.433562
     17          1           0       -0.263720   -2.559230   -0.129507
     18          1           0       -1.513044   -1.290254   -1.734993
     19          8           0       -2.700387   -1.078766   -0.047809
     20          1           0       -3.375877   -0.475940   -0.400926
     21          8           0       -0.483078   -1.234429    1.450674
     22          1           0       -1.444839   -1.236960    1.611876
     23          6           0        2.106872   -0.827496    0.393875
     24          1           0        1.963669   -0.240175    1.307248
     25          1           0        2.236231   -1.877606    0.692808
     26          8           0        3.260978   -0.374360   -0.327061
     27          1           0        4.002583   -0.373088    0.299999
 ---------------------------------------------------------------------
                    Distance matrix (angstroms):
                    1          2          3          4          5
     1  C    0.000000
     2  C    1.559474   0.000000
     3  N    2.463228   1.494776   0.000000
     4  C    2.398203   2.367703   1.474838   0.000000
     5  C    1.541182   2.463869   2.419217   1.533935   0.000000
     6  C    3.432566   2.425522   1.498515   2.560159   3.296221
     7  C    3.306017   2.433285   2.439298   3.491105   3.611040
     8  C    2.650963   1.548384   2.409782   3.577282   3.569315
     9  H    1.095365   2.181412   3.139504   2.929255   2.180357
    10  H    1.093191   2.214992   3.274188   3.324307   2.207939
    11  H    2.177024   1.096047   2.131699   2.974062   3.228510
    12  H    2.800175   2.802344   2.096034   1.099309   2.158606
    13  H    3.379155   3.315006   2.128032   1.090172   2.221188
    14  H    2.208060   3.379137   3.364196   2.200237   1.095360
    15  H    2.182675   2.994933   2.861463   2.172799   1.094417
    16  H    4.280148   3.005281   2.106106   3.345039   4.284140
    17  H    4.366097   3.389932   3.352406   4.496896   4.700451
    18  H    3.532231   2.166901   2.843472   4.210482   4.474325
    19  O    2.982355   2.525828   3.674593   4.592926   4.133711
    20  H    2.911170   2.621129   4.001343   4.832458   4.297022
    21  O    3.241578   3.053144   3.156859   3.686483   3.301640
    22  H    3.155932   3.150958   3.669057   4.208136   3.560231
    23  C    4.333465   3.718304   2.578547   2.938077   3.668732
    24  H    4.038669   3.836127   2.845321   2.722780   3.106516
    25  H    5.111266   4.440474   3.481718   3.997307   4.569453
    26  O    5.166205   4.473200   3.055834   3.216230   4.353704
    27  H    5.821959   5.296459   3.902604   3.819499   4.830755
                    6          7          8          9         10
     6  C    0.000000
     7  C    1.533686   0.000000
     8  C    2.380060   1.530889   0.000000
     9  H    4.333961   4.303302   3.419485   0.000000
    10  H    3.906778   3.348055   2.709407   1.760379   0.000000
    11  H    3.223911   3.331910   2.165139   2.278117   2.881661
    12  H    3.421946   4.403305   4.223283   2.925714   3.855714
    13  H    2.706442   3.856447   4.306610   3.971780   4.192725
    14  H    4.341948   4.701981   4.587013   2.395180   2.795079
    15  H    3.241712   3.354936   3.688836   3.038527   2.404698
    16  H    1.100268   2.118176   2.774739   5.076320   4.791420
    17  H    2.185085   1.098121   2.193874   5.336091   4.323237
    18  H    2.749786   2.148612   1.098145   4.129976   3.700319
    19  O    3.638596   2.405290   1.425778   3.659111   2.507092
    20  H    4.278321   3.237446   1.962210   3.308358   2.437145
    21  O    2.451054   1.430784   2.435176   4.326360   2.977292
    22  H    3.200237   1.934545   2.382876   4.168445   2.591761
    23  C    1.521286   2.545992   3.757105   5.280705   4.760866
    24  H    2.176561   2.894395   4.045074   5.002249   4.390411
    25  H    2.133899   2.676176   4.112512   6.121154   5.368545
    26  O    2.405347   3.775839   4.776990   5.958392   5.799537
    27  H    3.237780   4.478622   5.594969   6.630532   6.406155
                   11         12         13         14         15
    11  H    0.000000
    12  H    3.026499   0.000000
    13  H    3.975480   1.756268   0.000000
    14  H    3.957480   2.414361   2.728882   0.000000
    15  H    3.949773   3.051279   2.472637   1.771986   0.000000
    16  H    3.528423   4.009150   3.448262   5.304364   4.326869
    17  H    4.149833   5.392181   4.755337   5.790337   4.377373
    18  H    2.327635   4.715243   4.912859   5.476352   4.690235
    19  O    3.031980   5.243066   5.366942   5.037348   4.118758
    20  H    2.831117   5.313048   5.731504   5.075092   4.473460
    21  O    4.104547   4.715475   3.958028   4.294356   2.668001
    22  H    4.123069   5.155722   4.651836   4.482394   3.001527
    23  C    4.592154   3.890445   2.500732   4.578522   3.308851
    24  H    4.810485   3.756154   2.199927   3.907911   2.533729
    25  H    5.334601   4.971431   3.584836   5.507734   4.052690
    26  O    5.145028   3.883849   2.495410   5.105158   4.218197
    27  H    6.023918   4.489550   2.917685   5.476519   4.561487
                   16         17         18         19         20
    16  H    0.000000
    17  H    2.317098   0.000000
    18  H    2.700643   2.397644   0.000000
    19  O    4.117094   2.852331   2.073909   0.000000
    20  H    4.732941   3.754902   2.431664   0.971791   0.000000
    21  O    3.325203   2.073689   3.348495   2.680698   3.517387
    22  H    4.014808   2.485127   3.347988   2.087099   2.891268
    23  C    2.104728   2.982036   4.224928   4.834042   5.551201
    24  H    3.040246   3.521866   4.737661   4.928776   5.611078
    25  H    2.449887   2.718560   4.505137   5.055379   5.886992
    26  O    2.536147   4.151648   5.060872   6.009330   6.638043
    27  H    3.444637   4.813007   5.950170   6.748982   7.412391
                   21         22         23         24         25
    21  O    0.000000
    22  H    0.975180   0.000000
    23  C    2.826705   3.777014   0.000000
    24  H    2.644935   3.564310   1.095310   0.000000
    25  H    2.895286   3.847777   1.099466   1.770030   0.000000
    26  O    4.232968   5.162196   1.434239   2.090929   2.085662
    27  H    4.710320   5.669365   1.951671   2.278023   2.353269
                   26         27
    26  O    0.000000
    27  H    0.971177   0.000000
 Stoichiometry    C8H15NO3
 Framework group  C1[X(C8H15NO3)]
 Deg. of freedom    75
 Full point group                 C1      NOp   1
 Largest Abelian subgroup         C1      NOp   1
 Largest concise Abelian subgroup C1      NOp   1
                         Standard orientation:                         
 ---------------------------------------------------------------------
 Center     Atomic      Atomic             Coordinates (Angstroms)
 Number     Number       Type             X           Y           Z
 ---------------------------------------------------------------------
      1          6           0       -1.468011    1.618596    0.268310
      2          6           0       -1.057990    0.649189   -0.882382
      3          7           0        0.435602    0.619245   -0.933792
      4          6           0        0.886376    1.788031   -0.155404
      5          6           0       -0.146395    2.012582    0.956314
      6          6           0        0.892277   -0.746239   -0.518522
      7          6           0       -0.330400   -1.477773    0.049026
      8          6           0       -1.476130   -0.834519   -0.736562
      9          1           0       -1.954586    2.501792   -0.159515
     10          1           0       -2.182847    1.159436    0.956241
     11          1           0       -1.453914    1.034734   -1.828912
     12          1           0        0.890636    2.662230   -0.821916
     13          1           0        1.910141    1.657607    0.195836
     14          1           0       -0.152384    3.045229    1.321577
     15          1           0        0.058320    1.353797    1.805927
     16          1           0        1.170724   -1.290076   -1.433562
     17          1           0       -0.263720   -2.559230   -0.129507
     18          1           0       -1.513044   -1.290254   -1.734993
     19          8           0       -2.700387   -1.078766   -0.047809
     20          1           0       -3.375877   -0.475940   -0.400926
     21          8           0       -0.483078   -1.234429    1.450674
     22          1           0       -1.444839   -1.236960    1.611876
     23          6           0        2.106872   -0.827496    0.393875
     24          1           0        1.963669   -0.240175    1.307248
     25          1           0        2.236231   -1.877606    0.692808
     26          8           0        3.260978   -0.374360   -0.327061
     27          1           0        4.002583   -0.373088    0.299999
 ---------------------------------------------------------------------
 Rotational constants (GHZ):      1.3676431      0.8549956      0.6658252
 Standard basis: 6-31+G(d,p) (6D, 7F)
 There are   303 symmetry adapted basis functions of A   symmetry.
 Integral buffers will be    131072 words long.
 Raffenetti 2 integral format.
 Two-electron integral symmetry is turned on.
   303 basis functions,   489 primitive gaussians,   303 cartesian basis functions
    47 alpha electrons       47 beta electrons
       nuclear repulsion energy       819.7244195342 Hartrees.
 NAtoms=   27 NActive=   27 NUniq=   27 SFac= 1.00D+00 NAtFMM=   60 NAOKFM=F Big=F
 ------------------------------------------------------------------------------
 Polarizable Continuum Model (PCM)
 =================================
 Model                : PCM.
 Atomic radii         : UFF (Universal Force Field).
 Polarization charges : Total charges.
 Charge compensation  : None.
 Solution method      : Matrix inversion.
 Cavity type          : Scaled VdW (van der Waals Surface) (Alpha=1.100).
 Cavity algorithm     : GePol (No added spheres)
                        Default sphere list used, NSphG=   27.
                        Lebedev-Laikov grids with approx.  5.0 points / Ang**2.
                        Smoothing algorithm: Karplus/York (Gamma=1.0000).
                        Polarization charges: spherical gaussians, with
                                              point-specific exponents (IZeta= 3).
                        Self-potential: point-specific (ISelfS= 7).
                        Self-field    : sphere-specific E.n sum rule (ISelfD= 2).
 Solvent              : Water, Eps=  78.355300 Eps(inf)=   1.777849
 ------------------------------------------------------------------------------
 One-electron integrals computed using PRISM.
 NBasis=   303 RedAO= T  NBF=   303
 NBsUse=   303 1.00D-06 NBFU=   303
 Harris functional with IExCor=  908 diagonalized for initial guess.
 ExpMin= 4.38D-02 ExpMax= 5.48D+03 ExpMxC= 8.25D+02 IAcc=2 IRadAn=         4 AccDes= 0.00D+00
 HarFok:  IExCor=  908 AccDes= 0.00D+00 IRadAn=         4 IDoV= 1
 ScaDFX=  1.000000  1.000000  1.000000  1.000000
 FoFCou: FMM=F IPFlag=           0 FMFlag=      100000 FMFlg1=           0
         NFxFlg=           0 DoJE=T BraDBF=F KetDBF=T FulRan=T
         Omega=  0.000000  0.000000  1.000000  0.000000  0.000000 ICntrl=     500 IOpCl=  0
         NMat0=    1 NMatS0=    1 NMatT0=    0 NMatD0=    1 NMtDS0=    0 NMtDT0=    0
         I1Cent=           4 NGrid=           0.
 Petite list used in FoFCou.
 Initial guess orbital symmetries:
       Occupied  (A) (A) (A) (A) (A) (A) (A) (A) (A) (A) (A) (A)
                 (A) (A) (A) (A) (A) (A) (A) (A) (A) (A) (A) (A)
                 (A) (A) (A) (A) (A) (A) (A) (A) (A) (A) (A) (A)
                 (A) (A) (A) (A) (A) (A) (A) (A) (A) (A) (A)
       Virtual   (A) (A) (A) (A) (A) (A) (A) (A) (A) (A) (A) (A)
                 (A) (A) (A) (A) (A) (A) (A) (A) (A) (A) (A) (A)
                 (A) (A) (A) (A) (A) (A) (A) (A) (A) (A) (A) (A)
                 (A) (A) (A) (A) (A) (A) (A) (A) (A) (A) (A) (A)
                 (A) (A) (A) (A) (A) (A) (A) (A) (A) (A) (A) (A)
                 (A) (A) (A) (A) (A) (A) (A) (A) (A) (A) (A) (A)
                 (A) (A) (A) (A) (A) (A) (A) (A) (A) (A) (A) (A)
                 (A) (A) (A) (A) (A) (A) (A) (A) (A) (A) (A) (A)
                 (A) (A) (A) (A) (A) (A) (A) (A) (A) (A) (A) (A)
                 (A) (A) (A) (A) (A) (A) (A) (A) (A) (A) (A) (A)
                 (A) (A) (A) (A) (A) (A) (A) (A) (A) (A) (A) (A)
                 (A) (A) (A) (A) (A) (A) (A) (A) (A) (A) (A) (A)
                 (A) (A) (A) (A) (A) (A) (A) (A) (A) (A) (A) (A)
                 (A) (A) (A) (A) (A) (A) (A) (A) (A) (A) (A) (A)
                 (A) (A) (A) (A) (A) (A) (A) (A) (A) (A) (A) (A)
                 (A) (A) (A) (A) (A) (A) (A) (A) (A) (A) (A) (A)
                 (A) (A) (A) (A) (A) (A) (A) (A) (A) (A) (A) (A)
                 (A) (A) (A) (A) (A) (A) (A) (A) (A) (A) (A) (A)
                 (A) (A) (A) (A) (A) (A) (A) (A) (A) (A) (A) (A)
                 (A) (A) (A) (A) (A) (A) (A) (A) (A) (A) (A) (A)
                 (A) (A) (A) (A) (A) (A) (A) (A) (A) (A) (A) (A)
                 (A) (A) (A) (A)
 The electronic state of the initial guess is 1-A.
 Requested convergence on RMS density matrix=1.00D-08 within 128 cycles.
 Requested convergence on MAX density matrix=1.00D-06.
 Requested convergence on             energy=1.00D-06.
 No special actions if energy rises.
 Error on total polarization charges =  0.01432
 SCF Done:  E(RmPW1PW91) =  -594.187546207     A.U. after   13 cycles
             Convg  =    0.4256D-08             -V/T =  2.0094
 Range of M.O.s used for correlation:     1   303
 NBasis=   303 NAE=    47 NBE=    47 NFC=     0 NFV=     0
 NROrb=    303 NOA=    47 NOB=    47 NVA=   256 NVB=   256

 **** Warning!!: The largest alpha MO coefficient is  0.77179596D+02

 NEqPCM:  Using equilibrium solvation (IEInf=0, Eps=  78.3553, EpsInf=   1.7778)
          Differentiating once with respect to magnetic field using GIAOs.
          Electric field/nuclear overlap derivatives assumed to be zero.
 FoFCou: FMM=F IPFlag=           0 FMFlag=    10101102 FMFlg1=           0
         NFxFlg=    40000000 DoJE=F BraDBF=F KetDBF=T FulRan=T
         Omega=  0.000000  0.000000  1.000000  0.000000  0.000000 ICntrl=    6100 IOpCl=  0
         NMat0=    1 NMatS0=    1 NMatT0=    0 NMatD0=    1 NMtDS0=    0 NMtDT0=    0
         I1Cent=           7 NGrid=        1754.
 Symmetry not used in FoFCou.
          There are     3 degrees of freedom in the 1st order CPHF.  IDoFFX=0.
      3 vectors produced by pass  0 Test12= 4.01D-13 3.33D-08 XBig12= 2.35D+01 7.76D-01.
 AX will form     3 AO Fock derivatives at one time.
      3 vectors produced by pass  1 Test12= 4.01D-13 3.33D-08 XBig12= 5.80D-02 3.44D-02.
      3 vectors produced by pass  2 Test12= 4.01D-13 3.33D-08 XBig12= 1.27D-04 1.89D-03.
      3 vectors produced by pass  3 Test12= 4.01D-13 3.33D-08 XBig12= 7.04D-07 1.65D-04.
      3 vectors produced by pass  4 Test12= 4.01D-13 3.33D-08 XBig12= 2.16D-09 7.39D-06.
      3 vectors produced by pass  5 Test12= 4.01D-13 3.33D-08 XBig12= 6.17D-12 4.47D-07.
 Inverted reduced A of dimension    18 with in-core refinement.
 Calculating GIAO nuclear magnetic shielding tensors.
 SCF GIAO Magnetic shielding tensor (ppm):
      1  C    Isotropic =   168.9133   Anisotropy =    27.0366
   XX=   180.1243   YX=     0.0962   ZX=     4.1745
   XY=    -3.1850   YY=   158.8531   ZY=    20.1443
   XZ=     6.6086   YZ=    22.9687   ZZ=   167.7626
   Eigenvalues:   140.7547   179.0475   186.9377
      2  C    Isotropic =   126.6358   Anisotropy =    62.3967
   XX=   165.9103   YX=     9.2078   ZX=    -7.8310
   XY=     8.5529   YY=   114.9995   ZY=    10.5229
   XZ=   -11.5068   YZ=    16.0857   ZZ=    98.9977
   Eigenvalues:    89.3310   122.3429   168.2337
      3  N    Isotropic =   194.0766   Anisotropy =    79.1483
   XX=   241.4563   YX=    -4.2242   ZX=    20.9511
   XY=   -10.8197   YY=   199.9708   ZY=    15.9769
   XZ=    22.9605   YZ=    -3.6904   ZZ=   140.8025
   Eigenvalues:   135.3352   200.0524   246.8421
      4  C    Isotropic =   145.3617   Anisotropy =    47.8794
   XX=   142.8477   YX=    13.5228   ZX=    -5.5211
   XY=    23.1885   YY=   149.6051   ZY=    28.4124
   XZ=   -13.2558   YZ=    28.7659   ZZ=   143.6322
   Eigenvalues:   107.2224   151.5813   177.2812
      5  C    Isotropic =   168.2093   Anisotropy =    19.8537
   XX=   176.3473   YX=     2.9791   ZX=    -8.1824
   XY=     4.6983   YY=   160.0192   ZY=    11.8077
   XZ=    -2.9480   YZ=    19.5305   ZZ=   168.2614
   Eigenvalues:   146.5418   176.6410   181.4451
      6  C    Isotropic =   128.5803   Anisotropy =    31.5117
   XX=   135.0068   YX=    -0.0771   ZX=     0.8424
   XY=    -8.8616   YY=   143.1156   ZY=   -13.2437
   XZ=    -6.5912   YZ=   -17.5882   ZZ=   107.6184
   Eigenvalues:   101.3169   134.8359   149.5881
      7  C    Isotropic =   120.2069   Anisotropy =    20.9867
   XX=   116.6179   YX=    -1.0233   ZX=    -4.2085
   XY=     3.2745   YY=   110.3878   ZY=     3.0680
   XZ=    -2.0597   YZ=    -4.1881   ZZ=   133.6149
   Eigenvalues:   110.1907   116.2319   134.1980
      8  C    Isotropic =   120.4737   Anisotropy =    51.1057
   XX=   150.8370   YX=     6.0433   ZX=   -16.4528
   XY=     5.3066   YY=   115.6636   ZY=    -8.9681
   XZ=    -6.6724   YZ=    -8.9739   ZZ=    94.9204
   Eigenvalues:    90.2173   116.6596   154.5441
      9  H    Isotropic =    30.1512   Anisotropy =    12.4944
   XX=    30.1391   YX=    -5.7684   ZX=     2.8221
   XY=    -6.1049   YY=    33.5489   ZY=    -0.7009
   XZ=     2.8898   YZ=    -0.7441   ZZ=    26.7656
   Eigenvalues:    24.1455    27.8273    38.4808
     10  H    Isotropic =    29.5113   Anisotropy =     7.0303
   XX=    31.6344   YX=     1.3654   ZX=    -3.8724
   XY=     1.7079   YY=    29.4050   ZY=     1.0119
   XZ=    -3.9833   YZ=     0.4365   ZZ=    27.4946
   Eigenvalues:    24.6917    29.6441    34.1982
     11  H    Isotropic =    27.9617   Anisotropy =     9.3530
   XX=    26.6278   YX=    -1.4060   ZX=     3.7584
   XY=    -1.8647   YY=    25.3475   ZY=    -1.8976
   XZ=     3.2904   YZ=    -1.2656   ZZ=    31.9099
   Eigenvalues:    24.1103    25.5778    34.1971
     12  H    Isotropic =    28.8050   Anisotropy =    12.1344
   XX=    24.6341   YX=     3.5081   ZX=    -2.7930
   XY=     3.6509   YY=    34.2383   ZY=    -3.3606
   XZ=    -2.7550   YZ=    -2.5183   ZZ=    27.5426
   Eigenvalues:    22.6812    26.8391    36.8946
     13  H    Isotropic =    27.9028   Anisotropy =     7.8874
   XX=    32.7866   YX=     0.5084   ZX=     1.2152
   XY=     1.3055   YY=    28.0911   ZY=     2.2952
   XZ=     0.9402   YZ=     1.5990   ZZ=    22.8308
   Eigenvalues:    22.1361    28.4113    33.1611
     14  H    Isotropic =    30.1211   Anisotropy =    12.2577
   XX=    26.9673   YX=     0.1641   ZX=     0.3321
   XY=     0.3732   YY=    35.1715   ZY=     5.5889
   XZ=     0.1911   YZ=     5.5960   ZZ=    28.2245
   Eigenvalues:    25.1095    26.9610    38.2929
     15  H    Isotropic =    29.7246   Anisotropy =     7.5839
   XX=    27.0540   YX=    -0.4172   ZX=     1.7095
   XY=    -0.3412   YY=    28.3709   ZY=    -2.3846
   XZ=     2.0551   YZ=    -1.2583   ZZ=    33.7489
   Eigenvalues:    26.5545    27.8387    34.7805
     16  H    Isotropic =    28.0093   Anisotropy =     8.8903
   XX=    26.8686   YX=    -2.9472   ZX=    -1.4091
   XY=    -3.2724   YY=    29.7609   ZY=     3.9161
   XZ=    -2.7829   YZ=     2.3896   ZZ=    27.3985
   Eigenvalues:    24.8734    25.2184    33.9362
     17  H    Isotropic =    27.6489   Anisotropy =     8.5300
   XX=    23.9379   YX=    -1.0060   ZX=     0.0145
   XY=    -0.1079   YY=    32.3486   ZY=     1.9597
   XZ=    -1.1188   YZ=     3.0095   ZZ=    26.6604
   Eigenvalues:    23.8293    25.7819    33.3356
     18  H    Isotropic =    27.0410   Anisotropy =     7.1163
   XX=    26.1467   YX=     1.5350   ZX=    -0.8623
   XY=     2.9486   YY=    25.6667   ZY=     3.6405
   XZ=     1.5678   YZ=     3.2414   ZZ=    29.3095
   Eigenvalues:    22.6621    26.6757    31.7852
     19  O    Isotropic =   301.9045   Anisotropy =    44.0816
   XX=   319.6179   YX=   -10.3018   ZX=     6.1116
   XY=     2.3739   YY=   313.6342   ZY=   -10.5321
   XZ=    36.5521   YZ=   -10.9723   ZZ=   272.4613
   Eigenvalues:   262.7613   311.6599   331.2922
     20  H    Isotropic =    29.9003   Anisotropy =    18.9338
   XX=    38.7973   YX=    -5.6086   ZX=     3.2672
   XY=    -6.2905   YY=    27.7595   ZY=    -4.2683
   XZ=     3.2658   YZ=    -3.9433   ZZ=    23.1442
   Eigenvalues:    20.7393    26.4388    42.5229
     21  O    Isotropic =   315.6936   Anisotropy =    30.5802
   XX=   331.8960   YX=     4.4139   ZX=    -8.7359
   XY=    -1.0099   YY=   315.4420   ZY=    24.3867
   XZ=   -15.5182   YZ=    -4.7733   ZZ=   299.7427
   Eigenvalues:   291.6104   319.3899   336.0803
     22  H    Isotropic =    28.8188   Anisotropy =    17.1691
   XX=    39.3875   YX=     0.3057   ZX=    -2.4472
   XY=     0.2251   YY=    19.0619   ZY=    -2.9791
   XZ=    -3.9683   YZ=    -1.7689   ZZ=    28.0069
   Eigenvalues:    18.4575    27.7340    40.2648
     23  C    Isotropic =   134.0736   Anisotropy =    63.7395
   XX=   160.3516   YX=    15.0916   ZX=   -19.9050
   XY=    13.8610   YY=   116.6371   ZY=   -11.9258
   XZ=   -23.9274   YZ=   -12.8355   ZZ=   125.2321
   Eigenvalues:   107.7979   117.8564   176.5666
     24  H    Isotropic =    27.3807   Anisotropy =     4.1676
   XX=    29.9116   YX=    -1.1200   ZX=    -1.4374
   XY=     0.2919   YY=    23.8169   ZY=    -0.8784
   XZ=     0.1958   YZ=     0.8638   ZZ=    28.4135
   Eigenvalues:    23.7883    28.1946    30.1591
     25  H    Isotropic =    27.5444   Anisotropy =     6.2059
   XX=    29.7628   YX=     0.9629   ZX=    -0.7691
   XY=    -2.1363   YY=    29.0405   ZY=    -4.2391
   XZ=    -0.3759   YZ=    -4.8078   ZZ=    23.8299
   Eigenvalues:    21.1428    29.8087    31.6816
     26  O    Isotropic =   311.6004   Anisotropy =    87.6624
   XX=   352.0252   YX=     4.6007   ZX=    20.9993
   XY=     0.8703   YY=   276.1808   ZY=     9.0890
   XZ=    45.7278   YZ=     5.7207   ZZ=   306.5951
   Eigenvalues:   273.9679   290.7912   370.0420
     27  H    Isotropic =    30.2554   Anisotropy =    20.9983
   XX=    40.5502   YX=     1.1126   ZX=     8.3711
   XY=     1.5446   YY=    20.7783   ZY=    -0.6117
   XZ=     6.3739   YZ=    -1.0535   ZZ=    29.4379
   Eigenvalues:    20.4154    26.0966    44.2543
 End of Minotr Frequency-dependent properties file   721 does not exist.
 End of Minotr Frequency-dependent properties file   722 does not exist.

 **********************************************************************

            Population analysis using the SCF density.

 **********************************************************************

 Orbital symmetries:
       Occupied  (A) (A) (A) (A) (A) (A) (A) (A) (A) (A) (A) (A)
                 (A) (A) (A) (A) (A) (A) (A) (A) (A) (A) (A) (A)
                 (A) (A) (A) (A) (A) (A) (A) (A) (A) (A) (A) (A)
                 (A) (A) (A) (A) (A) (A) (A) (A) (A) (A) (A)
       Virtual   (A) (A) (A) (A) (A) (A) (A) (A) (A) (A) (A) (A)
                 (A) (A) (A) (A) (A) (A) (A) (A) (A) (A) (A) (A)
                 (A) (A) (A) (A) (A) (A) (A) (A) (A) (A) (A) (A)
                 (A) (A) (A) (A) (A) (A) (A) (A) (A) (A) (A) (A)
                 (A) (A) (A) (A) (A) (A) (A) (A) (A) (A) (A) (A)
                 (A) (A) (A) (A) (A) (A) (A) (A) (A) (A) (A) (A)
                 (A) (A) (A) (A) (A) (A) (A) (A) (A) (A) (A) (A)
                 (A) (A) (A) (A) (A) (A) (A) (A) (A) (A) (A) (A)
                 (A) (A) (A) (A) (A) (A) (A) (A) (A) (A) (A) (A)
                 (A) (A) (A) (A) (A) (A) (A) (A) (A) (A) (A) (A)
                 (A) (A) (A) (A) (A) (A) (A) (A) (A) (A) (A) (A)
                 (A) (A) (A) (A) (A) (A) (A) (A) (A) (A) (A) (A)
                 (A) (A) (A) (A) (A) (A) (A) (A) (A) (A) (A) (A)
                 (A) (A) (A) (A) (A) (A) (A) (A) (A) (A) (A) (A)
                 (A) (A) (A) (A) (A) (A) (A) (A) (A) (A) (A) (A)
                 (A) (A) (A) (A) (A) (A) (A) (A) (A) (A) (A) (A)
                 (A) (A) (A) (A) (A) (A) (A) (A) (A) (A) (A) (A)
                 (A) (A) (A) (A) (A) (A) (A) (A) (A) (A) (A) (A)
                 (A) (A) (A) (A) (A) (A) (A) (A) (A) (A) (A) (A)
                 (A) (A) (A) (A) (A) (A) (A) (A) (A) (A) (A) (A)
                 (A) (A) (A) (A) (A) (A) (A) (A) (A) (A) (A) (A)
                 (A) (A) (A) (A)
 The electronic state is 1-A.
 Alpha  occ. eigenvalues --  -19.26898 -19.25552 -19.25093 -14.40886 -10.30738
 Alpha  occ. eigenvalues --  -10.30309 -10.29828 -10.28209 -10.27684 -10.26269
 Alpha  occ. eigenvalues --  -10.24134 -10.23681  -1.08120  -1.05714  -1.04846
 Alpha  occ. eigenvalues --   -0.95757  -0.82355  -0.78671  -0.75808  -0.71486
 Alpha  occ. eigenvalues --   -0.66515  -0.61890  -0.59692  -0.57813  -0.54615
 Alpha  occ. eigenvalues --   -0.52853  -0.52157  -0.51824  -0.48587  -0.47922
 Alpha  occ. eigenvalues --   -0.46464  -0.43333  -0.42952  -0.42110  -0.40673
 Alpha  occ. eigenvalues --   -0.40086  -0.37775  -0.37273  -0.36078  -0.35629
 Alpha  occ. eigenvalues --   -0.35112  -0.33665  -0.32435  -0.30512  -0.29797
 Alpha  occ. eigenvalues --   -0.29414  -0.22544
 Alpha virt. eigenvalues --    0.00053   0.01095   0.01876   0.02211   0.03253
 Alpha virt. eigenvalues --    0.04274   0.04858   0.05065   0.05541   0.06971
 Alpha virt. eigenvalues --    0.08208   0.08323   0.08716   0.08979   0.09691
 Alpha virt. eigenvalues --    0.10165   0.11537   0.12159   0.12519   0.13350
 Alpha virt. eigenvalues --    0.13721   0.14243   0.14453   0.14866   0.15299
 Alpha virt. eigenvalues --    0.15694   0.16607   0.17037   0.17376   0.18065
 Alpha virt. eigenvalues --    0.18960   0.19526   0.19571   0.19982   0.20995
 Alpha virt. eigenvalues --    0.21445   0.21851   0.22140   0.22928   0.23259
 Alpha virt. eigenvalues --    0.23740   0.24064   0.24786   0.25669   0.25908
 Alpha virt. eigenvalues --    0.26458   0.27072   0.27571   0.28071   0.28986
 Alpha virt. eigenvalues --    0.29760   0.30289   0.30400   0.31006   0.31162
 Alpha virt. eigenvalues --    0.32240   0.33800   0.34651   0.34946   0.35328
 Alpha virt. eigenvalues --    0.36317   0.36510   0.36772   0.38270   0.38944
 Alpha virt. eigenvalues --    0.39833   0.40410   0.40854   0.42569   0.42832
 Alpha virt. eigenvalues --    0.43762   0.44149   0.44572   0.45426   0.46611
 Alpha virt. eigenvalues --    0.49253   0.64460   0.66827   0.68452   0.69347
 Alpha virt. eigenvalues --    0.70256   0.71269   0.72070   0.73461   0.75073
 Alpha virt. eigenvalues --    0.78064   0.78595   0.79357   0.79859   0.81342
 Alpha virt. eigenvalues --    0.82751   0.83539   0.84582   0.86291   0.87505
 Alpha virt. eigenvalues --    0.90935   0.92878   0.95793   0.96416   0.96873
 Alpha virt. eigenvalues --    0.98272   0.99862   1.02346   1.03235   1.05212
 Alpha virt. eigenvalues --    1.05886   1.07149   1.08098   1.09173   1.10053
 Alpha virt. eigenvalues --    1.11647   1.12158   1.13816   1.14345   1.17248
 Alpha virt. eigenvalues --    1.18757   1.19782   1.21927   1.22664   1.27519
 Alpha virt. eigenvalues --    1.28544   1.30809   1.32013   1.32064   1.32783
 Alpha virt. eigenvalues --    1.33511   1.35820   1.37411   1.39228   1.40269
 Alpha virt. eigenvalues --    1.42584   1.45605   1.46674   1.51926   1.53483
 Alpha virt. eigenvalues --    1.54365   1.55749   1.58845   1.61654   1.63211
 Alpha virt. eigenvalues --    1.64855   1.64971   1.67795   1.68153   1.71406
 Alpha virt. eigenvalues --    1.72679   1.74790   1.77176   1.78971   1.80177
 Alpha virt. eigenvalues --    1.81687   1.82696   1.83451   1.85322   1.86499
 Alpha virt. eigenvalues --    1.89059   1.90693   1.92681   1.93949   1.95823
 Alpha virt. eigenvalues --    1.97570   1.98034   2.00942   2.02113   2.03607
 Alpha virt. eigenvalues --    2.03999   2.06454   2.09209   2.10763   2.11283
 Alpha virt. eigenvalues --    2.13060   2.13477   2.17465   2.17982   2.19868
 Alpha virt. eigenvalues --    2.21470   2.24661   2.27497   2.29206   2.31110
 Alpha virt. eigenvalues --    2.33268   2.34946   2.36226   2.40601   2.41307
 Alpha virt. eigenvalues --    2.41973   2.43688   2.45081   2.46225   2.47216
 Alpha virt. eigenvalues --    2.49185   2.52222   2.52890   2.54600   2.57757
 Alpha virt. eigenvalues --    2.58673   2.60494   2.61223   2.62936   2.63778
 Alpha virt. eigenvalues --    2.65219   2.67584   2.68425   2.69589   2.70158
 Alpha virt. eigenvalues --    2.70583   2.72135   2.72904   2.75569   2.76008
 Alpha virt. eigenvalues --    2.77554   2.79903   2.81152   2.83460   2.85080
 Alpha virt. eigenvalues --    2.87369   2.88510   2.90166   2.91672   2.94238
 Alpha virt. eigenvalues --    2.96099   2.97570   3.00243   3.03673   3.05434
 Alpha virt. eigenvalues --    3.06337   3.09702   3.13645   3.15541   3.33113
 Alpha virt. eigenvalues --    3.37373   3.38654   3.39848   3.44278   3.44659
 Alpha virt. eigenvalues --    3.45472   3.48649   3.53702   3.54950   3.55898
 Alpha virt. eigenvalues --    3.57161   3.57646   3.59928   3.61689   4.31732
 Alpha virt. eigenvalues --    4.36693   4.39381   4.45211   4.50649   4.59404
 Alpha virt. eigenvalues --    4.63518   4.71493   4.75241   4.85955   4.92145
 Alpha virt. eigenvalues --    5.01468
          Condensed to atoms (all electrons):
              1          2          3          4          5          6
     1  C    5.881401  -0.163053   0.073710   0.100708  -0.008779  -0.229830
     2  C   -0.163053   7.477937  -0.249152  -0.136348  -0.064278  -0.612178
     3  N    0.073710  -0.249152   7.635206   0.112049  -0.178723  -0.820144
     4  C    0.100708  -0.136348   0.112049   5.803120   0.050466  -0.066194
     5  C   -0.008779  -0.064278  -0.178723   0.050466   5.536515   0.219922
     6  C   -0.229830  -0.612178  -0.820144  -0.066194   0.219922  10.780400
     7  C    0.029134   0.677294  -0.000347   0.082288  -0.114526  -2.280721
     8  C   -0.203075  -0.935563   0.034546  -0.222645   0.257472   0.919632
     9  H    0.406993  -0.090407   0.012079  -0.009502  -0.028018   0.017497
    10  H    0.469072  -0.126277   0.023180   0.031318  -0.054942  -0.002672
    11  H   -0.033861   0.263128  -0.012271  -0.010296   0.017964  -0.036252
    12  H   -0.004234  -0.011646  -0.021588   0.390605  -0.044513  -0.036788
    13  H    0.017396   0.018042  -0.043868   0.382301  -0.029907   0.005723
    14  H   -0.004263   0.006319   0.022982  -0.035714   0.358724  -0.023456
    15  H   -0.082064   0.007207   0.011302  -0.081551   0.461072   0.008540
    16  H    0.009404  -0.015555   0.019387   0.013630  -0.005333   0.116103
    17  H    0.005253   0.029961   0.031335  -0.003067  -0.001682  -0.140616
    18  H    0.030265   0.012258   0.028377   0.016329  -0.010578  -0.069959
    19  O    0.063670  -0.086143   0.009995   0.020290  -0.024940   0.035317
    20  H   -0.010474  -0.055532  -0.000068  -0.003391   0.009087  -0.002444
    21  O    0.071290   0.013296   0.141821   0.003444  -0.054952  -0.560368
    22  H    0.018482  -0.022900  -0.007053   0.002786  -0.008311   0.092335
    23  C    0.018601   0.015466   0.270479  -0.129282  -0.023731  -0.968062
    24  H    0.001323   0.015496   0.018047   0.009238  -0.007050  -0.186170
    25  H   -0.000140  -0.009071   0.016752  -0.010647   0.004104  -0.120100
    26  O    0.004604  -0.005062   0.005656  -0.023788  -0.000408  -0.041504
    27  H   -0.000162  -0.000691  -0.003628   0.001810  -0.001310   0.032049
              7          8          9         10         11         12
     1  C    0.029134  -0.203075   0.406993   0.469072  -0.033861  -0.004234
     2  C    0.677294  -0.935563  -0.090407  -0.126277   0.263128  -0.011646
     3  N   -0.000347   0.034546   0.012079   0.023180  -0.012271  -0.021588
     4  C    0.082288  -0.222645  -0.009502   0.031318  -0.010296   0.390605
     5  C   -0.114526   0.257472  -0.028018  -0.054942   0.017964  -0.044513
     6  C   -2.280721   0.919632   0.017497  -0.002672  -0.036252  -0.036788
     7  C    7.339077  -1.058567  -0.026994   0.003433   0.023918   0.003273
     8  C   -1.058567   7.147615   0.054023  -0.015713   0.061670   0.011672
     9  H   -0.026994   0.054023   0.530591  -0.027218  -0.007864   0.001238
    10  H    0.003433  -0.015713  -0.027218   0.518939   0.004256  -0.000001
    11  H    0.023918   0.061670  -0.007864   0.004256   0.564519   0.001866
    12  H    0.003273   0.011672   0.001238  -0.000001   0.001866   0.558870
    13  H   -0.004658  -0.004131  -0.000124  -0.000138  -0.000131  -0.026170
    14  H    0.008854  -0.008025  -0.006261   0.001596  -0.000002  -0.003564
    15  H   -0.009893   0.016053   0.003859  -0.006523  -0.000101   0.004331
    16  H    0.050535  -0.014988   0.000003   0.000018   0.000769   0.000195
    17  H    0.382363   0.003946   0.000005  -0.000053  -0.000103   0.000005
    18  H    0.061362   0.214581  -0.000095   0.000087  -0.007596   0.000007
    19  O   -0.144030   0.210694  -0.001599   0.006935  -0.006499  -0.000074
    20  H    0.018967   0.048279  -0.000087   0.000365   0.001873   0.000001
    21  O    0.429643  -0.100378   0.000805  -0.002687   0.000619   0.000622
    22  H   -0.048951  -0.035122   0.000000  -0.000462  -0.000025  -0.000003
    23  C    0.382924  -0.164652  -0.000639   0.000477   0.006446   0.017667
    24  H    0.037108  -0.025173   0.000000   0.000009  -0.000002   0.000196
    25  H    0.007922   0.019001   0.000000  -0.000001   0.000004   0.000001
    26  O    0.028625   0.003129  -0.000016   0.000002  -0.000017   0.000169
    27  H   -0.003843   0.000435   0.000000   0.000000   0.000000   0.000002
             13         14         15         16         17         18
     1  C    0.017396  -0.004263  -0.082064   0.009404   0.005253   0.030265
     2  C    0.018042   0.006319   0.007207  -0.015555   0.029961   0.012258
     3  N   -0.043868   0.022982   0.011302   0.019387   0.031335   0.028377
     4  C    0.382301  -0.035714  -0.081551   0.013630  -0.003067   0.016329
     5  C   -0.029907   0.358724   0.461072  -0.005333  -0.001682  -0.010578
     6  C    0.005723  -0.023456   0.008540   0.116103  -0.140616  -0.069959
     7  C   -0.004658   0.008854  -0.009893   0.050535   0.382363   0.061362
     8  C   -0.004131  -0.008025   0.016053  -0.014988   0.003946   0.214581
     9  H   -0.000124  -0.006261   0.003859   0.000003   0.000005  -0.000095
    10  H   -0.000138   0.001596  -0.006523   0.000018  -0.000053   0.000087
    11  H   -0.000131  -0.000002  -0.000101   0.000769  -0.000103  -0.007596
    12  H   -0.026170  -0.003564   0.004331   0.000195   0.000005   0.000007
    13  H    0.521076   0.001306  -0.005467   0.000036  -0.000007   0.000010
    14  H    0.001306   0.533915  -0.026004   0.000007   0.000000   0.000002
    15  H   -0.005467  -0.026004   0.515032   0.000021   0.000019   0.000002
    16  H    0.000036   0.000007   0.000021   0.576139  -0.000580   0.000952
    17  H   -0.000007   0.000000   0.000019  -0.000580   0.569786  -0.003809
    18  H    0.000010   0.000002   0.000002   0.000952  -0.003809   0.570110
    19  O    0.000069   0.000166  -0.000229  -0.000736  -0.000422  -0.030741
    20  H    0.000000  -0.000001   0.000007   0.000006  -0.000192  -0.003924
    21  O    0.000182   0.000800  -0.001788   0.014654  -0.046611   0.005300
    22  H   -0.000001  -0.000016  -0.000276  -0.000267  -0.000187   0.000698
    23  C   -0.003225   0.008654   0.007238   0.064532   0.011268   0.010065
    24  H   -0.002006   0.000060   0.000965   0.005100   0.000093   0.000005
    25  H    0.000268   0.000000  -0.000008  -0.002545   0.001685   0.000000
    26  O    0.000063   0.000056  -0.000163   0.000556  -0.000590   0.000105
    27  H   -0.000175   0.000000  -0.000001   0.000008  -0.000001   0.000000
             19         20         21         22         23         24
     1  C    0.063670  -0.010474   0.071290   0.018482   0.018601   0.001323
     2  C   -0.086143  -0.055532   0.013296  -0.022900   0.015466   0.015496
     3  N    0.009995  -0.000068   0.141821  -0.007053   0.270479   0.018047
     4  C    0.020290  -0.003391   0.003444   0.002786  -0.129282   0.009238
     5  C   -0.024940   0.009087  -0.054952  -0.008311  -0.023731  -0.007050
     6  C    0.035317  -0.002444  -0.560368   0.092335  -0.968062  -0.186170
     7  C   -0.144030   0.018967   0.429643  -0.048951   0.382924   0.037108
     8  C    0.210694   0.048279  -0.100378  -0.035122  -0.164652  -0.025173
     9  H   -0.001599  -0.000087   0.000805   0.000000  -0.000639   0.000000
    10  H    0.006935   0.000365  -0.002687  -0.000462   0.000477   0.000009
    11  H   -0.006499   0.001873   0.000619  -0.000025   0.006446  -0.000002
    12  H   -0.000074   0.000001   0.000622  -0.000003   0.017667   0.000196
    13  H    0.000069   0.000000   0.000182  -0.000001  -0.003225  -0.002006
    14  H    0.000166  -0.000001   0.000800  -0.000016   0.008654   0.000060
    15  H   -0.000229   0.000007  -0.001788  -0.000276   0.007238   0.000965
    16  H   -0.000736   0.000006   0.014654  -0.000267   0.064532   0.005100
    17  H   -0.000422  -0.000192  -0.046611  -0.000187   0.011268   0.000093
    18  H   -0.030741  -0.003924   0.005300   0.000698   0.010065   0.000005
    19  O    8.300503   0.240040  -0.016324   0.028263  -0.009824  -0.000012
    20  H    0.240040   0.364488  -0.000384  -0.001265   0.001704   0.000000
    21  O   -0.016324  -0.000384   8.325219   0.245294   0.107919   0.006994
    22  H    0.028263  -0.001265   0.245294   0.356721  -0.010672  -0.000056
    23  C   -0.009824   0.001704   0.107919  -0.010672   5.582920   0.497938
    24  H   -0.000012   0.000000   0.006994  -0.000056   0.497938   0.557948
    25  H   -0.000011   0.000000   0.001568  -0.000094   0.455001  -0.042230
    26  O    0.000106  -0.000001  -0.000543  -0.000028   0.110619  -0.054986
    27  H    0.000000   0.000000   0.000045   0.000000  -0.014818  -0.005760
             25         26         27
     1  C   -0.000140   0.004604  -0.000162
     2  C   -0.009071  -0.005062  -0.000691
     3  N    0.016752   0.005656  -0.003628
     4  C   -0.010647  -0.023788   0.001810
     5  C    0.004104  -0.000408  -0.001310
     6  C   -0.120100  -0.041504   0.032049
     7  C    0.007922   0.028625  -0.003843
     8  C    0.019001   0.003129   0.000435
     9  H    0.000000  -0.000016   0.000000
    10  H   -0.000001   0.000002   0.000000
    11  H    0.000004  -0.000017   0.000000
    12  H    0.000001   0.000169   0.000002
    13  H    0.000268   0.000063  -0.000175
    14  H    0.000000   0.000056   0.000000
    15  H   -0.000008  -0.000163  -0.000001
    16  H   -0.002545   0.000556   0.000008
    17  H    0.001685  -0.000590  -0.000001
    18  H    0.000000   0.000105   0.000000
    19  O   -0.000011   0.000106   0.000000
    20  H    0.000000  -0.000001   0.000000
    21  O    0.001568  -0.000543   0.000045
    22  H   -0.000094  -0.000028   0.000000
    23  C    0.455001   0.110619  -0.014818
    24  H   -0.042230  -0.054986  -0.005760
    25  H    0.567598  -0.050596  -0.003864
    26  O   -0.050596   8.368831   0.233185
    27  H   -0.003864   0.233185   0.378628
 Mulliken atomic charges:
              1
     1  C   -0.461374
     2  C    0.047451
     3  N   -0.130062
     4  C   -0.287956
     5  C   -0.253343
     6  C   -0.030059
     7  C    0.125810
     8  C   -0.214716
     9  H    0.171732
    10  H    0.177001
    11  H    0.167987
    12  H    0.157861
    13  H    0.173536
    14  H    0.163866
    15  H    0.178420
    16  H    0.167949
    17  H    0.162202
    18  H    0.176187
    19  O   -0.594463
    20  H    0.392946
    21  O   -0.585481
    22  H    0.391110
    23  C   -0.245017
    24  H    0.172926
    25  H    0.165402
    26  O   -0.578004
    27  H    0.388090
 Sum of Mulliken atomic charges =   0.00000
 Mulliken charges with hydrogens summed into heavy atoms:
              1
     1  C   -0.112641
     2  C    0.215438
     3  N   -0.130062
     4  C    0.043441
     5  C    0.088943
     6  C    0.137890
     7  C    0.288012
     8  C   -0.038529
    19  O   -0.201517
    21  O   -0.194370
    23  C    0.093311
    26  O   -0.189915
 Sum of Mulliken charges with hydrogens summed into heavy atoms =   0.00000
 Electronic spatial extent (au):  <R**2>=           1910.4121
 Charge=              0.0000 electrons
 Dipole moment (field-independent basis, Debye):
    X=             -1.9461    Y=              0.5864    Z=              0.7024  Tot=              2.1505
 Quadrupole moment (field-independent basis, Debye-Ang):
   XX=            -63.1225   YY=            -72.3715   ZZ=            -77.0361
   XY=             -4.6862   XZ=             10.9916   YZ=              2.9763
 Traceless Quadrupole moment (field-independent basis, Debye-Ang):
   XX=              7.7208   YY=             -1.5281   ZZ=             -6.1927
   XY=             -4.6862   XZ=             10.9916   YZ=              2.9763
 Octapole moment (field-independent basis, Debye-Ang**2):
  XXX=              2.5602  YYY=             -4.0179  ZZZ=              3.5954  XYY=              6.7622
  XXY=              2.6381  XXZ=             22.5853  XZZ=            -10.6547  YZZ=             -3.7781
  YYZ=             -2.7927  XYZ=             -0.2274
 Hexadecapole moment (field-independent basis, Debye-Ang**3):
 XXXX=           -997.1250 YYYY=           -802.7231 ZZZZ=           -365.9598 XXXY=            -33.9309
 XXXZ=            120.5783 YYYX=             -7.4024 YYYZ=             -2.2286 ZZZX=              4.1181
 ZZZY=              5.1607 XXYY=           -368.6972 XXZZ=           -260.0786 YYZZ=           -202.1561
 XXYZ=            -16.0286 YYXZ=              3.3340 ZZXY=              6.8968
 N-N= 8.197244195342D+02 E-N=-3.025767802060D+03  KE= 5.886555673958D+02
 1\1\GINC-COMPUTE-3-1\SP\RmPW1PW91\6-31+G(d,p)\C8H15N1O3\MAMICHETTI.IQU
 IR\17-May-2024\0\\# mpw1pw91/6-31+G** nmr scrf=(pcm,solvent=water)\\co
 mment\\0,1\C,0,-1.468011,1.618596,0.26831\C,0,-1.05799,0.649189,-0.882
 382\N,0,0.435602,0.619245,-0.933792\C,0,0.886376,1.788031,-0.155404\C,
 0,-0.146395,2.012582,0.956314\C,0,0.892277,-0.746239,-0.518522\C,0,-0.
 3304,-1.477773,0.049026\C,0,-1.47613,-0.834519,-0.736562\H,0,-1.954586
 ,2.501792,-0.159515\H,0,-2.182847,1.159436,0.956241\H,0,-1.453914,1.03
 4734,-1.828912\H,0,0.890636,2.66223,-0.821916\H,0,1.910141,1.657607,0.
 195836\H,0,-0.152384,3.045229,1.321577\H,0,0.05832,1.353797,1.805927\H
 ,0,1.170724,-1.290076,-1.433562\H,0,-0.26372,-2.55923,-0.129507\H,0,-1
 .513044,-1.290254,-1.734993\O,0,-2.700387,-1.078766,-0.047809\H,0,-3.3
 75877,-0.47594,-0.400926\O,0,-0.483078,-1.234429,1.450674\H,0,-1.44483
 9,-1.23696,1.611876\C,0,2.106872,-0.827496,0.393875\H,0,1.963669,-0.24
 0175,1.307248\H,0,2.236231,-1.877606,0.692808\O,0,3.260978,-0.37436,-0
 .327061\H,0,4.002583,-0.373088,0.299999\\Version=AM64L-G09RevC.01\Stat
 e=1-A\HF=-594.1875462\RMSD=4.256e-09\Dipole=-0.7656512,0.2307104,0.276
 3598\Quadrupole=5.7402535,-1.1360964,-4.6041572,-3.4841111,8.1719913,2
 .212779\PG=C01 [X(C8H15N1O3)]\\@


 BETTER TO HUNT IN FIELDS, FOR HEALTH UNBOUGHT
 THAN FEE THE DOCTOR FOR A NAUSEOUS DRAUGHT.
 THE WISE, FOR CURE, ON EXERCISE DEPEND;
 GOD NEVER MADE HIS WORK FOR MAN TO MEND.
     -- JOHN DRYDEN (1631-1700)
 Job cpu time:  0 days  0 hours  8 minutes 57.2 seconds.
 File lengths (MBytes):  RWF=    108 Int=      0 D2E=      0 Chk=      7 Scr=      1
 Normal termination of Gaussian 09 at Fri May 17 13:16:09 2024.
