 Entering Gaussian System, Link 0=g09
 Input=/home/mamichetti.iquir/Linux/04_Cardona_A1A3_R__S_R_S_049_OptB.gjc
 Output=/home/mamichetti.iquir/Linux/04_Cardona_A1A3_R__S_R_S_049_OptB.log
 Initial command:
 /opt/ohpc/pub/apps/software/Gaussian/09/AMD64.SSE4a-enabled/g09/l1.exe /local/mamichetti.iquir/Gau-715424.inp -scrdir=/local/mamichetti.iquir/
 Entering Link 1 = /opt/ohpc/pub/apps/software/Gaussian/09/AMD64.SSE4a-enabled/g09/l1.exe PID=    715425.
  
 Copyright (c) 1988,1990,1992,1993,1995,1998,2003,2009,2011,
            Gaussian, Inc.  All Rights Reserved.
  
 This is part of the Gaussian(R) 09 program.  It is based on
 the Gaussian(R) 03 system (copyright 2003, Gaussian, Inc.),
 the Gaussian(R) 98 system (copyright 1998, Gaussian, Inc.),
 the Gaussian(R) 94 system (copyright 1995, Gaussian, Inc.),
 the Gaussian 92(TM) system (copyright 1992, Gaussian, Inc.),
 the Gaussian 90(TM) system (copyright 1990, Gaussian, Inc.),
 the Gaussian 88(TM) system (copyright 1988, Gaussian, Inc.),
 the Gaussian 86(TM) system (copyright 1986, Carnegie Mellon
 University), and the Gaussian 82(TM) system (copyright 1983,
 Carnegie Mellon University). Gaussian is a federally registered
 trademark of Gaussian, Inc.
  
 This software contains proprietary and confidential information,
 including trade secrets, belonging to Gaussian, Inc.
  
 This software is provided under written license and may be
 used, copied, transmitted, or stored only in accord with that
 written license.
  
 The following legend is applicable only to US Government
 contracts under FAR:
  
                    RESTRICTED RIGHTS LEGEND
  
 Use, reproduction and disclosure by the US Government is
 subject to restrictions as set forth in subparagraphs (a)
 and (c) of the Commercial Computer Software - Restricted
 Rights clause in FAR 52.227-19.
  
 Gaussian, Inc.
 340 Quinnipiac St., Bldg. 40, Wallingford CT 06492
  
  
 ---------------------------------------------------------------
 Warning -- This program may not be used in any manner that
 competes with the business of Gaussian, Inc. or will provide
 assistance to any competitor of Gaussian, Inc.  The licensee
 of this program is prohibited from giving any competitor of
 Gaussian, Inc. access to this program.  By using this program,
 the user acknowledges that Gaussian, Inc. is engaged in the
 business of creating and licensing software in the field of
 computational chemistry and represents and warrants to the
 licensee that it is not a competitor of Gaussian, Inc. and that
 it will not use this program in any manner prohibited above.
 ---------------------------------------------------------------
  

 Cite this work as:
 Gaussian 09, Revision C.01,
 M. J. Frisch, G. W. Trucks, H. B. Schlegel, G. E. Scuseria, 
 M. A. Robb, J. R. Cheeseman, G. Scalmani, V. Barone, B. Mennucci, 
 G. A. Petersson, H. Nakatsuji, M. Caricato, X. Li, H. P. Hratchian, 
 A. F. Izmaylov, J. Bloino, G. Zheng, J. L. Sonnenberg, M. Hada, 
 M. Ehara, K. Toyota, R. Fukuda, J. Hasegawa, M. Ishida, T. Nakajima, 
 Y. Honda, O. Kitao, H. Nakai, T. Vreven, J. A. Montgomery, Jr., 
 J. E. Peralta, F. Ogliaro, M. Bearpark, J. J. Heyd, E. Brothers, 
 K. N. Kudin, V. N. Staroverov, T. Keith, R. Kobayashi, J. Normand, 
 K. Raghavachari, A. Rendell, J. C. Burant, S. S. Iyengar, J. Tomasi, 
 M. Cossi, N. Rega, J. M. Millam, M. Klene, J. E. Knox, J. B. Cross, 
 V. Bakken, C. Adamo, J. Jaramillo, R. Gomperts, R. E. Stratmann, 
 O. Yazyev, A. J. Austin, R. Cammi, C. Pomelli, J. W. Ochterski, 
 R. L. Martin, K. Morokuma, V. G. Zakrzewski, G. A. Voth, 
 P. Salvador, J. J. Dannenberg, S. Dapprich, A. D. Daniels, 
 O. Farkas, J. B. Foresman, J. V. Ortiz, J. Cioslowski, 
 and D. J. Fox, Gaussian, Inc., Wallingford CT, 2010.
 
 ******************************************
 Gaussian 09:  AM64L-G09RevC.01 23-Sep-2011
                17-May-2024 
 ******************************************
 %nprocshared=4
 Will use up to    4 processors via shared memory.
 ------------------------------------------------
 # mpw1pw91/6-31+G** nmr scrf=(pcm,solvent=water)
 ------------------------------------------------
 1/38=1/1;
 2/12=2,17=6,18=5,40=1/2;
 3/5=1,6=6,7=111,11=2,16=1,25=1,30=1,70=2201,72=1,74=-7/1,2,8,3;
 4//1;
 5/5=2,38=5,53=1/2;
 8/6=1,10=90,11=11/1;
 10/13=100,45=16/2;
 6/7=2,8=2,9=2,10=2,28=1/1;
 99/9=1/99;
 -------
 comment
 -------
 Charge =  0 Multiplicity = 1
 Symbolic Z-Matrix:
 6                     2.39588  -0.74315  -0.3615 
 6                     1.18143  -0.13686  -1.07384 
 7                     0.03393  -1.03234  -0.73015 
 6                     0.42919  -1.83898   0.46679 
 6                     1.79825  -1.32124   0.92834 
 6                    -1.13293  -0.13176  -0.60384 
 6                    -0.61963   1.18182   0.00176 
 6                     0.77538   1.31978  -0.66217 
 1                     2.8092   -1.54736  -0.98175 
 1                     3.18913  -0.01218  -0.189 
 1                     1.33351  -0.13603  -2.15862 
 1                     0.50934  -2.89303   0.16943 
 1                    -0.31922  -1.79216   1.26016 
 1                     2.41435  -2.11073   1.3708 
 1                     1.67555  -0.52884   1.67347 
 1                    -1.45154   0.11305  -1.62867 
 1                    -1.27229   2.02938  -0.24486 
 1                     0.69432   1.94203  -1.55851 
 8                     1.72213   1.91264   0.2359 
 1                     1.5787    2.87426   0.21289 
 8                    -0.47912   1.08446   1.41948 
 1                     0.39976   1.47482   1.60376 
 6                    -2.35145  -0.74112   0.07673 
 1                    -2.53832  -1.74443  -0.33226 
 1                    -2.20118  -0.83804   1.15728 
 8                    -3.45868   0.1309   -0.18755 
 1                    -4.19025  -0.15936   0.38065 
 
                          Input orientation:                          
 ---------------------------------------------------------------------
 Center     Atomic      Atomic             Coordinates (Angstroms)
 Number     Number       Type             X           Y           Z
 ---------------------------------------------------------------------
      1          6           0        2.395876   -0.743146   -0.361495
      2          6           0        1.181433   -0.136862   -1.073840
      3          7           0        0.033930   -1.032336   -0.730153
      4          6           0        0.429185   -1.838981    0.466790
      5          6           0        1.798253   -1.321236    0.928342
      6          6           0       -1.132929   -0.131756   -0.603839
      7          6           0       -0.619629    1.181824    0.001763
      8          6           0        0.775384    1.319782   -0.662170
      9          1           0        2.809199   -1.547364   -0.981752
     10          1           0        3.189128   -0.012178   -0.189004
     11          1           0        1.333509   -0.136028   -2.158623
     12          1           0        0.509339   -2.893030    0.169434
     13          1           0       -0.319219   -1.792157    1.260160
     14          1           0        2.414348   -2.110726    1.370797
     15          1           0        1.675551   -0.528841    1.673474
     16          1           0       -1.451539    0.113046   -1.628672
     17          1           0       -1.272292    2.029377   -0.244856
     18          1           0        0.694319    1.942028   -1.558507
     19          8           0        1.722129    1.912639    0.235898
     20          1           0        1.578702    2.874256    0.212885
     21          8           0       -0.479115    1.084456    1.419482
     22          1           0        0.399761    1.474824    1.603764
     23          6           0       -2.351448   -0.741121    0.076725
     24          1           0       -2.538316   -1.744434   -0.332255
     25          1           0       -2.201176   -0.838036    1.157282
     26          8           0       -3.458679    0.130898   -0.187549
     27          1           0       -4.190251   -0.159359    0.380645
 ---------------------------------------------------------------------
                    Distance matrix (angstroms):
                    1          2          3          4          5
     1  C    0.000000
     2  C    1.532934   0.000000
     3  N    2.407972   1.495579   0.000000
     4  C    2.398913   2.415911   1.496521   0.000000
     5  C    1.534608   2.406645   2.438628   1.534743   0.000000
     6  C    3.589567   2.361609   1.479378   2.549718   3.514864
     7  C    3.595933   2.477838   2.421847   3.231335   3.601390
     8  C    2.640468   1.567214   2.467151   3.372268   3.248225
     9  H    1.096504   2.155834   2.833844   2.801389   2.172925
    10  H    1.092390   2.197571   3.359887   3.374101   2.212833
    11  H    2.174140   1.095391   2.129037   3.257398   3.339170
    12  H    2.909108   3.097403   2.120720   1.098119   2.169741
    13  H    3.331956   3.231024   2.159488   1.091667   2.194438
    14  H    2.207137   3.375273   3.353104   2.198169   1.094821
    15  H    2.169307   2.818782   2.953955   2.173932   1.094608
    16  H    4.140218   2.702376   2.079869   3.426148   4.376829
    17  H    4.599559   3.376473   3.363899   4.285517   4.693746
    18  H    3.396806   2.189513   3.157392   4.297459   4.248762
    19  O    2.804284   2.491630   3.529327   3.974880   3.308054
    20  H    3.752770   3.298532   4.305474   4.858030   4.261717
    21  O    3.844162   3.235072   3.060221   3.206106   3.348877
    22  H    3.572969   3.221507   3.444830   3.503552   3.198426
    23  C    4.767507   3.764330   2.534933   3.014858   4.275723
    24  H    5.034847   4.119559   2.698491   3.074650   4.535861
    25  H    4.842373   4.112371   2.931870   2.897839   4.035013
    26  O    5.921995   4.731580   3.721001   4.407275   5.566798
    27  H    6.653469   5.565161   4.454174   4.916070   6.124713
                    6          7          8          9         10
     6  C    0.000000
     7  C    1.534837   0.000000
     8  C    2.398338   1.551097   0.000000
     9  H    4.205608   4.491395   3.529740   0.000000
    10  H    4.343566   3.996081   2.797171   1.769065   0.000000
    11  H    2.915594   3.196678   2.161078   2.356810   2.708885
    12  H    3.304486   4.231680   4.302340   2.902654   3.950830
    13  H    2.625557   3.243204   3.818072   3.856565   4.192481
    14  H    4.516490   4.681897   4.311327   2.451075   2.727117
    15  H    3.637498   3.314942   3.111742   3.061498   2.454930
    16  H    1.100783   2.119594   2.711001   4.618371   4.860465
    17  H    2.195173   1.097787   2.206956   5.476738   4.906662
    18  H    2.924176   2.176881   1.094158   4.120828   3.452323
    19  O    3.610549   2.464293   1.433294   3.825704   2.457142
    20  H    4.129902   2.782365   1.956382   4.742574   3.329638
    21  O    2.449586   1.427989   2.441807   4.848238   4.152811
    22  H    3.131094   1.921305   2.302083   4.650151   3.633973
    23  C    1.522919   2.588925   3.817115   5.329416   5.594636
    24  H    2.156293   3.515098   4.525359   5.390417   5.985386
    25  H    2.177506   2.813601   4.102011   5.493858   5.616930
    26  O    2.377267   3.033231   4.423347   6.537095   6.649347
    27  H    3.212038   3.832971   5.285154   7.264639   7.402797
                   11         12         13         14         15
    11  H    0.000000
    12  H    3.701373   0.000000
    13  H    4.142747   1.757303   0.000000
    14  H    4.186222   2.384184   2.754290   0.000000
    15  H    3.867333   3.035058   2.397061   1.771947   0.000000
    16  H    2.845941   4.014314   3.641057   5.374668   4.592916
    17  H    3.891231   5.251279   4.216342   5.774262   4.349051
    18  H    2.255442   5.137877   4.787095   5.288113   4.184939
    19  O    3.175184   4.956786   4.352210   4.237290   2.833658
    20  H    3.840049   5.865749   5.145318   5.185471   3.704561
    21  O    4.192615   4.284864   2.885455   4.310880   2.703669
    22  H    4.197891   4.598637   3.362761   4.119345   2.376378
    23  C    4.352221   3.580979   2.575878   5.124768   4.337210
    24  H    4.573141   3.295325   2.731749   5.250089   4.822581
    25  H    4.897146   3.541996   2.112509   4.792535   3.923145
    26  O    5.188588   5.001674   3.956035   6.476555   5.500816
    27  H    6.079503   5.440929   4.292373   6.957655   6.017936
                   16         17         18         19         20
    16  H    0.000000
    17  H    2.370528   0.000000
    18  H    2.820426   2.366615   0.000000
    19  O    4.097234   3.035014   2.068126   0.000000
    20  H    4.494216   3.008573   2.188381   0.972527   0.000000
    21  O    3.343724   2.071721   3.313728   2.632913   2.982259
    22  H    3.966156   2.553563   3.210140   1.952280   2.298446
    23  C    2.108985   2.990594   4.376068   4.864340   5.341869
    24  H    2.512372   3.981470   5.054070   5.643436   6.211225
    25  H    3.037771   3.324285   4.846458   4.879291   5.381494
    26  O    2.470985   2.896169   4.733615   5.494969   5.749919
    27  H    3.407654   3.700851   5.659961   6.266607   6.520106
                   21         22         23         24         25
    21  O    0.000000
    22  H    0.979168   0.000000
    23  C    2.939619   3.848560   0.000000
    24  H    3.912992   4.769076   1.099464   0.000000
    25  H    2.594266   3.509066   1.095252   1.775934   0.000000
    26  O    3.517048   4.461222   1.433952   2.094010   2.080557
    27  H    4.049542   5.023424   1.952437   2.397828   2.240577
                   26         27
    26  O    0.000000
    27  H    0.970717   0.000000
 Stoichiometry    C8H15NO3
 Framework group  C1[X(C8H15NO3)]
 Deg. of freedom    75
 Full point group                 C1      NOp   1
 Largest Abelian subgroup         C1      NOp   1
 Largest concise Abelian subgroup C1      NOp   1
                         Standard orientation:                         
 ---------------------------------------------------------------------
 Center     Atomic      Atomic             Coordinates (Angstroms)
 Number     Number       Type             X           Y           Z
 ---------------------------------------------------------------------
      1          6           0        2.395876   -0.743146   -0.361495
      2          6           0        1.181433   -0.136862   -1.073840
      3          7           0        0.033930   -1.032336   -0.730153
      4          6           0        0.429185   -1.838981    0.466790
      5          6           0        1.798253   -1.321236    0.928342
      6          6           0       -1.132929   -0.131756   -0.603839
      7          6           0       -0.619629    1.181824    0.001763
      8          6           0        0.775384    1.319782   -0.662170
      9          1           0        2.809199   -1.547363   -0.981752
     10          1           0        3.189128   -0.012177   -0.189004
     11          1           0        1.333509   -0.136028   -2.158623
     12          1           0        0.509339   -2.893030    0.169434
     13          1           0       -0.319219   -1.792157    1.260160
     14          1           0        2.414348   -2.110726    1.370797
     15          1           0        1.675551   -0.528841    1.673474
     16          1           0       -1.451539    0.113046   -1.628672
     17          1           0       -1.272292    2.029377   -0.244856
     18          1           0        0.694319    1.942028   -1.558507
     19          8           0        1.722129    1.912639    0.235898
     20          1           0        1.578701    2.874256    0.212885
     21          8           0       -0.479115    1.084456    1.419482
     22          1           0        0.399761    1.474824    1.603764
     23          6           0       -2.351448   -0.741121    0.076725
     24          1           0       -2.538316   -1.744434   -0.332255
     25          1           0       -2.201176   -0.838036    1.157282
     26          8           0       -3.458679    0.130897   -0.187549
     27          1           0       -4.190251   -0.159360    0.380645
 ---------------------------------------------------------------------
 Rotational constants (GHZ):      1.4558168      0.8045468      0.6526114
 Standard basis: 6-31+G(d,p) (6D, 7F)
 There are   303 symmetry adapted basis functions of A   symmetry.
 Integral buffers will be    131072 words long.
 Raffenetti 2 integral format.
 Two-electron integral symmetry is turned on.
   303 basis functions,   489 primitive gaussians,   303 cartesian basis functions
    47 alpha electrons       47 beta electrons
       nuclear repulsion energy       818.2619698538 Hartrees.
 NAtoms=   27 NActive=   27 NUniq=   27 SFac= 1.00D+00 NAtFMM=   60 NAOKFM=F Big=F
 ------------------------------------------------------------------------------
 Polarizable Continuum Model (PCM)
 =================================
 Model                : PCM.
 Atomic radii         : UFF (Universal Force Field).
 Polarization charges : Total charges.
 Charge compensation  : None.
 Solution method      : Matrix inversion.
 Cavity type          : Scaled VdW (van der Waals Surface) (Alpha=1.100).
 Cavity algorithm     : GePol (No added spheres)
                        Default sphere list used, NSphG=   27.
                        Lebedev-Laikov grids with approx.  5.0 points / Ang**2.
                        Smoothing algorithm: Karplus/York (Gamma=1.0000).
                        Polarization charges: spherical gaussians, with
                                              point-specific exponents (IZeta= 3).
                        Self-potential: point-specific (ISelfS= 7).
                        Self-field    : sphere-specific E.n sum rule (ISelfD= 2).
 Solvent              : Water, Eps=  78.355300 Eps(inf)=   1.777849
 ------------------------------------------------------------------------------
 One-electron integrals computed using PRISM.
 NBasis=   303 RedAO= T  NBF=   303
 NBsUse=   303 1.00D-06 NBFU=   303
 Harris functional with IExCor=  908 diagonalized for initial guess.
 ExpMin= 4.38D-02 ExpMax= 5.48D+03 ExpMxC= 8.25D+02 IAcc=2 IRadAn=         4 AccDes= 0.00D+00
 HarFok:  IExCor=  908 AccDes= 0.00D+00 IRadAn=         4 IDoV= 1
 ScaDFX=  1.000000  1.000000  1.000000  1.000000
 FoFCou: FMM=F IPFlag=           0 FMFlag=      100000 FMFlg1=           0
         NFxFlg=           0 DoJE=T BraDBF=F KetDBF=T FulRan=T
         Omega=  0.000000  0.000000  1.000000  0.000000  0.000000 ICntrl=     500 IOpCl=  0
         NMat0=    1 NMatS0=    1 NMatT0=    0 NMatD0=    1 NMtDS0=    0 NMtDT0=    0
         I1Cent=           4 NGrid=           0.
 Petite list used in FoFCou.
 Initial guess orbital symmetries:
       Occupied  (A) (A) (A) (A) (A) (A) (A) (A) (A) (A) (A) (A)
                 (A) (A) (A) (A) (A) (A) (A) (A) (A) (A) (A) (A)
                 (A) (A) (A) (A) (A) (A) (A) (A) (A) (A) (A) (A)
                 (A) (A) (A) (A) (A) (A) (A) (A) (A) (A) (A)
       Virtual   (A) (A) (A) (A) (A) (A) (A) (A) (A) (A) (A) (A)
                 (A) (A) (A) (A) (A) (A) (A) (A) (A) (A) (A) (A)
                 (A) (A) (A) (A) (A) (A) (A) (A) (A) (A) (A) (A)
                 (A) (A) (A) (A) (A) (A) (A) (A) (A) (A) (A) (A)
                 (A) (A) (A) (A) (A) (A) (A) (A) (A) (A) (A) (A)
                 (A) (A) (A) (A) (A) (A) (A) (A) (A) (A) (A) (A)
                 (A) (A) (A) (A) (A) (A) (A) (A) (A) (A) (A) (A)
                 (A) (A) (A) (A) (A) (A) (A) (A) (A) (A) (A) (A)
                 (A) (A) (A) (A) (A) (A) (A) (A) (A) (A) (A) (A)
                 (A) (A) (A) (A) (A) (A) (A) (A) (A) (A) (A) (A)
                 (A) (A) (A) (A) (A) (A) (A) (A) (A) (A) (A) (A)
                 (A) (A) (A) (A) (A) (A) (A) (A) (A) (A) (A) (A)
                 (A) (A) (A) (A) (A) (A) (A) (A) (A) (A) (A) (A)
                 (A) (A) (A) (A) (A) (A) (A) (A) (A) (A) (A) (A)
                 (A) (A) (A) (A) (A) (A) (A) (A) (A) (A) (A) (A)
                 (A) (A) (A) (A) (A) (A) (A) (A) (A) (A) (A) (A)
                 (A) (A) (A) (A) (A) (A) (A) (A) (A) (A) (A) (A)
                 (A) (A) (A) (A) (A) (A) (A) (A) (A) (A) (A) (A)
                 (A) (A) (A) (A) (A) (A) (A) (A) (A) (A) (A) (A)
                 (A) (A) (A) (A) (A) (A) (A) (A) (A) (A) (A) (A)
                 (A) (A) (A) (A) (A) (A) (A) (A) (A) (A) (A) (A)
                 (A) (A) (A) (A)
 The electronic state of the initial guess is 1-A.
 Requested convergence on RMS density matrix=1.00D-08 within 128 cycles.
 Requested convergence on MAX density matrix=1.00D-06.
 Requested convergence on             energy=1.00D-06.
 No special actions if energy rises.
 Error on total polarization charges =  0.01410
 SCF Done:  E(RmPW1PW91) =  -594.188521839     A.U. after   13 cycles
             Convg  =    0.6839D-08             -V/T =  2.0094
 Range of M.O.s used for correlation:     1   303
 NBasis=   303 NAE=    47 NBE=    47 NFC=     0 NFV=     0
 NROrb=    303 NOA=    47 NOB=    47 NVA=   256 NVB=   256

 **** Warning!!: The largest alpha MO coefficient is  0.96273132D+02

 NEqPCM:  Using equilibrium solvation (IEInf=0, Eps=  78.3553, EpsInf=   1.7778)
          Differentiating once with respect to magnetic field using GIAOs.
          Electric field/nuclear overlap derivatives assumed to be zero.
 FoFCou: FMM=F IPFlag=           0 FMFlag=    10101102 FMFlg1=           0
         NFxFlg=    40000000 DoJE=F BraDBF=F KetDBF=T FulRan=T
         Omega=  0.000000  0.000000  1.000000  0.000000  0.000000 ICntrl=    6100 IOpCl=  0
         NMat0=    1 NMatS0=    1 NMatT0=    0 NMatD0=    1 NMtDS0=    0 NMtDT0=    0
         I1Cent=           7 NGrid=        1782.
 Symmetry not used in FoFCou.
          There are     3 degrees of freedom in the 1st order CPHF.  IDoFFX=0.
      3 vectors produced by pass  0 Test12= 4.01D-13 3.33D-08 XBig12= 3.30D+01 9.07D-01.
 AX will form     3 AO Fock derivatives at one time.
      3 vectors produced by pass  1 Test12= 4.01D-13 3.33D-08 XBig12= 9.24D-02 5.01D-02.
      3 vectors produced by pass  2 Test12= 4.01D-13 3.33D-08 XBig12= 2.13D-04 3.27D-03.
      3 vectors produced by pass  3 Test12= 4.01D-13 3.33D-08 XBig12= 9.98D-07 2.09D-04.
      3 vectors produced by pass  4 Test12= 4.01D-13 3.33D-08 XBig12= 3.46D-09 1.43D-05.
      3 vectors produced by pass  5 Test12= 4.01D-13 3.33D-08 XBig12= 1.24D-11 7.24D-07.
      1 vectors produced by pass  6 Test12= 4.01D-13 3.33D-08 XBig12= 4.36D-14 4.59D-08.
 Inverted reduced A of dimension    19 with in-core refinement.
 Calculating GIAO nuclear magnetic shielding tensors.
 SCF GIAO Magnetic shielding tensor (ppm):
      1  C    Isotropic =   168.0386   Anisotropy =    23.6451
   XX=   175.9750   YX=     3.2536   ZX=     1.6537
   XY=    -5.5454   YY=   156.9208   ZY=   -16.6816
   XZ=    -3.5244   YZ=   -20.0956   ZZ=   171.2199
   Eigenvalues:   144.2722   176.0415   183.8020
      2  C    Isotropic =   127.2949   Anisotropy =    54.5110
   XX=   148.2313   YX=    18.8086   ZX=    -0.9462
   XY=    20.6360   YY=   136.9475   ZY=   -12.0883
   XZ=    -3.0589   YZ=    -2.3621   ZZ=    96.7058
   Eigenvalues:    95.4023   122.8467   163.6355
      3  N    Isotropic =   190.8811   Anisotropy =    96.7325
   XX=   248.5874   YX=     6.5494   ZX=   -15.4358
   XY=    23.1717   YY=   167.5075   ZY=   -22.3646
   XZ=   -13.8662   YZ=   -35.3246   ZZ=   156.5484
   Eigenvalues:   132.6374   184.6365   255.3695
      4  C    Isotropic =   146.2194   Anisotropy =    52.9928
   XX=   140.2955   YX=    -1.9991   ZX=    15.9158
   XY=     3.4466   YY=   143.7743   ZY=   -27.5152
   XZ=    22.4211   YZ=   -25.3757   ZZ=   154.5884
   Eigenvalues:   114.8879   142.2223   181.5479
      5  C    Isotropic =   167.7144   Anisotropy =    19.0541
   XX=   175.0825   YX=     8.1449   ZX=     2.6748
   XY=     8.2724   YY=   158.1792   ZY=   -11.9991
   XZ=     9.1967   YZ=   -18.5589   ZZ=   169.8814
   Eigenvalues:   144.3337   178.3923   180.4171
      6  C    Isotropic =   128.7237   Anisotropy =    45.3563
   XX=   152.4386   YX=   -14.0112   ZX=   -11.8627
   XY=    -9.9469   YY=   133.8994   ZY=     3.4961
   XZ=     4.8360   YZ=    10.0774   ZZ=    99.8332
   Eigenvalues:    98.5023   128.7075   158.9613
      7  C    Isotropic =   123.8727   Anisotropy =    31.2218
   XX=   109.8258   YX=     4.1986   ZX=     6.9460
   XY=     2.5857   YY=   118.1202   ZY=     5.6297
   XZ=    -6.4826   YZ=     4.6386   ZZ=   143.6722
   Eigenvalues:   108.5461   118.3848   144.6872
      8  C    Isotropic =   119.3115   Anisotropy =    43.7232
   XX=   134.9778   YX=    12.1430   ZX=     5.2573
   XY=    11.9681   YY=   117.4957   ZY=    24.5727
   XZ=     5.7169   YZ=    22.9858   ZZ=   105.4610
   Eigenvalues:    86.7387   122.7355   148.4603
      9  H    Isotropic =    29.8047   Anisotropy =    12.4716
   XX=    30.7137   YX=    -4.8983   ZX=    -3.8888
   XY=    -5.8314   YY=    29.1071   ZY=     2.9097
   XZ=    -4.0067   YZ=     2.8441   ZZ=    29.5934
   Eigenvalues:    24.4330    26.8620    38.1191
     10  H    Isotropic =    29.4301   Anisotropy =     9.0601
   XX=    34.3097   YX=     2.7008   ZX=    -0.1988
   XY=     2.5653   YY=    29.3715   ZY=    -0.0315
   XZ=    -0.7175   YZ=    -0.1998   ZZ=    24.6093
   Eigenvalues:    24.5877    28.2326    35.4702
     11  H    Isotropic =    27.9327   Anisotropy =     9.6014
   XX=    24.6839   YX=     0.4399   ZX=    -2.5285
   XY=    -0.3459   YY=    25.4719   ZY=    -0.3393
   XZ=    -2.6031   YZ=    -0.2055   ZZ=    33.6423
   Eigenvalues:    24.0006    25.4638    34.3336
     12  H    Isotropic =    28.9006   Anisotropy =    12.0055
   XX=    25.2990   YX=    -0.6710   ZX=     1.9451
   XY=     0.2913   YY=    36.8134   ZY=    -0.3992
   XZ=     2.4125   YZ=    -1.5749   ZZ=    24.5895
   Eigenvalues:    22.7084    27.0892    36.9043
     13  H    Isotropic =    28.6183   Anisotropy =     6.3382
   XX=    29.9666   YX=    -0.4039   ZX=    -1.0853
   XY=    -0.3906   YY=    27.3549   ZY=    -4.6469
   XZ=    -2.9925   YZ=    -3.8082   ZZ=    28.5336
   Eigenvalues:    23.2642    29.7470    32.8438
     14  H    Isotropic =    30.0446   Anisotropy =    12.4337
   XX=    30.1873   YX=    -3.7961   ZX=     3.0553
   XY=    -4.3119   YY=    30.6418   ZY=    -4.6840
   XZ=     3.9612   YZ=    -4.8875   ZZ=    29.3047
   Eigenvalues:    25.1410    26.6591    38.3337
     15  H    Isotropic =    29.8218   Anisotropy =     6.5164
   XX=    27.5256   YX=    -0.9131   ZX=     0.6972
   XY=    -0.9808   YY=    29.2264   ZY=     2.8011
   XZ=     1.1737   YZ=     2.5038   ZZ=    32.7136
   Eigenvalues:    26.3660    28.9334    34.1661
     16  H    Isotropic =    28.6157   Anisotropy =     8.3041
   XX=    30.4452   YX=    -0.6671   ZX=     3.2751
   XY=    -1.7655   YY=    24.9810   ZY=    -1.0630
   XZ=     3.9704   YZ=     0.8583   ZZ=    30.4208
   Eigenvalues:    24.6081    27.0872    34.1518
     17  H    Isotropic =    27.6385   Anisotropy =     8.3253
   XX=    27.2433   YX=    -3.4291   ZX=     1.2173
   XY=    -3.4347   YY=    29.3841   ZY=    -1.9015
   XZ=     2.6698   YZ=    -2.6148   ZZ=    26.2879
   Eigenvalues:    24.6087    25.1180    33.1886
     18  H    Isotropic =    27.2753   Anisotropy =     7.1557
   XX=    24.1629   YX=     0.5813   ZX=     2.4523
   XY=     0.7928   YY=    28.4318   ZY=    -2.5347
   XZ=    -0.1102   YZ=    -3.7965   ZZ=    29.2311
   Eigenvalues:    23.3997    26.3803    32.0457
     19  O    Isotropic =   309.6745   Anisotropy =    92.8653
   XX=   279.4219   YX=   -24.5186   ZX=    -8.1203
   XY=     3.6573   YY=   368.9687   ZY=    17.7107
   XZ=    -6.9741   YZ=     3.3559   ZZ=   280.6330
   Eigenvalues:   272.4527   284.9861   371.5847
     20  H    Isotropic =    30.0964   Anisotropy =    23.4015
   XX=    23.6072   YX=     1.0768   ZX=     2.3843
   XY=     1.9937   YY=    45.4581   ZY=     1.3839
   XZ=     1.9467   YZ=     1.9021   ZZ=    21.2238
   Eigenvalues:    19.9274    24.6643    45.6974
     21  O    Isotropic =   318.9712   Anisotropy =    41.0919
   XX=   339.5002   YX=    14.5310   ZX=    14.0558
   XY=     9.0675   YY=   319.3092   ZY=   -21.4483
   XZ=     8.6075   YZ=    10.8092   ZZ=   298.1041
   Eigenvalues:   292.5628   317.9849   346.3658
     22  H    Isotropic =    28.3077   Anisotropy =    17.7293
   XX=    36.4159   YX=     8.3283   ZX=     0.5909
   XY=     7.2296   YY=    21.7047   ZY=     3.3866
   XZ=     1.4714   YZ=     2.8004   ZZ=    26.8026
   Eigenvalues:    17.6891    27.1069    40.1272
     23  C    Isotropic =   134.6673   Anisotropy =    67.3902
   XX=   159.9783   YX=   -28.4530   ZX=     8.4507
   XY=   -27.4521   YY=   135.3646   ZY=    -6.2778
   XZ=     7.9465   YZ=    -4.8142   ZZ=   108.6589
   Eigenvalues:   107.2753   117.1324   179.5941
     24  H    Isotropic =    27.5248   Anisotropy =     5.4447
   XX=    29.6358   YX=    -0.9160   ZX=    -0.1071
   XY=     1.1625   YY=    30.9235   ZY=     1.7638
   XZ=     1.3356   YZ=     0.9408   ZZ=    22.0152
   Eigenvalues:    21.7702    29.6496    31.1546
     25  H    Isotropic =    27.1905   Anisotropy =     4.6287
   XX=    29.8859   YX=    -0.5906   ZX=     1.4391
   XY=    -1.0230   YY=    24.6859   ZY=    -2.9438
   XZ=    -0.6268   YZ=    -2.0691   ZZ=    26.9996
   Eigenvalues:    23.0506    28.2445    30.2763
     26  O    Isotropic =   316.0159   Anisotropy =    93.5105
   XX=   358.3948   YX=     4.1274   ZX=   -28.6859
   XY=    21.1859   YY=   283.3547   ZY=   -13.0962
   XZ=   -39.4137   YZ=   -13.4566   ZZ=   306.2982
   Eigenvalues:   277.1201   292.5714   378.3562
     27  H    Isotropic =    30.2213   Anisotropy =    21.2708
   XX=    39.6879   YX=     2.3192   ZX=    -9.2333
   XY=     0.1577   YY=    24.0972   ZY=    -3.5531
   XZ=    -7.9475   YZ=    -4.1526   ZZ=    26.8787
   Eigenvalues:    20.2147    26.0473    44.4018
 End of Minotr Frequency-dependent properties file   721 does not exist.
 End of Minotr Frequency-dependent properties file   722 does not exist.

 **********************************************************************

            Population analysis using the SCF density.

 **********************************************************************

 Orbital symmetries:
       Occupied  (A) (A) (A) (A) (A) (A) (A) (A) (A) (A) (A) (A)
                 (A) (A) (A) (A) (A) (A) (A) (A) (A) (A) (A) (A)
                 (A) (A) (A) (A) (A) (A) (A) (A) (A) (A) (A) (A)
                 (A) (A) (A) (A) (A) (A) (A) (A) (A) (A) (A)
       Virtual   (A) (A) (A) (A) (A) (A) (A) (A) (A) (A) (A) (A)
                 (A) (A) (A) (A) (A) (A) (A) (A) (A) (A) (A) (A)
                 (A) (A) (A) (A) (A) (A) (A) (A) (A) (A) (A) (A)
                 (A) (A) (A) (A) (A) (A) (A) (A) (A) (A) (A) (A)
                 (A) (A) (A) (A) (A) (A) (A) (A) (A) (A) (A) (A)
                 (A) (A) (A) (A) (A) (A) (A) (A) (A) (A) (A) (A)
                 (A) (A) (A) (A) (A) (A) (A) (A) (A) (A) (A) (A)
                 (A) (A) (A) (A) (A) (A) (A) (A) (A) (A) (A) (A)
                 (A) (A) (A) (A) (A) (A) (A) (A) (A) (A) (A) (A)
                 (A) (A) (A) (A) (A) (A) (A) (A) (A) (A) (A) (A)
                 (A) (A) (A) (A) (A) (A) (A) (A) (A) (A) (A) (A)
                 (A) (A) (A) (A) (A) (A) (A) (A) (A) (A) (A) (A)
                 (A) (A) (A) (A) (A) (A) (A) (A) (A) (A) (A) (A)
                 (A) (A) (A) (A) (A) (A) (A) (A) (A) (A) (A) (A)
                 (A) (A) (A) (A) (A) (A) (A) (A) (A) (A) (A) (A)
                 (A) (A) (A) (A) (A) (A) (A) (A) (A) (A) (A) (A)
                 (A) (A) (A) (A) (A) (A) (A) (A) (A) (A) (A) (A)
                 (A) (A) (A) (A) (A) (A) (A) (A) (A) (A) (A) (A)
                 (A) (A) (A) (A) (A) (A) (A) (A) (A) (A) (A) (A)
                 (A) (A) (A) (A) (A) (A) (A) (A) (A) (A) (A) (A)
                 (A) (A) (A) (A) (A) (A) (A) (A) (A) (A) (A) (A)
                 (A) (A) (A) (A)
 The electronic state is 1-A.
 Alpha  occ. eigenvalues --  -19.27178 -19.25622 -19.24668 -14.41014 -10.30689
 Alpha  occ. eigenvalues --  -10.29693 -10.29574 -10.27873 -10.27733 -10.26443
 Alpha  occ. eigenvalues --  -10.24311 -10.24010  -1.08279  -1.05754  -1.04367
 Alpha  occ. eigenvalues --   -0.95917  -0.82365  -0.78602  -0.75159  -0.71575
 Alpha  occ. eigenvalues --   -0.66648  -0.61782  -0.58643  -0.57330  -0.55447
 Alpha  occ. eigenvalues --   -0.54466  -0.52019  -0.50140  -0.48397  -0.47659
 Alpha  occ. eigenvalues --   -0.46630  -0.45252  -0.43161  -0.41102  -0.40281
 Alpha  occ. eigenvalues --   -0.39233  -0.38436  -0.36490  -0.35881  -0.34982
 Alpha  occ. eigenvalues --   -0.34722  -0.34462  -0.33243  -0.31078  -0.29698
 Alpha  occ. eigenvalues --   -0.28995  -0.22779
 Alpha virt. eigenvalues --   -0.00181   0.01292   0.01947   0.02022   0.03654
 Alpha virt. eigenvalues --    0.04250   0.04864   0.04983   0.05423   0.06861
 Alpha virt. eigenvalues --    0.07924   0.08507   0.08794   0.08911   0.10026
 Alpha virt. eigenvalues --    0.10464   0.11050   0.11996   0.12676   0.13013
 Alpha virt. eigenvalues --    0.13356   0.14346   0.14722   0.14950   0.15498
 Alpha virt. eigenvalues --    0.16322   0.17136   0.17585   0.17630   0.18083
 Alpha virt. eigenvalues --    0.19081   0.19551   0.20126   0.20264   0.21151
 Alpha virt. eigenvalues --    0.21521   0.21718   0.22535   0.22841   0.23162
 Alpha virt. eigenvalues --    0.23721   0.24667   0.24980   0.25222   0.25770
 Alpha virt. eigenvalues --    0.26431   0.26864   0.27329   0.27880   0.29463
 Alpha virt. eigenvalues --    0.29676   0.30344   0.30734   0.31275   0.31466
 Alpha virt. eigenvalues --    0.32367   0.32771   0.33978   0.34353   0.35004
 Alpha virt. eigenvalues --    0.36444   0.37356   0.38075   0.38764   0.39113
 Alpha virt. eigenvalues --    0.39502   0.40077   0.41400   0.41890   0.42660
 Alpha virt. eigenvalues --    0.43207   0.44150   0.44861   0.46653   0.48738
 Alpha virt. eigenvalues --    0.49965   0.66078   0.66341   0.66768   0.68934
 Alpha virt. eigenvalues --    0.69647   0.70393   0.72679   0.73410   0.74647
 Alpha virt. eigenvalues --    0.76535   0.78419   0.78612   0.81626   0.82698
 Alpha virt. eigenvalues --    0.84030   0.84681   0.86909   0.87355   0.88650
 Alpha virt. eigenvalues --    0.89322   0.92283   0.93561   0.95455   0.97131
 Alpha virt. eigenvalues --    0.98720   0.99836   1.02598   1.03882   1.04972
 Alpha virt. eigenvalues --    1.06157   1.06963   1.07531   1.09106   1.09700
 Alpha virt. eigenvalues --    1.10013   1.13311   1.14636   1.15688   1.16582
 Alpha virt. eigenvalues --    1.17794   1.19896   1.20663   1.23559   1.24909
 Alpha virt. eigenvalues --    1.26600   1.28617   1.30086   1.32075   1.33690
 Alpha virt. eigenvalues --    1.33797   1.35353   1.37274   1.39979   1.41006
 Alpha virt. eigenvalues --    1.43170   1.46330   1.49433   1.50186   1.52121
 Alpha virt. eigenvalues --    1.56943   1.58138   1.59789   1.60860   1.61937
 Alpha virt. eigenvalues --    1.63548   1.64448   1.65143   1.68801   1.70235
 Alpha virt. eigenvalues --    1.72240   1.74023   1.76783   1.78562   1.79719
 Alpha virt. eigenvalues --    1.81176   1.83142   1.84862   1.85786   1.86473
 Alpha virt. eigenvalues --    1.88684   1.90136   1.91141   1.93560   1.95321
 Alpha virt. eigenvalues --    1.97791   1.99275   2.00511   2.03364   2.03743
 Alpha virt. eigenvalues --    2.04784   2.05272   2.06936   2.09585   2.11223
 Alpha virt. eigenvalues --    2.11797   2.15020   2.17752   2.18949   2.19494
 Alpha virt. eigenvalues --    2.21353   2.22072   2.24583   2.27195   2.30430
 Alpha virt. eigenvalues --    2.32000   2.34995   2.36932   2.38795   2.40346
 Alpha virt. eigenvalues --    2.42866   2.43596   2.44615   2.48197   2.49184
 Alpha virt. eigenvalues --    2.50808   2.52978   2.54032   2.54698   2.55717
 Alpha virt. eigenvalues --    2.57425   2.60284   2.61737   2.61935   2.64546
 Alpha virt. eigenvalues --    2.64726   2.66513   2.67641   2.68094   2.69296
 Alpha virt. eigenvalues --    2.70946   2.73494   2.74736   2.75302   2.77265
 Alpha virt. eigenvalues --    2.79596   2.81424   2.82995   2.83687   2.84631
 Alpha virt. eigenvalues --    2.87630   2.87918   2.90876   2.91325   2.94979
 Alpha virt. eigenvalues --    2.96514   2.98548   2.99822   3.02541   3.04340
 Alpha virt. eigenvalues --    3.06766   3.09988   3.13942   3.16532   3.33458
 Alpha virt. eigenvalues --    3.36290   3.37327   3.40624   3.42520   3.44797
 Alpha virt. eigenvalues --    3.46499   3.51686   3.54456   3.54572   3.56056
 Alpha virt. eigenvalues --    3.56303   3.56969   3.60311   3.61339   4.28530
 Alpha virt. eigenvalues --    4.37753   4.40561   4.45563   4.55919   4.59007
 Alpha virt. eigenvalues --    4.61088   4.69775   4.78749   4.82063   4.94012
 Alpha virt. eigenvalues --    5.02902
          Condensed to atoms (all electrons):
              1          2          3          4          5          6
     1  C    6.354323  -0.306323  -0.119059   0.019382  -0.012883   0.512601
     2  C   -0.306323   7.615922  -0.287837  -0.018318  -0.164949  -0.481098
     3  N   -0.119059  -0.287837   7.622886   0.198660  -0.098864  -0.959676
     4  C    0.019382  -0.018318   0.198660   5.740316  -0.024426  -0.564834
     5  C   -0.012883  -0.164949  -0.098864  -0.024426   5.673706   0.120834
     6  C    0.512601  -0.481098  -0.959676  -0.564834   0.120834  13.727250
     7  C   -0.106144   0.555700   0.096594   0.352888  -0.243236  -3.003527
     8  C   -0.358590  -0.542871   0.155347  -0.140033   0.278863  -0.105474
     9  H    0.376023  -0.038749   0.006671  -0.002515  -0.030074   0.002930
    10  H    0.423621  -0.098593   0.010700   0.028320  -0.041112   0.003689
    11  H   -0.002183   0.225540  -0.010713  -0.003304   0.023007   0.003635
    12  H   -0.008660  -0.032030  -0.028209   0.393865  -0.024547  -0.013040
    13  H    0.043486   0.008956  -0.072758   0.386852  -0.037666   0.067296
    14  H   -0.002637   0.004602   0.015086  -0.013624   0.335261  -0.007410
    15  H   -0.085214   0.010894   0.019652  -0.075029   0.451098  -0.012239
    16  H   -0.005922  -0.018311   0.018830   0.022279  -0.003388   0.056603
    17  H   -0.009438   0.011576   0.040580   0.002646   0.001805  -0.252035
    18  H    0.010181  -0.013353   0.017101   0.003837  -0.007616  -0.049649
    19  O    0.029187  -0.247758   0.037840   0.002449  -0.014557   0.127119
    20  H   -0.001704   0.034657  -0.003190  -0.000447  -0.000623   0.005395
    21  O   -0.058690   0.067254   0.132794   0.029360   0.013417  -0.634815
    22  H    0.008159   0.001632  -0.009605  -0.006294  -0.003562   0.083316
    23  C   -0.215055  -0.287624   0.323194  -0.123969   0.102424  -2.193804
    24  H   -0.004011  -0.002559  -0.004947  -0.004028   0.006889  -0.078347
    25  H    0.001049   0.009234   0.016574   0.009640  -0.009531  -0.153312
    26  O   -0.004723   0.010564   0.026232   0.005007   0.003178  -0.030951
    27  H   -0.000074  -0.001781  -0.001068  -0.000476   0.000311   0.018684
              7          8          9         10         11         12
     1  C   -0.106144  -0.358590   0.376023   0.423621  -0.002183  -0.008660
     2  C    0.555700  -0.542871  -0.038749  -0.098593   0.225540  -0.032030
     3  N    0.096594   0.155347   0.006671   0.010700  -0.010713  -0.028209
     4  C    0.352888  -0.140033  -0.002515   0.028320  -0.003304   0.393865
     5  C   -0.243236   0.278863  -0.030074  -0.041112   0.023007  -0.024547
     6  C   -3.003527  -0.105474   0.002930   0.003689   0.003635  -0.013040
     7  C    7.906576  -0.503929  -0.009633  -0.009418   0.005147  -0.010757
     8  C   -0.503929   6.459334   0.023976   0.021489   0.022781   0.015831
     9  H   -0.009633   0.023976   0.527649  -0.024526  -0.006742   0.001180
    10  H   -0.009418   0.021489  -0.024526   0.505898   0.001365  -0.000092
    11  H    0.005147   0.022781  -0.006742   0.001365   0.563144   0.000393
    12  H   -0.010757   0.015831   0.001180  -0.000092   0.000393   0.567846
    13  H   -0.000024  -0.019054  -0.000113  -0.000133  -0.000219  -0.037404
    14  H    0.004631  -0.001600  -0.005207   0.000479  -0.000092  -0.004357
    15  H   -0.000503   0.015634   0.004188  -0.005250  -0.000031   0.004295
    16  H    0.056247  -0.003263   0.000006  -0.000001   0.002483   0.000123
    17  H    0.497260   0.009597   0.000003  -0.000005  -0.000042   0.000009
    18  H    0.068673   0.283932  -0.000056   0.000038  -0.008183   0.000003
    19  O   -0.143045   0.253664  -0.000087  -0.001006   0.009659   0.000294
    20  H   -0.060388   0.039182  -0.000001  -0.000091  -0.000223   0.000000
    21  O    0.455268  -0.038000   0.000208   0.000114  -0.000072   0.001224
    22  H   -0.027802  -0.068707  -0.000002  -0.000001  -0.000069  -0.000015
    23  C   -0.030839   0.267659  -0.000303  -0.000464   0.008288   0.019247
    24  H   -0.010710   0.005774  -0.000001   0.000000  -0.000014  -0.000476
    25  H    0.044494  -0.007615   0.000000   0.000000   0.000000   0.000199
    26  O    0.029757   0.031149   0.000000  -0.000002   0.000054  -0.000038
    27  H   -0.013912  -0.001283   0.000000   0.000000   0.000000   0.000000
             13         14         15         16         17         18
     1  C    0.043486  -0.002637  -0.085214  -0.005922  -0.009438   0.010181
     2  C    0.008956   0.004602   0.010894  -0.018311   0.011576  -0.013353
     3  N   -0.072758   0.015086   0.019652   0.018830   0.040580   0.017101
     4  C    0.386852  -0.013624  -0.075029   0.022279   0.002646   0.003837
     5  C   -0.037666   0.335261   0.451098  -0.003388   0.001805  -0.007616
     6  C    0.067296  -0.007410  -0.012239   0.056603  -0.252035  -0.049649
     7  C   -0.000024   0.004631  -0.000503   0.056247   0.497260   0.068673
     8  C   -0.019054  -0.001600   0.015634  -0.003263   0.009597   0.283932
     9  H   -0.000113  -0.005207   0.004188   0.000006   0.000003  -0.000056
    10  H   -0.000133   0.000479  -0.005250  -0.000001  -0.000005   0.000038
    11  H   -0.000219  -0.000092  -0.000031   0.002483  -0.000042  -0.008183
    12  H   -0.037404  -0.004357   0.004295   0.000123   0.000009   0.000003
    13  H    0.548122   0.001493  -0.007359  -0.000171  -0.000099   0.000011
    14  H    0.001493   0.525838  -0.024417   0.000004   0.000000   0.000004
    15  H   -0.007359  -0.024417   0.520067   0.000013   0.000037   0.000020
    16  H   -0.000171   0.000004   0.000013   0.563320   0.001423   0.000763
    17  H   -0.000099   0.000000   0.000037   0.001423   0.568967  -0.004314
    18  H    0.000011   0.000004   0.000020   0.000763  -0.004314   0.546857
    19  O    0.000222   0.000483   0.001529  -0.000576  -0.008501  -0.031256
    20  H   -0.000001  -0.000001   0.000050   0.000002   0.001507  -0.009366
    21  O   -0.004932   0.000417   0.002489   0.011562  -0.050324   0.003528
    22  H    0.000186   0.000014   0.000219  -0.000279   0.002190   0.001343
    23  C   -0.031317   0.002332   0.004479   0.119463   0.021282   0.010576
    24  H   -0.000302  -0.000001  -0.000003  -0.006341  -0.000035   0.000004
    25  H    0.000607   0.000002   0.000055   0.005052   0.000409  -0.000004
    26  O    0.000210   0.000000  -0.000016   0.007964   0.006348   0.000055
    27  H    0.000004   0.000000   0.000000   0.000126  -0.000021   0.000000
             19         20         21         22         23         24
     1  C    0.029187  -0.001704  -0.058690   0.008159  -0.215055  -0.004011
     2  C   -0.247758   0.034657   0.067254   0.001632  -0.287624  -0.002559
     3  N    0.037840  -0.003190   0.132794  -0.009605   0.323194  -0.004947
     4  C    0.002449  -0.000447   0.029360  -0.006294  -0.123969  -0.004028
     5  C   -0.014557  -0.000623   0.013417  -0.003562   0.102424   0.006889
     6  C    0.127119   0.005395  -0.634815   0.083316  -2.193804  -0.078347
     7  C   -0.143045  -0.060388   0.455268  -0.027802  -0.030839  -0.010710
     8  C    0.253664   0.039182  -0.038000  -0.068707   0.267659   0.005774
     9  H   -0.000087  -0.000001   0.000208  -0.000002  -0.000303  -0.000001
    10  H   -0.001006  -0.000091   0.000114  -0.000001  -0.000464   0.000000
    11  H    0.009659  -0.000223  -0.000072  -0.000069   0.008288  -0.000014
    12  H    0.000294   0.000000   0.001224  -0.000015   0.019247  -0.000476
    13  H    0.000222  -0.000001  -0.004932   0.000186  -0.031317  -0.000302
    14  H    0.000483  -0.000001   0.000417   0.000014   0.002332  -0.000001
    15  H    0.001529   0.000050   0.002489   0.000219   0.004479  -0.000003
    16  H   -0.000576   0.000002   0.011562  -0.000279   0.119463  -0.006341
    17  H   -0.008501   0.001507  -0.050324   0.002190   0.021282  -0.000035
    18  H   -0.031256  -0.009366   0.003528   0.001343   0.010576   0.000004
    19  O    8.394826   0.236180  -0.033462   0.047358  -0.020757   0.000023
    20  H    0.236180   0.348052   0.002396  -0.004204  -0.001312   0.000000
    21  O   -0.033462   0.002396   8.319536   0.238505   0.115030  -0.000248
    22  H    0.047358  -0.004204   0.238505   0.355843  -0.010455  -0.000005
    23  C   -0.020757  -0.001312   0.115030  -0.010455   7.092135   0.464827
    24  H    0.000023   0.000000  -0.000248  -0.000005   0.464827   0.566885
    25  H   -0.000123   0.000001   0.008549  -0.000166   0.441902  -0.048230
    26  O   -0.000517  -0.000008   0.014389  -0.000402  -0.015006  -0.047799
    27  H   -0.000006   0.000000  -0.000039   0.000001   0.013617  -0.002724
             25         26         27
     1  C    0.001049  -0.004723  -0.000074
     2  C    0.009234   0.010564  -0.001781
     3  N    0.016574   0.026232  -0.001068
     4  C    0.009640   0.005007  -0.000476
     5  C   -0.009531   0.003178   0.000311
     6  C   -0.153312  -0.030951   0.018684
     7  C    0.044494   0.029757  -0.013912
     8  C   -0.007615   0.031149  -0.001283
     9  H    0.000000   0.000000   0.000000
    10  H    0.000000  -0.000002   0.000000
    11  H    0.000000   0.000054   0.000000
    12  H    0.000199  -0.000038   0.000000
    13  H    0.000607   0.000210   0.000004
    14  H    0.000002   0.000000   0.000000
    15  H    0.000055  -0.000016   0.000000
    16  H    0.005052   0.007964   0.000126
    17  H    0.000409   0.006348  -0.000021
    18  H   -0.000004   0.000055   0.000000
    19  O   -0.000123  -0.000517  -0.000006
    20  H    0.000001  -0.000008   0.000000
    21  O    0.008549   0.014389  -0.000039
    22  H   -0.000166  -0.000402   0.000001
    23  C    0.441902  -0.015006   0.013617
    24  H   -0.048230  -0.047799  -0.002724
    25  H    0.565635  -0.042873  -0.006521
    26  O   -0.042873   8.355701   0.227170
    27  H   -0.006521   0.227170   0.380323
 Mulliken atomic charges:
              1
     1  C   -0.476704
     2  C   -0.014377
     3  N   -0.142815
     4  C   -0.218206
     5  C   -0.293759
     6  C   -0.189143
     7  C    0.100633
     8  C   -0.093796
     9  H    0.175173
    10  H    0.184980
    11  H    0.166390
    12  H    0.155119
    13  H    0.154106
    14  H    0.168700
    15  H    0.175345
    16  H    0.171990
    17  H    0.159175
    18  H    0.176869
    19  O   -0.639178
    20  H    0.414139
    21  O   -0.595458
    22  H    0.392798
    23  C   -0.075554
    24  H    0.166378
    25  H    0.164970
    26  O   -0.575444
    27  H    0.387670
 Sum of Mulliken atomic charges =   0.00000
 Mulliken charges with hydrogens summed into heavy atoms:
              1
     1  C   -0.116551
     2  C    0.152013
     3  N   -0.142815
     4  C    0.091018
     5  C    0.050286
     6  C   -0.017153
     7  C    0.259808
     8  C    0.083073
    19  O   -0.225039
    21  O   -0.202660
    23  C    0.255794
    26  O   -0.187774
 Sum of Mulliken charges with hydrogens summed into heavy atoms =   0.00000
 Electronic spatial extent (au):  <R**2>=           1943.4992
 Charge=              0.0000 electrons
 Dipole moment (field-independent basis, Debye):
    X=              0.9825    Y=              1.2265    Z=              0.0118  Tot=              1.5716
 Quadrupole moment (field-independent basis, Debye-Ang):
   XX=            -71.0399   YY=            -64.3514   ZZ=            -75.2545
   XY=              6.5746   XZ=             -4.3419   YZ=             -5.0790
 Traceless Quadrupole moment (field-independent basis, Debye-Ang):
   XX=             -0.8247   YY=              5.8639   ZZ=             -5.0392
   XY=              6.5746   XZ=             -4.3419   YZ=             -5.0790
 Octapole moment (field-independent basis, Debye-Ang**2):
  XXX=            -41.4259  YYY=             45.0732  ZZZ=              1.2398  XYY=             10.9252
  XXY=            -18.7659  XXZ=             21.4760  XZZ=              3.6828  YZZ=              7.2329
  YYZ=              5.0158  XYZ=              4.2635
 Hexadecapole moment (field-independent basis, Debye-Ang**3):
 XXXX=          -1247.0474 YYYY=           -610.3541 ZZZZ=           -355.8251 XXXY=             61.4575
 XXXZ=            -99.6104 YYYX=             54.6901 YYYZ=              1.9159 ZZZX=              1.8375
 ZZZY=             -2.8457 XXYY=           -341.7554 XXZZ=           -294.9813 YYZZ=           -183.0979
 XXYZ=             -2.4157 YYXZ=              6.0162 ZZXY=             12.6140
 N-N= 8.182619698538D+02 E-N=-3.023015659057D+03  KE= 5.886563755007D+02
 1\1\GINC-COMPUTE-3-0\SP\RmPW1PW91\6-31+G(d,p)\C8H15N1O3\MAMICHETTI.IQU
 IR\17-May-2024\0\\# mpw1pw91/6-31+G** nmr scrf=(pcm,solvent=water)\\co
 mment\\0,1\C,0,2.395876,-0.743146,-0.361495\C,0,1.181433,-0.136862,-1.
 07384\N,0,0.03393,-1.032336,-0.730153\C,0,0.429185,-1.838981,0.46679\C
 ,0,1.798253,-1.321236,0.928342\C,0,-1.132929,-0.131756,-0.603839\C,0,-
 0.619629,1.181824,0.001763\C,0,0.775384,1.319782,-0.66217\H,0,2.809199
 ,-1.547364,-0.981752\H,0,3.189128,-0.012178,-0.189004\H,0,1.333509,-0.
 136028,-2.158623\H,0,0.509339,-2.89303,0.169434\H,0,-0.319219,-1.79215
 7,1.26016\H,0,2.414348,-2.110726,1.370797\H,0,1.675551,-0.528841,1.673
 474\H,0,-1.451539,0.113046,-1.628672\H,0,-1.272292,2.029377,-0.244856\
 H,0,0.694319,1.942028,-1.558507\O,0,1.722129,1.912639,0.235898\H,0,1.5
 78702,2.874256,0.212885\O,0,-0.479115,1.084456,1.419482\H,0,0.399761,1
 .474824,1.603764\C,0,-2.351448,-0.741121,0.076725\H,0,-2.538316,-1.744
 434,-0.332255\H,0,-2.201176,-0.838036,1.157282\O,0,-3.458679,0.130898,
 -0.187549\H,0,-4.190251,-0.159359,0.380645\\Version=AM64L-G09RevC.01\S
 tate=1-A\HF=-594.1885218\RMSD=6.839e-09\Dipole=0.3865515,0.4825465,0.0
 046605\Quadrupole=-0.6131114,4.3596364,-3.746525,4.8880484,-3.228087,-
 3.7760853\PG=C01 [X(C8H15N1O3)]\\@


 It takes a long time to grow an old friend.
                            -- John Leonard
 Job cpu time:  0 days  0 hours  9 minutes  4.9 seconds.
 File lengths (MBytes):  RWF=    110 Int=      0 D2E=      0 Chk=      7 Scr=      1
 Normal termination of Gaussian 09 at Fri May 17 12:54:59 2024.
