 Entering Gaussian System, Link 0=g09
 Input=/home/mamichetti.iquir/Linux/04_Cardona_A1A3_R__S_R_S_007_OptB.gjc
 Output=/home/mamichetti.iquir/Linux/04_Cardona_A1A3_R__S_R_S_007_OptB.log
 Initial command:
 /opt/ohpc/pub/apps/software/Gaussian/09/AMD64.SSE4a-enabled/g09/l1.exe /local/mamichetti.iquir/Gau-409394.inp -scrdir=/local/mamichetti.iquir/
 Entering Link 1 = /opt/ohpc/pub/apps/software/Gaussian/09/AMD64.SSE4a-enabled/g09/l1.exe PID=    409395.
  
 Copyright (c) 1988,1990,1992,1993,1995,1998,2003,2009,2011,
            Gaussian, Inc.  All Rights Reserved.
  
 This is part of the Gaussian(R) 09 program.  It is based on
 the Gaussian(R) 03 system (copyright 2003, Gaussian, Inc.),
 the Gaussian(R) 98 system (copyright 1998, Gaussian, Inc.),
 the Gaussian(R) 94 system (copyright 1995, Gaussian, Inc.),
 the Gaussian 92(TM) system (copyright 1992, Gaussian, Inc.),
 the Gaussian 90(TM) system (copyright 1990, Gaussian, Inc.),
 the Gaussian 88(TM) system (copyright 1988, Gaussian, Inc.),
 the Gaussian 86(TM) system (copyright 1986, Carnegie Mellon
 University), and the Gaussian 82(TM) system (copyright 1983,
 Carnegie Mellon University). Gaussian is a federally registered
 trademark of Gaussian, Inc.
  
 This software contains proprietary and confidential information,
 including trade secrets, belonging to Gaussian, Inc.
  
 This software is provided under written license and may be
 used, copied, transmitted, or stored only in accord with that
 written license.
  
 The following legend is applicable only to US Government
 contracts under FAR:
  
                    RESTRICTED RIGHTS LEGEND
  
 Use, reproduction and disclosure by the US Government is
 subject to restrictions as set forth in subparagraphs (a)
 and (c) of the Commercial Computer Software - Restricted
 Rights clause in FAR 52.227-19.
  
 Gaussian, Inc.
 340 Quinnipiac St., Bldg. 40, Wallingford CT 06492
  
  
 ---------------------------------------------------------------
 Warning -- This program may not be used in any manner that
 competes with the business of Gaussian, Inc. or will provide
 assistance to any competitor of Gaussian, Inc.  The licensee
 of this program is prohibited from giving any competitor of
 Gaussian, Inc. access to this program.  By using this program,
 the user acknowledges that Gaussian, Inc. is engaged in the
 business of creating and licensing software in the field of
 computational chemistry and represents and warrants to the
 licensee that it is not a competitor of Gaussian, Inc. and that
 it will not use this program in any manner prohibited above.
 ---------------------------------------------------------------
  

 Cite this work as:
 Gaussian 09, Revision C.01,
 M. J. Frisch, G. W. Trucks, H. B. Schlegel, G. E. Scuseria, 
 M. A. Robb, J. R. Cheeseman, G. Scalmani, V. Barone, B. Mennucci, 
 G. A. Petersson, H. Nakatsuji, M. Caricato, X. Li, H. P. Hratchian, 
 A. F. Izmaylov, J. Bloino, G. Zheng, J. L. Sonnenberg, M. Hada, 
 M. Ehara, K. Toyota, R. Fukuda, J. Hasegawa, M. Ishida, T. Nakajima, 
 Y. Honda, O. Kitao, H. Nakai, T. Vreven, J. A. Montgomery, Jr., 
 J. E. Peralta, F. Ogliaro, M. Bearpark, J. J. Heyd, E. Brothers, 
 K. N. Kudin, V. N. Staroverov, T. Keith, R. Kobayashi, J. Normand, 
 K. Raghavachari, A. Rendell, J. C. Burant, S. S. Iyengar, J. Tomasi, 
 M. Cossi, N. Rega, J. M. Millam, M. Klene, J. E. Knox, J. B. Cross, 
 V. Bakken, C. Adamo, J. Jaramillo, R. Gomperts, R. E. Stratmann, 
 O. Yazyev, A. J. Austin, R. Cammi, C. Pomelli, J. W. Ochterski, 
 R. L. Martin, K. Morokuma, V. G. Zakrzewski, G. A. Voth, 
 P. Salvador, J. J. Dannenberg, S. Dapprich, A. D. Daniels, 
 O. Farkas, J. B. Foresman, J. V. Ortiz, J. Cioslowski, 
 and D. J. Fox, Gaussian, Inc., Wallingford CT, 2010.
 
 ******************************************
 Gaussian 09:  AM64L-G09RevC.01 23-Sep-2011
                17-May-2024 
 ******************************************
 %nprocshared=4
 Will use up to    4 processors via shared memory.
 ------------------------------------------------
 # mpw1pw91/6-31+G** nmr scrf=(pcm,solvent=water)
 ------------------------------------------------
 1/38=1/1;
 2/12=2,17=6,18=5,40=1/2;
 3/5=1,6=6,7=111,11=2,16=1,25=1,30=1,70=2201,72=1,74=-7/1,2,8,3;
 4//1;
 5/5=2,38=5,53=1/2;
 8/6=1,10=90,11=11/1;
 10/13=100,45=16/2;
 6/7=2,8=2,9=2,10=2,28=1/1;
 99/9=1/99;
 -------
 comment
 -------
 Charge =  0 Multiplicity = 1
 Symbolic Z-Matrix:
 6                    -2.4784   -0.66439   0.3314 
 6                    -1.25614  -0.77473  -0.59288 
 7                    -0.76042   0.62688  -0.79015 
 6                    -1.56138   1.52938   0.06013 
 6                    -2.90521   0.80523   0.17461 
 6                     0.7149    0.65723  -0.71232 
 6                     1.11295  -0.84719  -0.8064 
 6                    -0.04937  -1.59109  -0.12719 
 1                    -3.26683  -1.37428   0.06425 
 1                    -2.18714  -0.8551    1.36885 
 1                    -1.56048  -1.18363  -1.56681 
 1                    -1.65361   2.52335  -0.39418 
 1                    -1.1408    1.66797   1.06705 
 1                    -3.49133   0.94151  -0.74211 
 1                    -3.50285   1.17094   1.0154 
 1                     1.12472   1.18464  -1.58742 
 1                     1.14217  -1.13723  -1.86494 
 1                    -0.1123   -2.63669  -0.4582 
 8                     0.12371  -1.54296   1.29113 
 1                     1.09368  -1.57583   1.41176 
 8                     2.34983  -1.19684  -0.18589 
 1                     2.80233  -0.35468   0.04711 
 6                     1.30656   1.37545   0.51561 
 1                     0.93982   2.40608   0.57079 
 1                     1.05473   0.86398   1.44587 
 8                     2.74858   1.38486   0.45101 
 1                     3.00047   1.87093  -0.35412 
 
                          Input orientation:                          
 ---------------------------------------------------------------------
 Center     Atomic      Atomic             Coordinates (Angstroms)
 Number     Number       Type             X           Y           Z
 ---------------------------------------------------------------------
      1          6           0       -2.478401   -0.664385    0.331395
      2          6           0       -1.256139   -0.774727   -0.592884
      3          7           0       -0.760422    0.626880   -0.790145
      4          6           0       -1.561383    1.529378    0.060132
      5          6           0       -2.905213    0.805231    0.174612
      6          6           0        0.714899    0.657228   -0.712318
      7          6           0        1.112947   -0.847189   -0.806395
      8          6           0       -0.049371   -1.591085   -0.127189
      9          1           0       -3.266828   -1.374278    0.064245
     10          1           0       -2.187139   -0.855098    1.368850
     11          1           0       -1.560480   -1.183629   -1.566813
     12          1           0       -1.653614    2.523350   -0.394175
     13          1           0       -1.140803    1.667966    1.067049
     14          1           0       -3.491328    0.941505   -0.742105
     15          1           0       -3.502849    1.170939    1.015401
     16          1           0        1.124720    1.184644   -1.587420
     17          1           0        1.142174   -1.137229   -1.864941
     18          1           0       -0.112303   -2.636694   -0.458202
     19          8           0        0.123714   -1.542963    1.291128
     20          1           0        1.093680   -1.575828    1.411756
     21          8           0        2.349827   -1.196839   -0.185893
     22          1           0        2.802329   -0.354675    0.047108
     23          6           0        1.306560    1.375449    0.515606
     24          1           0        0.939815    2.406077    0.570786
     25          1           0        1.054732    0.863981    1.445873
     26          8           0        2.748581    1.384862    0.451011
     27          1           0        3.000472    1.870931   -0.354120
 ---------------------------------------------------------------------
                    Distance matrix (angstroms):
                    1          2          3          4          5
     1  C    0.000000
     2  C    1.536357   0.000000
     3  N    2.424184   1.499716   0.000000
     4  C    2.393136   2.414229   1.476148   0.000000
     5  C    1.538350   2.409307   2.358536   1.530808   0.000000
     6  C    3.610147   2.439211   1.477684   2.557105   3.730115
     7  C    3.771706   2.379791   2.383832   3.681166   4.454040
     8  C    2.639935   1.529576   2.421667   3.472544   3.740220
     9  H    1.094045   2.198670   3.319139   3.367459   2.212059
    10  H    1.094312   2.172929   2.982120   2.791064   2.167609
    11  H    2.171494   1.099255   2.126323   3.163441   2.965878
    12  H    3.371703   3.327880   2.133350   1.096760   2.200444
    13  H    2.787511   2.955576   2.162804   1.099989   2.157290
    14  H    2.181125   2.822019   2.749390   2.171144   1.096573
    15  H    2.210378   3.379335   3.328198   2.193241   1.094458
    16  H    4.481433   3.239865   2.121440   3.169924   4.414643
    17  H    4.260990   2.738876   2.808405   4.257455   4.930950
    18  H    3.179919   2.189388   3.343824   4.441245   4.477460
    19  O    2.909294   2.458390   3.133945   3.714052   3.991869
    20  H    3.841571   3.190924   3.624636   4.303319   4.815715
    21  O    4.884965   3.653329   3.655779   4.773924   5.635042
    22  H    5.297438   4.130036   3.789147   4.753084   5.825605
    23  C    4.303578   3.524122   2.556904   2.907963   4.263855
    24  H    4.601005   4.036565   2.812202   2.699141   4.183766
    25  H    4.007617   3.490275   2.889771   3.034319   4.159413
    26  O    5.615609   4.668118   3.798435   4.330065   5.690145
    27  H    6.075838   5.017495   3.985236   4.593341   6.024317
                    6          7          8          9         10
     6  C    0.000000
     7  C    1.559026   0.000000
     8  C    2.445689   1.538078   0.000000
     9  H    4.536983   4.496473   3.230431   0.000000
    10  H    3.878172   3.952508   2.711063   1.771234   0.000000
    11  H    3.048978   2.799757   2.126497   2.368189   3.019727
    12  H    3.032075   4.379991   4.424189   4.243125   3.847963
    13  H    2.762493   3.862018   3.638522   3.844587   2.748046
    14  H    4.215928   4.939930   4.317314   2.462408   3.063466
    15  H    4.586754   5.356991   4.567362   2.727367   2.441484
    16  H    1.100874   2.176806   3.348945   5.344322   4.885539
    17  H    2.175127   1.097951   2.155353   4.818428   4.649874
    18  H    3.405695   2.196544   1.098557   3.437684   3.288943
    19  O    3.033832   2.421216   1.429649   3.609636   2.412310
    20  H    3.105109   2.334840   1.917068   4.568417   3.359325
    21  O    2.527385   1.427288   2.432083   5.625022   4.808126
    22  H    2.440910   1.955773   3.113082   6.154230   5.185771
    23  C    1.540682   2.593317   3.324464   5.355427   4.231938
    24  H    2.180692   3.536996   4.176477   5.678337   4.588029
    25  H    2.194544   2.829170   3.117838   5.059109   3.670271
    26  O    2.453293   3.039477   4.125423   6.629298   5.497379
    27  H    2.612513   3.339982   4.619372   7.070040   6.108287
                   11         12         13         14         15
    11  H    0.000000
    12  H    3.889145   0.000000
    13  H    3.904478   1.769133   0.000000
    14  H    2.987392   2.449588   3.053809   0.000000
    15  H    3.998077   2.689905   2.414325   1.772456   0.000000
    16  H    3.580425   3.306827   3.523124   4.699103   5.309356
    17  H    2.719443   4.835227   4.655928   5.201080   5.932980
    18  H    2.331873   5.385703   4.681271   4.929698   5.307106
    19  O    3.336684   4.747004   3.458219   4.834785   4.537978
    20  H    4.008773   5.254738   3.953977   5.656711   5.369349
    21  O    4.147001   5.469070   4.686307   6.245076   6.426764
    22  H    4.725041   5.322893   4.547488   6.474030   6.558991
    23  C    4.370957   3.302727   2.525716   4.978943   4.839632
    24  H    4.868962   2.769617   2.262754   4.848060   4.632549
    25  H    4.484230   3.670752   2.368602   5.045782   4.588145
    26  O    5.407103   4.624912   3.948032   6.368403   6.280500
    27  H    5.621676   4.699763   4.383044   6.569462   6.682721
                   16         17         18         19         20
    16  H    0.000000
    17  H    2.338465   0.000000
    18  H    4.172288   2.408531   0.000000
    19  O    4.089975   3.341056   2.076561   0.000000
    20  H    4.076301   3.306276   2.465071   0.977990   0.000000
    21  O    3.022685   2.069102   2.865208   2.693877   2.067370
    22  H    2.802777   2.650365   3.736045   3.183487   2.504588
    23  C    2.119479   3.465195   4.365635   3.243098   3.091672
    24  H    2.486753   4.304501   5.253124   4.096319   4.072649
    25  H    3.050998   3.869622   4.152373   2.585367   2.440358
    26  O    2.613850   3.782211   5.018390   4.020931   3.525254
    27  H    2.347438   3.845111   5.478949   4.757862   4.316749
                   21         22         23         24         25
    21  O    0.000000
    22  H    0.984016   0.000000
    23  C    2.863070   2.334554   0.000000
    24  H    3.942296   3.371194   1.095327   0.000000
    25  H    2.930343   2.548678   1.091061   1.776807   0.000000
    26  O    2.688835   1.786621   1.443498   2.080591   2.032287
    27  H    3.140518   2.270147   1.967553   2.321237   2.835459
                   26         27
    26  O    0.000000
    27  H    0.973626   0.000000
 Stoichiometry    C8H15NO3
 Framework group  C1[X(C8H15NO3)]
 Deg. of freedom    75
 Full point group                 C1      NOp   1
 Largest Abelian subgroup         C1      NOp   1
 Largest concise Abelian subgroup C1      NOp   1
                         Standard orientation:                         
 ---------------------------------------------------------------------
 Center     Atomic      Atomic             Coordinates (Angstroms)
 Number     Number       Type             X           Y           Z
 ---------------------------------------------------------------------
      1          6           0       -2.478401   -0.664385    0.331395
      2          6           0       -1.256139   -0.774727   -0.592884
      3          7           0       -0.760422    0.626880   -0.790145
      4          6           0       -1.561383    1.529378    0.060132
      5          6           0       -2.905213    0.805231    0.174612
      6          6           0        0.714899    0.657228   -0.712318
      7          6           0        1.112947   -0.847189   -0.806395
      8          6           0       -0.049371   -1.591085   -0.127189
      9          1           0       -3.266828   -1.374278    0.064245
     10          1           0       -2.187139   -0.855098    1.368850
     11          1           0       -1.560480   -1.183629   -1.566813
     12          1           0       -1.653614    2.523350   -0.394175
     13          1           0       -1.140803    1.667966    1.067049
     14          1           0       -3.491328    0.941505   -0.742105
     15          1           0       -3.502849    1.170939    1.015401
     16          1           0        1.124720    1.184644   -1.587420
     17          1           0        1.142174   -1.137229   -1.864941
     18          1           0       -0.112303   -2.636694   -0.458202
     19          8           0        0.123714   -1.542963    1.291128
     20          1           0        1.093680   -1.575828    1.411756
     21          8           0        2.349827   -1.196839   -0.185893
     22          1           0        2.802329   -0.354675    0.047108
     23          6           0        1.306560    1.375449    0.515606
     24          1           0        0.939815    2.406077    0.570786
     25          1           0        1.054732    0.863981    1.445873
     26          8           0        2.748581    1.384862    0.451011
     27          1           0        3.000472    1.870931   -0.354120
 ---------------------------------------------------------------------
 Rotational constants (GHZ):      1.5275584      0.7996008      0.6301634
 Standard basis: 6-31+G(d,p) (6D, 7F)
 There are   303 symmetry adapted basis functions of A   symmetry.
 Integral buffers will be    131072 words long.
 Raffenetti 2 integral format.
 Two-electron integral symmetry is turned on.
   303 basis functions,   489 primitive gaussians,   303 cartesian basis functions
    47 alpha electrons       47 beta electrons
       nuclear repulsion energy       818.4555834025 Hartrees.
 NAtoms=   27 NActive=   27 NUniq=   27 SFac= 1.00D+00 NAtFMM=   60 NAOKFM=F Big=F
 ------------------------------------------------------------------------------
 Polarizable Continuum Model (PCM)
 =================================
 Model                : PCM.
 Atomic radii         : UFF (Universal Force Field).
 Polarization charges : Total charges.
 Charge compensation  : None.
 Solution method      : Matrix inversion.
 Cavity type          : Scaled VdW (van der Waals Surface) (Alpha=1.100).
 Cavity algorithm     : GePol (No added spheres)
                        Default sphere list used, NSphG=   27.
                        Lebedev-Laikov grids with approx.  5.0 points / Ang**2.
                        Smoothing algorithm: Karplus/York (Gamma=1.0000).
                        Polarization charges: spherical gaussians, with
                                              point-specific exponents (IZeta= 3).
                        Self-potential: point-specific (ISelfS= 7).
                        Self-field    : sphere-specific E.n sum rule (ISelfD= 2).
 Solvent              : Water, Eps=  78.355300 Eps(inf)=   1.777849
 ------------------------------------------------------------------------------
 One-electron integrals computed using PRISM.
 NBasis=   303 RedAO= T  NBF=   303
 NBsUse=   303 1.00D-06 NBFU=   303
 Harris functional with IExCor=  908 diagonalized for initial guess.
 ExpMin= 4.38D-02 ExpMax= 5.48D+03 ExpMxC= 8.25D+02 IAcc=2 IRadAn=         4 AccDes= 0.00D+00
 HarFok:  IExCor=  908 AccDes= 0.00D+00 IRadAn=         4 IDoV= 1
 ScaDFX=  1.000000  1.000000  1.000000  1.000000
 FoFCou: FMM=F IPFlag=           0 FMFlag=      100000 FMFlg1=           0
         NFxFlg=           0 DoJE=T BraDBF=F KetDBF=T FulRan=T
         Omega=  0.000000  0.000000  1.000000  0.000000  0.000000 ICntrl=     500 IOpCl=  0
         NMat0=    1 NMatS0=    1 NMatT0=    0 NMatD0=    1 NMtDS0=    0 NMtDT0=    0
         I1Cent=           4 NGrid=           0.
 Petite list used in FoFCou.
 Initial guess orbital symmetries:
       Occupied  (A) (A) (A) (A) (A) (A) (A) (A) (A) (A) (A) (A)
                 (A) (A) (A) (A) (A) (A) (A) (A) (A) (A) (A) (A)
                 (A) (A) (A) (A) (A) (A) (A) (A) (A) (A) (A) (A)
                 (A) (A) (A) (A) (A) (A) (A) (A) (A) (A) (A)
       Virtual   (A) (A) (A) (A) (A) (A) (A) (A) (A) (A) (A) (A)
                 (A) (A) (A) (A) (A) (A) (A) (A) (A) (A) (A) (A)
                 (A) (A) (A) (A) (A) (A) (A) (A) (A) (A) (A) (A)
                 (A) (A) (A) (A) (A) (A) (A) (A) (A) (A) (A) (A)
                 (A) (A) (A) (A) (A) (A) (A) (A) (A) (A) (A) (A)
                 (A) (A) (A) (A) (A) (A) (A) (A) (A) (A) (A) (A)
                 (A) (A) (A) (A) (A) (A) (A) (A) (A) (A) (A) (A)
                 (A) (A) (A) (A) (A) (A) (A) (A) (A) (A) (A) (A)
                 (A) (A) (A) (A) (A) (A) (A) (A) (A) (A) (A) (A)
                 (A) (A) (A) (A) (A) (A) (A) (A) (A) (A) (A) (A)
                 (A) (A) (A) (A) (A) (A) (A) (A) (A) (A) (A) (A)
                 (A) (A) (A) (A) (A) (A) (A) (A) (A) (A) (A) (A)
                 (A) (A) (A) (A) (A) (A) (A) (A) (A) (A) (A) (A)
                 (A) (A) (A) (A) (A) (A) (A) (A) (A) (A) (A) (A)
                 (A) (A) (A) (A) (A) (A) (A) (A) (A) (A) (A) (A)
                 (A) (A) (A) (A) (A) (A) (A) (A) (A) (A) (A) (A)
                 (A) (A) (A) (A) (A) (A) (A) (A) (A) (A) (A) (A)
                 (A) (A) (A) (A) (A) (A) (A) (A) (A) (A) (A) (A)
                 (A) (A) (A) (A) (A) (A) (A) (A) (A) (A) (A) (A)
                 (A) (A) (A) (A) (A) (A) (A) (A) (A) (A) (A) (A)
                 (A) (A) (A) (A) (A) (A) (A) (A) (A) (A) (A) (A)
                 (A) (A) (A) (A)
 The electronic state of the initial guess is 1-A.
 Requested convergence on RMS density matrix=1.00D-08 within 128 cycles.
 Requested convergence on MAX density matrix=1.00D-06.
 Requested convergence on             energy=1.00D-06.
 No special actions if energy rises.
 Error on total polarization charges =  0.01420
 SCF Done:  E(RmPW1PW91) =  -594.193325247     A.U. after   13 cycles
             Convg  =    0.7493D-08             -V/T =  2.0094
 Range of M.O.s used for correlation:     1   303
 NBasis=   303 NAE=    47 NBE=    47 NFC=     0 NFV=     0
 NROrb=    303 NOA=    47 NOB=    47 NVA=   256 NVB=   256

 **** Warning!!: The largest alpha MO coefficient is  0.77546246D+02

 NEqPCM:  Using equilibrium solvation (IEInf=0, Eps=  78.3553, EpsInf=   1.7778)
          Differentiating once with respect to magnetic field using GIAOs.
          Electric field/nuclear overlap derivatives assumed to be zero.
 FoFCou: FMM=F IPFlag=           0 FMFlag=    10101102 FMFlg1=           0
         NFxFlg=    40000000 DoJE=F BraDBF=F KetDBF=T FulRan=T
         Omega=  0.000000  0.000000  1.000000  0.000000  0.000000 ICntrl=    6100 IOpCl=  0
         NMat0=    1 NMatS0=    1 NMatT0=    0 NMatD0=    1 NMtDS0=    0 NMtDT0=    0
         I1Cent=           7 NGrid=        1806.
 Symmetry not used in FoFCou.
          There are     3 degrees of freedom in the 1st order CPHF.  IDoFFX=0.
      3 vectors produced by pass  0 Test12= 4.01D-13 3.33D-08 XBig12= 3.67D+01 1.35D+00.
 AX will form     3 AO Fock derivatives at one time.
      3 vectors produced by pass  1 Test12= 4.01D-13 3.33D-08 XBig12= 8.73D-02 3.73D-02.
      3 vectors produced by pass  2 Test12= 4.01D-13 3.33D-08 XBig12= 1.81D-04 2.24D-03.
      3 vectors produced by pass  3 Test12= 4.01D-13 3.33D-08 XBig12= 9.02D-07 1.74D-04.
      3 vectors produced by pass  4 Test12= 4.01D-13 3.33D-08 XBig12= 2.76D-09 9.33D-06.
      3 vectors produced by pass  5 Test12= 4.01D-13 3.33D-08 XBig12= 7.91D-12 4.06D-07.
 Inverted reduced A of dimension    18 with in-core refinement.
 Calculating GIAO nuclear magnetic shielding tensors.
 SCF GIAO Magnetic shielding tensor (ppm):
      1  C    Isotropic =   170.1784   Anisotropy =    18.5673
   XX=   173.5138   YX=    -6.6270   ZX=   -11.5082
   XY=     3.1694   YY=   182.2066   ZY=    -0.4110
   XZ=   -13.0165   YZ=    -3.3456   ZZ=   154.8149
   Eigenvalues:   148.5657   179.4129   182.5566
      2  C    Isotropic =   127.8257   Anisotropy =    50.5727
   XX=   131.1438   YX=     3.6019   ZX=   -11.0490
   XY=     5.9030   YY=   157.0968   ZY=   -13.1532
   XZ=    -6.5324   YZ=   -14.8215   ZZ=    95.2365
   Eigenvalues:    90.7714   131.1649   161.5409
      3  N    Isotropic =   201.0057   Anisotropy =    89.2475
   XX=   250.1766   YX=    18.5014   ZX=   -29.8870
   XY=     4.4337   YY=   235.7639   ZY=    10.3318
   XZ=   -28.8445   YZ=     1.2367   ZZ=   117.0764
   Eigenvalues:   110.3690   232.1440   260.5040
      4  C    Isotropic =   147.1652   Anisotropy =    39.6338
   XX=   154.4841   YX=    -5.0869   ZX=   -19.4649
   XY=   -12.4960   YY=   153.3375   ZY=    10.5802
   XZ=   -13.8346   YZ=    14.6731   ZZ=   133.6742
   Eigenvalues:   122.6775   145.2304   173.5878
      5  C    Isotropic =   164.8678   Anisotropy =    23.1620
   XX=   176.6185   YX=     0.3266   ZX=   -15.3305
   XY=     3.1585   YY=   178.0742   ZY=     2.4257
   XZ=    -4.9632   YZ=    -1.2463   ZZ=   139.9105
   Eigenvalues:   137.2676   177.0266   180.3091
      6  C    Isotropic =   134.9669   Anisotropy =    47.3743
   XX=   166.3613   YX=    -2.6793   ZX=     1.0333
   XY=     8.0173   YY=   118.1004   ZY=    -3.1985
   XZ=     1.7109   YZ=     3.5837   ZZ=   120.4391
   Eigenvalues:   117.9477   120.4033   166.5497
      7  C    Isotropic =   114.5451   Anisotropy =    57.1766
   XX=   149.7921   YX=    -9.1263   ZX=    11.5353
   XY=    -8.9491   YY=   111.3349   ZY=   -10.4599
   XZ=    -0.0696   YZ=    -8.4322   ZZ=    82.5084
   Eigenvalues:    79.5629   111.4096   152.6629
      8  C    Isotropic =   122.8880   Anisotropy =    30.4876
   XX=   113.1895   YX=     0.2175   ZX=     7.4816
   XY=    -3.7476   YY=   112.8548   ZY=    -1.2159
   XZ=     0.0207   YZ=    -2.2280   ZZ=   142.6197
   Eigenvalues:   111.1916   114.2593   143.2131
      9  H    Isotropic =    29.9000   Anisotropy =    11.5948
   XX=    33.0583   YX=     4.6605   ZX=     0.3790
   XY=     5.6931   YY=    31.6486   ZY=     0.8295
   XZ=     0.5246   YZ=     0.5980   ZZ=    24.9931
   Eigenvalues:    24.9152    27.1549    37.6299
     10  H    Isotropic =    29.4189   Anisotropy =     7.0611
   XX=    29.4070   YX=    -1.5118   ZX=    -0.7378
   XY=    -2.2622   YY=    26.4755   ZY=    -3.7097
   XZ=    -0.9047   YZ=    -3.6097   ZZ=    32.3741
   Eigenvalues:    23.9495    30.1809    34.1263
     11  H    Isotropic =    27.9757   Anisotropy =     9.1995
   XX=    26.6451   YX=     2.5950   ZX=     1.9786
   XY=     2.2601   YY=    27.9492   ZY=     4.4213
   XZ=     2.7154   YZ=     3.3650   ZZ=    29.3328
   Eigenvalues:    24.5166    25.3018    34.1087
     12  H    Isotropic =    28.7830   Anisotropy =    10.3168
   XX=    27.0195   YX=    -2.5878   ZX=    -0.1738
   XY=    -1.6045   YY=    34.8750   ZY=    -2.1144
   XZ=    -0.9607   YZ=    -1.6813   ZZ=    24.4546
   Eigenvalues:    23.8217    26.8664    35.6609
     13  H    Isotropic =    28.8061   Anisotropy =     7.4514
   XX=    29.7408   YX=    -0.5189   ZX=    -0.7083
   XY=    -0.4451   YY=    26.8141   ZY=     5.1619
   XZ=     1.0230   YZ=     5.2577   ZZ=    29.8634
   Eigenvalues:    22.8769    29.7678    33.7737
     14  H    Isotropic =    29.6378   Anisotropy =    11.0504
   XX=    32.6904   YX=    -1.9317   ZX=     4.7636
   XY=    -2.2632   YY=    27.7787   ZY=    -2.2054
   XZ=     5.2567   YZ=    -2.4107   ZZ=    28.4442
   Eigenvalues:    24.8480    27.0606    37.0047
     15  H    Isotropic =    29.6105   Anisotropy =    11.5596
   XX=    31.9139   YX=    -2.9321   ZX=    -5.2106
   XY=    -3.4145   YY=    28.2328   ZY=     2.5989
   XZ=    -4.8532   YZ=     2.1655   ZZ=    28.6849
   Eigenvalues:    25.0131    26.5016    37.3169
     16  H    Isotropic =    28.2362   Anisotropy =     7.2640
   XX=    28.5904   YX=     1.9565   ZX=    -1.6471
   XY=     1.5132   YY=    26.5179   ZY=    -3.1996
   XZ=    -1.9124   YZ=    -3.5074   ZZ=    29.6004
   Eigenvalues:    24.2969    27.3329    33.0788
     17  H    Isotropic =    26.8866   Anisotropy =     6.2385
   XX=    26.4697   YX=    -1.4656   ZX=     0.7047
   XY=    -1.8043   YY=    24.3423   ZY=     2.4092
   XZ=    -2.2569   YZ=     2.1447   ZZ=    29.8478
   Eigenvalues:    23.0197    26.5946    31.0456
     18  H    Isotropic =    27.7792   Anisotropy =     9.3225
   XX=    23.6176   YX=     1.1242   ZX=     0.5843
   XY=    -0.0053   YY=    31.7446   ZY=     2.7941
   XZ=     1.0664   YZ=     4.3868   ZZ=    27.9754
   Eigenvalues:    23.4648    25.8786    33.9942
     19  O    Isotropic =   306.3884   Anisotropy =    39.7168
   XX=   328.9981   YX=    -1.1366   ZX=     8.7341
   XY=     3.7698   YY=   306.2979   ZY=    33.6093
   XZ=    13.9082   YZ=    -0.6050   ZZ=   283.8692
   Eigenvalues:   273.5134   312.7855   332.8663
     20  H    Isotropic =    28.2095   Anisotropy =    17.4077
   XX=    39.4587   YX=    -0.7114   ZX=     1.3791
   XY=    -0.0206   YY=    18.8628   ZY=    -4.1085
   XZ=     2.7575   YZ=    -2.7129   ZZ=    26.3069
   Eigenvalues:    17.5287    27.2851    39.8146
     21  O    Isotropic =   310.2050   Anisotropy =    40.9765
   XX=   312.5325   YX=     2.6086   ZX=     3.7879
   XY=     6.1790   YY=   336.6754   ZY=    -1.9785
   XZ=   -18.5736   YZ=     0.5634   ZZ=   281.4069
   Eigenvalues:   279.7389   313.3533   337.5226
     22  H    Isotropic =    25.3005   Anisotropy =    27.2316
   XX=    24.6527   YX=     6.6790   ZX=     4.5433
   XY=     7.7563   YY=    38.6619   ZY=     6.3030
   XZ=     5.0239   YZ=     5.5118   ZZ=    12.5870
   Eigenvalues:    10.4806    21.9661    43.4549
     23  C    Isotropic =   129.6811   Anisotropy =    60.2227
   XX=   169.5880   YX=     2.4972   ZX=    -1.0704
   XY=     4.2007   YY=   109.3419   ZY=     9.0366
   XZ=    -3.5016   YZ=     8.0880   ZZ=   110.1134
   Eigenvalues:   100.9235   118.2903   169.8296
     24  H    Isotropic =    27.3573   Anisotropy =     6.0530
   XX=    30.9858   YX=    -1.7319   ZX=     0.3376
   XY=    -0.0234   YY=    28.9068   ZY=     2.7233
   XZ=     0.4380   YZ=     3.5273   ZZ=    22.1792
   Eigenvalues:    20.9051    29.7741    31.3926
     25  H    Isotropic =    27.2261   Anisotropy =     4.0148
   XX=    28.6120   YX=     2.7672   ZX=    -0.9692
   XY=     1.8077   YY=    25.7186   ZY=     1.1646
   XZ=     0.3991   YZ=     0.9847   ZZ=    27.3478
   Eigenvalues:    24.0991    27.6766    29.9026
     26  O    Isotropic =   307.5037   Anisotropy =    73.5151
   XX=   285.6092   YX=    15.1695   ZX=    -9.4516
   XY=    17.0072   YY=   300.2716   ZY=   -31.5200
   XZ=   -16.0925   YZ=   -23.5020   ZZ=   336.6304
   Eigenvalues:   274.7923   291.2051   356.5138
     27  H    Isotropic =    30.3811   Anisotropy =    18.1259
   XX=    30.2747   YX=     5.3022   ZX=    -5.4263
   XY=     5.0411   YY=    28.3439   ZY=    -7.8341
   XZ=    -3.7873   YZ=    -8.0355   ZZ=    32.5247
   Eigenvalues:    21.9327    26.7456    42.4651
 End of Minotr Frequency-dependent properties file   721 does not exist.
 End of Minotr Frequency-dependent properties file   722 does not exist.

 **********************************************************************

            Population analysis using the SCF density.

 **********************************************************************

 Orbital symmetries:
       Occupied  (A) (A) (A) (A) (A) (A) (A) (A) (A) (A) (A) (A)
                 (A) (A) (A) (A) (A) (A) (A) (A) (A) (A) (A) (A)
                 (A) (A) (A) (A) (A) (A) (A) (A) (A) (A) (A) (A)
                 (A) (A) (A) (A) (A) (A) (A) (A) (A) (A) (A)
       Virtual   (A) (A) (A) (A) (A) (A) (A) (A) (A) (A) (A) (A)
                 (A) (A) (A) (A) (A) (A) (A) (A) (A) (A) (A) (A)
                 (A) (A) (A) (A) (A) (A) (A) (A) (A) (A) (A) (A)
                 (A) (A) (A) (A) (A) (A) (A) (A) (A) (A) (A) (A)
                 (A) (A) (A) (A) (A) (A) (A) (A) (A) (A) (A) (A)
                 (A) (A) (A) (A) (A) (A) (A) (A) (A) (A) (A) (A)
                 (A) (A) (A) (A) (A) (A) (A) (A) (A) (A) (A) (A)
                 (A) (A) (A) (A) (A) (A) (A) (A) (A) (A) (A) (A)
                 (A) (A) (A) (A) (A) (A) (A) (A) (A) (A) (A) (A)
                 (A) (A) (A) (A) (A) (A) (A) (A) (A) (A) (A) (A)
                 (A) (A) (A) (A) (A) (A) (A) (A) (A) (A) (A) (A)
                 (A) (A) (A) (A) (A) (A) (A) (A) (A) (A) (A) (A)
                 (A) (A) (A) (A) (A) (A) (A) (A) (A) (A) (A) (A)
                 (A) (A) (A) (A) (A) (A) (A) (A) (A) (A) (A) (A)
                 (A) (A) (A) (A) (A) (A) (A) (A) (A) (A) (A) (A)
                 (A) (A) (A) (A) (A) (A) (A) (A) (A) (A) (A) (A)
                 (A) (A) (A) (A) (A) (A) (A) (A) (A) (A) (A) (A)
                 (A) (A) (A) (A) (A) (A) (A) (A) (A) (A) (A) (A)
                 (A) (A) (A) (A) (A) (A) (A) (A) (A) (A) (A) (A)
                 (A) (A) (A) (A) (A) (A) (A) (A) (A) (A) (A) (A)
                 (A) (A) (A) (A) (A) (A) (A) (A) (A) (A) (A) (A)
                 (A) (A) (A) (A)
 The electronic state is 1-A.
 Alpha  occ. eigenvalues --  -19.27752 -19.25478 -19.24941 -14.41165 -10.30701
 Alpha  occ. eigenvalues --  -10.30363 -10.29810 -10.28865 -10.27704 -10.26973
 Alpha  occ. eigenvalues --  -10.24571 -10.24370  -1.08407  -1.06681  -1.04089
 Alpha  occ. eigenvalues --   -0.96228  -0.82811  -0.79305  -0.75037  -0.71548
 Alpha  occ. eigenvalues --   -0.67898  -0.61360  -0.60440  -0.57692  -0.55681
 Alpha  occ. eigenvalues --   -0.53150  -0.52939  -0.51042  -0.48959  -0.48014
 Alpha  occ. eigenvalues --   -0.46530  -0.44139  -0.43184  -0.41683  -0.40802
 Alpha  occ. eigenvalues --   -0.40135  -0.38369  -0.37704  -0.36929  -0.36212
 Alpha  occ. eigenvalues --   -0.35122  -0.34714  -0.33697  -0.31473  -0.29663
 Alpha  occ. eigenvalues --   -0.28883  -0.22361
 Alpha virt. eigenvalues --    0.00047   0.01406   0.02019   0.02420   0.03875
 Alpha virt. eigenvalues --    0.04528   0.04639   0.05009   0.05481   0.07436
 Alpha virt. eigenvalues --    0.07684   0.08711   0.09007   0.09350   0.09475
 Alpha virt. eigenvalues --    0.10241   0.11728   0.11851   0.12985   0.13179
 Alpha virt. eigenvalues --    0.13385   0.13947   0.14062   0.14354   0.15107
 Alpha virt. eigenvalues --    0.15829   0.16481   0.17036   0.17377   0.18371
 Alpha virt. eigenvalues --    0.18536   0.19536   0.19872   0.20347   0.20688
 Alpha virt. eigenvalues --    0.21385   0.22204   0.22549   0.22773   0.23448
 Alpha virt. eigenvalues --    0.24310   0.24550   0.24722   0.25816   0.26457
 Alpha virt. eigenvalues --    0.27031   0.27077   0.27941   0.28492   0.28762
 Alpha virt. eigenvalues --    0.29117   0.29624   0.30256   0.31150   0.31686
 Alpha virt. eigenvalues --    0.32581   0.32818   0.33588   0.33849   0.34611
 Alpha virt. eigenvalues --    0.35068   0.35985   0.36202   0.36666   0.37663
 Alpha virt. eigenvalues --    0.38543   0.39707   0.40054   0.40629   0.41193
 Alpha virt. eigenvalues --    0.42699   0.44195   0.46144   0.47877   0.48825
 Alpha virt. eigenvalues --    0.50450   0.64093   0.66418   0.67608   0.68509
 Alpha virt. eigenvalues --    0.68978   0.69211   0.71688   0.72186   0.74253
 Alpha virt. eigenvalues --    0.75065   0.76431   0.77099   0.78154   0.79056
 Alpha virt. eigenvalues --    0.82779   0.83259   0.85164   0.88586   0.89321
 Alpha virt. eigenvalues --    0.90869   0.91426   0.94356   0.95719   0.97505
 Alpha virt. eigenvalues --    0.98414   1.00065   1.01092   1.02234   1.05311
 Alpha virt. eigenvalues --    1.05874   1.06701   1.08766   1.09747   1.12005
 Alpha virt. eigenvalues --    1.12796   1.13809   1.14672   1.15712   1.16307
 Alpha virt. eigenvalues --    1.17820   1.19673   1.21765   1.23709   1.23938
 Alpha virt. eigenvalues --    1.27109   1.27282   1.29578   1.31126   1.31782
 Alpha virt. eigenvalues --    1.35156   1.37155   1.38637   1.40014   1.41118
 Alpha virt. eigenvalues --    1.42764   1.44593   1.46133   1.48750   1.52384
 Alpha virt. eigenvalues --    1.54174   1.54755   1.57869   1.60536   1.61955
 Alpha virt. eigenvalues --    1.63609   1.64264   1.66104   1.68211   1.69691
 Alpha virt. eigenvalues --    1.71747   1.73417   1.74880   1.78573   1.79567
 Alpha virt. eigenvalues --    1.81364   1.82963   1.83698   1.84433   1.85929
 Alpha virt. eigenvalues --    1.87608   1.89112   1.91738   1.94472   1.94830
 Alpha virt. eigenvalues --    1.97264   1.98806   2.02209   2.03254   2.03890
 Alpha virt. eigenvalues --    2.05575   2.07156   2.08800   2.10269   2.11940
 Alpha virt. eigenvalues --    2.12414   2.13762   2.16802   2.18194   2.19387
 Alpha virt. eigenvalues --    2.21914   2.25043   2.25910   2.27269   2.29635
 Alpha virt. eigenvalues --    2.31555   2.34222   2.34633   2.37244   2.39333
 Alpha virt. eigenvalues --    2.40643   2.42552   2.45182   2.46554   2.48465
 Alpha virt. eigenvalues --    2.50145   2.50790   2.52466   2.53930   2.54761
 Alpha virt. eigenvalues --    2.57266   2.57731   2.60489   2.60758   2.63536
 Alpha virt. eigenvalues --    2.65771   2.67640   2.68211   2.68658   2.70859
 Alpha virt. eigenvalues --    2.72047   2.73634   2.74869   2.76129   2.77413
 Alpha virt. eigenvalues --    2.77843   2.80559   2.82368   2.83541   2.86137
 Alpha virt. eigenvalues --    2.88076   2.89267   2.90124   2.92891   2.95053
 Alpha virt. eigenvalues --    2.97201   2.97438   2.99916   3.03562   3.05236
 Alpha virt. eigenvalues --    3.07091   3.10388   3.12395   3.16236   3.32469
 Alpha virt. eigenvalues --    3.36032   3.36549   3.37722   3.43585   3.45828
 Alpha virt. eigenvalues --    3.48160   3.49597   3.50159   3.52102   3.56484
 Alpha virt. eigenvalues --    3.57660   3.58655   3.61182   3.66820   4.30812
 Alpha virt. eigenvalues --    4.35453   4.41734   4.46462   4.49771   4.53066
 Alpha virt. eigenvalues --    4.62776   4.67977   4.77446   4.82459   4.90860
 Alpha virt. eigenvalues --    5.00740
          Condensed to atoms (all electrons):
              1          2          3          4          5          6
     1  C    6.108162  -0.945344   0.168640  -0.130279   0.044542   0.062457
     2  C   -0.945344  10.446251  -0.600075  -0.493821   0.408096  -0.674523
     3  N    0.168640  -0.600075   7.403028   0.279838  -0.244273  -0.009868
     4  C   -0.130279  -0.493821   0.279838   5.667232  -0.052309  -0.149328
     5  C    0.044542   0.408096  -0.244273  -0.052309   5.799243   0.162126
     6  C    0.062457  -0.674523  -0.009868  -0.149328   0.162126   7.385476
     7  C   -0.157127   1.061493  -0.349675  -0.036984  -0.094668  -0.453723
     8  C    0.315613  -2.397368   0.319359   0.329612  -0.217587  -0.208040
     9  H    0.380915  -0.069985   0.015802   0.030008  -0.033728   0.000696
    10  H    0.510601  -0.217940   0.026380   0.022188  -0.072589   0.012327
    11  H    0.096637   0.055198   0.009552   0.036724  -0.044542   0.030845
    12  H    0.038895  -0.004892  -0.048047   0.405652  -0.039327  -0.018923
    13  H   -0.023840   0.041675  -0.086037   0.377904   0.001084   0.019816
    14  H   -0.026493  -0.048533   0.018278  -0.032210   0.401092   0.002399
    15  H   -0.066898   0.047953   0.003463  -0.020033   0.378953  -0.003126
    16  H    0.009738  -0.056090  -0.016820   0.022548  -0.011463   0.313460
    17  H    0.007659  -0.050647   0.020292  -0.002592   0.005710   0.027989
    18  H    0.013784  -0.125739   0.019131   0.000036  -0.000790   0.056452
    19  O    0.110154  -0.423697   0.058629   0.013756  -0.038609   0.136790
    20  H   -0.018259   0.093082  -0.005992  -0.006211   0.008353  -0.004862
    21  O   -0.005605   0.045276   0.019590  -0.011933   0.010244  -0.107548
    22  H    0.000987  -0.010392   0.002630   0.000702  -0.000129  -0.076584
    23  C    0.054391  -0.274942   0.079614  -0.026291  -0.039292  -0.016323
    24  H   -0.001910   0.029352  -0.019205  -0.007594   0.010802  -0.007555
    25  H    0.004434  -0.018394   0.016379   0.007136  -0.008951  -0.077683
    26  O    0.002322   0.028151   0.026800   0.007055  -0.000584  -0.073008
    27  H    0.000023  -0.003702   0.001577   0.003613  -0.000498  -0.000237
              7          8          9         10         11         12
     1  C   -0.157127   0.315613   0.380915   0.510601   0.096637   0.038895
     2  C    1.061493  -2.397368  -0.069985  -0.217940   0.055198  -0.004892
     3  N   -0.349675   0.319359   0.015802   0.026380   0.009552  -0.048047
     4  C   -0.036984   0.329612   0.030008   0.022188   0.036724   0.405652
     5  C   -0.094668  -0.217587  -0.033728  -0.072589  -0.044542  -0.039327
     6  C   -0.453723  -0.208040   0.000696   0.012327   0.030845  -0.018923
     7  C    6.968860  -0.693921  -0.002948  -0.011021  -0.064453  -0.006206
     8  C   -0.693921   7.524901   0.017777   0.056296   0.128410  -0.001148
     9  H   -0.002948   0.017777   0.520551  -0.024790  -0.004408  -0.000100
    10  H   -0.011021   0.056296  -0.024790   0.508476   0.003832  -0.000051
    11  H   -0.064453   0.128410  -0.004408   0.003832   0.571209   0.000208
    12  H   -0.006206  -0.001148  -0.000100  -0.000051   0.000208   0.549933
    13  H    0.014530  -0.016181  -0.000165   0.001164  -0.000547  -0.046512
    14  H   -0.001099   0.014686  -0.005072   0.004035   0.000753  -0.006001
    15  H    0.003531  -0.001443   0.000443  -0.005381  -0.000130   0.000489
    16  H   -0.068543   0.076807   0.000004   0.000004   0.000655   0.001305
    17  H    0.243490   0.007567   0.000005  -0.000010   0.000811   0.000007
    18  H   -0.008300   0.365530   0.000369   0.000097  -0.000971   0.000005
    19  O   -0.150491   0.414483   0.000225   0.001752   0.007877   0.000307
    20  H   -0.050958  -0.052479  -0.000004   0.000009  -0.000259  -0.000002
    21  O    0.196103  -0.178510   0.000040  -0.000191  -0.000375   0.000063
    22  H    0.047763   0.019653   0.000000   0.000002   0.000003   0.000000
    23  C   -0.357118   0.130044   0.001800  -0.002669   0.008854   0.009820
    24  H    0.029791  -0.033495   0.000000  -0.000002  -0.000006  -0.000696
    25  H   -0.040712   0.044236   0.000002  -0.000038   0.000000   0.000242
    26  O    0.044071  -0.039913  -0.000001   0.000003   0.000050  -0.000191
    27  H   -0.045006   0.010730   0.000000   0.000000   0.000000   0.000010
             13         14         15         16         17         18
     1  C   -0.023840  -0.026493  -0.066898   0.009738   0.007659   0.013784
     2  C    0.041675  -0.048533   0.047953  -0.056090  -0.050647  -0.125739
     3  N   -0.086037   0.018278   0.003463  -0.016820   0.020292   0.019131
     4  C    0.377904  -0.032210  -0.020033   0.022548  -0.002592   0.000036
     5  C    0.001084   0.401092   0.378953  -0.011463   0.005710  -0.000790
     6  C    0.019816   0.002399  -0.003126   0.313460   0.027989   0.056452
     7  C    0.014530  -0.001099   0.003531  -0.068543   0.243490  -0.008300
     8  C   -0.016181   0.014686  -0.001443   0.076807   0.007567   0.365530
     9  H   -0.000165  -0.005072   0.000443   0.000004   0.000005   0.000369
    10  H    0.001164   0.004035  -0.005381   0.000004  -0.000010   0.000097
    11  H   -0.000547   0.000753  -0.000130   0.000655   0.000811  -0.000971
    12  H   -0.046512  -0.006001   0.000489   0.001305   0.000007   0.000005
    13  H    0.588443   0.004117  -0.004308  -0.000825  -0.000015  -0.000017
    14  H    0.004117   0.521291  -0.024867   0.000008  -0.000001  -0.000001
    15  H   -0.004308  -0.024867   0.517456   0.000001   0.000000   0.000001
    16  H   -0.000825   0.000008   0.000001   0.578054  -0.007418  -0.000113
    17  H   -0.000015  -0.000001   0.000000  -0.007418   0.564361  -0.003432
    18  H   -0.000017  -0.000001   0.000001  -0.000113  -0.003432   0.575070
    19  O   -0.001014   0.000056   0.000118  -0.000717   0.006144  -0.046763
    20  H    0.000080   0.000000  -0.000001  -0.000036   0.000847  -0.000508
    21  O   -0.000084  -0.000006  -0.000012   0.004696  -0.035488  -0.001057
    22  H   -0.000007   0.000000   0.000000   0.000079   0.000418  -0.000191
    23  C   -0.020944   0.000032  -0.001577  -0.015057   0.040546  -0.000073
    24  H   -0.000959  -0.000005   0.000006  -0.006659  -0.000097   0.000005
    25  H   -0.001627  -0.000001   0.000002   0.004794  -0.000164  -0.000056
    26  O    0.000983   0.000007   0.000000  -0.002097  -0.003139  -0.000069
    27  H   -0.000025   0.000000   0.000000   0.005241   0.000122  -0.000001
             19         20         21         22         23         24
     1  C    0.110154  -0.018259  -0.005605   0.000987   0.054391  -0.001910
     2  C   -0.423697   0.093082   0.045276  -0.010392  -0.274942   0.029352
     3  N    0.058629  -0.005992   0.019590   0.002630   0.079614  -0.019205
     4  C    0.013756  -0.006211  -0.011933   0.000702  -0.026291  -0.007594
     5  C   -0.038609   0.008353   0.010244  -0.000129  -0.039292   0.010802
     6  C    0.136790  -0.004862  -0.107548  -0.076584  -0.016323  -0.007555
     7  C   -0.150491  -0.050958   0.196103   0.047763  -0.357118   0.029791
     8  C    0.414483  -0.052479  -0.178510   0.019653   0.130044  -0.033495
     9  H    0.000225  -0.000004   0.000040   0.000000   0.001800   0.000000
    10  H    0.001752   0.000009  -0.000191   0.000002  -0.002669  -0.000002
    11  H    0.007877  -0.000259  -0.000375   0.000003   0.008854  -0.000006
    12  H    0.000307  -0.000002   0.000063   0.000000   0.009820  -0.000696
    13  H   -0.001014   0.000080  -0.000084  -0.000007  -0.020944  -0.000959
    14  H    0.000056   0.000000  -0.000006   0.000000   0.000032  -0.000005
    15  H    0.000118  -0.000001  -0.000012   0.000000  -0.001577   0.000006
    16  H   -0.000717  -0.000036   0.004696   0.000079  -0.015057  -0.006659
    17  H    0.006144   0.000847  -0.035488   0.000418   0.040546  -0.000097
    18  H   -0.046763  -0.000508  -0.001057  -0.000191  -0.000073   0.000005
    19  O    8.276903   0.239123  -0.015843  -0.000502  -0.003290   0.000102
    20  H    0.239123   0.358716   0.040924  -0.003483   0.010167   0.000043
    21  O   -0.015843   0.040924   8.365514   0.236039   0.104088  -0.002041
    22  H   -0.000502  -0.003483   0.236039   0.318700  -0.004705   0.000733
    23  C   -0.003290   0.010167   0.104088  -0.004705   5.579238   0.364465
    24  H    0.000102   0.000043  -0.002041   0.000733   0.364465   0.540292
    25  H   -0.001957  -0.000803   0.000432  -0.002152   0.440762  -0.032342
    26  O   -0.001961  -0.000117  -0.038435   0.045453   0.069211  -0.038005
    27  H   -0.000119   0.000012   0.004339  -0.006226   0.017364  -0.007058
             25         26         27
     1  C    0.004434   0.002322   0.000023
     2  C   -0.018394   0.028151  -0.003702
     3  N    0.016379   0.026800   0.001577
     4  C    0.007136   0.007055   0.003613
     5  C   -0.008951  -0.000584  -0.000498
     6  C   -0.077683  -0.073008  -0.000237
     7  C   -0.040712   0.044071  -0.045006
     8  C    0.044236  -0.039913   0.010730
     9  H    0.000002  -0.000001   0.000000
    10  H   -0.000038   0.000003   0.000000
    11  H    0.000000   0.000050   0.000000
    12  H    0.000242  -0.000191   0.000010
    13  H   -0.001627   0.000983  -0.000025
    14  H   -0.000001   0.000007   0.000000
    15  H    0.000002   0.000000   0.000000
    16  H    0.004794  -0.002097   0.005241
    17  H   -0.000164  -0.003139   0.000122
    18  H   -0.000056  -0.000069  -0.000001
    19  O   -0.001957  -0.001961  -0.000119
    20  H   -0.000803  -0.000117   0.000012
    21  O    0.000432  -0.038435   0.004339
    22  H   -0.002152   0.045453  -0.006226
    23  C    0.440762   0.069211   0.017364
    24  H   -0.032342  -0.038005  -0.007058
    25  H    0.505525  -0.044430   0.005387
    26  O   -0.044430   8.349271   0.268444
    27  H    0.005387   0.268444   0.340047
 Mulliken atomic charges:
              1
     1  C   -0.554196
     2  C    0.159560
     3  N   -0.108990
     4  C   -0.234420
     5  C   -0.330906
     6  C   -0.329499
     7  C   -0.016678
     8  C    0.064379
     9  H    0.172566
    10  H    0.187515
    11  H    0.164074
    12  H    0.165160
    13  H    0.153312
    14  H    0.177534
    15  H    0.175361
    16  H    0.168445
    17  H    0.177039
    18  H    0.157601
    19  O   -0.581456
    20  H    0.392619
    21  O   -0.630219
    22  H    0.431208
    23  C   -0.148117
    24  H    0.182039
    25  H    0.199978
    26  O   -0.599870
    27  H    0.405962
 Sum of Mulliken atomic charges =   0.00000
 Mulliken charges with hydrogens summed into heavy atoms:
              1
     1  C   -0.194115
     2  C    0.323634
     3  N   -0.108990
     4  C    0.084052
     5  C    0.021989
     6  C   -0.161054
     7  C    0.160360
     8  C    0.221981
    19  O   -0.188838
    21  O   -0.199011
    23  C    0.233900
    26  O   -0.193907
 Sum of Mulliken charges with hydrogens summed into heavy atoms =   0.00000
 Electronic spatial extent (au):  <R**2>=           1960.9801
 Charge=              0.0000 electrons
 Dipole moment (field-independent basis, Debye):
    X=             -0.6349    Y=              3.1478    Z=             -1.8215  Tot=              3.6918
 Quadrupole moment (field-independent basis, Debye-Ang):
   XX=            -73.2206   YY=            -71.6119   ZZ=            -75.5336
   XY=              6.0171   XZ=             -3.9358   YZ=              1.7409
 Traceless Quadrupole moment (field-independent basis, Debye-Ang):
   XX=              0.2347   YY=              1.8435   ZZ=             -2.0782
   XY=              6.0171   XZ=             -3.9358   YZ=              1.7409
 Octapole moment (field-independent basis, Debye-Ang**2):
  XXX=              0.5109  YYY=             15.1415  ZZZ=              3.4926  XYY=              5.7992
  XXY=             16.1001  XXZ=             -8.8441  XZZ=             11.4891  YZZ=             -0.3226
  YYZ=             -8.3537  XYZ=            -16.0486
 Hexadecapole moment (field-independent basis, Debye-Ang**3):
 XXXX=          -1490.3980 YYYY=           -711.4710 ZZZZ=           -301.6830 XXXY=             56.1121
 XXXZ=            -35.7676 YYYX=             35.0441 YYYZ=             -2.4706 ZZZX=             -0.3340
 ZZZY=              6.4944 XXYY=           -369.0366 XXZZ=           -296.4727 YYZZ=           -179.0548
 XXYZ=            -36.1118 YYXZ=             -8.1353 ZZXY=             -3.9108
 N-N= 8.184555834025D+02 E-N=-3.022695581373D+03  KE= 5.886606863233D+02
 1\1\GINC-COMPUTE-3-1\SP\RmPW1PW91\6-31+G(d,p)\C8H15N1O3\MAMICHETTI.IQU
 IR\17-May-2024\0\\# mpw1pw91/6-31+G** nmr scrf=(pcm,solvent=water)\\co
 mment\\0,1\C,0,-2.478401,-0.664385,0.331395\C,0,-1.256139,-0.774727,-0
 .592884\N,0,-0.760422,0.62688,-0.790145\C,0,-1.561383,1.529378,0.06013
 2\C,0,-2.905213,0.805231,0.174612\C,0,0.714899,0.657228,-0.712318\C,0,
 1.112947,-0.847189,-0.806395\C,0,-0.049371,-1.591085,-0.127189\H,0,-3.
 266828,-1.374278,0.064245\H,0,-2.187139,-0.855098,1.36885\H,0,-1.56048
 ,-1.183629,-1.566813\H,0,-1.653614,2.52335,-0.394175\H,0,-1.140803,1.6
 67966,1.067049\H,0,-3.491328,0.941505,-0.742105\H,0,-3.502849,1.170939
 ,1.015401\H,0,1.12472,1.184644,-1.58742\H,0,1.142174,-1.137229,-1.8649
 41\H,0,-0.112303,-2.636694,-0.458202\O,0,0.123714,-1.542963,1.291128\H
 ,0,1.09368,-1.575828,1.411756\O,0,2.349827,-1.196839,-0.185893\H,0,2.8
 02329,-0.354675,0.047108\C,0,1.30656,1.375449,0.515606\H,0,0.939815,2.
 406077,0.570786\H,0,1.054732,0.863981,1.445873\O,0,2.748581,1.384862,0
 .451011\H,0,3.000472,1.870931,-0.35412\\Version=AM64L-G09RevC.01\State
 =1-A\HF=-594.1933252\RMSD=7.493e-09\Dipole=-0.24978,1.2384339,-0.71662
 55\Quadrupole=0.1745246,1.3705743,-1.5450989,4.4735861,-2.9261774,1.29
 43242\PG=C01 [X(C8H15N1O3)]\\@


 MAN IS THE MEASURE OF ALL THINGS.
  -- PROTAGORAS (5TH CENTURY B.C.)
 Job cpu time:  0 days  0 hours  9 minutes  2.9 seconds.
 File lengths (MBytes):  RWF=    112 Int=      0 D2E=      0 Chk=      7 Scr=      1
 Normal termination of Gaussian 09 at Fri May 17 13:03:26 2024.
