 Entering Gaussian System, Link 0=g09
 Input=/home/mamichetti.iquir/Linux/04_Cardona_A1A3_R__S_R_S_044_OptB.gjc
 Output=/home/mamichetti.iquir/Linux/04_Cardona_A1A3_R__S_R_S_044_OptB.log
 Initial command:
 /opt/ohpc/pub/apps/software/Gaussian/09/AMD64.SSE4a-enabled/g09/l1.exe /local/mamichetti.iquir/Gau-411671.inp -scrdir=/local/mamichetti.iquir/
 Entering Link 1 = /opt/ohpc/pub/apps/software/Gaussian/09/AMD64.SSE4a-enabled/g09/l1.exe PID=    411672.
  
 Copyright (c) 1988,1990,1992,1993,1995,1998,2003,2009,2011,
            Gaussian, Inc.  All Rights Reserved.
  
 This is part of the Gaussian(R) 09 program.  It is based on
 the Gaussian(R) 03 system (copyright 2003, Gaussian, Inc.),
 the Gaussian(R) 98 system (copyright 1998, Gaussian, Inc.),
 the Gaussian(R) 94 system (copyright 1995, Gaussian, Inc.),
 the Gaussian 92(TM) system (copyright 1992, Gaussian, Inc.),
 the Gaussian 90(TM) system (copyright 1990, Gaussian, Inc.),
 the Gaussian 88(TM) system (copyright 1988, Gaussian, Inc.),
 the Gaussian 86(TM) system (copyright 1986, Carnegie Mellon
 University), and the Gaussian 82(TM) system (copyright 1983,
 Carnegie Mellon University). Gaussian is a federally registered
 trademark of Gaussian, Inc.
  
 This software contains proprietary and confidential information,
 including trade secrets, belonging to Gaussian, Inc.
  
 This software is provided under written license and may be
 used, copied, transmitted, or stored only in accord with that
 written license.
  
 The following legend is applicable only to US Government
 contracts under FAR:
  
                    RESTRICTED RIGHTS LEGEND
  
 Use, reproduction and disclosure by the US Government is
 subject to restrictions as set forth in subparagraphs (a)
 and (c) of the Commercial Computer Software - Restricted
 Rights clause in FAR 52.227-19.
  
 Gaussian, Inc.
 340 Quinnipiac St., Bldg. 40, Wallingford CT 06492
  
  
 ---------------------------------------------------------------
 Warning -- This program may not be used in any manner that
 competes with the business of Gaussian, Inc. or will provide
 assistance to any competitor of Gaussian, Inc.  The licensee
 of this program is prohibited from giving any competitor of
 Gaussian, Inc. access to this program.  By using this program,
 the user acknowledges that Gaussian, Inc. is engaged in the
 business of creating and licensing software in the field of
 computational chemistry and represents and warrants to the
 licensee that it is not a competitor of Gaussian, Inc. and that
 it will not use this program in any manner prohibited above.
 ---------------------------------------------------------------
  

 Cite this work as:
 Gaussian 09, Revision C.01,
 M. J. Frisch, G. W. Trucks, H. B. Schlegel, G. E. Scuseria, 
 M. A. Robb, J. R. Cheeseman, G. Scalmani, V. Barone, B. Mennucci, 
 G. A. Petersson, H. Nakatsuji, M. Caricato, X. Li, H. P. Hratchian, 
 A. F. Izmaylov, J. Bloino, G. Zheng, J. L. Sonnenberg, M. Hada, 
 M. Ehara, K. Toyota, R. Fukuda, J. Hasegawa, M. Ishida, T. Nakajima, 
 Y. Honda, O. Kitao, H. Nakai, T. Vreven, J. A. Montgomery, Jr., 
 J. E. Peralta, F. Ogliaro, M. Bearpark, J. J. Heyd, E. Brothers, 
 K. N. Kudin, V. N. Staroverov, T. Keith, R. Kobayashi, J. Normand, 
 K. Raghavachari, A. Rendell, J. C. Burant, S. S. Iyengar, J. Tomasi, 
 M. Cossi, N. Rega, J. M. Millam, M. Klene, J. E. Knox, J. B. Cross, 
 V. Bakken, C. Adamo, J. Jaramillo, R. Gomperts, R. E. Stratmann, 
 O. Yazyev, A. J. Austin, R. Cammi, C. Pomelli, J. W. Ochterski, 
 R. L. Martin, K. Morokuma, V. G. Zakrzewski, G. A. Voth, 
 P. Salvador, J. J. Dannenberg, S. Dapprich, A. D. Daniels, 
 O. Farkas, J. B. Foresman, J. V. Ortiz, J. Cioslowski, 
 and D. J. Fox, Gaussian, Inc., Wallingford CT, 2010.
 
 ******************************************
 Gaussian 09:  AM64L-G09RevC.01 23-Sep-2011
                17-May-2024 
 ******************************************
 %nprocshared=4
 Will use up to    4 processors via shared memory.
 ------------------------------------------------
 # mpw1pw91/6-31+G** nmr scrf=(pcm,solvent=water)
 ------------------------------------------------
 1/38=1/1;
 2/12=2,17=6,18=5,40=1/2;
 3/5=1,6=6,7=111,11=2,16=1,25=1,30=1,70=2201,72=1,74=-7/1,2,8,3;
 4//1;
 5/5=2,38=5,53=1/2;
 8/6=1,10=90,11=11/1;
 10/13=100,45=16/2;
 6/7=2,8=2,9=2,10=2,28=1/1;
 99/9=1/99;
 -------
 comment
 -------
 Charge =  0 Multiplicity = 1
 Symbolic Z-Matrix:
 6                    -2.20417   1.06347  -0.11455 
 6                    -1.2602    0.23897  -0.99784 
 7                     0.06374   0.91997  -0.90292 
 6                     0.03494   1.8139    0.29605 
 6                    -1.29021   1.54631   1.02104 
 6                     1.06807  -0.16491  -0.96216 
 6                     0.45951  -1.38285  -0.24754 
 6                    -1.05156  -1.25839  -0.58382 
 1                    -2.57798   1.91882  -0.68981 
 1                    -3.06599   0.48717   0.22931 
 1                    -1.5998    0.24247  -2.03964 
 1                     0.06334   2.85822  -0.04496 
 1                     0.90877   1.65905   0.92705 
 1                    -1.67312   2.43612   1.5315 
 1                    -1.16674   0.75472   1.76831 
 1                     1.13753  -0.46063  -2.02068 
 1                     0.88661  -2.32382  -0.61579 
 1                    -1.29776  -1.91165  -1.42546 
 8                    -1.85989  -1.62221   0.54313 
 1                    -1.92106  -2.59277   0.55535 
 8                     0.65147  -1.31772   1.17319 
 1                    -0.24249  -1.43309   1.55966 
 6                     2.50984   0.16998  -0.57344 
 1                     3.13754  -0.6588   -0.93481 
 1                     2.83465   1.07424  -1.09938 
 8                     2.7559    0.38644   0.82113 
 1                     2.15311  -0.22086   1.29374 
 
                          Input orientation:                          
 ---------------------------------------------------------------------
 Center     Atomic      Atomic             Coordinates (Angstroms)
 Number     Number       Type             X           Y           Z
 ---------------------------------------------------------------------
      1          6           0       -2.204172    1.063467   -0.114552
      2          6           0       -1.260197    0.238969   -0.997838
      3          7           0        0.063742    0.919965   -0.902918
      4          6           0        0.034943    1.813900    0.296052
      5          6           0       -1.290207    1.546312    1.021042
      6          6           0        1.068068   -0.164910   -0.962161
      7          6           0        0.459509   -1.382849   -0.247544
      8          6           0       -1.051557   -1.258387   -0.583816
      9          1           0       -2.577981    1.918818   -0.689811
     10          1           0       -3.065987    0.487169    0.229308
     11          1           0       -1.599799    0.242470   -2.039638
     12          1           0        0.063342    2.858223   -0.044963
     13          1           0        0.908770    1.659054    0.927051
     14          1           0       -1.673119    2.436119    1.531502
     15          1           0       -1.166744    0.754718    1.768314
     16          1           0        1.137534   -0.460633   -2.020676
     17          1           0        0.886610   -2.323824   -0.615793
     18          1           0       -1.297758   -1.911648   -1.425459
     19          8           0       -1.859889   -1.622207    0.543130
     20          1           0       -1.921058   -2.592772    0.555347
     21          8           0        0.651469   -1.317715    1.173187
     22          1           0       -0.242493   -1.433086    1.559655
     23          6           0        2.509838    0.169980   -0.573435
     24          1           0        3.137538   -0.658801   -0.934808
     25          1           0        2.834649    1.074243   -1.099382
     26          8           0        2.755902    0.386444    0.821126
     27          1           0        2.153107   -0.220860    1.293739
 ---------------------------------------------------------------------
                    Distance matrix (angstroms):
                    1          2          3          4          5
     1  C    0.000000
     2  C    1.533323   0.000000
     3  N    2.405317   1.491838   0.000000
     4  C    2.396953   2.414942   1.495820   0.000000
     5  C    1.535593   2.405395   2.434566   1.534026   0.000000
     6  C    3.596513   2.363305   1.479572   2.562447   3.524604
     7  C    3.619025   2.480045   2.426747   3.270315   3.640165
     8  C    2.634338   1.567488   2.467982   3.375440   3.240194
     9  H    1.096486   2.157157   2.832282   2.794692   2.173509
    10  H    1.092284   2.197355   3.356256   3.373490   2.214051
    11  H    2.178362   1.095760   2.125676   3.255337   3.341199
    12  H    2.892682   3.085485   2.119654   1.098958   2.165542
    13  H    3.336176   3.228971   2.146884   1.088903   2.203870
    14  H    2.208095   3.375727   3.352881   2.197947   1.094965
    15  H    2.171812   2.815373   2.945655   2.175655   1.095573
    16  H    4.138017   2.699028   2.075684   3.428766   4.378790
    17  H    4.612799   3.364914   3.358827   4.321754   4.732411
    18  H    3.375111   2.193040   3.185085   4.315020   4.235907
    19  O    2.786381   2.489616   3.500578   3.931700   3.254604
    20  H    3.727868   3.296646   4.290139   4.828243   4.212702
    21  O    3.934842   3.284978   3.108512   3.310058   3.463510
    22  H    3.589419   3.220599   3.419780   3.495223   3.203845
    23  C    4.819832   3.794475   2.579617   3.095737   4.344766
    24  H    5.672115   4.488879   3.455682   4.153957   5.319098
    25  H    5.134172   4.180402   2.782144   3.214449   4.661919
    26  O    5.092758   4.411284   3.241095   3.117202   4.213818
    27  H    4.755908   4.136836   3.239171   3.101975   3.879906
                    6          7          8          9         10
     6  C    0.000000
     7  C    1.537660   0.000000
     8  C    2.414880   1.553026   0.000000
     9  H    4.208298   4.508098   3.526448   0.000000
    10  H    4.351461   4.019139   2.786766   1.769901   0.000000
    11  H    2.905930   3.177108   2.161610   2.364110   2.712508
    12  H    3.315126   4.264350   4.298818   2.876612   3.935711
    13  H    2.630844   3.291608   3.825841   3.852162   4.202244
    14  H    4.527451   4.722036   4.302358   2.453693   2.726572
    15  H    3.646312   3.358210   3.098124   3.064163   2.459115
    16  H    1.101241   2.110497   2.737352   4.608475   4.861105
    17  H    2.194039   1.097022   2.211938   5.478036   4.923302
    18  H    2.977057   2.180619   1.093493   4.105194   3.408696
    19  O    3.600354   2.462126   1.433797   3.817677   2.450025
    20  H    4.139108   2.788485   1.958139   4.726141   3.301999
    21  O    2.462159   1.435119   2.447627   4.937130   4.238867
    22  H    3.112137   1.939407   2.297732   4.663675   3.664604
    23  C    1.530346   2.592553   3.837170   5.381253   5.642236
    24  H    2.127765   2.858044   4.246318   6.274655   6.414993
    25  H    2.162207   3.521962   4.561751   5.493416   6.076807
    26  O    2.516523   3.089640   4.379050   5.751644   5.852759
    27  H    2.503902   2.567887   3.856364   5.558407   5.373384
                   11         12         13         14         15
    11  H    0.000000
    12  H    3.686045   0.000000
    13  H    4.135320   1.759990   0.000000
    14  H    4.191720   2.383005   2.763212   0.000000
    15  H    3.866579   3.037403   2.415224   1.771893   0.000000
    16  H    2.826253   4.009007   3.637925   5.376701   4.598176
    17  H    3.846483   5.277995   4.271320   5.815509   4.402005
    18  H    2.260236   5.148789   4.811755   5.271394   4.162554
    19  O    3.196147   4.911102   4.310399   4.181121   2.762480
    20  H    3.856910   5.831943   5.120949   5.128752   3.639501
    21  O    4.221922   4.389560   2.997989   4.429827   2.820470
    22  H    4.195793   4.591695   3.359602   4.125316   2.384170
    23  C    4.363957   3.673047   2.651833   5.202237   4.398063
    24  H    4.947252   4.755204   3.715693   6.229256   5.275580
    25  H    4.608715   3.460423   2.856124   5.394092   4.933247
    26  O    5.213140   3.756286   2.245585   4.931737   4.052153
    27  H    5.040871   3.954743   2.284056   4.664341   3.492619
                   16         17         18         19         20
    16  H    0.000000
    17  H    2.346943   0.000000
    18  H    2.896614   2.365779   0.000000
    19  O    4.111800   3.062454   2.067634   0.000000
    20  H    4.531765   3.053998   2.185412   0.972567   0.000000
    21  O    3.342396   2.065913   3.302303   2.607030   2.936902
    22  H    3.958397   2.607846   3.202110   1.919651   2.274002
    23  C    2.091745   2.975856   4.422319   4.853160   5.342264
    24  H    2.284381   2.817933   4.634891   5.299691   5.616956
    25  H    2.466744   3.946590   5.108685   5.657506   6.229115
    26  O    3.378238   3.592289   5.173058   5.041576   5.551605
    27  H    3.474799   3.110110   4.707576   4.316402   4.771793
                   21         22         23         24         25
    21  O    0.000000
    22  H    0.980732   0.000000
    23  C    2.952535   3.833434   0.000000
    24  H    3.325410   4.271589   1.100671   0.000000
    25  H    3.956300   4.777654   1.095360   1.766994   0.000000
    26  O    2.730704   3.584200   1.432552   2.078819   2.041475
    27  H    1.863475   2.697981   1.940709   2.475342   2.805142
                   26         27
    26  O    0.000000
    27  H    0.977519   0.000000
 Stoichiometry    C8H15NO3
 Framework group  C1[X(C8H15NO3)]
 Deg. of freedom    75
 Full point group                 C1      NOp   1
 Largest Abelian subgroup         C1      NOp   1
 Largest concise Abelian subgroup C1      NOp   1
                         Standard orientation:                         
 ---------------------------------------------------------------------
 Center     Atomic      Atomic             Coordinates (Angstroms)
 Number     Number       Type             X           Y           Z
 ---------------------------------------------------------------------
      1          6           0       -2.204172    1.063466   -0.114552
      2          6           0       -1.260197    0.238969   -0.997838
      3          7           0        0.063742    0.919965   -0.902918
      4          6           0        0.034943    1.813900    0.296052
      5          6           0       -1.290207    1.546312    1.021042
      6          6           0        1.068068   -0.164910   -0.962161
      7          6           0        0.459509   -1.382849   -0.247544
      8          6           0       -1.051557   -1.258387   -0.583816
      9          1           0       -2.577982    1.918817   -0.689811
     10          1           0       -3.065987    0.487168    0.229308
     11          1           0       -1.599799    0.242470   -2.039638
     12          1           0        0.063341    2.858223   -0.044963
     13          1           0        0.908770    1.659054    0.927051
     14          1           0       -1.673120    2.436119    1.531502
     15          1           0       -1.166744    0.754718    1.768314
     16          1           0        1.137534   -0.460633   -2.020676
     17          1           0        0.886610   -2.323824   -0.615793
     18          1           0       -1.297758   -1.911648   -1.425459
     19          8           0       -1.859889   -1.622208    0.543130
     20          1           0       -1.921058   -2.592773    0.555347
     21          8           0        0.651469   -1.317715    1.173187
     22          1           0       -0.242493   -1.433086    1.559655
     23          6           0        2.509838    0.169980   -0.573435
     24          1           0        3.137538   -0.658800   -0.934808
     25          1           0        2.834649    1.074243   -1.099382
     26          8           0        2.755902    0.386444    0.821126
     27          1           0        2.153107   -0.220860    1.293739
 ---------------------------------------------------------------------
 Rotational constants (GHZ):      1.3694097      0.9046316      0.7314351
 Standard basis: 6-31+G(d,p) (6D, 7F)
 There are   303 symmetry adapted basis functions of A   symmetry.
 Integral buffers will be    131072 words long.
 Raffenetti 2 integral format.
 Two-electron integral symmetry is turned on.
   303 basis functions,   489 primitive gaussians,   303 cartesian basis functions
    47 alpha electrons       47 beta electrons
       nuclear repulsion energy       829.1726885912 Hartrees.
 NAtoms=   27 NActive=   27 NUniq=   27 SFac= 1.00D+00 NAtFMM=   60 NAOKFM=F Big=F
 ------------------------------------------------------------------------------
 Polarizable Continuum Model (PCM)
 =================================
 Model                : PCM.
 Atomic radii         : UFF (Universal Force Field).
 Polarization charges : Total charges.
 Charge compensation  : None.
 Solution method      : Matrix inversion.
 Cavity type          : Scaled VdW (van der Waals Surface) (Alpha=1.100).
 Cavity algorithm     : GePol (No added spheres)
                        Default sphere list used, NSphG=   27.
                        Lebedev-Laikov grids with approx.  5.0 points / Ang**2.
                        Smoothing algorithm: Karplus/York (Gamma=1.0000).
                        Polarization charges: spherical gaussians, with
                                              point-specific exponents (IZeta= 3).
                        Self-potential: point-specific (ISelfS= 7).
                        Self-field    : sphere-specific E.n sum rule (ISelfD= 2).
 Solvent              : Water, Eps=  78.355300 Eps(inf)=   1.777849
 ------------------------------------------------------------------------------
 One-electron integrals computed using PRISM.
 NBasis=   303 RedAO= T  NBF=   303
 NBsUse=   303 1.00D-06 NBFU=   303
 Harris functional with IExCor=  908 diagonalized for initial guess.
 ExpMin= 4.38D-02 ExpMax= 5.48D+03 ExpMxC= 8.25D+02 IAcc=2 IRadAn=         4 AccDes= 0.00D+00
 HarFok:  IExCor=  908 AccDes= 0.00D+00 IRadAn=         4 IDoV= 1
 ScaDFX=  1.000000  1.000000  1.000000  1.000000
 FoFCou: FMM=F IPFlag=           0 FMFlag=      100000 FMFlg1=           0
         NFxFlg=           0 DoJE=T BraDBF=F KetDBF=T FulRan=T
         Omega=  0.000000  0.000000  1.000000  0.000000  0.000000 ICntrl=     500 IOpCl=  0
         NMat0=    1 NMatS0=    1 NMatT0=    0 NMatD0=    1 NMtDS0=    0 NMtDT0=    0
         I1Cent=           4 NGrid=           0.
 Petite list used in FoFCou.
 Initial guess orbital symmetries:
       Occupied  (A) (A) (A) (A) (A) (A) (A) (A) (A) (A) (A) (A)
                 (A) (A) (A) (A) (A) (A) (A) (A) (A) (A) (A) (A)
                 (A) (A) (A) (A) (A) (A) (A) (A) (A) (A) (A) (A)
                 (A) (A) (A) (A) (A) (A) (A) (A) (A) (A) (A)
       Virtual   (A) (A) (A) (A) (A) (A) (A) (A) (A) (A) (A) (A)
                 (A) (A) (A) (A) (A) (A) (A) (A) (A) (A) (A) (A)
                 (A) (A) (A) (A) (A) (A) (A) (A) (A) (A) (A) (A)
                 (A) (A) (A) (A) (A) (A) (A) (A) (A) (A) (A) (A)
                 (A) (A) (A) (A) (A) (A) (A) (A) (A) (A) (A) (A)
                 (A) (A) (A) (A) (A) (A) (A) (A) (A) (A) (A) (A)
                 (A) (A) (A) (A) (A) (A) (A) (A) (A) (A) (A) (A)
                 (A) (A) (A) (A) (A) (A) (A) (A) (A) (A) (A) (A)
                 (A) (A) (A) (A) (A) (A) (A) (A) (A) (A) (A) (A)
                 (A) (A) (A) (A) (A) (A) (A) (A) (A) (A) (A) (A)
                 (A) (A) (A) (A) (A) (A) (A) (A) (A) (A) (A) (A)
                 (A) (A) (A) (A) (A) (A) (A) (A) (A) (A) (A) (A)
                 (A) (A) (A) (A) (A) (A) (A) (A) (A) (A) (A) (A)
                 (A) (A) (A) (A) (A) (A) (A) (A) (A) (A) (A) (A)
                 (A) (A) (A) (A) (A) (A) (A) (A) (A) (A) (A) (A)
                 (A) (A) (A) (A) (A) (A) (A) (A) (A) (A) (A) (A)
                 (A) (A) (A) (A) (A) (A) (A) (A) (A) (A) (A) (A)
                 (A) (A) (A) (A) (A) (A) (A) (A) (A) (A) (A) (A)
                 (A) (A) (A) (A) (A) (A) (A) (A) (A) (A) (A) (A)
                 (A) (A) (A) (A) (A) (A) (A) (A) (A) (A) (A) (A)
                 (A) (A) (A) (A) (A) (A) (A) (A) (A) (A) (A) (A)
                 (A) (A) (A) (A)
 The electronic state of the initial guess is 1-A.
 Requested convergence on RMS density matrix=1.00D-08 within 128 cycles.
 Requested convergence on MAX density matrix=1.00D-06.
 Requested convergence on             energy=1.00D-06.
 No special actions if energy rises.
 Error on total polarization charges =  0.01428
 SCF Done:  E(RmPW1PW91) =  -594.190588625     A.U. after   13 cycles
             Convg  =    0.4859D-08             -V/T =  2.0094
 Range of M.O.s used for correlation:     1   303
 NBasis=   303 NAE=    47 NBE=    47 NFC=     0 NFV=     0
 NROrb=    303 NOA=    47 NOB=    47 NVA=   256 NVB=   256

 **** Warning!!: The largest alpha MO coefficient is  0.73143877D+02

 NEqPCM:  Using equilibrium solvation (IEInf=0, Eps=  78.3553, EpsInf=   1.7778)
          Differentiating once with respect to magnetic field using GIAOs.
          Electric field/nuclear overlap derivatives assumed to be zero.
 FoFCou: FMM=F IPFlag=           0 FMFlag=    10101102 FMFlg1=           0
         NFxFlg=    40000000 DoJE=F BraDBF=F KetDBF=T FulRan=T
         Omega=  0.000000  0.000000  1.000000  0.000000  0.000000 ICntrl=    6100 IOpCl=  0
         NMat0=    1 NMatS0=    1 NMatT0=    0 NMatD0=    1 NMtDS0=    0 NMtDT0=    0
         I1Cent=           7 NGrid=        1773.
 Symmetry not used in FoFCou.
          There are     3 degrees of freedom in the 1st order CPHF.  IDoFFX=0.
      3 vectors produced by pass  0 Test12= 4.01D-13 3.33D-08 XBig12= 2.42D+01 9.77D-01.
 AX will form     3 AO Fock derivatives at one time.
      3 vectors produced by pass  1 Test12= 4.01D-13 3.33D-08 XBig12= 5.79D-02 3.69D-02.
      3 vectors produced by pass  2 Test12= 4.01D-13 3.33D-08 XBig12= 1.08D-04 1.97D-03.
      3 vectors produced by pass  3 Test12= 4.01D-13 3.33D-08 XBig12= 4.30D-07 1.42D-04.
      3 vectors produced by pass  4 Test12= 4.01D-13 3.33D-08 XBig12= 1.44D-09 8.08D-06.
      3 vectors produced by pass  5 Test12= 4.01D-13 3.33D-08 XBig12= 4.51D-12 6.81D-07.
 Inverted reduced A of dimension    18 with in-core refinement.
 Calculating GIAO nuclear magnetic shielding tensors.
 SCF GIAO Magnetic shielding tensor (ppm):
      1  C    Isotropic =   167.7882   Anisotropy =    24.1241
   XX=   175.8293   YX=     3.9068   ZX=    -0.1069
   XY=    -5.1817   YY=   158.5785   ZY=    17.9255
   XZ=     6.3730   YZ=    19.7545   ZZ=   168.9568
   Eigenvalues:   144.0433   175.4503   183.8709
      2  C    Isotropic =   126.9724   Anisotropy =    53.7926
   XX=   153.5564   YX=    14.7465   ZX=    -8.3017
   XY=    18.3393   YY=   131.5591   ZY=     8.2612
   XZ=    -6.6327   YZ=    -2.4657   ZZ=    95.8018
   Eigenvalues:    94.1101   123.9731   162.8342
      3  N    Isotropic =   186.4150   Anisotropy =   101.1415
   XX=   253.6683   YX=    -1.2107   ZX=     1.8361
   XY=     8.2256   YY=   160.6947   ZY=    15.3540
   XZ=     0.6858   YZ=    28.9488   ZZ=   144.8821
   Eigenvalues:   129.2604   176.1420   253.8427
      4  C    Isotropic =   145.1309   Anisotropy =    54.8641
   XX=   135.4713   YX=     2.4300   ZX=    -6.0996
   XY=     8.5798   YY=   143.7125   ZY=    29.9417
   XZ=   -13.2700   YZ=    31.5701   ZZ=   156.2088
   Eigenvalues:   113.5881   140.0976   181.7070
      5  C    Isotropic =   167.2698   Anisotropy =    19.0813
   XX=   174.4837   YX=     7.7942   ZX=    -1.6038
   XY=     7.0965   YY=   156.8723   ZY=    10.9896
   XZ=    -6.5865   YZ=    18.4940   ZZ=   170.4534
   Eigenvalues:   144.9939   176.8248   179.9907
      6  C    Isotropic =   131.0145   Anisotropy =    38.3911
   XX=   142.7363   YX=   -12.9371   ZX=    -3.8671
   XY=   -15.6382   YY=   141.5732   ZY=    -2.5069
   XZ=   -13.2659   YZ=    -7.7565   ZZ=   108.7341
   Eigenvalues:   104.6081   131.8269   156.6086
      7  C    Isotropic =   118.5099   Anisotropy =    28.3592
   XX=   106.6329   YX=     7.7355   ZX=    -1.3439
   XY=     8.3740   YY=   113.6599   ZY=    -5.1943
   XZ=    10.1564   YZ=    -8.6911   ZZ=   135.2368
   Eigenvalues:    99.7507   118.3629   137.4160
      8  C    Isotropic =   119.6127   Anisotropy =    42.8216
   XX=   132.1411   YX=     1.7503   ZX=   -15.5390
   XY=     2.2493   YY=   114.9091   ZY=   -25.6960
   XZ=   -16.1557   YZ=   -22.6152   ZZ=   111.7878
   Eigenvalues:    86.6959   123.9817   148.1604
      9  H    Isotropic =    29.7590   Anisotropy =    12.4125
   XX=    30.0108   YX=    -5.3217   ZX=     3.2578
   XY=    -6.1385   YY=    30.9168   ZY=    -2.5658
   XZ=     3.4685   YZ=    -2.6364   ZZ=    28.3494
   Eigenvalues:    24.5039    26.7391    38.0340
     10  H    Isotropic =    29.4037   Anisotropy =     9.0559
   XX=    34.8694   YX=     1.6066   ZX=    -1.7085
   XY=     1.5514   YY=    28.6445   ZY=    -0.5050
   XZ=    -1.0545   YZ=    -0.3547   ZZ=    24.6973
   Eigenvalues:    24.5009    28.2693    35.4410
     11  H    Isotropic =    27.9272   Anisotropy =     9.6784
   XX=    25.8403   YX=     0.6637   ZX=     3.8570
   XY=     0.1098   YY=    25.4941   ZY=     0.0473
   XZ=     4.2664   YZ=    -0.3274   ZZ=    32.4474
   Eigenvalues:    23.8088    25.5934    34.3795
     12  H    Isotropic =    28.6691   Anisotropy =    11.8010
   XX=    24.6152   YX=     1.4780   ZX=    -1.8070
   XY=     2.3540   YY=    36.2198   ZY=    -0.0417
   XZ=    -2.0947   YZ=     1.2880   ZZ=    25.1722
   Eigenvalues:    22.6662    26.8045    36.5364
     13  H    Isotropic =    27.2136   Anisotropy =     7.5615
   XX=    31.0980   YX=    -1.5145   ZX=     2.4828
   XY=    -1.2372   YY=    25.8630   ZY=     3.2470
   XZ=     3.4219   YZ=     2.9137   ZZ=    24.6799
   Eigenvalues:    21.1287    28.2575    32.2547
     14  H    Isotropic =    29.9944   Anisotropy =    12.3693
   XX=    27.8250   YX=    -2.4776   ZX=    -1.8662
   XY=    -2.9861   YY=    32.1483   ZY=     5.6833
   XZ=    -2.7786   YZ=     5.9768   ZZ=    30.0099
   Eigenvalues:    25.1510    26.5916    38.2406
     15  H    Isotropic =    29.8904   Anisotropy =     6.4010
   XX=    27.1469   YX=    -0.7538   ZX=     0.0949
   XY=    -0.7695   YY=    29.5019   ZY=    -2.5520
   XZ=    -0.5196   YZ=    -2.0385   ZZ=    33.0224
   Eigenvalues:    26.7672    28.7462    34.1577
     16  H    Isotropic =    28.9275   Anisotropy =     9.1913
   XX=    27.8668   YX=    -1.9836   ZX=    -3.0181
   XY=    -2.1147   YY=    26.3043   ZY=     2.9556
   XZ=    -3.0034   YZ=     1.5430   ZZ=    32.6115
   Eigenvalues:    24.8879    26.8397    35.0551
     17  H    Isotropic =    27.4492   Anisotropy =     8.5552
   XX=    24.6281   YX=    -1.9731   ZX=    -0.0003
   XY=    -2.8383   YY=    30.2248   ZY=     2.6282
   XZ=    -1.2279   YZ=     4.1316   ZZ=    27.4948
   Eigenvalues:    23.5860    25.6090    33.1527
     18  H    Isotropic =    27.2376   Anisotropy =     7.5465
   XX=    24.3073   YX=     1.8635   ZX=    -0.8973
   XY=     1.9529   YY=    28.3001   ZY=     2.8052
   XZ=     1.9510   YZ=     3.5707   ZZ=    29.1053
   Eigenvalues:    23.4180    26.0262    32.2686
     19  O    Isotropic =   311.3460   Anisotropy =    94.0001
   XX=   282.4276   YX=   -11.6299   ZX=     5.0140
   XY=    15.5347   YY=   371.4960   ZY=   -22.8994
   XZ=     6.1692   YZ=    -7.7733   ZZ=   280.1145
   Eigenvalues:   273.7041   286.3213   374.0127
     20  H    Isotropic =    30.0530   Anisotropy =    23.8850
   XX=    23.7174   YX=     4.5606   ZX=    -3.1516
   XY=     5.9481   YY=    44.1412   ZY=    -2.8732
   XZ=    -2.8364   YZ=    -3.1543   ZZ=    22.3003
   Eigenvalues:    19.8887    24.2939    45.9763
     21  O    Isotropic =   312.2537   Anisotropy =    47.9633
   XX=   339.9221   YX=    11.2980   ZX=    -7.9630
   XY=     6.6517   YY=   307.1361   ZY=     9.2349
   XZ=   -13.3921   YZ=   -10.1687   ZZ=   289.7029
   Eigenvalues:   287.4294   305.1025   344.2292
     22  H    Isotropic =    27.6407   Anisotropy =    18.0847
   XX=    38.0338   YX=     2.7628   ZX=    -3.5555
   XY=     2.1261   YY=    18.2982   ZY=    -3.2974
   XZ=    -4.1183   YZ=    -2.8369   ZZ=    26.5901
   Eigenvalues:    17.2207    26.0042    39.6972
     23  C    Isotropic =   130.9359   Anisotropy =    56.1176
   XX=   123.4680   YX=     2.9374   ZX=     8.2510
   XY=     3.2479   YY=   104.2266   ZY=     7.7633
   XZ=    10.7761   YZ=     8.5703   ZZ=   165.1131
   Eigenvalues:   102.9749   121.4851   168.3476
     24  H    Isotropic =    27.1066   Anisotropy =     8.1015
   XX=    29.3509   YX=    -2.2129   ZX=    -0.7737
   XY=    -2.8649   YY=    23.9386   ZY=     2.0592
   XZ=    -3.1188   YZ=     4.0601   ZZ=    28.0302
   Eigenvalues:    22.0226    26.7895    32.5076
     25  H    Isotropic =    27.3011   Anisotropy =     7.6013
   XX=    28.0000   YX=     2.7277   ZX=    -1.5034
   XY=     2.5662   YY=    24.8785   ZY=    -1.4279
   XZ=    -2.5205   YZ=    -3.6782   ZZ=    29.0248
   Eigenvalues:    23.0420    26.4927    32.3686
     26  O    Isotropic =   309.9887   Anisotropy =    48.9173
   XX=   326.2948   YX=    23.4851   ZX=    -5.2835
   XY=    21.6327   YY=   304.3957   ZY=   -24.0451
   XZ=     2.3670   YZ=    -6.6820   ZZ=   299.2757
   Eigenvalues:   281.2169   306.1490   342.6003
     27  H    Isotropic =    26.8740   Anisotropy =    22.7759
   XX=    30.4044   YX=    12.0898   ZX=    -2.7578
   XY=    12.1202   YY=    24.5278   ZY=    -5.3385
   XZ=    -3.1190   YZ=    -6.1582   ZZ=    25.6897
   Eigenvalues:    14.2840    24.2801    42.0579
 End of Minotr Frequency-dependent properties file   721 does not exist.
 End of Minotr Frequency-dependent properties file   722 does not exist.

 **********************************************************************

            Population analysis using the SCF density.

 **********************************************************************

 Orbital symmetries:
       Occupied  (A) (A) (A) (A) (A) (A) (A) (A) (A) (A) (A) (A)
                 (A) (A) (A) (A) (A) (A) (A) (A) (A) (A) (A) (A)
                 (A) (A) (A) (A) (A) (A) (A) (A) (A) (A) (A) (A)
                 (A) (A) (A) (A) (A) (A) (A) (A) (A) (A) (A)
       Virtual   (A) (A) (A) (A) (A) (A) (A) (A) (A) (A) (A) (A)
                 (A) (A) (A) (A) (A) (A) (A) (A) (A) (A) (A) (A)
                 (A) (A) (A) (A) (A) (A) (A) (A) (A) (A) (A) (A)
                 (A) (A) (A) (A) (A) (A) (A) (A) (A) (A) (A) (A)
                 (A) (A) (A) (A) (A) (A) (A) (A) (A) (A) (A) (A)
                 (A) (A) (A) (A) (A) (A) (A) (A) (A) (A) (A) (A)
                 (A) (A) (A) (A) (A) (A) (A) (A) (A) (A) (A) (A)
                 (A) (A) (A) (A) (A) (A) (A) (A) (A) (A) (A) (A)
                 (A) (A) (A) (A) (A) (A) (A) (A) (A) (A) (A) (A)
                 (A) (A) (A) (A) (A) (A) (A) (A) (A) (A) (A) (A)
                 (A) (A) (A) (A) (A) (A) (A) (A) (A) (A) (A) (A)
                 (A) (A) (A) (A) (A) (A) (A) (A) (A) (A) (A) (A)
                 (A) (A) (A) (A) (A) (A) (A) (A) (A) (A) (A) (A)
                 (A) (A) (A) (A) (A) (A) (A) (A) (A) (A) (A) (A)
                 (A) (A) (A) (A) (A) (A) (A) (A) (A) (A) (A) (A)
                 (A) (A) (A) (A) (A) (A) (A) (A) (A) (A) (A) (A)
                 (A) (A) (A) (A) (A) (A) (A) (A) (A) (A) (A) (A)
                 (A) (A) (A) (A) (A) (A) (A) (A) (A) (A) (A) (A)
                 (A) (A) (A) (A) (A) (A) (A) (A) (A) (A) (A) (A)
                 (A) (A) (A) (A) (A) (A) (A) (A) (A) (A) (A) (A)
                 (A) (A) (A) (A) (A) (A) (A) (A) (A) (A) (A) (A)
                 (A) (A) (A) (A)
 The electronic state is 1-A.
 Alpha  occ. eigenvalues --  -19.27518 -19.26050 -19.24182 -14.40909 -10.31075
 Alpha  occ. eigenvalues --  -10.30454 -10.29709 -10.28317 -10.27814 -10.25966
 Alpha  occ. eigenvalues --  -10.24345 -10.24026  -1.08935  -1.05721  -1.04108
 Alpha  occ. eigenvalues --   -0.95910  -0.82560  -0.78613  -0.75280  -0.71804
 Alpha  occ. eigenvalues --   -0.66878  -0.62079  -0.59096  -0.58291  -0.56021
 Alpha  occ. eigenvalues --   -0.53442  -0.52201  -0.50143  -0.48001  -0.47244
 Alpha  occ. eigenvalues --   -0.46230  -0.45435  -0.43303  -0.42232  -0.40602
 Alpha  occ. eigenvalues --   -0.39680  -0.38797  -0.37382  -0.36381  -0.35245
 Alpha  occ. eigenvalues --   -0.34707  -0.33951  -0.33316  -0.30930  -0.30213
 Alpha  occ. eigenvalues --   -0.28530  -0.22720
 Alpha virt. eigenvalues --   -0.00287   0.01504   0.02072   0.02309   0.04196
 Alpha virt. eigenvalues --    0.04395   0.04710   0.04916   0.05448   0.07403
 Alpha virt. eigenvalues --    0.07577   0.08423   0.08610   0.08924   0.09900
 Alpha virt. eigenvalues --    0.10839   0.11058   0.11203   0.12130   0.12990
 Alpha virt. eigenvalues --    0.13993   0.14159   0.14573   0.15252   0.15619
 Alpha virt. eigenvalues --    0.16369   0.16620   0.17267   0.17665   0.18213
 Alpha virt. eigenvalues --    0.18805   0.19242   0.20161   0.20599   0.20962
 Alpha virt. eigenvalues --    0.21368   0.22229   0.22297   0.22798   0.23493
 Alpha virt. eigenvalues --    0.23860   0.23947   0.24873   0.25203   0.25417
 Alpha virt. eigenvalues --    0.26450   0.26765   0.27388   0.27754   0.29442
 Alpha virt. eigenvalues --    0.29651   0.29937   0.30135   0.31005   0.31619
 Alpha virt. eigenvalues --    0.32168   0.32918   0.33360   0.34924   0.35132
 Alpha virt. eigenvalues --    0.35647   0.36655   0.37589   0.38643   0.39088
 Alpha virt. eigenvalues --    0.39439   0.39805   0.40999   0.41961   0.42788
 Alpha virt. eigenvalues --    0.43778   0.44138   0.45720   0.48024   0.48985
 Alpha virt. eigenvalues --    0.49600   0.65875   0.66645   0.68712   0.69438
 Alpha virt. eigenvalues --    0.69943   0.70892   0.72860   0.74836   0.75360
 Alpha virt. eigenvalues --    0.76182   0.77751   0.79264   0.81113   0.82611
 Alpha virt. eigenvalues --    0.82841   0.83046   0.86442   0.86507   0.87138
 Alpha virt. eigenvalues --    0.90219   0.92456   0.93373   0.95174   0.97144
 Alpha virt. eigenvalues --    0.99097   1.00400   1.02266   1.04262   1.05082
 Alpha virt. eigenvalues --    1.06595   1.06847   1.07988   1.09247   1.10392
 Alpha virt. eigenvalues --    1.12892   1.13014   1.14524   1.15531   1.17104
 Alpha virt. eigenvalues --    1.18206   1.18387   1.19198   1.22781   1.24497
 Alpha virt. eigenvalues --    1.26394   1.28235   1.31272   1.32207   1.33665
 Alpha virt. eigenvalues --    1.34597   1.36231   1.37986   1.40059   1.41621
 Alpha virt. eigenvalues --    1.44210   1.47332   1.47552   1.49376   1.52208
 Alpha virt. eigenvalues --    1.55936   1.57772   1.59971   1.60990   1.61845
 Alpha virt. eigenvalues --    1.62793   1.64822   1.66939   1.69238   1.70786
 Alpha virt. eigenvalues --    1.71169   1.74604   1.78718   1.79081   1.80431
 Alpha virt. eigenvalues --    1.81639   1.83426   1.84539   1.85572   1.86235
 Alpha virt. eigenvalues --    1.86249   1.89510   1.92318   1.93019   1.93980
 Alpha virt. eigenvalues --    1.96935   1.98547   2.01283   2.02975   2.03564
 Alpha virt. eigenvalues --    2.04295   2.04836   2.09236   2.09747   2.11473
 Alpha virt. eigenvalues --    2.13877   2.14846   2.16790   2.18266   2.19635
 Alpha virt. eigenvalues --    2.21855   2.23035   2.25040   2.27988   2.29861
 Alpha virt. eigenvalues --    2.30712   2.32273   2.37592   2.39040   2.40909
 Alpha virt. eigenvalues --    2.42803   2.44792   2.47134   2.47961   2.49571
 Alpha virt. eigenvalues --    2.50253   2.52607   2.53121   2.54973   2.55828
 Alpha virt. eigenvalues --    2.57298   2.59977   2.60180   2.60504   2.62954
 Alpha virt. eigenvalues --    2.64921   2.66236   2.67246   2.67849   2.69868
 Alpha virt. eigenvalues --    2.72283   2.73212   2.74574   2.76290   2.77935
 Alpha virt. eigenvalues --    2.79606   2.81761   2.83909   2.84935   2.85178
 Alpha virt. eigenvalues --    2.86773   2.87591   2.90912   2.91895   2.94222
 Alpha virt. eigenvalues --    2.95592   2.97101   2.98373   3.01965   3.04409
 Alpha virt. eigenvalues --    3.06044   3.08905   3.14269   3.16622   3.33824
 Alpha virt. eigenvalues --    3.36799   3.37063   3.41177   3.42154   3.46239
 Alpha virt. eigenvalues --    3.49211   3.50438   3.52106   3.54275   3.56236
 Alpha virt. eigenvalues --    3.56569   3.59609   3.61501   3.66543   4.28623
 Alpha virt. eigenvalues --    4.35014   4.36946   4.45813   4.55071   4.60366
 Alpha virt. eigenvalues --    4.63244   4.68968   4.79013   4.83203   4.93458
 Alpha virt. eigenvalues --    5.01753
          Condensed to atoms (all electrons):
              1          2          3          4          5          6
     1  C    6.014265  -0.103699  -0.098302  -0.013401   0.048906   0.207402
     2  C   -0.103699   7.008438  -0.266681   0.029918  -0.235884  -0.388257
     3  N   -0.098302  -0.266681   7.645459   0.101492  -0.049039  -0.438276
     4  C   -0.013401   0.029918   0.101492   5.662873   0.065673  -0.279230
     5  C    0.048906  -0.235884  -0.049039   0.065673   5.565815   0.084407
     6  C    0.207402  -0.388257  -0.438276  -0.279230   0.084407   9.251159
     7  C   -0.051554   0.378077  -0.038502   0.169359  -0.127014  -1.855236
     8  C   -0.206798  -0.353755   0.082735  -0.103696   0.226309   0.379496
     9  H    0.379523  -0.047445   0.007225  -0.004170  -0.028847   0.007673
    10  H    0.421987  -0.098100   0.010273   0.031005  -0.042472   0.002166
    11  H   -0.006433   0.247422  -0.006832  -0.008973   0.026456  -0.002517
    12  H   -0.007154  -0.029309  -0.021866   0.383763  -0.021128  -0.015857
    13  H    0.038439   0.018079  -0.084240   0.410701  -0.048803   0.082613
    14  H   -0.010323   0.013632   0.015886  -0.020780   0.346653  -0.011516
    15  H   -0.080516   0.005218   0.020411  -0.080172   0.449796  -0.004835
    16  H    0.001920   0.003498   0.000312   0.013308  -0.001399   0.214699
    17  H   -0.005966   0.000533   0.035384  -0.000747   0.003505  -0.101251
    18  H    0.008879  -0.008014   0.018556   0.002577  -0.006304  -0.056970
    19  O    0.010459  -0.219851   0.042657  -0.004843  -0.004179   0.060300
    20  H   -0.001693   0.024975  -0.003108  -0.000568  -0.000169   0.011188
    21  O   -0.029200   0.052032   0.105619   0.016604   0.013999  -0.364434
    22  H    0.001258   0.006709  -0.006098  -0.001740  -0.003905   0.021589
    23  C   -0.071334  -0.005313   0.008112  -0.092627   0.034928  -0.460272
    24  H    0.000750  -0.005123   0.015380   0.000306  -0.000326  -0.044525
    25  H   -0.000743   0.002195  -0.012924   0.004108   0.000092  -0.138458
    26  O    0.011514  -0.030427   0.059950   0.003851  -0.013053  -0.152863
    27  H    0.000947   0.006011  -0.012040   0.008986  -0.005923  -0.051251
              7          8          9         10         11         12
     1  C   -0.051554  -0.206798   0.379523   0.421987  -0.006433  -0.007154
     2  C    0.378077  -0.353755  -0.047445  -0.098100   0.247422  -0.029309
     3  N   -0.038502   0.082735   0.007225   0.010273  -0.006832  -0.021866
     4  C    0.169359  -0.103696  -0.004170   0.031005  -0.008973   0.383763
     5  C   -0.127014   0.226309  -0.028847  -0.042472   0.026456  -0.021128
     6  C   -1.855236   0.379496   0.007673   0.002166  -0.002517  -0.015857
     7  C    7.299620  -0.652078  -0.010822  -0.007173   0.007566  -0.006917
     8  C   -0.652078   6.307852   0.025510   0.020367   0.013108   0.011797
     9  H   -0.010822   0.025510   0.526283  -0.024333  -0.006551   0.001242
    10  H   -0.007173   0.020367  -0.024333   0.506250   0.001347  -0.000090
    11  H    0.007566   0.013108  -0.006551   0.001347   0.561096   0.000430
    12  H   -0.006917   0.011797   0.001242  -0.000090   0.000430   0.571809
    13  H   -0.003440  -0.020224  -0.000103  -0.000127  -0.000239  -0.036761
    14  H    0.006905  -0.003439  -0.005048   0.000479  -0.000089  -0.004339
    15  H   -0.001468   0.013679   0.004179  -0.005136  -0.000026   0.004371
    16  H    0.027158  -0.018468   0.000004   0.000000   0.002716   0.000131
    17  H    0.374123   0.047951   0.000003  -0.000004  -0.000011   0.000008
    18  H    0.078825   0.280426  -0.000052   0.000052  -0.007429   0.000004
    19  O   -0.087280   0.209610   0.000000  -0.001437   0.009779   0.000336
    20  H   -0.075172   0.058532  -0.000001  -0.000134  -0.000214   0.000000
    21  O    0.334324  -0.048990   0.000172   0.000084  -0.000001   0.001138
    22  H    0.017608  -0.066956   0.000001   0.000006  -0.000067  -0.000013
    23  C    0.096609  -0.087877  -0.000024   0.000272   0.002409   0.014152
    24  H   -0.011746   0.004844   0.000000   0.000000   0.000003   0.000005
    25  H    0.026603  -0.009716   0.000000   0.000000  -0.000015  -0.000298
    26  O   -0.017479  -0.007940  -0.000006  -0.000011   0.000194   0.002717
    27  H    0.041932  -0.019572   0.000000   0.000000  -0.000002  -0.000045
             13         14         15         16         17         18
     1  C    0.038439  -0.010323  -0.080516   0.001920  -0.005966   0.008879
     2  C    0.018079   0.013632   0.005218   0.003498   0.000533  -0.008014
     3  N   -0.084240   0.015886   0.020411   0.000312   0.035384   0.018556
     4  C    0.410701  -0.020780  -0.080172   0.013308  -0.000747   0.002577
     5  C   -0.048803   0.346653   0.449796  -0.001399   0.003505  -0.006304
     6  C    0.082613  -0.011516  -0.004835   0.214699  -0.101251  -0.056970
     7  C   -0.003440   0.006905  -0.001468   0.027158   0.374123   0.078825
     8  C   -0.020224  -0.003439   0.013679  -0.018468   0.047951   0.280426
     9  H   -0.000103  -0.005048   0.004179   0.000004   0.000003  -0.000052
    10  H   -0.000127   0.000479  -0.005136   0.000000  -0.000004   0.000052
    11  H   -0.000239  -0.000089  -0.000026   0.002716  -0.000011  -0.007429
    12  H   -0.036761  -0.004339   0.004371   0.000131   0.000008   0.000004
    13  H    0.521726   0.000922  -0.007096  -0.000369  -0.000103   0.000009
    14  H    0.000922   0.524796  -0.024347   0.000005   0.000000   0.000004
    15  H   -0.007096  -0.024347   0.525863   0.000009   0.000026   0.000025
    16  H   -0.000369   0.000005   0.000009   0.561542  -0.000697   0.000967
    17  H   -0.000103   0.000000   0.000026  -0.000697   0.556691  -0.004524
    18  H    0.000009   0.000004   0.000025   0.000967  -0.004524   0.538019
    19  O    0.000246   0.000370   0.001861  -0.000193  -0.006771  -0.030593
    20  H   -0.000001  -0.000002   0.000081  -0.000002   0.001305  -0.009505
    21  O   -0.006607   0.000258   0.002044   0.012187  -0.046973   0.003579
    22  H    0.000131   0.000010   0.000488  -0.000230   0.002480   0.001287
    23  C   -0.038091   0.000959   0.003856  -0.002028  -0.024689   0.009344
    24  H    0.000126   0.000000   0.000000  -0.002918   0.001589   0.000006
    25  H    0.000253   0.000000  -0.000002  -0.002968  -0.000105   0.000004
    26  O   -0.005635   0.000191   0.000314   0.012909   0.001009   0.000056
    27  H   -0.000659  -0.000007  -0.000066  -0.000189  -0.000662  -0.000006
             19         20         21         22         23         24
     1  C    0.010459  -0.001693  -0.029200   0.001258  -0.071334   0.000750
     2  C   -0.219851   0.024975   0.052032   0.006709  -0.005313  -0.005123
     3  N    0.042657  -0.003108   0.105619  -0.006098   0.008112   0.015380
     4  C   -0.004843  -0.000568   0.016604  -0.001740  -0.092627   0.000306
     5  C   -0.004179  -0.000169   0.013999  -0.003905   0.034928  -0.000326
     6  C    0.060300   0.011188  -0.364434   0.021589  -0.460272  -0.044525
     7  C   -0.087280  -0.075172   0.334324   0.017608   0.096609  -0.011746
     8  C    0.209610   0.058532  -0.048990  -0.066956  -0.087877   0.004844
     9  H    0.000000  -0.000001   0.000172   0.000001  -0.000024   0.000000
    10  H   -0.001437  -0.000134   0.000084   0.000006   0.000272   0.000000
    11  H    0.009779  -0.000214  -0.000001  -0.000067   0.002409   0.000003
    12  H    0.000336   0.000000   0.001138  -0.000013   0.014152   0.000005
    13  H    0.000246  -0.000001  -0.006607   0.000131  -0.038091   0.000126
    14  H    0.000370  -0.000002   0.000258   0.000010   0.000959   0.000000
    15  H    0.001861   0.000081   0.002044   0.000488   0.003856   0.000000
    16  H   -0.000193  -0.000002   0.012187  -0.000230  -0.002028  -0.002918
    17  H   -0.006771   0.001305  -0.046973   0.002480  -0.024689   0.001589
    18  H   -0.030593  -0.009505   0.003579   0.001287   0.009344   0.000006
    19  O    8.403251   0.235233  -0.028996   0.048440  -0.000315   0.000070
    20  H    0.235233   0.345503   0.003272  -0.004606  -0.001938   0.000000
    21  O   -0.028996   0.003272   8.348769   0.240871  -0.004767   0.000212
    22  H    0.048440  -0.004606   0.240871   0.332699   0.003111  -0.000044
    23  C   -0.000315  -0.001938  -0.004767   0.003111   5.783149   0.394499
    24  H    0.000070   0.000000   0.000212  -0.000044   0.394499   0.585772
    25  H    0.000023   0.000000  -0.000662   0.000017   0.516797  -0.039853
    26  O    0.000675  -0.000012   0.008412  -0.000113   0.211647  -0.051701
    27  H    0.000254  -0.000002   0.019533   0.000122   0.015479  -0.002124
             25         26         27
     1  C   -0.000743   0.011514   0.000947
     2  C    0.002195  -0.030427   0.006011
     3  N   -0.012924   0.059950  -0.012040
     4  C    0.004108   0.003851   0.008986
     5  C    0.000092  -0.013053  -0.005923
     6  C   -0.138458  -0.152863  -0.051251
     7  C    0.026603  -0.017479   0.041932
     8  C   -0.009716  -0.007940  -0.019572
     9  H    0.000000  -0.000006   0.000000
    10  H    0.000000  -0.000011   0.000000
    11  H   -0.000015   0.000194  -0.000002
    12  H   -0.000298   0.002717  -0.000045
    13  H    0.000253  -0.005635  -0.000659
    14  H    0.000000   0.000191  -0.000007
    15  H   -0.000002   0.000314  -0.000066
    16  H   -0.002968   0.012909  -0.000189
    17  H   -0.000105   0.001009  -0.000662
    18  H    0.000004   0.000056  -0.000006
    19  O    0.000023   0.000675   0.000254
    20  H    0.000000  -0.000012  -0.000002
    21  O   -0.000662   0.008412   0.019533
    22  H    0.000017  -0.000113   0.000122
    23  C    0.516797   0.211647   0.015479
    24  H   -0.039853  -0.051701  -0.002124
    25  H    0.547066  -0.063591   0.005704
    26  O   -0.063591   8.359943   0.252787
    27  H    0.005704   0.252787   0.330725
 Mulliken atomic charges:
              1
     1  C   -0.459133
     2  C   -0.004880
     3  N   -0.131544
     4  C   -0.293577
     5  C   -0.278095
     6  C    0.043057
     7  C    0.087172
     8  C   -0.082704
     9  H    0.175588
    10  H    0.184729
    11  H    0.166874
    12  H    0.151875
    13  H    0.179250
    14  H    0.168819
    15  H    0.171441
    16  H    0.178097
    17  H    0.167895
    18  H    0.180776
    19  O   -0.639106
    20  H    0.417036
    21  O   -0.632478
    22  H    0.406945
    23  C   -0.306046
    24  H    0.154800
    25  H    0.166475
    26  O   -0.583335
    27  H    0.410070
 Sum of Mulliken atomic charges =   0.00000
 Mulliken charges with hydrogens summed into heavy atoms:
              1
     1  C   -0.098816
     2  C    0.161994
     3  N   -0.131544
     4  C    0.037548
     5  C    0.062166
     6  C    0.221154
     7  C    0.255068
     8  C    0.098071
    19  O   -0.222070
    21  O   -0.225534
    23  C    0.015229
    26  O   -0.173266
 Sum of Mulliken charges with hydrogens summed into heavy atoms =   0.00000
 Electronic spatial extent (au):  <R**2>=           1819.2271
 Charge=              0.0000 electrons
 Dipole moment (field-independent basis, Debye):
    X=             -3.7485    Y=             -4.0934    Z=             -2.0943  Tot=              5.9324
 Quadrupole moment (field-independent basis, Debye-Ang):
   XX=            -81.6008   YY=            -65.1858   ZZ=            -73.2190
   XY=              0.6673   XZ=             -5.4204   YZ=              3.0144
 Traceless Quadrupole moment (field-independent basis, Debye-Ang):
   XX=             -8.2656   YY=              8.1494   ZZ=              0.1162
   XY=              0.6673   XZ=             -5.4204   YZ=              3.0144
 Octapole moment (field-independent basis, Debye-Ang**2):
  XXX=            -25.5618  YYY=            -38.3283  ZZZ=              9.8816  XYY=            -19.3392
  XXY=            -14.4969  XXZ=            -20.6772  XZZ=             -3.9063  YZZ=            -11.6443
  YYZ=              4.4507  XYZ=             -0.0237
 Hexadecapole moment (field-independent basis, Debye-Ang**3):
 XXXX=          -1336.5273 YYYY=           -651.4229 ZZZZ=           -390.9293 XXXY=             -5.8737
 XXXZ=            -49.6008 YYYX=             60.5121 YYYZ=             -7.5186 ZZZX=              4.9936
 ZZZY=             -3.0040 XXYY=           -298.5819 XXZZ=           -273.8540 YYZZ=           -192.4618
 XXYZ=            -13.3115 YYXZ=            -13.8201 ZZXY=              6.4121
 N-N= 8.291726885912D+02 E-N=-3.044319029287D+03  KE= 5.886622911297D+02
 1\1\GINC-COMPUTE-3-1\SP\RmPW1PW91\6-31+G(d,p)\C8H15N1O3\MAMICHETTI.IQU
 IR\17-May-2024\0\\# mpw1pw91/6-31+G** nmr scrf=(pcm,solvent=water)\\co
 mment\\0,1\C,0,-2.204172,1.063467,-0.114552\C,0,-1.260197,0.238969,-0.
 997838\N,0,0.063742,0.919965,-0.902918\C,0,0.034943,1.8139,0.296052\C,
 0,-1.290207,1.546312,1.021042\C,0,1.068068,-0.16491,-0.962161\C,0,0.45
 9509,-1.382849,-0.247544\C,0,-1.051557,-1.258387,-0.583816\H,0,-2.5779
 81,1.918818,-0.689811\H,0,-3.065987,0.487169,0.229308\H,0,-1.599799,0.
 24247,-2.039638\H,0,0.063342,2.858223,-0.044963\H,0,0.90877,1.659054,0
 .927051\H,0,-1.673119,2.436119,1.531502\H,0,-1.166744,0.754718,1.76831
 4\H,0,1.137534,-0.460633,-2.020676\H,0,0.88661,-2.323824,-0.615793\H,0
 ,-1.297758,-1.911648,-1.425459\O,0,-1.859889,-1.622207,0.54313\H,0,-1.
 921058,-2.592772,0.555347\O,0,0.651469,-1.317715,1.173187\H,0,-0.24249
 3,-1.433086,1.559655\C,0,2.509838,0.16998,-0.573435\H,0,3.137538,-0.65
 8801,-0.934808\H,0,2.834649,1.074243,-1.099382\O,0,2.755902,0.386444,0
 .821126\H,0,2.153107,-0.22086,1.293739\\Version=AM64L-G09RevC.01\State
 =1-A\HF=-594.1905886\RMSD=4.859e-09\Dipole=-1.4747834,-1.6104485,-0.82
 39725\Quadrupole=-6.1452582,6.0588614,0.0863968,0.4961202,-4.0299684,2
 .2411637\PG=C01 [X(C8H15N1O3)]\\@


 GETTING A SIMPLE ANSWER FROM A PROFESSOR IS LIKE
 GETTING A THIMBLE OF WATER FROM A FIRE HYDRANT.
     -- PROF. LEN SHAPIRO, NDSU
 Job cpu time:  0 days  0 hours  8 minutes 46.0 seconds.
 File lengths (MBytes):  RWF=    110 Int=      0 D2E=      0 Chk=      7 Scr=      1
 Normal termination of Gaussian 09 at Fri May 17 13:24:11 2024.
