 Entering Gaussian System, Link 0=g09
 Input=/home/mamichetti.iquir/Linux/04_Cardona_A1A3_R__S_R_S_040_OptB.gjc
 Output=/home/mamichetti.iquir/Linux/04_Cardona_A1A3_R__S_R_S_040_OptB.log
 Initial command:
 /opt/ohpc/pub/apps/software/Gaussian/09/AMD64.SSE4a-enabled/g09/l1.exe /local/mamichetti.iquir/Gau-411358.inp -scrdir=/local/mamichetti.iquir/
 Entering Link 1 = /opt/ohpc/pub/apps/software/Gaussian/09/AMD64.SSE4a-enabled/g09/l1.exe PID=    411359.
  
 Copyright (c) 1988,1990,1992,1993,1995,1998,2003,2009,2011,
            Gaussian, Inc.  All Rights Reserved.
  
 This is part of the Gaussian(R) 09 program.  It is based on
 the Gaussian(R) 03 system (copyright 2003, Gaussian, Inc.),
 the Gaussian(R) 98 system (copyright 1998, Gaussian, Inc.),
 the Gaussian(R) 94 system (copyright 1995, Gaussian, Inc.),
 the Gaussian 92(TM) system (copyright 1992, Gaussian, Inc.),
 the Gaussian 90(TM) system (copyright 1990, Gaussian, Inc.),
 the Gaussian 88(TM) system (copyright 1988, Gaussian, Inc.),
 the Gaussian 86(TM) system (copyright 1986, Carnegie Mellon
 University), and the Gaussian 82(TM) system (copyright 1983,
 Carnegie Mellon University). Gaussian is a federally registered
 trademark of Gaussian, Inc.
  
 This software contains proprietary and confidential information,
 including trade secrets, belonging to Gaussian, Inc.
  
 This software is provided under written license and may be
 used, copied, transmitted, or stored only in accord with that
 written license.
  
 The following legend is applicable only to US Government
 contracts under FAR:
  
                    RESTRICTED RIGHTS LEGEND
  
 Use, reproduction and disclosure by the US Government is
 subject to restrictions as set forth in subparagraphs (a)
 and (c) of the Commercial Computer Software - Restricted
 Rights clause in FAR 52.227-19.
  
 Gaussian, Inc.
 340 Quinnipiac St., Bldg. 40, Wallingford CT 06492
  
  
 ---------------------------------------------------------------
 Warning -- This program may not be used in any manner that
 competes with the business of Gaussian, Inc. or will provide
 assistance to any competitor of Gaussian, Inc.  The licensee
 of this program is prohibited from giving any competitor of
 Gaussian, Inc. access to this program.  By using this program,
 the user acknowledges that Gaussian, Inc. is engaged in the
 business of creating and licensing software in the field of
 computational chemistry and represents and warrants to the
 licensee that it is not a competitor of Gaussian, Inc. and that
 it will not use this program in any manner prohibited above.
 ---------------------------------------------------------------
  

 Cite this work as:
 Gaussian 09, Revision C.01,
 M. J. Frisch, G. W. Trucks, H. B. Schlegel, G. E. Scuseria, 
 M. A. Robb, J. R. Cheeseman, G. Scalmani, V. Barone, B. Mennucci, 
 G. A. Petersson, H. Nakatsuji, M. Caricato, X. Li, H. P. Hratchian, 
 A. F. Izmaylov, J. Bloino, G. Zheng, J. L. Sonnenberg, M. Hada, 
 M. Ehara, K. Toyota, R. Fukuda, J. Hasegawa, M. Ishida, T. Nakajima, 
 Y. Honda, O. Kitao, H. Nakai, T. Vreven, J. A. Montgomery, Jr., 
 J. E. Peralta, F. Ogliaro, M. Bearpark, J. J. Heyd, E. Brothers, 
 K. N. Kudin, V. N. Staroverov, T. Keith, R. Kobayashi, J. Normand, 
 K. Raghavachari, A. Rendell, J. C. Burant, S. S. Iyengar, J. Tomasi, 
 M. Cossi, N. Rega, J. M. Millam, M. Klene, J. E. Knox, J. B. Cross, 
 V. Bakken, C. Adamo, J. Jaramillo, R. Gomperts, R. E. Stratmann, 
 O. Yazyev, A. J. Austin, R. Cammi, C. Pomelli, J. W. Ochterski, 
 R. L. Martin, K. Morokuma, V. G. Zakrzewski, G. A. Voth, 
 P. Salvador, J. J. Dannenberg, S. Dapprich, A. D. Daniels, 
 O. Farkas, J. B. Foresman, J. V. Ortiz, J. Cioslowski, 
 and D. J. Fox, Gaussian, Inc., Wallingford CT, 2010.
 
 ******************************************
 Gaussian 09:  AM64L-G09RevC.01 23-Sep-2011
                17-May-2024 
 ******************************************
 %nprocshared=4
 Will use up to    4 processors via shared memory.
 ------------------------------------------------
 # mpw1pw91/6-31+G** nmr scrf=(pcm,solvent=water)
 ------------------------------------------------
 1/38=1/1;
 2/12=2,17=6,18=5,40=1/2;
 3/5=1,6=6,7=111,11=2,16=1,25=1,30=1,70=2201,72=1,74=-7/1,2,8,3;
 4//1;
 5/5=2,38=5,53=1/2;
 8/6=1,10=90,11=11/1;
 10/13=100,45=16/2;
 6/7=2,8=2,9=2,10=2,28=1/1;
 99/9=1/99;
 -------
 comment
 -------
 Charge =  0 Multiplicity = 1
 Symbolic Z-Matrix:
 6                    -1.84271   1.39447   0.10518 
 6                    -1.09366   0.48824  -0.88652 
 7                     0.37006   0.74246  -0.6492 
 6                     0.48583   1.67525   0.49684 
 6                    -0.80916   2.48238   0.43021 
 6                     1.02812  -0.58481  -0.53313 
 6                    -0.04098  -1.56627  -0.0298 
 6                    -1.31651  -1.05161  -0.73748 
 1                    -2.77619   1.78571  -0.31045 
 1                    -2.09467   0.83977   1.01653 
 1                    -1.34533   0.77912  -1.91333 
 1                     1.38856   2.28827   0.40149 
 1                     0.5433    1.17448   1.47678 
 1                    -0.75782   3.21988  -0.37993 
 1                    -1.01823   3.01525   1.36313 
 1                     1.27171  -0.91928  -1.55297 
 1                     0.18761  -2.59883  -0.30411 
 1                    -1.37027  -1.50151  -1.73368 
 8                    -2.50183  -1.43752  -0.05253 
 1                    -2.23852  -1.50816   0.88524 
 8                    -0.2248   -1.60162   1.39697 
 1                    -0.27608  -0.69226   1.73691 
 6                     2.32753  -0.62072   0.25428 
 1                     2.17672  -0.2931    1.28911 
 1                     2.67475  -1.66343   0.28733 
 8                     3.29174   0.21089  -0.40221 
 1                     4.09248   0.20141   0.14703 
 
                          Input orientation:                          
 ---------------------------------------------------------------------
 Center     Atomic      Atomic             Coordinates (Angstroms)
 Number     Number       Type             X           Y           Z
 ---------------------------------------------------------------------
      1          6           0       -1.842713    1.394469    0.105179
      2          6           0       -1.093656    0.488236   -0.886515
      3          7           0        0.370060    0.742462   -0.649203
      4          6           0        0.485825    1.675247    0.496844
      5          6           0       -0.809164    2.482380    0.430212
      6          6           0        1.028118   -0.584812   -0.533131
      7          6           0       -0.040981   -1.566272   -0.029801
      8          6           0       -1.316506   -1.051614   -0.737484
      9          1           0       -2.776194    1.785705   -0.310449
     10          1           0       -2.094666    0.839765    1.016532
     11          1           0       -1.345329    0.779119   -1.913331
     12          1           0        1.388561    2.288268    0.401487
     13          1           0        0.543299    1.174481    1.476781
     14          1           0       -0.757824    3.219882   -0.379931
     15          1           0       -1.018226    3.015253    1.363133
     16          1           0        1.271708   -0.919279   -1.552967
     17          1           0        0.187608   -2.598834   -0.304106
     18          1           0       -1.370274   -1.501510   -1.733675
     19          8           0       -2.501831   -1.437524   -0.052534
     20          1           0       -2.238516   -1.508156    0.885235
     21          8           0       -0.224798   -1.601619    1.396969
     22          1           0       -0.276082   -0.692257    1.736913
     23          6           0        2.327530   -0.620721    0.254279
     24          1           0        2.176723   -0.293101    1.289111
     25          1           0        2.674752   -1.663432    0.287331
     26          8           0        3.291735    0.210890   -0.402206
     27          1           0        4.092476    0.201410    0.147026
 ---------------------------------------------------------------------
                    Distance matrix (angstroms):
                    1          2          3          4          5
     1  C    0.000000
     2  C    1.538116   0.000000
     3  N    2.427050   1.504464   0.000000
     4  C    2.377883   2.411936   1.482199   0.000000
     5  C    1.535389   2.406515   2.362842   1.527383   0.000000
     6  C    3.544949   2.403796   1.485991   2.542203   3.702877
     7  C    3.468493   2.462334   2.425462   3.326007   4.146480
     8  C    2.640132   1.563013   2.463941   3.493957   3.756331
     9  H    1.094166   2.201411   3.331970   3.362245   2.214304
    10  H    1.096240   2.178803   2.976410   2.761710   2.166673
    11  H    2.168047   1.096496   2.131179   3.156757   2.946314
    12  H    3.365681   3.325728   2.128570   1.095363   2.206468
    13  H    2.760931   2.955625   2.176341   1.101974   2.152920
    14  H    2.178175   2.798446   2.735368   2.168247   1.096757
    15  H    2.211146   3.384143   3.338025   2.192770   1.094533
    16  H    4.219300   2.831996   2.095505   3.398662   4.453573
    17  H    4.498465   3.392763   3.364021   4.358695   5.229867
    18  H    3.462842   2.180203   3.039778   4.302569   4.568220
    19  O    2.911957   2.527258   3.654601   4.349396   4.296954
    20  H    3.031564   2.904373   3.771532   4.207961   4.263153
    21  O    3.641828   3.215075   3.167869   3.471752   4.237352
    22  H    3.077550   2.990713   2.858228   2.779091   3.474185
    23  C    4.634021   3.773024   2.550733   2.953334   4.415771
    24  H    4.517240   4.004899   2.844905   2.713156   4.166116
    25  H    5.458152   4.495385   3.460784   3.997759   5.417180
    26  O    5.293473   4.420761   2.979893   3.290253   4.761298
    27  H    6.054057   5.295889   3.844880   3.911841   5.413787
                    6          7          8          9         10
     6  C    0.000000
     7  C    1.536092   0.000000
     8  C    2.399359   1.546820   0.000000
     9  H    4.487954   4.335424   3.219228   0.000000
    10  H    3.765987   3.331884   2.694331   1.766398   0.000000
    11  H    3.065699   3.278699   2.176012   2.372724   3.024778
    12  H    3.042699   4.133652   4.446285   4.254951   3.822213
    13  H    2.714757   3.181650   3.649294   3.819270   2.698652
    14  H    4.205800   4.852188   4.322690   2.476996   3.066303
    15  H    4.554537   4.887294   4.587044   2.720867   2.451857
    16  H    1.100577   2.112294   2.716869   5.024570   4.585743
    17  H    2.194355   1.092557   2.200924   5.292291   4.333223
    18  H    2.834418   2.162036   1.094392   3.848112   3.683741
    19  O    3.663145   2.464321   1.422350   3.245150   2.548476
    20  H    3.679025   2.381140   1.921393   3.545177   2.355985
    21  O    2.515747   1.438996   2.459720   4.571527   3.098628
    22  H    2.620226   1.985057   2.708184   4.072167   2.484610
    23  C    1.519795   2.566050   3.801087   5.670785   4.719096
    24  H    2.173696   2.877274   4.109146   5.604589   4.427465
    25  H    2.132600   2.735913   4.165898   6.478171   5.435538
    26  O    2.402966   3.795258   4.789803   6.269627   5.605499
    27  H    3.235900   4.499048   5.622234   7.063845   6.280467
                   11         12         13         14         15
    11  H    0.000000
    12  H    3.887167   0.000000
    13  H    3.900780   1.763873   0.000000
    14  H    2.941734   2.466878   3.053517   0.000000
    15  H    3.980265   2.691820   2.416551   1.774248   0.000000
    16  H    3.140589   3.757912   3.754169   4.756855   5.406291
    17  H    4.043522   5.081724   4.187598   5.895511   5.979272
    18  H    2.287830   5.150971   4.596707   4.949673   5.487741
    19  O    3.116660   5.405813   4.293506   4.983992   4.902287
    20  H    3.723088   5.272811   3.909599   5.113456   4.709429
    21  O    4.228663   4.327255   2.881506   5.166078   4.684675
    22  H    4.078298   3.665778   2.055180   4.474141   3.799489
    23  C    4.488650   3.060319   2.810826   4.967078   5.063985
    24  H    4.879564   2.841222   2.203881   4.872198   4.599824
    25  H    5.193267   4.157313   3.743212   6.006211   6.056858
    26  O    4.910066   2.929760   3.465978   5.045142   5.436602
    27  H    5.843675   3.425038   3.913026   5.737096   5.959522
                   16         17         18         19         20
    16  H    0.000000
    17  H    2.357081   0.000000
    18  H    2.711405   2.382180   0.000000
    19  O    4.093834   2.940240   2.027499   0.000000
    20  H    4.314311   2.913793   2.759090   0.976593   0.000000
    21  O    3.377461   2.014491   3.335127   2.704231   2.079824
    22  H    3.642870   2.831219   3.727885   2.951525   2.289584
    23  C    2.114246   2.967152   4.289698   4.907548   4.694084
    24  H    3.047714   3.436761   4.814424   4.999858   4.597152
    25  H    2.430842   2.722253   4.524701   5.192644   4.951949
    26  O    2.584965   4.188052   5.141931   6.033651   5.932647
    27  H    3.478887   4.826270   6.023173   6.797854   6.599169
                   21         22         23         24         25
    21  O    0.000000
    22  H    0.972179   0.000000
    23  C    2.963491   2.997018   0.000000
    24  H    2.736998   2.525095   1.095881   0.000000
    25  H    3.105239   3.428103   1.099501   1.769012   0.000000
    26  O    4.346058   4.256856   1.432564   2.087537   2.090266
    27  H    4.842740   4.733992   1.949984   2.284515   2.346756
                   26         27
    26  O    0.000000
    27  H    0.971047   0.000000
 Stoichiometry    C8H15NO3
 Framework group  C1[X(C8H15NO3)]
 Deg. of freedom    75
 Full point group                 C1      NOp   1
 Largest Abelian subgroup         C1      NOp   1
 Largest concise Abelian subgroup C1      NOp   1
                         Standard orientation:                         
 ---------------------------------------------------------------------
 Center     Atomic      Atomic             Coordinates (Angstroms)
 Number     Number       Type             X           Y           Z
 ---------------------------------------------------------------------
      1          6           0       -1.842713    1.394469    0.105179
      2          6           0       -1.093656    0.488236   -0.886515
      3          7           0        0.370060    0.742462   -0.649203
      4          6           0        0.485825    1.675247    0.496844
      5          6           0       -0.809164    2.482380    0.430212
      6          6           0        1.028118   -0.584812   -0.533131
      7          6           0       -0.040981   -1.566272   -0.029801
      8          6           0       -1.316506   -1.051614   -0.737484
      9          1           0       -2.776194    1.785705   -0.310449
     10          1           0       -2.094666    0.839765    1.016532
     11          1           0       -1.345329    0.779119   -1.913331
     12          1           0        1.388561    2.288268    0.401487
     13          1           0        0.543299    1.174481    1.476781
     14          1           0       -0.757823    3.219882   -0.379931
     15          1           0       -1.018225    3.015253    1.363133
     16          1           0        1.271708   -0.919279   -1.552967
     17          1           0        0.187608   -2.598834   -0.304106
     18          1           0       -1.370274   -1.501510   -1.733675
     19          8           0       -2.501831   -1.437524   -0.052534
     20          1           0       -2.238516   -1.508156    0.885235
     21          8           0       -0.224798   -1.601619    1.396969
     22          1           0       -0.276082   -0.692257    1.736913
     23          6           0        2.327530   -0.620721    0.254279
     24          1           0        2.176723   -0.293101    1.289111
     25          1           0        2.674752   -1.663432    0.287331
     26          8           0        3.291735    0.210889   -0.402206
     27          1           0        4.092476    0.201409    0.147026
 ---------------------------------------------------------------------
 Rotational constants (GHZ):      1.2662389      0.8686346      0.6237966
 Standard basis: 6-31+G(d,p) (6D, 7F)
 There are   303 symmetry adapted basis functions of A   symmetry.
 Integral buffers will be    131072 words long.
 Raffenetti 2 integral format.
 Two-electron integral symmetry is turned on.
   303 basis functions,   489 primitive gaussians,   303 cartesian basis functions
    47 alpha electrons       47 beta electrons
       nuclear repulsion energy       812.9878995542 Hartrees.
 NAtoms=   27 NActive=   27 NUniq=   27 SFac= 1.00D+00 NAtFMM=   60 NAOKFM=F Big=F
 ------------------------------------------------------------------------------
 Polarizable Continuum Model (PCM)
 =================================
 Model                : PCM.
 Atomic radii         : UFF (Universal Force Field).
 Polarization charges : Total charges.
 Charge compensation  : None.
 Solution method      : Matrix inversion.
 Cavity type          : Scaled VdW (van der Waals Surface) (Alpha=1.100).
 Cavity algorithm     : GePol (No added spheres)
                        Default sphere list used, NSphG=   27.
                        Lebedev-Laikov grids with approx.  5.0 points / Ang**2.
                        Smoothing algorithm: Karplus/York (Gamma=1.0000).
                        Polarization charges: spherical gaussians, with
                                              point-specific exponents (IZeta= 3).
                        Self-potential: point-specific (ISelfS= 7).
                        Self-field    : sphere-specific E.n sum rule (ISelfD= 2).
 Solvent              : Water, Eps=  78.355300 Eps(inf)=   1.777849
 ------------------------------------------------------------------------------
 One-electron integrals computed using PRISM.
 NBasis=   303 RedAO= T  NBF=   303
 NBsUse=   303 1.00D-06 NBFU=   303
 Harris functional with IExCor=  908 diagonalized for initial guess.
 ExpMin= 4.38D-02 ExpMax= 5.48D+03 ExpMxC= 8.25D+02 IAcc=2 IRadAn=         4 AccDes= 0.00D+00
 HarFok:  IExCor=  908 AccDes= 0.00D+00 IRadAn=         4 IDoV= 1
 ScaDFX=  1.000000  1.000000  1.000000  1.000000
 FoFCou: FMM=F IPFlag=           0 FMFlag=      100000 FMFlg1=           0
         NFxFlg=           0 DoJE=T BraDBF=F KetDBF=T FulRan=T
         Omega=  0.000000  0.000000  1.000000  0.000000  0.000000 ICntrl=     500 IOpCl=  0
         NMat0=    1 NMatS0=    1 NMatT0=    0 NMatD0=    1 NMtDS0=    0 NMtDT0=    0
         I1Cent=           4 NGrid=           0.
 Petite list used in FoFCou.
 Initial guess orbital symmetries:
       Occupied  (A) (A) (A) (A) (A) (A) (A) (A) (A) (A) (A) (A)
                 (A) (A) (A) (A) (A) (A) (A) (A) (A) (A) (A) (A)
                 (A) (A) (A) (A) (A) (A) (A) (A) (A) (A) (A) (A)
                 (A) (A) (A) (A) (A) (A) (A) (A) (A) (A) (A)
       Virtual   (A) (A) (A) (A) (A) (A) (A) (A) (A) (A) (A) (A)
                 (A) (A) (A) (A) (A) (A) (A) (A) (A) (A) (A) (A)
                 (A) (A) (A) (A) (A) (A) (A) (A) (A) (A) (A) (A)
                 (A) (A) (A) (A) (A) (A) (A) (A) (A) (A) (A) (A)
                 (A) (A) (A) (A) (A) (A) (A) (A) (A) (A) (A) (A)
                 (A) (A) (A) (A) (A) (A) (A) (A) (A) (A) (A) (A)
                 (A) (A) (A) (A) (A) (A) (A) (A) (A) (A) (A) (A)
                 (A) (A) (A) (A) (A) (A) (A) (A) (A) (A) (A) (A)
                 (A) (A) (A) (A) (A) (A) (A) (A) (A) (A) (A) (A)
                 (A) (A) (A) (A) (A) (A) (A) (A) (A) (A) (A) (A)
                 (A) (A) (A) (A) (A) (A) (A) (A) (A) (A) (A) (A)
                 (A) (A) (A) (A) (A) (A) (A) (A) (A) (A) (A) (A)
                 (A) (A) (A) (A) (A) (A) (A) (A) (A) (A) (A) (A)
                 (A) (A) (A) (A) (A) (A) (A) (A) (A) (A) (A) (A)
                 (A) (A) (A) (A) (A) (A) (A) (A) (A) (A) (A) (A)
                 (A) (A) (A) (A) (A) (A) (A) (A) (A) (A) (A) (A)
                 (A) (A) (A) (A) (A) (A) (A) (A) (A) (A) (A) (A)
                 (A) (A) (A) (A) (A) (A) (A) (A) (A) (A) (A) (A)
                 (A) (A) (A) (A) (A) (A) (A) (A) (A) (A) (A) (A)
                 (A) (A) (A) (A) (A) (A) (A) (A) (A) (A) (A) (A)
                 (A) (A) (A) (A) (A) (A) (A) (A) (A) (A) (A) (A)
                 (A) (A) (A) (A)
 The electronic state of the initial guess is 1-A.
 Requested convergence on RMS density matrix=1.00D-08 within 128 cycles.
 Requested convergence on MAX density matrix=1.00D-06.
 Requested convergence on             energy=1.00D-06.
 No special actions if energy rises.
 Error on total polarization charges =  0.01384
 SCF Done:  E(RmPW1PW91) =  -594.187743074     A.U. after   13 cycles
             Convg  =    0.4259D-08             -V/T =  2.0094
 Range of M.O.s used for correlation:     1   303
 NBasis=   303 NAE=    47 NBE=    47 NFC=     0 NFV=     0
 NROrb=    303 NOA=    47 NOB=    47 NVA=   256 NVB=   256

 **** Warning!!: The largest alpha MO coefficient is  0.77559489D+02

 NEqPCM:  Using equilibrium solvation (IEInf=0, Eps=  78.3553, EpsInf=   1.7778)
          Differentiating once with respect to magnetic field using GIAOs.
          Electric field/nuclear overlap derivatives assumed to be zero.
 FoFCou: FMM=F IPFlag=           0 FMFlag=    10101102 FMFlg1=           0
         NFxFlg=    40000000 DoJE=F BraDBF=F KetDBF=T FulRan=T
         Omega=  0.000000  0.000000  1.000000  0.000000  0.000000 ICntrl=    6100 IOpCl=  0
         NMat0=    1 NMatS0=    1 NMatT0=    0 NMatD0=    1 NMtDS0=    0 NMtDT0=    0
         I1Cent=           7 NGrid=        1792.
 Symmetry not used in FoFCou.
          There are     3 degrees of freedom in the 1st order CPHF.  IDoFFX=0.
      3 vectors produced by pass  0 Test12= 4.01D-13 3.33D-08 XBig12= 3.08D+01 1.07D+00.
 AX will form     3 AO Fock derivatives at one time.
      3 vectors produced by pass  1 Test12= 4.01D-13 3.33D-08 XBig12= 7.67D-02 4.48D-02.
      3 vectors produced by pass  2 Test12= 4.01D-13 3.33D-08 XBig12= 1.25D-04 2.33D-03.
      3 vectors produced by pass  3 Test12= 4.01D-13 3.33D-08 XBig12= 5.52D-07 1.71D-04.
      3 vectors produced by pass  4 Test12= 4.01D-13 3.33D-08 XBig12= 2.10D-09 6.73D-06.
      3 vectors produced by pass  5 Test12= 4.01D-13 3.33D-08 XBig12= 7.48D-12 4.65D-07.
 Inverted reduced A of dimension    18 with in-core refinement.
 Calculating GIAO nuclear magnetic shielding tensors.
 SCF GIAO Magnetic shielding tensor (ppm):
      1  C    Isotropic =   166.3008   Anisotropy =    22.4033
   XX=   174.5651   YX=    -0.4217   ZX=     1.9784
   XY=    10.1632   YY=   168.5417   ZY=    15.1977
   XZ=     0.0868   YZ=    13.6937   ZZ=   155.7954
   Eigenvalues:   146.2629   171.4031   181.2363
      2  C    Isotropic =   128.3838   Anisotropy =    54.2490
   XX=   161.3710   YX=     8.5673   ZX=     3.9732
   XY=    11.7869   YY=   131.1482   ZY=     6.4680
   XZ=    -5.1569   YZ=    12.6650   ZZ=    92.6324
   Eigenvalues:    90.2649   130.3367   164.5498
      3  N    Isotropic =   195.4423   Anisotropy =    84.9461
   XX=   237.4646   YX=   -30.2495   ZX=    23.0592
   XY=   -19.3687   YY=   205.2423   ZY=    30.2795
   XZ=    31.7403   YZ=    30.0387   ZZ=   143.6200
   Eigenvalues:   120.8207   213.4331   252.0730
      4  C    Isotropic =   144.1348   Anisotropy =    41.2025
   XX=   140.2675   YX=     2.1491   ZX=     0.1173
   XY=    -9.1294   YY=   148.7613   ZY=    24.9045
   XZ=     4.2013   YZ=    25.7942   ZZ=   143.3756
   Eigenvalues:   119.8167   140.9846   171.6032
      5  C    Isotropic =   167.0975   Anisotropy =    19.6503
   XX=   179.3042   YX=    -2.3772   ZX=     2.7968
   XY=    -2.9638   YY=   172.0427   ZY=    18.6699
   XZ=     5.3671   YZ=     8.5696   ZZ=   149.9456
   Eigenvalues:   142.8159   178.2788   180.1977
      6  C    Isotropic =   132.5274   Anisotropy =    25.3271
   XX=   140.7065   YX=    -0.7421   ZX=     6.7827
   XY=    -7.4698   YY=   144.2970   ZY=    -9.6229
   XZ=    -6.5892   YZ=   -11.9258   ZZ=   112.5786
   Eigenvalues:   109.2250   138.9451   149.4121
      7  C    Isotropic =   115.0787   Anisotropy =    27.8351
   XX=   114.3977   YX=     4.6122   ZX=   -10.6055
   XY=     4.9335   YY=    99.5175   ZY=     0.6136
   XZ=    -1.6272   YZ=    -4.5597   ZZ=   131.3208
   Eigenvalues:    98.1172   113.4834   133.6354
      8  C    Isotropic =   121.5779   Anisotropy =    49.1430
   XX=   145.6427   YX=     7.5212   ZX=   -18.4085
   XY=     7.8987   YY=   123.8508   ZY=   -12.3149
   XZ=   -14.0741   YZ=   -11.0643   ZZ=    95.2403
   Eigenvalues:    88.0553   122.3385   154.3399
      9  H    Isotropic =    29.7363   Anisotropy =    11.1649
   XX=    35.1604   YX=    -3.7856   ZX=     2.8261
   XY=    -2.9102   YY=    28.5770   ZY=    -0.0902
   XZ=     2.7587   YZ=    -0.4375   ZZ=    25.4717
   Eigenvalues:    24.6008    27.4287    37.1796
     10  H    Isotropic =    29.9938   Anisotropy =     6.3041
   XX=    28.3014   YX=     1.3736   ZX=    -3.6814
   XY=     1.0529   YY=    31.4172   ZY=    -0.9449
   XZ=    -4.5253   YZ=    -0.6680   ZZ=    30.2629
   Eigenvalues:    25.0299    30.7550    34.1965
     11  H    Isotropic =    27.8221   Anisotropy =     9.0774
   XX=    26.3937   YX=     0.2624   ZX=     3.6219
   XY=    -0.5802   YY=    24.9937   ZY=    -1.5485
   XZ=     3.3085   YZ=    -0.8978   ZZ=    32.0790
   Eigenvalues:    24.4178    25.1749    33.8737
     12  H    Isotropic =    28.2877   Anisotropy =     9.1258
   XX=    31.4602   YX=     2.8204   ZX=     0.4645
   XY=     3.7617   YY=    29.8273   ZY=     2.0916
   XZ=     0.7450   YZ=     2.4712   ZZ=    23.5754
   Eigenvalues:    22.8041    27.6874    34.3715
     13  H    Isotropic =    28.5831   Anisotropy =     7.4298
   XX=    25.1490   YX=    -1.4379   ZX=     1.9388
   XY=    -1.3209   YY=    28.0397   ZY=     1.9959
   XZ=     3.0716   YZ=     1.0177   ZZ=    32.5607
   Eigenvalues:    23.6565    28.5565    33.5364
     14  H    Isotropic =    29.6880   Anisotropy =    11.1188
   XX=    26.9369   YX=     0.3145   ZX=     0.2471
   XY=    -0.1508   YY=    35.1686   ZY=    -4.1550
   XZ=     0.2721   YZ=    -4.6978   ZZ=    26.9585
   Eigenvalues:    24.9890    26.9744    37.1006
     15  H    Isotropic =    29.6270   Anisotropy =    11.7800
   XX=    26.7215   YX=    -1.1867   ZX=    -1.1720
   XY=    -1.6139   YY=    31.4953   ZY=     6.1421
   XZ=    -1.6381   YZ=     5.8998   ZZ=    30.6641
   Eigenvalues:    25.0407    26.3600    37.4803
     16  H    Isotropic =    28.2486   Anisotropy =     8.8116
   XX=    27.9554   YX=    -2.3831   ZX=    -2.3855
   XY=    -2.3314   YY=    27.4045   ZY=     3.6048
   XZ=    -3.8538   YZ=     2.5848   ZZ=    29.3859
   Eigenvalues:    25.1368    25.4860    34.1230
     17  H    Isotropic =    27.7262   Anisotropy =     7.9792
   XX=    24.7929   YX=    -1.7191   ZX=    -0.2283
   XY=    -1.3215   YY=    31.0672   ZY=     2.3672
   XZ=    -1.3081   YZ=     3.5484   ZZ=    27.3185
   Eigenvalues:    24.4390    25.6938    33.0456
     18  H    Isotropic =    27.2994   Anisotropy =     7.3784
   XX=    25.0169   YX=     1.8438   ZX=    -1.4089
   XY=     2.5503   YY=    27.0707   ZY=     3.3592
   XZ=     1.6380   YZ=     3.1349   ZZ=    29.8107
   Eigenvalues:    23.1018    26.5782    32.2184
     19  O    Isotropic =   312.6313   Anisotropy =    31.4342
   XX=   306.4706   YX=     5.4346   ZX=     8.9156
   XY=    27.2912   YY=   315.5003   ZY=   -14.6525
   XZ=    32.5740   YZ=    -2.7056   ZZ=   315.9231
   Eigenvalues:   280.4148   323.8917   333.5874
     20  H    Isotropic =    28.6650   Anisotropy =    14.9090
   XX=    27.9258   YX=     1.5755   ZX=     3.0293
   XY=     0.0764   YY=    20.5196   ZY=    -3.2029
   XZ=     1.6295   YZ=    -3.4348   ZZ=    37.5495
   Eigenvalues:    19.7022    27.6884    38.6043
     21  O    Isotropic =   304.8540   Anisotropy =    88.5700
   XX=   275.7006   YX=     6.3317   ZX=    -3.0577
   XY=    -3.4464   YY=   355.9929   ZY=    51.8802
   XZ=    -2.3695   YZ=    -1.2657   ZZ=   282.8685
   Eigenvalues:   272.2883   278.3731   363.9007
     22  H    Isotropic =    31.0873   Anisotropy =    14.9825
   XX=    22.4157   YX=    -0.6666   ZX=    -0.5291
   XY=     0.2025   YY=    38.8056   ZY=     5.0305
   XZ=    -0.7961   YZ=     3.9931   ZZ=    32.0404
   Eigenvalues:    22.3699    29.8162    41.0756
     23  C    Isotropic =   134.1112   Anisotropy =    61.7746
   XX=   147.9280   YX=    22.7001   ZX=   -16.3628
   XY=    23.8581   YY=   132.8872   ZY=   -18.2125
   XZ=   -17.2587   YZ=   -15.8662   ZZ=   121.5185
   Eigenvalues:   109.2403   117.7991   175.2943
     24  H    Isotropic =    27.2841   Anisotropy =     4.2981
   XX=    29.1433   YX=     0.3729   ZX=    -1.4288
   XY=     1.7587   YY=    23.9208   ZY=    -2.2457
   XZ=    -0.0817   YZ=    -0.1799   ZZ=    28.7881
   Eigenvalues:    23.4988    28.2040    30.1495
     25  H    Isotropic =    27.4372   Anisotropy =     6.3679
   XX=    29.2625   YX=     0.6137   ZX=    -0.2136
   XY=    -2.2987   YY=    30.6272   ZY=    -2.4415
   XZ=    -0.4547   YZ=    -3.0908   ZZ=    22.4221
   Eigenvalues:    21.5350    29.0943    31.6825
     26  O    Isotropic =   314.3708   Anisotropy =    85.6627
   XX=   359.4643   YX=    13.7108   ZX=    22.1996
   XY=     6.6623   YY=   281.9193   ZY=     4.1416
   XZ=    31.7465   YZ=     4.6842   ZZ=   301.7288
   Eigenvalues:   280.5322   291.1010   371.4793
     27  H    Isotropic =    30.1906   Anisotropy =    21.2032
   XX=    40.9640   YX=     2.3759   ZX=     8.1707
   XY=     3.5876   YY=    22.3591   ZY=    -1.0900
   XZ=     6.4058   YZ=    -1.8987   ZZ=    27.2488
   Eigenvalues:    20.4007    25.8451    44.3261
 End of Minotr Frequency-dependent properties file   721 does not exist.
 End of Minotr Frequency-dependent properties file   722 does not exist.

 **********************************************************************

            Population analysis using the SCF density.

 **********************************************************************

 Orbital symmetries:
       Occupied  (A) (A) (A) (A) (A) (A) (A) (A) (A) (A) (A) (A)
                 (A) (A) (A) (A) (A) (A) (A) (A) (A) (A) (A) (A)
                 (A) (A) (A) (A) (A) (A) (A) (A) (A) (A) (A) (A)
                 (A) (A) (A) (A) (A) (A) (A) (A) (A) (A) (A)
       Virtual   (A) (A) (A) (A) (A) (A) (A) (A) (A) (A) (A) (A)
                 (A) (A) (A) (A) (A) (A) (A) (A) (A) (A) (A) (A)
                 (A) (A) (A) (A) (A) (A) (A) (A) (A) (A) (A) (A)
                 (A) (A) (A) (A) (A) (A) (A) (A) (A) (A) (A) (A)
                 (A) (A) (A) (A) (A) (A) (A) (A) (A) (A) (A) (A)
                 (A) (A) (A) (A) (A) (A) (A) (A) (A) (A) (A) (A)
                 (A) (A) (A) (A) (A) (A) (A) (A) (A) (A) (A) (A)
                 (A) (A) (A) (A) (A) (A) (A) (A) (A) (A) (A) (A)
                 (A) (A) (A) (A) (A) (A) (A) (A) (A) (A) (A) (A)
                 (A) (A) (A) (A) (A) (A) (A) (A) (A) (A) (A) (A)
                 (A) (A) (A) (A) (A) (A) (A) (A) (A) (A) (A) (A)
                 (A) (A) (A) (A) (A) (A) (A) (A) (A) (A) (A) (A)
                 (A) (A) (A) (A) (A) (A) (A) (A) (A) (A) (A) (A)
                 (A) (A) (A) (A) (A) (A) (A) (A) (A) (A) (A) (A)
                 (A) (A) (A) (A) (A) (A) (A) (A) (A) (A) (A) (A)
                 (A) (A) (A) (A) (A) (A) (A) (A) (A) (A) (A) (A)
                 (A) (A) (A) (A) (A) (A) (A) (A) (A) (A) (A) (A)
                 (A) (A) (A) (A) (A) (A) (A) (A) (A) (A) (A) (A)
                 (A) (A) (A) (A) (A) (A) (A) (A) (A) (A) (A) (A)
                 (A) (A) (A) (A) (A) (A) (A) (A) (A) (A) (A) (A)
                 (A) (A) (A) (A) (A) (A) (A) (A) (A) (A) (A) (A)
                 (A) (A) (A) (A)
 The electronic state is 1-A.
 Alpha  occ. eigenvalues --  -19.27397 -19.25717 -19.25558 -14.41317 -10.31049
 Alpha  occ. eigenvalues --  -10.30372 -10.30234 -10.28641 -10.27639 -10.27295
 Alpha  occ. eigenvalues --  -10.24818 -10.24751  -1.08503  -1.05870  -1.05132
 Alpha  occ. eigenvalues --   -0.96333  -0.83379  -0.78816  -0.75958  -0.72155
 Alpha  occ. eigenvalues --   -0.66918  -0.62714  -0.60119  -0.57665  -0.55881
 Alpha  occ. eigenvalues --   -0.54288  -0.52298  -0.50771  -0.48815  -0.48244
 Alpha  occ. eigenvalues --   -0.45689  -0.44634  -0.44122  -0.42726  -0.41288
 Alpha  occ. eigenvalues --   -0.39966  -0.37969  -0.37074  -0.36665  -0.35847
 Alpha  occ. eigenvalues --   -0.35683  -0.34840  -0.33832  -0.31637  -0.30122
 Alpha  occ. eigenvalues --   -0.29378  -0.22742
 Alpha virt. eigenvalues --   -0.00217   0.01383   0.01439   0.02323   0.03632
 Alpha virt. eigenvalues --    0.04194   0.04752   0.05298   0.05443   0.07245
 Alpha virt. eigenvalues --    0.08040   0.08407   0.08466   0.08964   0.09249
 Alpha virt. eigenvalues --    0.10615   0.11160   0.12067   0.12372   0.12459
 Alpha virt. eigenvalues --    0.12973   0.13736   0.14233   0.14606   0.15036
 Alpha virt. eigenvalues --    0.15627   0.17067   0.17288   0.17559   0.18309
 Alpha virt. eigenvalues --    0.18607   0.19039   0.19353   0.20169   0.20598
 Alpha virt. eigenvalues --    0.21311   0.21684   0.22365   0.22677   0.23705
 Alpha virt. eigenvalues --    0.24021   0.24107   0.24821   0.25474   0.26037
 Alpha virt. eigenvalues --    0.26171   0.27073   0.27255   0.28298   0.28429
 Alpha virt. eigenvalues --    0.29436   0.29556   0.30479   0.31199   0.32016
 Alpha virt. eigenvalues --    0.32183   0.32755   0.33508   0.34282   0.35088
 Alpha virt. eigenvalues --    0.35449   0.36309   0.36838   0.37575   0.38252
 Alpha virt. eigenvalues --    0.39045   0.39422   0.39967   0.41145   0.41251
 Alpha virt. eigenvalues --    0.42570   0.43407   0.44379   0.45789   0.48543
 Alpha virt. eigenvalues --    0.49386   0.63783   0.67147   0.68467   0.69110
 Alpha virt. eigenvalues --    0.70110   0.70429   0.70645   0.72432   0.73242
 Alpha virt. eigenvalues --    0.75577   0.76658   0.79136   0.80343   0.80976
 Alpha virt. eigenvalues --    0.82291   0.83950   0.84478   0.86420   0.88916
 Alpha virt. eigenvalues --    0.89914   0.92916   0.94178   0.96113   0.96883
 Alpha virt. eigenvalues --    0.98202   0.99833   1.01210   1.02504   1.04924
 Alpha virt. eigenvalues --    1.06065   1.06209   1.07367   1.08639   1.09848
 Alpha virt. eigenvalues --    1.10430   1.12920   1.14386   1.15237   1.16411
 Alpha virt. eigenvalues --    1.17420   1.18603   1.20488   1.23614   1.25808
 Alpha virt. eigenvalues --    1.27689   1.29004   1.29666   1.30897   1.33277
 Alpha virt. eigenvalues --    1.34654   1.35357   1.36205   1.39819   1.40393
 Alpha virt. eigenvalues --    1.42623   1.46266   1.47138   1.50297   1.52355
 Alpha virt. eigenvalues --    1.54233   1.56084   1.57088   1.58028   1.61027
 Alpha virt. eigenvalues --    1.61969   1.64322   1.66724   1.68151   1.69321
 Alpha virt. eigenvalues --    1.71435   1.74803   1.76317   1.78683   1.79144
 Alpha virt. eigenvalues --    1.80265   1.81349   1.83369   1.85367   1.87317
 Alpha virt. eigenvalues --    1.87725   1.90157   1.91937   1.92990   1.95199
 Alpha virt. eigenvalues --    1.96566   2.00249   2.01037   2.01266   2.03224
 Alpha virt. eigenvalues --    2.04147   2.04998   2.08144   2.09809   2.10591
 Alpha virt. eigenvalues --    2.12436   2.13620   2.17285   2.18729   2.19816
 Alpha virt. eigenvalues --    2.20197   2.21997   2.24734   2.26193   2.29274
 Alpha virt. eigenvalues --    2.30434   2.31170   2.35317   2.36978   2.38449
 Alpha virt. eigenvalues --    2.41558   2.41993   2.43982   2.45667   2.46885
 Alpha virt. eigenvalues --    2.49654   2.51188   2.51551   2.53182   2.55304
 Alpha virt. eigenvalues --    2.57248   2.58293   2.60799   2.61387   2.62972
 Alpha virt. eigenvalues --    2.64221   2.65119   2.66371   2.68644   2.69344
 Alpha virt. eigenvalues --    2.71303   2.73398   2.74474   2.74943   2.78326
 Alpha virt. eigenvalues --    2.78734   2.79958   2.82418   2.84879   2.84995
 Alpha virt. eigenvalues --    2.85893   2.87674   2.89027   2.91552   2.95193
 Alpha virt. eigenvalues --    2.97399   2.98754   2.99393   3.02378   3.03026
 Alpha virt. eigenvalues --    3.05371   3.08338   3.12127   3.14680   3.31974
 Alpha virt. eigenvalues --    3.35985   3.36167   3.37300   3.44052   3.45139
 Alpha virt. eigenvalues --    3.46076   3.51035   3.52474   3.55215   3.56211
 Alpha virt. eigenvalues --    3.57269   3.57761   3.60600   3.62841   4.27083
 Alpha virt. eigenvalues --    4.37029   4.39319   4.43733   4.50414   4.54930
 Alpha virt. eigenvalues --    4.60166   4.72812   4.73880   4.82630   4.87386
 Alpha virt. eigenvalues --    4.95449
          Condensed to atoms (all electrons):
              1          2          3          4          5          6
     1  C    5.689355  -0.428138   0.115184  -0.189804   0.256071  -0.045906
     2  C   -0.428138   8.307359  -0.450551  -0.306418   0.052532  -0.079729
     3  N    0.115184  -0.450551   7.744239   0.384523  -0.263517  -0.620957
     4  C   -0.189804  -0.306418   0.384523   5.845389  -0.110635  -0.434289
     5  C    0.256071   0.052532  -0.263517  -0.110635   5.729442   0.352193
     6  C   -0.045906  -0.079729  -0.620957  -0.434289   0.352193   9.196309
     7  C    0.033648   0.181710   0.152354   0.011650  -0.054742  -1.651437
     8  C    0.098592  -1.103845   0.034581   0.200493  -0.054754   0.230187
     9  H    0.390591  -0.087174   0.013231   0.043011  -0.038080   0.008533
    10  H    0.441856  -0.107220   0.034090   0.022201  -0.074417  -0.033033
    11  H    0.036792   0.222934  -0.000737   0.009408  -0.002069  -0.020257
    12  H    0.034209  -0.012511  -0.055336   0.397997  -0.012706  -0.002117
    13  H   -0.021622   0.038948  -0.083057   0.311993   0.016859   0.066909
    14  H   -0.034131  -0.015366   0.016606  -0.056527   0.419015  -0.004447
    15  H   -0.062427   0.037586   0.006731  -0.029028   0.391677  -0.008233
    16  H    0.001892  -0.029338  -0.000326   0.019048  -0.002567   0.268983
    17  H    0.003701   0.017314   0.023934   0.004409  -0.002312  -0.059124
    18  H    0.003621  -0.076882   0.024443   0.007264  -0.006034  -0.059293
    19  O    0.028848  -0.253609   0.039354  -0.000800  -0.001151   0.016006
    20  H   -0.009418  -0.004713  -0.001293   0.001215  -0.001922   0.009203
    21  O   -0.007540   0.066445   0.075974   0.029350  -0.029688  -0.175056
    22  H   -0.003842   0.039993   0.016763   0.012176  -0.005882  -0.068344
    23  C   -0.024850   0.081277   0.011066  -0.047586  -0.063409  -0.537823
    24  H   -0.007019   0.016006   0.013283  -0.000798   0.014082  -0.071457
    25  H    0.002480  -0.006193   0.011822   0.001008  -0.003401  -0.175009
    26  O    0.004794  -0.001016  -0.001698   0.001542  -0.014449  -0.085558
    27  H   -0.000380  -0.001216  -0.002846  -0.003726  -0.000540   0.027072
              7          8          9         10         11         12
     1  C    0.033648   0.098592   0.390591   0.441856   0.036792   0.034209
     2  C    0.181710  -1.103845  -0.087174  -0.107220   0.222934  -0.012511
     3  N    0.152354   0.034581   0.013231   0.034090  -0.000737  -0.055336
     4  C    0.011650   0.200493   0.043011   0.022201   0.009408   0.397997
     5  C   -0.054742  -0.054754  -0.038080  -0.074417  -0.002069  -0.012706
     6  C   -1.651437   0.230187   0.008533  -0.033033  -0.020257  -0.002117
     7  C    7.341473  -0.753039  -0.021029   0.040020   0.031064  -0.006808
     8  C   -0.753039   6.870492   0.034386  -0.016319  -0.004697  -0.000215
     9  H   -0.021029   0.034386   0.509728  -0.022601  -0.004626  -0.000092
    10  H    0.040020  -0.016319  -0.022601   0.538671   0.004169  -0.000057
    11  H    0.031064  -0.004697  -0.004626   0.004169   0.562436   0.000156
    12  H   -0.006808  -0.000215  -0.000092  -0.000057   0.000156   0.532852
    13  H    0.032324  -0.015374  -0.000130   0.000707  -0.000551  -0.045377
    14  H    0.009167  -0.003096  -0.004596   0.004145   0.000700  -0.006228
    15  H    0.004503  -0.001831   0.000207  -0.005163  -0.000125   0.000487
    16  H    0.010466  -0.002501   0.000003   0.000020   0.001795   0.000239
    17  H    0.379995  -0.016068   0.000003  -0.000063  -0.000071   0.000009
    18  H   -0.015286   0.449806  -0.000069   0.000158  -0.007114   0.000003
    19  O   -0.078306   0.357979  -0.000851   0.009903   0.008340   0.000093
    20  H   -0.090193   0.063984   0.000187  -0.001151  -0.000188  -0.000001
    21  O    0.231693  -0.116618   0.000339  -0.000494   0.000119   0.000552
    22  H    0.080936  -0.039488   0.000003  -0.000834  -0.000062  -0.000083
    23  C    0.062405  -0.057422   0.000236   0.001937  -0.003005  -0.001023
    24  H    0.002431  -0.018574   0.000000   0.000005   0.000001  -0.000183
    25  H    0.047472   0.008024   0.000000   0.000000   0.000003   0.000031
    26  O    0.046955   0.000426  -0.000002   0.000031  -0.000204   0.000901
    27  H   -0.008490   0.001282   0.000000   0.000000   0.000000  -0.000006
             13         14         15         16         17         18
     1  C   -0.021622  -0.034131  -0.062427   0.001892   0.003701   0.003621
     2  C    0.038948  -0.015366   0.037586  -0.029338   0.017314  -0.076882
     3  N   -0.083057   0.016606   0.006731  -0.000326   0.023934   0.024443
     4  C    0.311993  -0.056527  -0.029028   0.019048   0.004409   0.007264
     5  C    0.016859   0.419015   0.391677  -0.002567  -0.002312  -0.006034
     6  C    0.066909  -0.004447  -0.008233   0.268983  -0.059124  -0.059293
     7  C    0.032324   0.009167   0.004503   0.010466   0.379995  -0.015286
     8  C   -0.015374  -0.003096  -0.001831  -0.002501  -0.016068   0.449806
     9  H   -0.000130  -0.004596   0.000207   0.000003   0.000003  -0.000069
    10  H    0.000707   0.004145  -0.005163   0.000020  -0.000063   0.000158
    11  H   -0.000551   0.000700  -0.000125   0.001795  -0.000071  -0.007114
    12  H   -0.045377  -0.006228   0.000487   0.000239   0.000009   0.000003
    13  H    0.612146   0.004173  -0.004580  -0.000514  -0.000189  -0.000001
    14  H    0.004173   0.516310  -0.024170   0.000006   0.000000   0.000004
    15  H   -0.004580  -0.024170   0.514336   0.000002   0.000000   0.000003
    16  H   -0.000514   0.000006   0.000002   0.544640  -0.001813   0.000878
    17  H   -0.000189   0.000000   0.000000  -0.001813   0.525196  -0.004887
    18  H   -0.000001   0.000004   0.000003   0.000878  -0.004887   0.538312
    19  O   -0.000391   0.000105   0.000069   0.000153   0.001436  -0.058455
    20  H    0.000030  -0.000001   0.000003  -0.000042  -0.000174   0.005863
    21  O   -0.011836  -0.000029   0.000161   0.010973  -0.048593   0.010555
    22  H    0.003273   0.000004  -0.000106  -0.000124   0.005435  -0.000297
    23  C   -0.043367  -0.002732   0.001022   0.001005  -0.009356   0.007987
    24  H   -0.000494   0.000000   0.000009   0.004793   0.000016   0.000003
    25  H   -0.000051   0.000000   0.000000  -0.004771   0.001561   0.000006
    26  O    0.001636   0.000014   0.000003  -0.001776  -0.000720   0.000076
    27  H    0.000029   0.000000   0.000000  -0.000062   0.000000   0.000000
             19         20         21         22         23         24
     1  C    0.028848  -0.009418  -0.007540  -0.003842  -0.024850  -0.007019
     2  C   -0.253609  -0.004713   0.066445   0.039993   0.081277   0.016006
     3  N    0.039354  -0.001293   0.075974   0.016763   0.011066   0.013283
     4  C   -0.000800   0.001215   0.029350   0.012176  -0.047586  -0.000798
     5  C   -0.001151  -0.001922  -0.029688  -0.005882  -0.063409   0.014082
     6  C    0.016006   0.009203  -0.175056  -0.068344  -0.537823  -0.071457
     7  C   -0.078306  -0.090193   0.231693   0.080936   0.062405   0.002431
     8  C    0.357979   0.063984  -0.116618  -0.039488  -0.057422  -0.018574
     9  H   -0.000851   0.000187   0.000339   0.000003   0.000236   0.000000
    10  H    0.009903  -0.001151  -0.000494  -0.000834   0.001937   0.000005
    11  H    0.008340  -0.000188   0.000119  -0.000062  -0.003005   0.000001
    12  H    0.000093  -0.000001   0.000552  -0.000083  -0.001023  -0.000183
    13  H   -0.000391   0.000030  -0.011836   0.003273  -0.043367  -0.000494
    14  H    0.000105  -0.000001  -0.000029   0.000004  -0.002732   0.000000
    15  H    0.000069   0.000003   0.000161  -0.000106   0.001022   0.000009
    16  H    0.000153  -0.000042   0.010973  -0.000124   0.001005   0.004793
    17  H    0.001436  -0.000174  -0.048593   0.005435  -0.009356   0.000016
    18  H   -0.058455   0.005863   0.010555  -0.000297   0.007987   0.000003
    19  O    8.240945   0.244159  -0.027051  -0.003240  -0.004146  -0.000011
    20  H    0.244159   0.352964   0.044961  -0.004752   0.002710  -0.000005
    21  O   -0.027051   0.044961   8.270181   0.248751   0.011702   0.010912
    22  H   -0.003240  -0.004752   0.248751   0.343380  -0.023295  -0.001152
    23  C   -0.004146   0.002710   0.011702  -0.023295   5.657519   0.408627
    24  H   -0.000011  -0.000005   0.010912  -0.001152   0.408627   0.579152
    25  H   -0.000019   0.000002  -0.004832   0.000409   0.487727  -0.044926
    26  O    0.000038   0.000009  -0.002791  -0.000112   0.144276  -0.053336
    27  H    0.000001   0.000000   0.000095  -0.000002   0.002614  -0.005640
             25         26         27
     1  C    0.002480   0.004794  -0.000380
     2  C   -0.006193  -0.001016  -0.001216
     3  N    0.011822  -0.001698  -0.002846
     4  C    0.001008   0.001542  -0.003726
     5  C   -0.003401  -0.014449  -0.000540
     6  C   -0.175009  -0.085558   0.027072
     7  C    0.047472   0.046955  -0.008490
     8  C    0.008024   0.000426   0.001282
     9  H    0.000000  -0.000002   0.000000
    10  H    0.000000   0.000031   0.000000
    11  H    0.000003  -0.000204   0.000000
    12  H    0.000031   0.000901  -0.000006
    13  H   -0.000051   0.001636   0.000029
    14  H    0.000000   0.000014   0.000000
    15  H    0.000000   0.000003   0.000000
    16  H   -0.004771  -0.001776  -0.000062
    17  H    0.001561  -0.000720   0.000000
    18  H    0.000006   0.000076   0.000000
    19  O   -0.000019   0.000038   0.000001
    20  H    0.000002   0.000009   0.000000
    21  O   -0.004832  -0.002791   0.000095
    22  H    0.000409  -0.000112  -0.000002
    23  C    0.487727   0.144276   0.002614
    24  H   -0.044926  -0.053336  -0.005640
    25  H    0.562320  -0.049432  -0.004022
    26  O   -0.049432   8.366387   0.227691
    27  H   -0.004022   0.227691   0.380264
 Mulliken atomic charges:
              1
     1  C   -0.306556
     2  C   -0.098183
     3  N   -0.237860
     4  C   -0.123065
     5  C   -0.489594
     6  C   -0.043324
     7  C   -0.020936
     8  C   -0.146390
     9  H    0.178789
    10  H    0.163440
    11  H    0.165790
    12  H    0.175212
    13  H    0.138505
    14  H    0.181072
    15  H    0.178865
    16  H    0.178938
    17  H    0.180363
    18  H    0.179336
    19  O   -0.519396
    20  H    0.388564
    21  O   -0.588233
    22  H    0.400492
    23  C   -0.064098
    24  H    0.154277
    25  H    0.169793
    26  O   -0.583682
    27  H    0.387883
 Sum of Mulliken atomic charges =   0.00000
 Mulliken charges with hydrogens summed into heavy atoms:
              1
     1  C    0.035673
     2  C    0.067606
     3  N   -0.237860
     4  C    0.190652
     5  C   -0.129657
     6  C    0.135614
     7  C    0.159427
     8  C    0.032946
    19  O   -0.130832
    21  O   -0.187742
    23  C    0.259972
    26  O   -0.195800
 Sum of Mulliken charges with hydrogens summed into heavy atoms =   0.00000
 Electronic spatial extent (au):  <R**2>=           1979.4305
 Charge=              0.0000 electrons
 Dipole moment (field-independent basis, Debye):
    X=              1.9622    Y=              0.7683    Z=              2.6482  Tot=              3.3843
 Quadrupole moment (field-independent basis, Debye-Ang):
   XX=            -74.9469   YY=            -75.0994   ZZ=            -72.0116
   XY=             -8.8421   XZ=              5.5520   YZ=              6.0159
 Traceless Quadrupole moment (field-independent basis, Debye-Ang):
   XX=             -0.9276   YY=             -1.0801   ZZ=              2.0077
   XY=             -8.8421   XZ=              5.5520   YZ=              6.0159
 Octapole moment (field-independent basis, Debye-Ang**2):
  XXX=             70.3716  YYY=              0.8480  ZZZ=              6.4344  XYY=              8.5188
  XXY=              6.4098  XXZ=             31.0492  XZZ=             -9.3555  YZZ=             -1.6609
  YYZ=             -4.7597  XYZ=              6.9948
 Hexadecapole moment (field-independent basis, Debye-Ang**3):
 XXXX=          -1166.5533 YYYY=           -915.2278 ZZZZ=           -301.0024 XXXY=            -44.0624
 XXXZ=             65.8902 YYYX=            -12.8042 YYYZ=             13.4386 ZZZX=              0.9995
 ZZZY=             11.5400 XXYY=           -387.2510 XXZZ=           -266.1809 YYZZ=           -215.3339
 XXYZ=            -10.6927 YYXZ=             -3.7423 ZZXY=              6.4037
 N-N= 8.129878995542D+02 E-N=-3.011640933413D+03  KE= 5.886514532012D+02
 1\1\GINC-COMPUTE-3-1\SP\RmPW1PW91\6-31+G(d,p)\C8H15N1O3\MAMICHETTI.IQU
 IR\17-May-2024\0\\# mpw1pw91/6-31+G** nmr scrf=(pcm,solvent=water)\\co
 mment\\0,1\C,0,-1.842713,1.394469,0.105179\C,0,-1.093656,0.488236,-0.8
 86515\N,0,0.37006,0.742462,-0.649203\C,0,0.485825,1.675247,0.496844\C,
 0,-0.809164,2.48238,0.430212\C,0,1.028118,-0.584812,-0.533131\C,0,-0.0
 40981,-1.566272,-0.029801\C,0,-1.316506,-1.051614,-0.737484\H,0,-2.776
 194,1.785705,-0.310449\H,0,-2.094666,0.839765,1.016532\H,0,-1.345329,0
 .779119,-1.913331\H,0,1.388561,2.288268,0.401487\H,0,0.543299,1.174481
 ,1.476781\H,0,-0.757824,3.219882,-0.379931\H,0,-1.018226,3.015253,1.36
 3133\H,0,1.271708,-0.919279,-1.552967\H,0,0.187608,-2.598834,-0.304106
 \H,0,-1.370274,-1.50151,-1.733675\O,0,-2.501831,-1.437524,-0.052534\H,
 0,-2.238516,-1.508156,0.885235\O,0,-0.224798,-1.601619,1.396969\H,0,-0
 .276082,-0.692257,1.736913\C,0,2.32753,-0.620721,0.254279\H,0,2.176723
 ,-0.293101,1.289111\H,0,2.674752,-1.663432,0.287331\O,0,3.291735,0.210
 89,-0.402206\H,0,4.092476,0.20141,0.147026\\Version=AM64L-G09RevC.01\S
 tate=1-A\HF=-594.1877431\RMSD=4.259e-09\Dipole=0.771996,0.3022637,1.04
 18947\Quadrupole=-0.6896187,-0.8030259,1.4926447,-6.5738586,4.1277678,
 4.472654\PG=C01 [X(C8H15N1O3)]\\@


 LIFE IS SO UNCERTAIN - EAT DESSERT FIRST.
 Job cpu time:  0 days  0 hours  8 minutes 43.0 seconds.
 File lengths (MBytes):  RWF=    111 Int=      0 D2E=      0 Chk=      7 Scr=      1
 Normal termination of Gaussian 09 at Fri May 17 13:21:42 2024.
