 Entering Gaussian System, Link 0=g09
 Input=/home/mamichetti.iquir/Linux/04_Cardona_A1A3_R__S_R_S_039_OptB.gjc
 Output=/home/mamichetti.iquir/Linux/04_Cardona_A1A3_R__S_R_S_039_OptB.log
 Initial command:
 /opt/ohpc/pub/apps/software/Gaussian/09/AMD64.SSE4a-enabled/g09/l1.exe /local/mamichetti.iquir/Gau-411118.inp -scrdir=/local/mamichetti.iquir/
 Entering Link 1 = /opt/ohpc/pub/apps/software/Gaussian/09/AMD64.SSE4a-enabled/g09/l1.exe PID=    411119.
  
 Copyright (c) 1988,1990,1992,1993,1995,1998,2003,2009,2011,
            Gaussian, Inc.  All Rights Reserved.
  
 This is part of the Gaussian(R) 09 program.  It is based on
 the Gaussian(R) 03 system (copyright 2003, Gaussian, Inc.),
 the Gaussian(R) 98 system (copyright 1998, Gaussian, Inc.),
 the Gaussian(R) 94 system (copyright 1995, Gaussian, Inc.),
 the Gaussian 92(TM) system (copyright 1992, Gaussian, Inc.),
 the Gaussian 90(TM) system (copyright 1990, Gaussian, Inc.),
 the Gaussian 88(TM) system (copyright 1988, Gaussian, Inc.),
 the Gaussian 86(TM) system (copyright 1986, Carnegie Mellon
 University), and the Gaussian 82(TM) system (copyright 1983,
 Carnegie Mellon University). Gaussian is a federally registered
 trademark of Gaussian, Inc.
  
 This software contains proprietary and confidential information,
 including trade secrets, belonging to Gaussian, Inc.
  
 This software is provided under written license and may be
 used, copied, transmitted, or stored only in accord with that
 written license.
  
 The following legend is applicable only to US Government
 contracts under FAR:
  
                    RESTRICTED RIGHTS LEGEND
  
 Use, reproduction and disclosure by the US Government is
 subject to restrictions as set forth in subparagraphs (a)
 and (c) of the Commercial Computer Software - Restricted
 Rights clause in FAR 52.227-19.
  
 Gaussian, Inc.
 340 Quinnipiac St., Bldg. 40, Wallingford CT 06492
  
  
 ---------------------------------------------------------------
 Warning -- This program may not be used in any manner that
 competes with the business of Gaussian, Inc. or will provide
 assistance to any competitor of Gaussian, Inc.  The licensee
 of this program is prohibited from giving any competitor of
 Gaussian, Inc. access to this program.  By using this program,
 the user acknowledges that Gaussian, Inc. is engaged in the
 business of creating and licensing software in the field of
 computational chemistry and represents and warrants to the
 licensee that it is not a competitor of Gaussian, Inc. and that
 it will not use this program in any manner prohibited above.
 ---------------------------------------------------------------
  

 Cite this work as:
 Gaussian 09, Revision C.01,
 M. J. Frisch, G. W. Trucks, H. B. Schlegel, G. E. Scuseria, 
 M. A. Robb, J. R. Cheeseman, G. Scalmani, V. Barone, B. Mennucci, 
 G. A. Petersson, H. Nakatsuji, M. Caricato, X. Li, H. P. Hratchian, 
 A. F. Izmaylov, J. Bloino, G. Zheng, J. L. Sonnenberg, M. Hada, 
 M. Ehara, K. Toyota, R. Fukuda, J. Hasegawa, M. Ishida, T. Nakajima, 
 Y. Honda, O. Kitao, H. Nakai, T. Vreven, J. A. Montgomery, Jr., 
 J. E. Peralta, F. Ogliaro, M. Bearpark, J. J. Heyd, E. Brothers, 
 K. N. Kudin, V. N. Staroverov, T. Keith, R. Kobayashi, J. Normand, 
 K. Raghavachari, A. Rendell, J. C. Burant, S. S. Iyengar, J. Tomasi, 
 M. Cossi, N. Rega, J. M. Millam, M. Klene, J. E. Knox, J. B. Cross, 
 V. Bakken, C. Adamo, J. Jaramillo, R. Gomperts, R. E. Stratmann, 
 O. Yazyev, A. J. Austin, R. Cammi, C. Pomelli, J. W. Ochterski, 
 R. L. Martin, K. Morokuma, V. G. Zakrzewski, G. A. Voth, 
 P. Salvador, J. J. Dannenberg, S. Dapprich, A. D. Daniels, 
 O. Farkas, J. B. Foresman, J. V. Ortiz, J. Cioslowski, 
 and D. J. Fox, Gaussian, Inc., Wallingford CT, 2010.
 
 ******************************************
 Gaussian 09:  AM64L-G09RevC.01 23-Sep-2011
                17-May-2024 
 ******************************************
 %nprocshared=4
 Will use up to    4 processors via shared memory.
 ------------------------------------------------
 # mpw1pw91/6-31+G** nmr scrf=(pcm,solvent=water)
 ------------------------------------------------
 1/38=1/1;
 2/12=2,17=6,18=5,40=1/2;
 3/5=1,6=6,7=111,11=2,16=1,25=1,30=1,70=2201,72=1,74=-7/1,2,8,3;
 4//1;
 5/5=2,38=5,53=1/2;
 8/6=1,10=90,11=11/1;
 10/13=100,45=16/2;
 6/7=2,8=2,9=2,10=2,28=1/1;
 99/9=1/99;
 -------
 comment
 -------
 Charge =  0 Multiplicity = 1
 Symbolic Z-Matrix:
 6                    -2.04296   0.83908   0.47205 
 6                    -1.3741    0.20657  -0.78935 
 7                    -0.08661   0.93107  -1.02766 
 6                    -0.17893   2.1719   -0.23017 
 6                    -1.01014   1.84423   1.01514 
 6                     1.04322  -0.01522  -0.74938 
 6                     0.43665  -1.27048  -0.10847 
 6                    -0.98035  -1.28117  -0.70005 
 1                    -2.95893   1.35806   0.16971 
 1                    -2.32694   0.08729   1.21178 
 1                    -2.04268   0.34308  -1.64597 
 1                    -0.70808   2.92564  -0.82964 
 1                     0.80796   2.58441  -0.01479 
 1                    -1.47583   2.73225   1.45578 
 1                    -0.38141   1.37633   1.77938 
 1                     1.4491   -0.34292  -1.7172 
 1                     1.00239  -2.17054  -0.38278 
 1                    -0.93923  -1.70497  -1.71024 
 8                    -1.90267  -2.02084   0.10114 
 1                    -1.74625  -2.96413  -0.0759 
 8                     0.3731   -1.16341   1.31644 
 1                    -0.43075  -1.65862   1.56684 
 6                     2.23181   0.56373   0.02552 
 1                     2.66073   1.4087   -0.52075 
 1                     1.93123   0.91841   1.01717 
 8                     3.2828   -0.40325   0.14306 
 1                     2.98787  -1.06232   0.79322 
 
                          Input orientation:                          
 ---------------------------------------------------------------------
 Center     Atomic      Atomic             Coordinates (Angstroms)
 Number     Number       Type             X           Y           Z
 ---------------------------------------------------------------------
      1          6           0       -2.042962    0.839083    0.472054
      2          6           0       -1.374101    0.206573   -0.789352
      3          7           0       -0.086606    0.931071   -1.027657
      4          6           0       -0.178927    2.171897   -0.230172
      5          6           0       -1.010137    1.844230    1.015143
      6          6           0        1.043222   -0.015220   -0.749378
      7          6           0        0.436651   -1.270477   -0.108465
      8          6           0       -0.980348   -1.281174   -0.700045
      9          1           0       -2.958934    1.358063    0.169705
     10          1           0       -2.326938    0.087293    1.211781
     11          1           0       -2.042681    0.343081   -1.645974
     12          1           0       -0.708079    2.925638   -0.829639
     13          1           0        0.807963    2.584413   -0.014794
     14          1           0       -1.475825    2.732246    1.455782
     15          1           0       -0.381413    1.376333    1.779381
     16          1           0        1.449097   -0.342918   -1.717201
     17          1           0        1.002394   -2.170544   -0.382780
     18          1           0       -0.939229   -1.704973   -1.710235
     19          8           0       -1.902667   -2.020843    0.101143
     20          1           0       -1.746254   -2.964133   -0.075895
     21          8           0        0.373100   -1.163412    1.316441
     22          1           0       -0.430746   -1.658619    1.566840
     23          6           0        2.231806    0.563728    0.025520
     24          1           0        2.660726    1.408701   -0.520754
     25          1           0        1.931230    0.918412    1.017173
     26          8           0        3.282798   -0.403246    0.143061
     27          1           0        2.987870   -1.062323    0.793219
 ---------------------------------------------------------------------
                    Distance matrix (angstroms):
                    1          2          3          4          5
     1  C    0.000000
     2  C    1.561598   0.000000
     3  N    2.466764   1.496439   0.000000
     4  C    2.396694   2.367197   1.477889   0.000000
     5  C    1.540128   2.463857   2.420703   1.532673   0.000000
     6  C    3.427282   2.427806   1.499806   2.558653   3.284413
     7  C    3.306921   2.433949   2.442443   3.499098   3.613460
     8  C    2.645459   1.541560   2.408346   3.575857   3.565236
     9  H    1.095336   2.181150   3.141061   2.924152   2.179205
    10  H    1.092258   2.219608   3.278129   3.322462   2.204418
    11  H    2.175330   1.095187   2.134075   2.970293   3.225080
    12  H    2.798219   2.799736   2.098508   1.098858   2.159607
    13  H    3.378013   3.318956   2.135342   1.091104   2.216783
    14  H    2.207585   3.380828   3.367734   2.199631   1.095263
    15  H    2.181396   2.992016   2.857382   2.170766   1.094660
    16  H    4.287708   3.022134   2.111138   3.344550   4.277517
    17  H    4.366095   3.385811   3.349896   4.502844   4.703497
    18  H    3.528857   2.165906   2.853350   4.218858   4.475439
    19  O    2.887288   2.456368   3.645005   4.545340   4.070724
    20  H    3.853925   3.271222   4.339689   5.372068   4.985237
    21  O    3.249666   3.060055   3.176946   3.717665   3.324159
    22  H    3.168014   3.149683   3.681894   4.238575   3.593051
    23  C    4.306838   3.714046   2.572772   2.909161   3.623428
    24  H    4.840952   4.218659   2.834240   2.954748   4.002986
    25  H    4.012188   3.833466   2.872830   2.753154   3.083631
    26  O    5.478625   4.788317   3.808394   4.330612   4.923512
    27  H    5.387742   4.810553   4.091651   4.640702   4.947864
                    6          7          8          9         10
     6  C    0.000000
     7  C    1.534395   0.000000
     8  C    2.387448   1.535567   0.000000
     9  H    4.329881   4.303092   3.411281   0.000000
    10  H    3.900594   3.350226   2.709444   1.760738   0.000000
    11  H    3.233429   3.333855   2.159059   2.272971   2.883226
    12  H    3.423761   4.408841   4.217605   2.919303   3.852830
    13  H    2.711651   3.873864   4.313976   3.965790   4.191384
    14  H    4.330923   4.703852   4.582644   2.396244   2.789212
    15  H    3.218793   3.352431   3.683561   3.038915   2.401845
    16  H    1.099455   2.115052   2.795914   5.087680   4.798172
    17  H    2.186660   1.097923   2.196111   5.333707   4.327228
    18  H    2.776441   2.155806   1.096257   4.122569   3.698125
    19  O    3.663901   2.465643   1.428175   3.540820   2.420281
    20  H    4.114711   2.763079   1.951545   4.495808   3.362515
    21  O    2.456627   1.430335   2.431441   4.333046   2.977486
    22  H    3.199720   1.926053   2.362900   4.176612   2.601888
    23  C    1.532442   2.569989   3.774658   5.253146   4.734591
    24  H    2.167058   3.506349   4.530452   5.662144   5.442847
    25  H    2.186534   2.879594   4.032903   4.982489   4.342882
    26  O    2.441867   2.985952   4.433509   6.485533   5.731660
    27  H    2.694009   2.713868   4.245526   6.450699   5.453806
                   11         12         13         14         15
    11  H    0.000000
    12  H    3.019465   0.000000
    13  H    3.976241   1.754648   0.000000
    14  H    3.956049   2.418674   2.720319   0.000000
    15  H    3.944677   3.051892   2.468428   1.772274   0.000000
    16  H    3.559239   4.015549   3.446521   5.299021   4.304960
    17  H    4.145655   5.394115   4.773137   5.793033   4.378379
    18  H    2.327286   4.719262   4.932143   5.477272   4.688606
    19  O    2.942815   5.173110   5.345029   4.960756   4.083075
    20  H    3.672966   6.027880   6.108529   5.904905   4.913704
    21  O    4.108701   4.742883   4.000935   4.314405   2.689593
    22  H    4.114281   5.180293   4.694602   4.514889   3.042785
    23  C    4.594977   3.866890   2.472271   4.527101   3.250426
    24  H    4.952141   3.707473   2.251894   4.771742   3.813958
    25  H    4.818229   3.795474   2.258815   3.884636   2.477695
    26  O    5.667308   5.287222   3.882761   5.847994   4.389862
    27  H    5.764657   5.674288   4.324762   5.895958   4.274532
                   16         17         18         19         20
    16  H    0.000000
    17  H    2.306608   0.000000
    18  H    2.749426   2.397664   0.000000
    19  O    4.166069   2.948893   2.075832   0.000000
    20  H    4.446900   2.877330   2.215365   0.972421   0.000000
    21  O    3.321741   2.073084   3.343092   2.718686   3.110122
    22  H    4.006221   2.473252   3.316613   2.108560   2.476592
    23  C    2.114643   3.025625   4.267940   4.876432   5.317993
    24  H    2.442888   3.947163   4.906068   5.742219   6.224231
    25  H    3.049624   3.516284   4.749783   4.917021   5.458282
    26  O    2.612790   2.932592   4.791108   5.432074   5.647783
    27  H    3.031101   2.559930   4.701318   5.031410   5.175343
                   21         22         23         24         25
    21  O    0.000000
    22  H    0.976779   0.000000
    23  C    2.846801   3.795218   0.000000
    24  H    3.901831   4.829462   1.093786   0.000000
    25  H    2.617503   3.538665   1.095227   1.771374   0.000000
    26  O    3.228160   4.170554   1.432982   2.027505   2.082688
    27  H    2.668521   3.555418   1.950650   2.817713   2.256093
                   26         27
    26  O    0.000000
    27  H    0.971633   0.000000
 Stoichiometry    C8H15NO3
 Framework group  C1[X(C8H15NO3)]
 Deg. of freedom    75
 Full point group                 C1      NOp   1
 Largest Abelian subgroup         C1      NOp   1
 Largest concise Abelian subgroup C1      NOp   1
                         Standard orientation:                         
 ---------------------------------------------------------------------
 Center     Atomic      Atomic             Coordinates (Angstroms)
 Number     Number       Type             X           Y           Z
 ---------------------------------------------------------------------
      1          6           0       -2.042962    0.839083    0.472054
      2          6           0       -1.374101    0.206573   -0.789352
      3          7           0       -0.086606    0.931071   -1.027657
      4          6           0       -0.178927    2.171897   -0.230172
      5          6           0       -1.010137    1.844230    1.015143
      6          6           0        1.043222   -0.015220   -0.749378
      7          6           0        0.436651   -1.270477   -0.108465
      8          6           0       -0.980348   -1.281174   -0.700045
      9          1           0       -2.958934    1.358063    0.169705
     10          1           0       -2.326938    0.087293    1.211781
     11          1           0       -2.042681    0.343081   -1.645974
     12          1           0       -0.708079    2.925638   -0.829639
     13          1           0        0.807963    2.584413   -0.014794
     14          1           0       -1.475825    2.732246    1.455782
     15          1           0       -0.381413    1.376333    1.779381
     16          1           0        1.449097   -0.342918   -1.717201
     17          1           0        1.002394   -2.170544   -0.382780
     18          1           0       -0.939229   -1.704973   -1.710235
     19          8           0       -1.902667   -2.020843    0.101143
     20          1           0       -1.746254   -2.964133   -0.075895
     21          8           0        0.373100   -1.163412    1.316441
     22          1           0       -0.430746   -1.658619    1.566840
     23          6           0        2.231806    0.563728    0.025520
     24          1           0        2.660726    1.408701   -0.520754
     25          1           0        1.931230    0.918412    1.017173
     26          8           0        3.282798   -0.403246    0.143061
     27          1           0        2.987870   -1.062323    0.793219
 ---------------------------------------------------------------------
 Rotational constants (GHZ):      1.2612089      0.9133163      0.6694013
 Standard basis: 6-31+G(d,p) (6D, 7F)
 There are   303 symmetry adapted basis functions of A   symmetry.
 Integral buffers will be    131072 words long.
 Raffenetti 2 integral format.
 Two-electron integral symmetry is turned on.
   303 basis functions,   489 primitive gaussians,   303 cartesian basis functions
    47 alpha electrons       47 beta electrons
       nuclear repulsion energy       820.3974365837 Hartrees.
 NAtoms=   27 NActive=   27 NUniq=   27 SFac= 1.00D+00 NAtFMM=   60 NAOKFM=F Big=F
 ------------------------------------------------------------------------------
 Polarizable Continuum Model (PCM)
 =================================
 Model                : PCM.
 Atomic radii         : UFF (Universal Force Field).
 Polarization charges : Total charges.
 Charge compensation  : None.
 Solution method      : Matrix inversion.
 Cavity type          : Scaled VdW (van der Waals Surface) (Alpha=1.100).
 Cavity algorithm     : GePol (No added spheres)
                        Default sphere list used, NSphG=   27.
                        Lebedev-Laikov grids with approx.  5.0 points / Ang**2.
                        Smoothing algorithm: Karplus/York (Gamma=1.0000).
                        Polarization charges: spherical gaussians, with
                                              point-specific exponents (IZeta= 3).
                        Self-potential: point-specific (ISelfS= 7).
                        Self-field    : sphere-specific E.n sum rule (ISelfD= 2).
 Solvent              : Water, Eps=  78.355300 Eps(inf)=   1.777849
 ------------------------------------------------------------------------------
 One-electron integrals computed using PRISM.
 NBasis=   303 RedAO= T  NBF=   303
 NBsUse=   303 1.00D-06 NBFU=   303
 Harris functional with IExCor=  908 diagonalized for initial guess.
 ExpMin= 4.38D-02 ExpMax= 5.48D+03 ExpMxC= 8.25D+02 IAcc=2 IRadAn=         4 AccDes= 0.00D+00
 HarFok:  IExCor=  908 AccDes= 0.00D+00 IRadAn=         4 IDoV= 1
 ScaDFX=  1.000000  1.000000  1.000000  1.000000
 FoFCou: FMM=F IPFlag=           0 FMFlag=      100000 FMFlg1=           0
         NFxFlg=           0 DoJE=T BraDBF=F KetDBF=T FulRan=T
         Omega=  0.000000  0.000000  1.000000  0.000000  0.000000 ICntrl=     500 IOpCl=  0
         NMat0=    1 NMatS0=    1 NMatT0=    0 NMatD0=    1 NMtDS0=    0 NMtDT0=    0
         I1Cent=           4 NGrid=           0.
 Petite list used in FoFCou.
 Initial guess orbital symmetries:
       Occupied  (A) (A) (A) (A) (A) (A) (A) (A) (A) (A) (A) (A)
                 (A) (A) (A) (A) (A) (A) (A) (A) (A) (A) (A) (A)
                 (A) (A) (A) (A) (A) (A) (A) (A) (A) (A) (A) (A)
                 (A) (A) (A) (A) (A) (A) (A) (A) (A) (A) (A)
       Virtual   (A) (A) (A) (A) (A) (A) (A) (A) (A) (A) (A) (A)
                 (A) (A) (A) (A) (A) (A) (A) (A) (A) (A) (A) (A)
                 (A) (A) (A) (A) (A) (A) (A) (A) (A) (A) (A) (A)
                 (A) (A) (A) (A) (A) (A) (A) (A) (A) (A) (A) (A)
                 (A) (A) (A) (A) (A) (A) (A) (A) (A) (A) (A) (A)
                 (A) (A) (A) (A) (A) (A) (A) (A) (A) (A) (A) (A)
                 (A) (A) (A) (A) (A) (A) (A) (A) (A) (A) (A) (A)
                 (A) (A) (A) (A) (A) (A) (A) (A) (A) (A) (A) (A)
                 (A) (A) (A) (A) (A) (A) (A) (A) (A) (A) (A) (A)
                 (A) (A) (A) (A) (A) (A) (A) (A) (A) (A) (A) (A)
                 (A) (A) (A) (A) (A) (A) (A) (A) (A) (A) (A) (A)
                 (A) (A) (A) (A) (A) (A) (A) (A) (A) (A) (A) (A)
                 (A) (A) (A) (A) (A) (A) (A) (A) (A) (A) (A) (A)
                 (A) (A) (A) (A) (A) (A) (A) (A) (A) (A) (A) (A)
                 (A) (A) (A) (A) (A) (A) (A) (A) (A) (A) (A) (A)
                 (A) (A) (A) (A) (A) (A) (A) (A) (A) (A) (A) (A)
                 (A) (A) (A) (A) (A) (A) (A) (A) (A) (A) (A) (A)
                 (A) (A) (A) (A) (A) (A) (A) (A) (A) (A) (A) (A)
                 (A) (A) (A) (A) (A) (A) (A) (A) (A) (A) (A) (A)
                 (A) (A) (A) (A) (A) (A) (A) (A) (A) (A) (A) (A)
                 (A) (A) (A) (A) (A) (A) (A) (A) (A) (A) (A) (A)
                 (A) (A) (A) (A)
 The electronic state of the initial guess is 1-A.
 Requested convergence on RMS density matrix=1.00D-08 within 128 cycles.
 Requested convergence on MAX density matrix=1.00D-06.
 Requested convergence on             energy=1.00D-06.
 No special actions if energy rises.
 Error on total polarization charges =  0.01440
 SCF Done:  E(RmPW1PW91) =  -594.188342983     A.U. after   14 cycles
             Convg  =    0.3334D-08             -V/T =  2.0094
 Range of M.O.s used for correlation:     1   303
 NBasis=   303 NAE=    47 NBE=    47 NFC=     0 NFV=     0
 NROrb=    303 NOA=    47 NOB=    47 NVA=   256 NVB=   256

 **** Warning!!: The largest alpha MO coefficient is  0.77302704D+02

 NEqPCM:  Using equilibrium solvation (IEInf=0, Eps=  78.3553, EpsInf=   1.7778)
          Differentiating once with respect to magnetic field using GIAOs.
          Electric field/nuclear overlap derivatives assumed to be zero.
 FoFCou: FMM=F IPFlag=           0 FMFlag=    10101102 FMFlg1=           0
         NFxFlg=    40000000 DoJE=F BraDBF=F KetDBF=T FulRan=T
         Omega=  0.000000  0.000000  1.000000  0.000000  0.000000 ICntrl=    6100 IOpCl=  0
         NMat0=    1 NMatS0=    1 NMatT0=    0 NMatD0=    1 NMtDS0=    0 NMtDT0=    0
         I1Cent=           7 NGrid=        1768.
 Symmetry not used in FoFCou.
          There are     3 degrees of freedom in the 1st order CPHF.  IDoFFX=0.
      3 vectors produced by pass  0 Test12= 4.01D-13 3.33D-08 XBig12= 2.83D+01 1.17D+00.
 AX will form     3 AO Fock derivatives at one time.
      3 vectors produced by pass  1 Test12= 4.01D-13 3.33D-08 XBig12= 6.96D-02 4.68D-02.
      3 vectors produced by pass  2 Test12= 4.01D-13 3.33D-08 XBig12= 1.44D-04 2.12D-03.
      3 vectors produced by pass  3 Test12= 4.01D-13 3.33D-08 XBig12= 5.23D-07 1.33D-04.
      3 vectors produced by pass  4 Test12= 4.01D-13 3.33D-08 XBig12= 1.93D-09 6.26D-06.
      3 vectors produced by pass  5 Test12= 4.01D-13 3.33D-08 XBig12= 6.79D-12 5.14D-07.
 Inverted reduced A of dimension    18 with in-core refinement.
 Calculating GIAO nuclear magnetic shielding tensors.
 SCF GIAO Magnetic shielding tensor (ppm):
      1  C    Isotropic =   169.3310   Anisotropy =    25.6960
   XX=   175.1723   YX=    12.6072   ZX=    -7.6080
   XY=     9.0189   YY=   163.0607   ZY=    17.9155
   XZ=    -5.7658   YZ=    20.6774   ZZ=   169.7599
   Eigenvalues:   142.0386   179.4927   186.4617
      2  C    Isotropic =   126.7276   Anisotropy =    65.6018
   XX=   142.6364   YX=    30.2183   ZX=   -15.8253
   XY=    27.0883   YY=   134.5932   ZY=    -0.2965
   XZ=   -23.9593   YZ=     4.4352   ZZ=   102.9531
   Eigenvalues:    89.8085   119.9121   170.4622
      3  N    Isotropic =   195.3924   Anisotropy =    75.4416
   XX=   238.1268   YX=    19.3452   ZX=    -2.3118
   XY=    13.7447   YY=   207.7667   ZY=    20.7995
   XZ=     5.9181   YZ=    -1.8859   ZZ=   140.2837
   Eigenvalues:   138.9812   201.5093   245.6868
      4  C    Isotropic =   144.7195   Anisotropy =    48.7364
   XX=   121.6477   YX=     2.3738   ZX=   -13.9004
   XY=    12.6431   YY=   164.1818   ZY=    20.4566
   XZ=   -22.8228   YZ=    17.6168   ZZ=   148.3291
   Eigenvalues:   107.8287   149.1195   177.2104
      5  C    Isotropic =   168.5889   Anisotropy =    19.9003
   XX=   165.2721   YX=    10.2544   ZX=   -12.2518
   XY=    10.4938   YY=   167.4730   ZY=     3.1415
   XZ=   -11.6861   YZ=    14.3194   ZZ=   173.0216
   Eigenvalues:   147.4282   176.4827   181.8558
      6  C    Isotropic =   128.7973   Anisotropy =    50.7496
   XX=   148.3263   YX=   -22.0760   ZX=     9.1068
   XY=   -12.7593   YY=   134.6974   ZY=   -10.3428
   XZ=     3.1886   YZ=   -13.7094   ZZ=   103.3683
   Eigenvalues:    99.2831   124.4785   162.6304
      7  C    Isotropic =   122.3082   Anisotropy =    26.9676
   XX=   113.8014   YX=    -0.4374   ZX=    -4.5560
   XY=     5.0135   YY=   112.9504   ZY=    -1.4170
   XZ=     6.6536   YZ=    -1.5623   ZZ=   140.1730
   Eigenvalues:   110.9358   115.7023   140.2866
      8  C    Isotropic =   120.8030   Anisotropy =    50.6014
   XX=   138.6628   YX=    15.3838   ZX=    -9.6626
   XY=    15.4004   YY=   124.2213   ZY=   -24.1579
   XZ=    -4.0936   YZ=   -19.1031   ZZ=    99.5250
   Eigenvalues:    86.8975   120.9743   154.5373
      9  H    Isotropic =    30.1844   Anisotropy =    12.6286
   XX=    36.7759   YX=    -4.0714   ZX=     1.3621
   XY=    -4.7258   YY=    27.5992   ZY=     1.3793
   XZ=     1.6040   YZ=     1.4275   ZZ=    26.1782
   Eigenvalues:    24.1185    27.8312    38.6035
     10  H    Isotropic =    29.4096   Anisotropy =     6.8637
   XX=    28.2802   YX=     1.3068   ZX=    -4.1568
   XY=     1.2695   YY=    31.3704   ZY=    -1.2913
   XZ=    -3.8882   YZ=    -1.7812   ZZ=    28.5780
   Eigenvalues:    24.4009    29.8424    33.9853
     11  H    Isotropic =    27.8715   Anisotropy =     9.5852
   XX=    28.8280   YX=    -0.0704   ZX=     4.8673
   XY=    -0.7377   YY=    24.1957   ZY=     0.1407
   XZ=     4.0648   YZ=     0.5341   ZZ=    30.5909
   Eigenvalues:    23.9636    25.3894    34.2616
     12  H    Isotropic =    28.9529   Anisotropy =    12.5486
   XX=    23.7804   YX=    -3.1293   ZX=     0.0427
   XY=    -2.9260   YY=    35.1862   ZY=    -4.1768
   XZ=    -0.5374   YZ=    -3.3399   ZZ=    27.8923
   Eigenvalues:    22.7131    26.8270    37.3186
     13  H    Isotropic =    28.7332   Anisotropy =     7.7656
   XX=    30.3642   YX=     1.6594   ZX=    -0.7687
   XY=     3.4591   YY=    31.9775   ZY=     1.5869
   XZ=    -0.2494   YZ=     0.9976   ZZ=    23.8580
   Eigenvalues:    23.5266    28.7628    33.9103
     14  H    Isotropic =    30.1591   Anisotropy =    12.3723
   XX=    28.0348   YX=    -2.7822   ZX=    -2.5378
   XY=    -2.7847   YY=    33.4843   ZY=     5.4291
   XZ=    -2.5537   YZ=     5.3455   ZZ=    28.9582
   Eigenvalues:    25.1788    26.8912    38.4073
     15  H    Isotropic =    29.8481   Anisotropy =     7.3844
   XX=    28.7484   YX=    -0.7821   ZX=     3.4258
   XY=    -1.5328   YY=    28.1146   ZY=    -0.5363
   XZ=     3.4304   YZ=    -0.0330   ZZ=    32.6814
   Eigenvalues:    26.3296    28.4437    34.7711
     16  H    Isotropic =    28.1692   Anisotropy =     8.2231
   XX=    29.3376   YX=    -1.8620   ZX=    -3.7334
   XY=    -2.7506   YY=    25.4672   ZY=     1.3917
   XZ=    -3.5233   YZ=    -0.2785   ZZ=    29.7027
   Eigenvalues:    24.1005    26.7557    33.6512
     17  H    Isotropic =    27.7725   Anisotropy =     7.8812
   XX=    26.7066   YX=    -3.5346   ZX=    -0.7415
   XY=    -2.5251   YY=    29.4899   ZY=     2.3387
   XZ=    -2.1950   YZ=     3.0647   ZZ=    27.1211
   Eigenvalues:    24.7150    25.5759    33.0266
     18  H    Isotropic =    27.0299   Anisotropy =     6.6391
   XX=    24.1206   YX=     1.6377   ZX=    -1.6052
   XY=     2.0361   YY=    27.2324   ZY=     1.9869
   XZ=     1.0641   YZ=     3.2212   ZZ=    29.7367
   Eigenvalues:    22.9589    26.6749    31.4560
     19  O    Isotropic =   310.5827   Anisotropy =   103.2287
   XX=   278.4742   YX=   -15.6727   ZX=    -0.8176
   XY=    10.7269   YY=   378.2924   ZY=    -6.3605
   XZ=    -0.2730   YZ=    27.2635   ZZ=   274.9814
   Eigenvalues:   273.9152   278.4310   379.4018
     20  H    Isotropic =    29.9738   Anisotropy =    22.6120
   XX=    23.4028   YX=     1.5001   ZX=    -2.4916
   XY=     1.7379   YY=    44.7480   ZY=     2.4001
   XZ=    -1.8804   YZ=     1.9941   ZZ=    21.7706
   Eigenvalues:    19.9532    24.9198    45.0485
     21  O    Isotropic =   315.9485   Anisotropy =    35.3783
   XX=   325.4773   YX=     8.3187   ZX=   -21.3685
   XY=    12.6236   YY=   323.3786   ZY=    19.2859
   XZ=   -16.0409   YZ=   -14.2926   ZZ=   298.9896
   Eigenvalues:   287.8665   320.4450   339.5340
     22  H    Isotropic =    28.6058   Anisotropy =    17.3187
   XX=    33.6181   YX=     8.6458   ZX=    -1.1551
   XY=     8.1898   YY=    24.4483   ZY=    -5.0440
   XZ=    -3.0784   YZ=    -4.5889   ZZ=    27.7510
   Eigenvalues:    18.3464    27.3194    40.1516
     23  C    Isotropic =   135.2828   Anisotropy =    68.3738
   XX=   149.4824   YX=   -30.8356   ZX=    10.4691
   XY=   -31.3767   YY=   148.2276   ZY=    -0.5560
   XZ=     9.7713   YZ=    -1.7833   ZZ=   108.1385
   Eigenvalues:   104.3640   120.6191   180.8654
     24  H    Isotropic =    27.7870   Anisotropy =     5.4577
   XX=    30.1193   YX=    -0.0976   ZX=     0.6441
   XY=     1.3833   YY=    30.3500   ZY=    -2.9739
   XZ=    -0.6256   YZ=    -2.1255   ZZ=    22.8917
   Eigenvalues:    22.0984    29.8371    31.4255
     25  H    Isotropic =    27.4640   Anisotropy =     5.5347
   XX=    29.9216   YX=    -2.3770   ZX=     0.3914
   XY=    -2.1275   YY=    26.9471   ZY=     3.3539
   XZ=     1.7466   YZ=     1.8551   ZZ=    25.5233
   Eigenvalues:    22.8219    28.4162    31.1538
     26  O    Isotropic =   315.3530   Anisotropy =    53.3045
   XX=   306.7958   YX=    19.3257   ZX=   -12.4450
   XY=    -7.6136   YY=   324.5793   ZY=   -24.2980
   XZ=    -3.3164   YZ=   -33.2223   ZZ=   314.6839
   Eigenvalues:   290.1134   305.0562   350.8893
     27  H    Isotropic =    30.3381   Anisotropy =    15.5267
   XX=    30.0835   YX=    -0.4581   ZX=    -1.8440
   XY=     0.0821   YY=    32.0678   ZY=   -10.5877
   XZ=    -1.8919   YZ=    -9.3868   ZZ=    28.8630
   Eigenvalues:    20.1102    30.2149    40.6893
 End of Minotr Frequency-dependent properties file   721 does not exist.
 End of Minotr Frequency-dependent properties file   722 does not exist.

 **********************************************************************

            Population analysis using the SCF density.

 **********************************************************************

 Orbital symmetries:
       Occupied  (A) (A) (A) (A) (A) (A) (A) (A) (A) (A) (A) (A)
                 (A) (A) (A) (A) (A) (A) (A) (A) (A) (A) (A) (A)
                 (A) (A) (A) (A) (A) (A) (A) (A) (A) (A) (A) (A)
                 (A) (A) (A) (A) (A) (A) (A) (A) (A) (A) (A)
       Virtual   (A) (A) (A) (A) (A) (A) (A) (A) (A) (A) (A) (A)
                 (A) (A) (A) (A) (A) (A) (A) (A) (A) (A) (A) (A)
                 (A) (A) (A) (A) (A) (A) (A) (A) (A) (A) (A) (A)
                 (A) (A) (A) (A) (A) (A) (A) (A) (A) (A) (A) (A)
                 (A) (A) (A) (A) (A) (A) (A) (A) (A) (A) (A) (A)
                 (A) (A) (A) (A) (A) (A) (A) (A) (A) (A) (A) (A)
                 (A) (A) (A) (A) (A) (A) (A) (A) (A) (A) (A) (A)
                 (A) (A) (A) (A) (A) (A) (A) (A) (A) (A) (A) (A)
                 (A) (A) (A) (A) (A) (A) (A) (A) (A) (A) (A) (A)
                 (A) (A) (A) (A) (A) (A) (A) (A) (A) (A) (A) (A)
                 (A) (A) (A) (A) (A) (A) (A) (A) (A) (A) (A) (A)
                 (A) (A) (A) (A) (A) (A) (A) (A) (A) (A) (A) (A)
                 (A) (A) (A) (A) (A) (A) (A) (A) (A) (A) (A) (A)
                 (A) (A) (A) (A) (A) (A) (A) (A) (A) (A) (A) (A)
                 (A) (A) (A) (A) (A) (A) (A) (A) (A) (A) (A) (A)
                 (A) (A) (A) (A) (A) (A) (A) (A) (A) (A) (A) (A)
                 (A) (A) (A) (A) (A) (A) (A) (A) (A) (A) (A) (A)
                 (A) (A) (A) (A) (A) (A) (A) (A) (A) (A) (A) (A)
                 (A) (A) (A) (A) (A) (A) (A) (A) (A) (A) (A) (A)
                 (A) (A) (A) (A) (A) (A) (A) (A) (A) (A) (A) (A)
                 (A) (A) (A) (A) (A) (A) (A) (A) (A) (A) (A) (A)
                 (A) (A) (A) (A)
 The electronic state is 1-A.
 Alpha  occ. eigenvalues --  -19.27119 -19.25777 -19.25322 -14.41217 -10.30860
 Alpha  occ. eigenvalues --  -10.30067 -10.29841 -10.28120 -10.27749 -10.26660
 Alpha  occ. eigenvalues --  -10.24029 -10.23744  -1.08317  -1.05967  -1.04879
 Alpha  occ. eigenvalues --   -0.95951  -0.82088  -0.78993  -0.75430  -0.71226
 Alpha  occ. eigenvalues --   -0.67469  -0.61770  -0.59166  -0.57614  -0.56138
 Alpha  occ. eigenvalues --   -0.53411  -0.52176  -0.50550  -0.48971  -0.47662
 Alpha  occ. eigenvalues --   -0.46486  -0.44233  -0.43298  -0.41565  -0.40925
 Alpha  occ. eigenvalues --   -0.39489  -0.38120  -0.37693  -0.36009  -0.35176
 Alpha  occ. eigenvalues --   -0.34739  -0.33921  -0.33282  -0.31487  -0.29667
 Alpha  occ. eigenvalues --   -0.29130  -0.22848
 Alpha virt. eigenvalues --   -0.00287   0.01644   0.01734   0.02102   0.03649
 Alpha virt. eigenvalues --    0.04116   0.04719   0.04757   0.05301   0.07429
 Alpha virt. eigenvalues --    0.07942   0.08546   0.08763   0.08947   0.09678
 Alpha virt. eigenvalues --    0.09948   0.11250   0.12071   0.12712   0.13323
 Alpha virt. eigenvalues --    0.13868   0.14088   0.14554   0.14616   0.15149
 Alpha virt. eigenvalues --    0.15540   0.16494   0.17360   0.17847   0.18462
 Alpha virt. eigenvalues --    0.18653   0.19083   0.19742   0.19967   0.20904
 Alpha virt. eigenvalues --    0.21253   0.21630   0.21776   0.22406   0.23300
 Alpha virt. eigenvalues --    0.23768   0.24324   0.25013   0.25170   0.25251
 Alpha virt. eigenvalues --    0.26247   0.26837   0.27143   0.28333   0.29252
 Alpha virt. eigenvalues --    0.29837   0.30527   0.30759   0.31188   0.31733
 Alpha virt. eigenvalues --    0.33024   0.33559   0.33732   0.34345   0.35541
 Alpha virt. eigenvalues --    0.35855   0.36358   0.36574   0.37852   0.39044
 Alpha virt. eigenvalues --    0.39570   0.40663   0.40812   0.41935   0.42857
 Alpha virt. eigenvalues --    0.43287   0.44188   0.44904   0.45872   0.47768
 Alpha virt. eigenvalues --    0.48837   0.64128   0.67000   0.67180   0.68988
 Alpha virt. eigenvalues --    0.70084   0.70924   0.72112   0.72961   0.74479
 Alpha virt. eigenvalues --    0.76538   0.78595   0.79731   0.81227   0.82039
 Alpha virt. eigenvalues --    0.82995   0.83362   0.84400   0.86290   0.88099
 Alpha virt. eigenvalues --    0.90486   0.91856   0.95096   0.96431   0.97017
 Alpha virt. eigenvalues --    0.97799   1.00041   1.02676   1.03068   1.05280
 Alpha virt. eigenvalues --    1.05936   1.06089   1.08446   1.09323   1.10639
 Alpha virt. eigenvalues --    1.12173   1.12733   1.14004   1.15511   1.17349
 Alpha virt. eigenvalues --    1.18000   1.19196   1.21771   1.23619   1.25124
 Alpha virt. eigenvalues --    1.27388   1.28797   1.30029   1.31316   1.33124
 Alpha virt. eigenvalues --    1.34829   1.36121   1.40134   1.40926   1.41706
 Alpha virt. eigenvalues --    1.42829   1.44325   1.47747   1.49281   1.53057
 Alpha virt. eigenvalues --    1.54072   1.55256   1.59228   1.61039   1.62639
 Alpha virt. eigenvalues --    1.63353   1.65591   1.65825   1.69086   1.70485
 Alpha virt. eigenvalues --    1.73267   1.74328   1.76894   1.78186   1.79343
 Alpha virt. eigenvalues --    1.80509   1.81633   1.82500   1.84624   1.86375
 Alpha virt. eigenvalues --    1.86683   1.89092   1.90615   1.93223   1.94515
 Alpha virt. eigenvalues --    1.96663   1.97437   2.02018   2.03163   2.03505
 Alpha virt. eigenvalues --    2.05899   2.06848   2.09408   2.10160   2.10535
 Alpha virt. eigenvalues --    2.12827   2.14607   2.17069   2.17797   2.20874
 Alpha virt. eigenvalues --    2.22381   2.24264   2.25742   2.29853   2.31872
 Alpha virt. eigenvalues --    2.34316   2.35870   2.36655   2.38214   2.39359
 Alpha virt. eigenvalues --    2.40896   2.42460   2.45165   2.46430   2.50324
 Alpha virt. eigenvalues --    2.51139   2.51791   2.52279   2.53605   2.56136
 Alpha virt. eigenvalues --    2.57218   2.58871   2.59896   2.62472   2.64181
 Alpha virt. eigenvalues --    2.64626   2.66503   2.67530   2.68462   2.69890
 Alpha virt. eigenvalues --    2.70822   2.71950   2.73644   2.76495   2.77356
 Alpha virt. eigenvalues --    2.79801   2.80990   2.81402   2.83445   2.84507
 Alpha virt. eigenvalues --    2.87463   2.88661   2.90714   2.91334   2.94582
 Alpha virt. eigenvalues --    2.95790   2.97565   3.01482   3.05120   3.06001
 Alpha virt. eigenvalues --    3.07602   3.09819   3.13448   3.15209   3.33492
 Alpha virt. eigenvalues --    3.36456   3.38184   3.39326   3.44590   3.45457
 Alpha virt. eigenvalues --    3.46192   3.50290   3.52951   3.54424   3.54979
 Alpha virt. eigenvalues --    3.56924   3.59310   3.60065   3.62396   4.30242
 Alpha virt. eigenvalues --    4.35956   4.36792   4.45559   4.51246   4.59107
 Alpha virt. eigenvalues --    4.63649   4.69255   4.74786   4.84699   4.91633
 Alpha virt. eigenvalues --    5.03041
          Condensed to atoms (all electrons):
              1          2          3          4          5          6
     1  C    5.803697  -0.310089   0.080748   0.014373   0.083239   0.002070
     2  C   -0.310089   7.603435  -0.378867  -0.200499   0.023161  -0.307355
     3  N    0.080748  -0.378867   7.683024   0.180866  -0.239173  -1.072277
     4  C    0.014373  -0.200499   0.180866   5.679453   0.143740  -0.169250
     5  C    0.083239   0.023161  -0.239173   0.143740   5.436707   0.252869
     6  C    0.002070  -0.307355  -1.072277  -0.169250   0.252869  12.259230
     7  C   -0.097837   0.336920   0.206613   0.124633  -0.119238  -2.941422
     8  C   -0.025340  -0.695473   0.076589  -0.130273   0.123929   0.320426
     9  H    0.412812  -0.081001   0.012265  -0.004910  -0.033052   0.015905
    10  H    0.469824  -0.147285   0.024021   0.032302  -0.054757  -0.004935
    11  H   -0.012930   0.266415  -0.004434   0.004301   0.006375  -0.042442
    12  H   -0.001780  -0.011811  -0.021004   0.403519  -0.053830  -0.037461
    13  H    0.017614   0.018528  -0.044012   0.350218  -0.017974   0.013843
    14  H   -0.010626   0.005161   0.023987  -0.039090   0.364388  -0.025274
    15  H   -0.075690   0.008156   0.011612  -0.074092   0.450787   0.011061
    16  H    0.004487  -0.013896   0.030190   0.010900  -0.004073   0.087204
    17  H   -0.001995   0.027915   0.032381  -0.003923   0.000793  -0.207593
    18  H    0.010293   0.014775   0.022240   0.009804  -0.006701  -0.064371
    19  O    0.025328  -0.175237   0.007031   0.009094  -0.006901   0.093259
    20  H   -0.004766   0.037465  -0.002368  -0.000973   0.000127   0.014262
    21  O    0.033370   0.008586   0.163121  -0.005737  -0.033380  -0.646445
    22  H    0.022822  -0.015577  -0.008475   0.003924  -0.009428   0.093290
    23  C    0.012279  -0.057281   0.256744  -0.099929  -0.045742  -1.015799
    24  H    0.000253   0.002057  -0.003565  -0.010591   0.002206  -0.054449
    25  H    0.003632  -0.003713   0.024660   0.011912  -0.008601  -0.131107
    26  O    0.004703  -0.011922   0.034038   0.003146  -0.000683  -0.191817
    27  H    0.000957  -0.003388  -0.000843  -0.000515  -0.001112  -0.045095
              7          8          9         10         11         12
     1  C   -0.097837  -0.025340   0.412812   0.469824  -0.012930  -0.001780
     2  C    0.336920  -0.695473  -0.081001  -0.147285   0.266415  -0.011811
     3  N    0.206613   0.076589   0.012265   0.024021  -0.004434  -0.021004
     4  C    0.124633  -0.130273  -0.004910   0.032302   0.004301   0.403519
     5  C   -0.119238   0.123929  -0.033052  -0.054757   0.006375  -0.053830
     6  C   -2.941422   0.320426   0.015905  -0.004935  -0.042442  -0.037461
     7  C    7.788309  -0.737687  -0.020568  -0.002058   0.039280   0.008550
     8  C   -0.737687   6.878892   0.034273   0.014913   0.014718   0.006608
     9  H   -0.020568   0.034273   0.530742  -0.026072  -0.008375   0.001198
    10  H   -0.002058   0.014913  -0.026072   0.513034   0.004128   0.000001
    11  H    0.039280   0.014718  -0.008375   0.004128   0.560616   0.001825
    12  H    0.008550   0.006608   0.001198   0.000001   0.001825   0.551879
    13  H   -0.013689   0.001930  -0.000139  -0.000144  -0.000136  -0.026997
    14  H    0.007308  -0.001668  -0.006058   0.001560   0.000009  -0.003348
    15  H   -0.001964   0.006267   0.003867  -0.006553  -0.000098   0.004273
    16  H    0.057562  -0.011300   0.000003   0.000017   0.000719   0.000199
    17  H    0.470299  -0.012607   0.000005  -0.000049  -0.000112   0.000004
    18  H    0.077657   0.232669  -0.000072   0.000025  -0.008191   0.000007
    19  O   -0.105274   0.228900  -0.000403   0.001646   0.003322  -0.000028
    20  H   -0.064780   0.031805  -0.000007   0.000047  -0.000271   0.000000
    21  O    0.436416  -0.073203   0.000640  -0.000358   0.000674   0.000530
    22  H   -0.025139  -0.066498   0.000000  -0.000612  -0.000038  -0.000002
    23  C    0.365019  -0.030299  -0.000933   0.000284   0.006908   0.014273
    24  H    0.012893   0.003972   0.000000  -0.000001  -0.000002  -0.000101
    25  H    0.004072  -0.007546   0.000001   0.000014   0.000006   0.000258
    26  O    0.016674   0.030615  -0.000002   0.000000   0.000067   0.000050
    27  H    0.022489   0.015239   0.000000   0.000000   0.000000   0.000000
             13         14         15         16         17         18
     1  C    0.017614  -0.010626  -0.075690   0.004487  -0.001995   0.010293
     2  C    0.018528   0.005161   0.008156  -0.013896   0.027915   0.014775
     3  N   -0.044012   0.023987   0.011612   0.030190   0.032381   0.022240
     4  C    0.350218  -0.039090  -0.074092   0.010900  -0.003923   0.009804
     5  C   -0.017974   0.364388   0.450787  -0.004073   0.000793  -0.006701
     6  C    0.013843  -0.025274   0.011061   0.087204  -0.207593  -0.064371
     7  C   -0.013689   0.007308  -0.001964   0.057562   0.470299   0.077657
     8  C    0.001930  -0.001668   0.006267  -0.011300  -0.012607   0.232669
     9  H   -0.000139  -0.006058   0.003867   0.000003   0.000005  -0.000072
    10  H   -0.000144   0.001560  -0.006553   0.000017  -0.000049   0.000025
    11  H   -0.000136   0.000009  -0.000098   0.000719  -0.000112  -0.008191
    12  H   -0.026997  -0.003348   0.004273   0.000199   0.000004   0.000007
    13  H    0.538493   0.001397  -0.005537  -0.000007  -0.000006   0.000007
    14  H    0.001397   0.531538  -0.025405   0.000007   0.000000   0.000002
    15  H   -0.005537  -0.025405   0.514606   0.000027   0.000020   0.000002
    16  H   -0.000007   0.000007   0.000027   0.579391   0.000168   0.000763
    17  H   -0.000006   0.000000   0.000020   0.000168   0.566321  -0.003498
    18  H    0.000007   0.000002   0.000002   0.000763  -0.003498   0.554468
    19  O    0.000045   0.000147  -0.000191  -0.000921  -0.008244  -0.027775
    20  H    0.000000   0.000000  -0.000003   0.000001   0.001872  -0.008067
    21  O    0.000165   0.000886  -0.001603   0.014358  -0.048187   0.004905
    22  H   -0.000003  -0.000016  -0.000234  -0.000307  -0.000420   0.000994
    23  C    0.009458   0.009706   0.001405   0.063742   0.014652   0.009604
    24  H    0.000353  -0.000005  -0.000007  -0.007565  -0.000062   0.000005
    25  H   -0.003572   0.000075   0.001444   0.005044   0.000213   0.000002
    26  O    0.000503   0.000014  -0.000236   0.008924   0.005333   0.000007
    27  H    0.000002   0.000000   0.000013  -0.000498  -0.001036  -0.000002
             19         20         21         22         23         24
     1  C    0.025328  -0.004766   0.033370   0.022822   0.012279   0.000253
     2  C   -0.175237   0.037465   0.008586  -0.015577  -0.057281   0.002057
     3  N    0.007031  -0.002368   0.163121  -0.008475   0.256744  -0.003565
     4  C    0.009094  -0.000973  -0.005737   0.003924  -0.099929  -0.010591
     5  C   -0.006901   0.000127  -0.033380  -0.009428  -0.045742   0.002206
     6  C    0.093259   0.014262  -0.646445   0.093290  -1.015799  -0.054449
     7  C   -0.105274  -0.064780   0.436416  -0.025139   0.365019   0.012893
     8  C    0.228900   0.031805  -0.073203  -0.066498  -0.030299   0.003972
     9  H   -0.000403  -0.000007   0.000640   0.000000  -0.000933   0.000000
    10  H    0.001646   0.000047  -0.000358  -0.000612   0.000284  -0.000001
    11  H    0.003322  -0.000271   0.000674  -0.000038   0.006908  -0.000002
    12  H   -0.000028   0.000000   0.000530  -0.000002   0.014273  -0.000101
    13  H    0.000045   0.000000   0.000165  -0.000003   0.009458   0.000353
    14  H    0.000147   0.000000   0.000886  -0.000016   0.009706  -0.000005
    15  H   -0.000191  -0.000003  -0.001603  -0.000234   0.001405  -0.000007
    16  H   -0.000921   0.000001   0.014358  -0.000307   0.063742  -0.007565
    17  H   -0.008244   0.001872  -0.048187  -0.000420   0.014652  -0.000062
    18  H   -0.027775  -0.008067   0.004905   0.000994   0.009604   0.000005
    19  O    8.339610   0.237427  -0.036620   0.042898  -0.016975   0.000026
    20  H    0.237427   0.353755   0.001061  -0.002423   0.000192   0.000000
    21  O   -0.036620   0.001061   8.393972   0.229473   0.129302  -0.000600
    22  H    0.042898  -0.002423   0.229473   0.355243  -0.012278   0.000001
    23  C   -0.016975   0.000192   0.129302  -0.012278   5.520419   0.425733
    24  H    0.000026   0.000000  -0.000600   0.000001   0.425733   0.535981
    25  H    0.000049   0.000000   0.008363  -0.000281   0.446822  -0.037756
    26  O   -0.000207  -0.000002   0.007412  -0.000153   0.204880  -0.052498
    27  H    0.000018  -0.000001   0.003578  -0.000060   0.004136   0.005983
             25         26         27
     1  C    0.003632   0.004703   0.000957
     2  C   -0.003713  -0.011922  -0.003388
     3  N    0.024660   0.034038  -0.000843
     4  C    0.011912   0.003146  -0.000515
     5  C   -0.008601  -0.000683  -0.001112
     6  C   -0.131107  -0.191817  -0.045095
     7  C    0.004072   0.016674   0.022489
     8  C   -0.007546   0.030615   0.015239
     9  H    0.000001  -0.000002   0.000000
    10  H    0.000014   0.000000   0.000000
    11  H    0.000006   0.000067   0.000000
    12  H    0.000258   0.000050   0.000000
    13  H   -0.003572   0.000503   0.000002
    14  H    0.000075   0.000014   0.000000
    15  H    0.001444  -0.000236   0.000013
    16  H    0.005044   0.008924  -0.000498
    17  H    0.000213   0.005333  -0.001036
    18  H    0.000002   0.000007  -0.000002
    19  O    0.000049  -0.000207   0.000018
    20  H    0.000000  -0.000002  -0.000001
    21  O    0.008363   0.007412   0.003578
    22  H   -0.000281  -0.000153  -0.000060
    23  C    0.446822   0.204880   0.004136
    24  H   -0.037756  -0.052498   0.005983
    25  H    0.554926  -0.034977  -0.008039
    26  O   -0.034977   8.267838   0.261247
    27  H   -0.008039   0.261247   0.362542
 Mulliken atomic charges:
              1
     1  C   -0.461445
     2  C    0.060818
     3  N   -0.095110
     4  C   -0.242401
     5  C   -0.253675
     6  C   -0.206329
     7  C    0.154962
     8  C   -0.229850
     9  H    0.169880
    10  H    0.181006
    11  H    0.167668
    12  H    0.163191
    13  H    0.159660
    14  H    0.165305
    15  H    0.178073
    16  H    0.174859
    17  H    0.167753
    18  H    0.180448
    19  O   -0.610025
    20  H    0.405648
    21  O   -0.590677
    22  H    0.393296
    23  C   -0.216323
    24  H    0.177738
    25  H    0.174100
    26  O   -0.552953
    27  H    0.384386
 Sum of Mulliken atomic charges =   0.00000
 Mulliken charges with hydrogens summed into heavy atoms:
              1
     1  C   -0.110558
     2  C    0.228486
     3  N   -0.095110
     4  C    0.080450
     5  C    0.089703
     6  C   -0.031471
     7  C    0.322715
     8  C   -0.049402
    19  O   -0.204377
    21  O   -0.197381
    23  C    0.135514
    26  O   -0.168568
 Sum of Mulliken charges with hydrogens summed into heavy atoms =   0.00000
 Electronic spatial extent (au):  <R**2>=           1901.8138
 Charge=              0.0000 electrons
 Dipole moment (field-independent basis, Debye):
    X=             -2.4460    Y=             -2.2469    Z=             -0.0098  Tot=              3.3214
 Quadrupole moment (field-independent basis, Debye-Ang):
   XX=            -86.1501   YY=            -59.6878   ZZ=            -75.4698
   XY=              1.8912   XZ=              2.1046   YZ=              2.9490
 Traceless Quadrupole moment (field-independent basis, Debye-Ang):
   XX=            -12.3809   YY=             14.0814   ZZ=             -1.7006
   XY=              1.8912   XZ=              2.1046   YZ=              2.9490
 Octapole moment (field-independent basis, Debye-Ang**2):
  XXX=            -36.8365  YYY=            -47.6634  ZZZ=              8.6803  XYY=             -5.5313
  XXY=              3.6335  XXZ=              3.7099  XZZ=             -0.7621  YZZ=            -13.0664
  YYZ=              2.0689  XYZ=             -3.8238
 Hexadecapole moment (field-independent basis, Debye-Ang**3):
 XXXX=          -1468.7575 YYYY=           -730.1625 ZZZZ=           -361.6543 XXXY=             -1.4008
 XXXZ=             29.9174 YYYX=             51.9363 YYYZ=             -1.1973 ZZZX=              3.2827
 ZZZY=              1.4999 XXYY=           -315.5268 XXZZ=           -250.7196 YYZZ=           -202.4375
 XXYZ=            -16.9549 YYXZ=              7.1807 ZZXY=              8.2392
 N-N= 8.203974365837D+02 E-N=-3.026706203878D+03  KE= 5.886519447715D+02
 1\1\GINC-COMPUTE-3-1\SP\RmPW1PW91\6-31+G(d,p)\C8H15N1O3\MAMICHETTI.IQU
 IR\17-May-2024\0\\# mpw1pw91/6-31+G** nmr scrf=(pcm,solvent=water)\\co
 mment\\0,1\C,0,-2.042962,0.839083,0.472054\C,0,-1.374101,0.206573,-0.7
 89352\N,0,-0.086606,0.931071,-1.027657\C,0,-0.178927,2.171897,-0.23017
 2\C,0,-1.010137,1.84423,1.015143\C,0,1.043222,-0.01522,-0.749378\C,0,0
 .436651,-1.270477,-0.108465\C,0,-0.980348,-1.281174,-0.700045\H,0,-2.9
 58934,1.358063,0.169705\H,0,-2.326938,0.087293,1.211781\H,0,-2.042681,
 0.343081,-1.645974\H,0,-0.708079,2.925638,-0.829639\H,0,0.807963,2.584
 413,-0.014794\H,0,-1.475825,2.732246,1.455782\H,0,-0.381413,1.376333,1
 .779381\H,0,1.449097,-0.342918,-1.717201\H,0,1.002394,-2.170544,-0.382
 78\H,0,-0.939229,-1.704973,-1.710235\O,0,-1.902667,-2.020843,0.101143\
 H,0,-1.746254,-2.964133,-0.075895\O,0,0.3731,-1.163412,1.316441\H,0,-0
 .430746,-1.658619,1.56684\C,0,2.231806,0.563728,0.02552\H,0,2.660726,1
 .408701,-0.520754\H,0,1.93123,0.918412,1.017173\O,0,3.282798,-0.403246
 ,0.143061\H,0,2.98787,-1.062323,0.793219\\Version=AM64L-G09RevC.01\Sta
 te=1-A\HF=-594.188343\RMSD=3.334e-09\Dipole=-0.9623465,-0.8839924,-0.0
 038453\Quadrupole=-9.2048611,10.4691784,-1.2643174,1.4060392,1.564699,
 2.1925127\PG=C01 [X(C8H15N1O3)]\\@


 SEE YOU NOW,
 YOUR BAIT OF FALSEHOOD TAKES THIS CARP OF TRUTH.
 AND THUS DO WE OF WISDOM AND OF REACH...
 BY INDIRECTIONS FIND DIRECTIONS OUT.    -- HAMLET, II, 1
 Job cpu time:  0 days  0 hours  9 minutes  7.7 seconds.
 File lengths (MBytes):  RWF=    109 Int=      0 D2E=      0 Chk=      7 Scr=      1
 Normal termination of Gaussian 09 at Fri May 17 13:18:43 2024.
