 Entering Gaussian System, Link 0=g09
 Input=/home/mamichetti.iquir/Linux/04_Cardona_A1A3_R__S_R_S_047_OptB.gjc
 Output=/home/mamichetti.iquir/Linux/04_Cardona_A1A3_R__S_R_S_047_OptB.log
 Initial command:
 /opt/ohpc/pub/apps/software/Gaussian/09/AMD64.SSE4a-enabled/g09/l1.exe /local/mamichetti.iquir/Gau-714557.inp -scrdir=/local/mamichetti.iquir/
 Entering Link 1 = /opt/ohpc/pub/apps/software/Gaussian/09/AMD64.SSE4a-enabled/g09/l1.exe PID=    714558.
  
 Copyright (c) 1988,1990,1992,1993,1995,1998,2003,2009,2011,
            Gaussian, Inc.  All Rights Reserved.
  
 This is part of the Gaussian(R) 09 program.  It is based on
 the Gaussian(R) 03 system (copyright 2003, Gaussian, Inc.),
 the Gaussian(R) 98 system (copyright 1998, Gaussian, Inc.),
 the Gaussian(R) 94 system (copyright 1995, Gaussian, Inc.),
 the Gaussian 92(TM) system (copyright 1992, Gaussian, Inc.),
 the Gaussian 90(TM) system (copyright 1990, Gaussian, Inc.),
 the Gaussian 88(TM) system (copyright 1988, Gaussian, Inc.),
 the Gaussian 86(TM) system (copyright 1986, Carnegie Mellon
 University), and the Gaussian 82(TM) system (copyright 1983,
 Carnegie Mellon University). Gaussian is a federally registered
 trademark of Gaussian, Inc.
  
 This software contains proprietary and confidential information,
 including trade secrets, belonging to Gaussian, Inc.
  
 This software is provided under written license and may be
 used, copied, transmitted, or stored only in accord with that
 written license.
  
 The following legend is applicable only to US Government
 contracts under FAR:
  
                    RESTRICTED RIGHTS LEGEND
  
 Use, reproduction and disclosure by the US Government is
 subject to restrictions as set forth in subparagraphs (a)
 and (c) of the Commercial Computer Software - Restricted
 Rights clause in FAR 52.227-19.
  
 Gaussian, Inc.
 340 Quinnipiac St., Bldg. 40, Wallingford CT 06492
  
  
 ---------------------------------------------------------------
 Warning -- This program may not be used in any manner that
 competes with the business of Gaussian, Inc. or will provide
 assistance to any competitor of Gaussian, Inc.  The licensee
 of this program is prohibited from giving any competitor of
 Gaussian, Inc. access to this program.  By using this program,
 the user acknowledges that Gaussian, Inc. is engaged in the
 business of creating and licensing software in the field of
 computational chemistry and represents and warrants to the
 licensee that it is not a competitor of Gaussian, Inc. and that
 it will not use this program in any manner prohibited above.
 ---------------------------------------------------------------
  

 Cite this work as:
 Gaussian 09, Revision C.01,
 M. J. Frisch, G. W. Trucks, H. B. Schlegel, G. E. Scuseria, 
 M. A. Robb, J. R. Cheeseman, G. Scalmani, V. Barone, B. Mennucci, 
 G. A. Petersson, H. Nakatsuji, M. Caricato, X. Li, H. P. Hratchian, 
 A. F. Izmaylov, J. Bloino, G. Zheng, J. L. Sonnenberg, M. Hada, 
 M. Ehara, K. Toyota, R. Fukuda, J. Hasegawa, M. Ishida, T. Nakajima, 
 Y. Honda, O. Kitao, H. Nakai, T. Vreven, J. A. Montgomery, Jr., 
 J. E. Peralta, F. Ogliaro, M. Bearpark, J. J. Heyd, E. Brothers, 
 K. N. Kudin, V. N. Staroverov, T. Keith, R. Kobayashi, J. Normand, 
 K. Raghavachari, A. Rendell, J. C. Burant, S. S. Iyengar, J. Tomasi, 
 M. Cossi, N. Rega, J. M. Millam, M. Klene, J. E. Knox, J. B. Cross, 
 V. Bakken, C. Adamo, J. Jaramillo, R. Gomperts, R. E. Stratmann, 
 O. Yazyev, A. J. Austin, R. Cammi, C. Pomelli, J. W. Ochterski, 
 R. L. Martin, K. Morokuma, V. G. Zakrzewski, G. A. Voth, 
 P. Salvador, J. J. Dannenberg, S. Dapprich, A. D. Daniels, 
 O. Farkas, J. B. Foresman, J. V. Ortiz, J. Cioslowski, 
 and D. J. Fox, Gaussian, Inc., Wallingford CT, 2010.
 
 ******************************************
 Gaussian 09:  AM64L-G09RevC.01 23-Sep-2011
                17-May-2024 
 ******************************************
 %nprocshared=4
 Will use up to    4 processors via shared memory.
 ------------------------------------------------
 # mpw1pw91/6-31+G** nmr scrf=(pcm,solvent=water)
 ------------------------------------------------
 1/38=1/1;
 2/12=2,17=6,18=5,40=1/2;
 3/5=1,6=6,7=111,11=2,16=1,25=1,30=1,70=2201,72=1,74=-7/1,2,8,3;
 4//1;
 5/5=2,38=5,53=1/2;
 8/6=1,10=90,11=11/1;
 10/13=100,45=16/2;
 6/7=2,8=2,9=2,10=2,28=1/1;
 99/9=1/99;
 -------
 comment
 -------
 Charge =  0 Multiplicity = 1
 Symbolic Z-Matrix:
 6                    -2.08715   1.14201   0.10222 
 6                    -1.31952   0.28239  -0.91937 
 7                     0.05957   0.85983  -0.99664 
 6                     0.1667    1.92122   0.03892 
 6                    -0.99227   1.70745   1.01787 
 6                     0.99828  -0.28649  -0.97035 
 6                     0.32147  -1.42247  -0.18562 
 6                    -1.16128  -1.24408  -0.56825 
 1                    -2.59966   1.9591   -0.41919 
 1                    -2.84504   0.56061   0.63355 
 1                    -1.80616   0.34641  -1.89965 
 1                     0.05451   2.89889  -0.45144 
 1                     1.14568   1.91317   0.51826 
 1                    -1.29314   2.63117   1.52353 
 1                    -0.71515   0.97392   1.78141 
 1                     1.06538  -0.65763  -2.00502 
 1                     0.70757  -2.40317  -0.49414 
 1                    -1.37492  -1.83282  -1.46504 
 8                    -2.0382   -1.73814   0.43734 
 1                    -1.62902  -1.474     1.2825 
 8                     0.42516  -1.29977   1.2393 
 1                     1.26705  -0.82195   1.40931 
 6                     2.44746   0.00341  -0.59566 
 1                     3.05124  -0.85466  -0.90919 
 1                     2.80704   0.88713  -1.13767 
 8                     2.61227   0.20224   0.82703 
 1                     3.51168  -0.08023   1.06144 
 
                          Input orientation:                          
 ---------------------------------------------------------------------
 Center     Atomic      Atomic             Coordinates (Angstroms)
 Number     Number       Type             X           Y           Z
 ---------------------------------------------------------------------
      1          6           0       -2.087152    1.142013    0.102221
      2          6           0       -1.319521    0.282386   -0.919373
      3          7           0        0.059566    0.859828   -0.996640
      4          6           0        0.166697    1.921219    0.038916
      5          6           0       -0.992269    1.707447    1.017866
      6          6           0        0.998280   -0.286487   -0.970354
      7          6           0        0.321472   -1.422467   -0.185624
      8          6           0       -1.161279   -1.244079   -0.568250
      9          1           0       -2.599661    1.959098   -0.419188
     10          1           0       -2.845035    0.560610    0.633546
     11          1           0       -1.806161    0.346409   -1.899649
     12          1           0        0.054505    2.898891   -0.451437
     13          1           0        1.145680    1.913168    0.518262
     14          1           0       -1.293135    2.631166    1.523528
     15          1           0       -0.715146    0.973921    1.781409
     16          1           0        1.065380   -0.657634   -2.005023
     17          1           0        0.707565   -2.403173   -0.494140
     18          1           0       -1.374918   -1.832815   -1.465035
     19          8           0       -2.038199   -1.738143    0.437338
     20          1           0       -1.629016   -1.473999    1.282499
     21          8           0        0.425158   -1.299767    1.239303
     22          1           0        1.267050   -0.821954    1.409306
     23          6           0        2.447457    0.003405   -0.595662
     24          1           0        3.051238   -0.854664   -0.909188
     25          1           0        2.807043    0.887130   -1.137669
     26          8           0        2.612274    0.202243    0.827032
     27          1           0        3.511679   -0.080234    1.061435
 ---------------------------------------------------------------------
                    Distance matrix (angstroms):
                    1          2          3          4          5
     1  C    0.000000
     2  C    1.540088   0.000000
     3  N    2.428070   1.497094   0.000000
     4  C    2.385583   2.411003   1.486743   0.000000
     5  C    1.535217   2.427094   2.425500   1.532072   0.000000
     6  C    3.565238   2.387136   1.481861   2.565954   3.448344
     7  C    3.529997   2.477452   2.436229   3.354789   3.601481
     8  C    2.645790   1.574301   2.469900   3.485869   3.354972
     9  H    1.096431   2.168019   2.934848   2.804288   2.170751
    10  H    1.093034   2.194575   3.344211   3.357882   2.212618
    11  H    2.172424   1.096293   2.135407   3.182802   3.320653
    12  H    2.824863   2.992158   2.110699   1.099489   2.161973
    13  H    3.349474   3.286862   2.141050   1.090067   2.205165
    14  H    2.206389   3.388986   3.364325   2.199820   1.095204
    15  H    2.174932   2.852668   2.886304   2.170553   1.094466
    16  H    4.197340   2.783887   2.081151   3.411129   4.354927
    17  H    4.553508   3.391479   3.364459   4.390564   4.698169
    18  H    3.437029   2.185152   3.086659   4.327958   4.341045
    19  O    2.900000   2.537656   3.634056   4.290832   3.647338
    20  H    2.906280   2.833534   3.673218   4.037151   3.255315
    21  O    3.683334   3.194839   3.130008   3.447098   3.331887
    22  H    4.100769   3.651392   3.174112   3.257874   3.414032
    23  C    4.727171   3.791140   2.568320   3.046730   4.164006
    24  H    5.604705   4.516251   3.449236   4.114001   5.160223
    25  H    5.055239   4.176350   2.751230   3.070036   4.444550
    26  O    4.846971   4.302948   3.205389   3.091416   3.910855
    27  H    5.810412   5.234079   4.127526   4.029921   4.845952
                    6          7          8          9         10
     6  C    0.000000
     7  C    1.537635   0.000000
     8  C    2.396323   1.541679   0.000000
     9  H    4.276870   4.474657   3.514471   0.000000
    10  H    4.249840   3.824971   2.745223   1.767548   0.000000
    11  H    3.021429   3.254785   2.172130   2.328556   2.746310
    12  H    3.362532   4.337749   4.319256   2.815821   3.879701
    13  H    2.660110   3.507312   4.058420   3.861153   4.215271
    14  H    4.470205   4.686160   4.405729   2.435740   2.736360
    15  H    3.478025   3.269017   3.261818   3.060163   2.454555
    16  H    1.101269   2.109166   2.714083   4.774378   4.872116
    17  H    2.188985   1.098196   2.200357   5.474739   4.762001
    18  H    2.875397   2.164028   1.093835   4.119757   3.506247
    19  O    3.648165   2.460849   1.422777   3.836465   2.444125
    20  H    3.658991   2.441812   1.922736   3.952726   2.457535
    21  O    2.497557   1.433954   2.405646   4.745558   3.810788
    22  H    2.453924   1.948983   3.160016   5.101872   4.407100
    23  C    1.524646   2.592500   3.818369   5.415651   5.461859
    24  H    2.131010   2.880550   4.244194   6.331668   6.256921
    25  H    2.162636   3.524016   4.540250   5.558577   5.932099
    26  O    2.464636   2.985453   4.275320   5.639492   5.472484
    27  H    3.238500   3.678881   5.083989   6.610567   6.403248
                   11         12         13         14         15
    11  H    0.000000
    12  H    3.474847   0.000000
    13  H    4.124851   1.761428   0.000000
    14  H    4.147463   2.405888   2.733843   0.000000
    15  H    3.890279   3.046879   2.437293   1.773988   0.000000
    16  H    3.043839   4.010532   3.603115   5.369308   4.491026
    17  H    3.981768   5.342302   4.455076   5.780861   4.313582
    18  H    2.263598   5.045758   4.931457   5.372646   4.341943
    19  O    3.140176   5.164438   4.845173   4.563528   3.303375
    20  H    3.670331   4.996293   4.444761   4.125929   2.660147
    21  O    4.188281   4.541444   3.370757   4.299482   2.600736
    22  H    4.664642   4.333280   2.879163   4.300190   2.700505
    23  C    4.462208   3.759104   2.565667   5.038663   4.073626
    24  H    5.100776   4.824844   3.650981   6.078050   4.976815
    25  H    4.706872   3.477724   2.560271   5.189903   4.575409
    26  O    5.194049   3.930468   2.274533   4.651558   3.546554
    27  H    6.101595   4.807912   3.141121   5.536376   4.415388
                   16         17         18         19         20
    16  H    0.000000
    17  H    2.336173   0.000000
    18  H    2.761828   2.367421   0.000000
    19  O    4.094488   2.974750   2.016910   0.000000
    20  H    4.328282   3.078867   2.782491   0.975449   0.000000
    21  O    3.368660   2.074146   3.292090   2.627442   2.062002
    22  H    3.424225   2.537003   4.032824   3.564940   2.971269
    23  C    2.081684   2.971388   4.328749   4.921503   4.725235
    24  H    2.276688   2.839533   4.566903   5.338168   5.204983
    25  H    2.484349   3.955759   4.999407   5.731411   5.577702
    26  O    3.339582   3.487349   5.029188   5.054093   4.583206
    27  H    3.964963   3.959661   5.773510   5.825745   5.330872
                   21         22         23         24         25
    21  O    0.000000
    22  H    0.982847   0.000000
    23  C    3.025731   2.468699   0.000000
    24  H    3.422050   2.925716   1.095049   0.000000
    25  H    4.013214   3.432146   1.097289   1.773607   0.000000
    26  O    2.685047   1.788197   1.445946   2.079471   2.089750
    27  H    3.323479   2.389461   1.971176   2.166819   2.503670
                   26         27
    26  O    0.000000
    27  H    0.971425   0.000000
 Stoichiometry    C8H15NO3
 Framework group  C1[X(C8H15NO3)]
 Deg. of freedom    75
 Full point group                 C1      NOp   1
 Largest Abelian subgroup         C1      NOp   1
 Largest concise Abelian subgroup C1      NOp   1
                         Standard orientation:                         
 ---------------------------------------------------------------------
 Center     Atomic      Atomic             Coordinates (Angstroms)
 Number     Number       Type             X           Y           Z
 ---------------------------------------------------------------------
      1          6           0       -2.087152    1.142013    0.102221
      2          6           0       -1.319521    0.282386   -0.919373
      3          7           0        0.059566    0.859828   -0.996640
      4          6           0        0.166697    1.921219    0.038916
      5          6           0       -0.992269    1.707447    1.017866
      6          6           0        0.998280   -0.286487   -0.970354
      7          6           0        0.321472   -1.422467   -0.185624
      8          6           0       -1.161279   -1.244079   -0.568250
      9          1           0       -2.599661    1.959098   -0.419188
     10          1           0       -2.845035    0.560611    0.633546
     11          1           0       -1.806161    0.346409   -1.899649
     12          1           0        0.054505    2.898891   -0.451437
     13          1           0        1.145680    1.913168    0.518262
     14          1           0       -1.293135    2.631166    1.523528
     15          1           0       -0.715146    0.973921    1.781409
     16          1           0        1.065380   -0.657634   -2.005023
     17          1           0        0.707565   -2.403173   -0.494140
     18          1           0       -1.374918   -1.832815   -1.465035
     19          8           0       -2.038199   -1.738143    0.437338
     20          1           0       -1.629016   -1.473999    1.282499
     21          8           0        0.425158   -1.299767    1.239303
     22          1           0        1.267050   -0.821954    1.409306
     23          6           0        2.447457    0.003405   -0.595662
     24          1           0        3.051238   -0.854665   -0.909188
     25          1           0        2.807043    0.887129   -1.137669
     26          8           0        2.612274    0.202242    0.827032
     27          1           0        3.511679   -0.080235    1.061435
 ---------------------------------------------------------------------
 Rotational constants (GHZ):      1.3206261      0.9302499      0.7332825
 Standard basis: 6-31+G(d,p) (6D, 7F)
 There are   303 symmetry adapted basis functions of A   symmetry.
 Integral buffers will be    131072 words long.
 Raffenetti 2 integral format.
 Two-electron integral symmetry is turned on.
   303 basis functions,   489 primitive gaussians,   303 cartesian basis functions
    47 alpha electrons       47 beta electrons
       nuclear repulsion energy       828.5037614864 Hartrees.
 NAtoms=   27 NActive=   27 NUniq=   27 SFac= 1.00D+00 NAtFMM=   60 NAOKFM=F Big=F
 ------------------------------------------------------------------------------
 Polarizable Continuum Model (PCM)
 =================================
 Model                : PCM.
 Atomic radii         : UFF (Universal Force Field).
 Polarization charges : Total charges.
 Charge compensation  : None.
 Solution method      : Matrix inversion.
 Cavity type          : Scaled VdW (van der Waals Surface) (Alpha=1.100).
 Cavity algorithm     : GePol (No added spheres)
                        Default sphere list used, NSphG=   27.
                        Lebedev-Laikov grids with approx.  5.0 points / Ang**2.
                        Smoothing algorithm: Karplus/York (Gamma=1.0000).
                        Polarization charges: spherical gaussians, with
                                              point-specific exponents (IZeta= 3).
                        Self-potential: point-specific (ISelfS= 7).
                        Self-field    : sphere-specific E.n sum rule (ISelfD= 2).
 Solvent              : Water, Eps=  78.355300 Eps(inf)=   1.777849
 ------------------------------------------------------------------------------
 One-electron integrals computed using PRISM.
 NBasis=   303 RedAO= T  NBF=   303
 NBsUse=   303 1.00D-06 NBFU=   303
 Harris functional with IExCor=  908 diagonalized for initial guess.
 ExpMin= 4.38D-02 ExpMax= 5.48D+03 ExpMxC= 8.25D+02 IAcc=2 IRadAn=         4 AccDes= 0.00D+00
 HarFok:  IExCor=  908 AccDes= 0.00D+00 IRadAn=         4 IDoV= 1
 ScaDFX=  1.000000  1.000000  1.000000  1.000000
 FoFCou: FMM=F IPFlag=           0 FMFlag=      100000 FMFlg1=           0
         NFxFlg=           0 DoJE=T BraDBF=F KetDBF=T FulRan=T
         Omega=  0.000000  0.000000  1.000000  0.000000  0.000000 ICntrl=     500 IOpCl=  0
         NMat0=    1 NMatS0=    1 NMatT0=    0 NMatD0=    1 NMtDS0=    0 NMtDT0=    0
         I1Cent=           4 NGrid=           0.
 Petite list used in FoFCou.
 Initial guess orbital symmetries:
       Occupied  (A) (A) (A) (A) (A) (A) (A) (A) (A) (A) (A) (A)
                 (A) (A) (A) (A) (A) (A) (A) (A) (A) (A) (A) (A)
                 (A) (A) (A) (A) (A) (A) (A) (A) (A) (A) (A) (A)
                 (A) (A) (A) (A) (A) (A) (A) (A) (A) (A) (A)
       Virtual   (A) (A) (A) (A) (A) (A) (A) (A) (A) (A) (A) (A)
                 (A) (A) (A) (A) (A) (A) (A) (A) (A) (A) (A) (A)
                 (A) (A) (A) (A) (A) (A) (A) (A) (A) (A) (A) (A)
                 (A) (A) (A) (A) (A) (A) (A) (A) (A) (A) (A) (A)
                 (A) (A) (A) (A) (A) (A) (A) (A) (A) (A) (A) (A)
                 (A) (A) (A) (A) (A) (A) (A) (A) (A) (A) (A) (A)
                 (A) (A) (A) (A) (A) (A) (A) (A) (A) (A) (A) (A)
                 (A) (A) (A) (A) (A) (A) (A) (A) (A) (A) (A) (A)
                 (A) (A) (A) (A) (A) (A) (A) (A) (A) (A) (A) (A)
                 (A) (A) (A) (A) (A) (A) (A) (A) (A) (A) (A) (A)
                 (A) (A) (A) (A) (A) (A) (A) (A) (A) (A) (A) (A)
                 (A) (A) (A) (A) (A) (A) (A) (A) (A) (A) (A) (A)
                 (A) (A) (A) (A) (A) (A) (A) (A) (A) (A) (A) (A)
                 (A) (A) (A) (A) (A) (A) (A) (A) (A) (A) (A) (A)
                 (A) (A) (A) (A) (A) (A) (A) (A) (A) (A) (A) (A)
                 (A) (A) (A) (A) (A) (A) (A) (A) (A) (A) (A) (A)
                 (A) (A) (A) (A) (A) (A) (A) (A) (A) (A) (A) (A)
                 (A) (A) (A) (A) (A) (A) (A) (A) (A) (A) (A) (A)
                 (A) (A) (A) (A) (A) (A) (A) (A) (A) (A) (A) (A)
                 (A) (A) (A) (A) (A) (A) (A) (A) (A) (A) (A) (A)
                 (A) (A) (A) (A) (A) (A) (A) (A) (A) (A) (A) (A)
                 (A) (A) (A) (A)
 The electronic state of the initial guess is 1-A.
 Requested convergence on RMS density matrix=1.00D-08 within 128 cycles.
 Requested convergence on MAX density matrix=1.00D-06.
 Requested convergence on             energy=1.00D-06.
 No special actions if energy rises.
 Error on total polarization charges =  0.01429
 SCF Done:  E(RmPW1PW91) =  -594.191264536     A.U. after   13 cycles
             Convg  =    0.6964D-08             -V/T =  2.0094
 Range of M.O.s used for correlation:     1   303
 NBasis=   303 NAE=    47 NBE=    47 NFC=     0 NFV=     0
 NROrb=    303 NOA=    47 NOB=    47 NVA=   256 NVB=   256

 **** Warning!!: The largest alpha MO coefficient is  0.83456855D+02

 NEqPCM:  Using equilibrium solvation (IEInf=0, Eps=  78.3553, EpsInf=   1.7778)
          Differentiating once with respect to magnetic field using GIAOs.
          Electric field/nuclear overlap derivatives assumed to be zero.
 FoFCou: FMM=F IPFlag=           0 FMFlag=    10101102 FMFlg1=           0
         NFxFlg=    40000000 DoJE=F BraDBF=F KetDBF=T FulRan=T
         Omega=  0.000000  0.000000  1.000000  0.000000  0.000000 ICntrl=    6100 IOpCl=  0
         NMat0=    1 NMatS0=    1 NMatT0=    0 NMatD0=    1 NMtDS0=    0 NMtDT0=    0
         I1Cent=           7 NGrid=        1769.
 Symmetry not used in FoFCou.
          There are     3 degrees of freedom in the 1st order CPHF.  IDoFFX=0.
      3 vectors produced by pass  0 Test12= 4.01D-13 3.33D-08 XBig12= 2.22D+01 8.35D-01.
 AX will form     3 AO Fock derivatives at one time.
      3 vectors produced by pass  1 Test12= 4.01D-13 3.33D-08 XBig12= 5.62D-02 5.35D-02.
      3 vectors produced by pass  2 Test12= 4.01D-13 3.33D-08 XBig12= 1.24D-04 1.95D-03.
      3 vectors produced by pass  3 Test12= 4.01D-13 3.33D-08 XBig12= 5.01D-07 1.44D-04.
      3 vectors produced by pass  4 Test12= 4.01D-13 3.33D-08 XBig12= 1.78D-09 6.74D-06.
      3 vectors produced by pass  5 Test12= 4.01D-13 3.33D-08 XBig12= 5.11D-12 3.86D-07.
 Inverted reduced A of dimension    18 with in-core refinement.
 Calculating GIAO nuclear magnetic shielding tensors.
 SCF GIAO Magnetic shielding tensor (ppm):
      1  C    Isotropic =   167.3604   Anisotropy =    27.1357
   XX=   177.5762   YX=     6.9680   ZX=    -0.4485
   XY=    -0.6921   YY=   158.3759   ZY=    20.4735
   XZ=     4.0276   YZ=    22.3032   ZZ=   166.1291
   Eigenvalues:   140.4725   176.1579   185.4509
      2  C    Isotropic =   126.8780   Anisotropy =    57.3601
   XX=   151.5454   YX=    16.5143   ZX=   -16.0039
   XY=    21.1088   YY=   130.8498   ZY=     5.9858
   XZ=   -15.8684   YZ=    -1.5482   ZZ=    98.2387
   Eigenvalues:    92.3221   123.1938   165.1181
      3  N    Isotropic =   190.9003   Anisotropy =   103.3756
   XX=   259.6301   YX=     2.7220   ZX=     3.0734
   XY=     4.8563   YY=   176.1304   ZY=    21.1238
   XZ=    -2.1733   YZ=    19.0648   ZZ=   136.9403
   Eigenvalues:   128.4600   184.4235   259.8173
      4  C    Isotropic =   143.3553   Anisotropy =    54.0362
   XX=   131.9670   YX=     5.8821   ZX=    -4.6342
   XY=    13.8224   YY=   149.0343   ZY=    29.0953
   XZ=   -13.9639   YZ=    31.5579   ZZ=   149.0646
   Eigenvalues:   110.2698   140.4166   179.3794
      5  C    Isotropic =   169.2262   Anisotropy =    18.4944
   XX=   174.9384   YX=     8.7512   ZX=    -6.9510
   XY=     8.4055   YY=   161.9330   ZY=     9.4084
   XZ=    -8.7981   YZ=    17.8535   ZZ=   170.8073
   Eigenvalues:   147.2012   178.9216   181.5559
      6  C    Isotropic =   131.8082   Anisotropy =    37.7986
   XX=   139.4434   YX=   -11.5931   ZX=    -2.5619
   XY=   -16.6291   YY=   145.6510   ZY=    -1.6294
   XZ=   -10.1102   YZ=   -10.3938   ZZ=   110.3302
   Eigenvalues:   106.7677   131.6496   157.0072
      7  C    Isotropic =   119.7876   Anisotropy =    26.4211
   XX=   112.2749   YX=     3.0460   ZX=    -3.0162
   XY=     6.2623   YY=   109.9996   ZY=    -0.9965
   XZ=     5.4097   YZ=    -4.6636   ZZ=   137.0882
   Eigenvalues:   106.0621   115.8990   137.4016
      8  C    Isotropic =   118.3370   Anisotropy =    45.5465
   XX=   131.4808   YX=     4.7110   ZX=   -19.8647
   XY=     4.0196   YY=   120.9905   ZY=   -21.3231
   XZ=   -18.5248   YZ=   -20.2831   ZZ=   102.5397
   Eigenvalues:    84.6225   121.6872   148.7013
      9  H    Isotropic =    29.8411   Anisotropy =    12.4623
   XX=    31.4424   YX=    -5.7699   ZX=     3.1603
   XY=    -6.4299   YY=    30.5674   ZY=    -1.2593
   XZ=     3.3642   YZ=    -1.3868   ZZ=    27.5134
   Eigenvalues:    24.2422    27.1318    38.1493
     10  H    Isotropic =    29.3972   Anisotropy =     8.3448
   XX=    33.4278   YX=     1.6090   ZX=    -3.3846
   XY=     1.6688   YY=    29.3417   ZY=    -0.5514
   XZ=    -2.5585   YZ=    -0.7360   ZZ=    25.4222
   Eigenvalues:    24.4378    28.7935    34.9604
     11  H    Isotropic =    28.0010   Anisotropy =     9.4541
   XX=    27.0417   YX=     0.2945   ZX=     4.3636
   XY=    -0.2528   YY=    25.2912   ZY=    -0.0059
   XZ=     4.3822   YZ=    -0.1319   ZZ=    31.6702
   Eigenvalues:    24.4052    25.2941    34.3037
     12  H    Isotropic =    28.6024   Anisotropy =    12.0240
   XX=    23.6786   YX=     1.0655   ZX=    -1.7701
   XY=     1.5352   YY=    36.2698   ZY=    -1.9811
   XZ=    -2.0138   YZ=    -0.6613   ZZ=    25.8587
   Eigenvalues:    22.5685    26.6202    36.6184
     13  H    Isotropic =    27.7450   Anisotropy =     6.7353
   XX=    31.4435   YX=     0.1245   ZX=     1.7250
   XY=     0.7020   YY=    28.1042   ZY=     2.5843
   XZ=     2.4503   YZ=     2.1395   ZZ=    23.6874
   Eigenvalues:    22.3184    28.6815    32.2352
     14  H    Isotropic =    30.1860   Anisotropy =    12.4160
   XX=    27.4308   YX=    -1.7966   ZX=    -1.3646
   XY=    -2.2188   YY=    33.1108   ZY=     6.0139
   XZ=    -2.0360   YZ=     6.1452   ZZ=    30.0165
   Eigenvalues:    25.2827    26.8120    38.4634
     15  H    Isotropic =    29.6139   Anisotropy =     6.7556
   XX=    27.0892   YX=    -1.5148   ZX=     1.4197
   XY=    -1.9372   YY=    28.9868   ZY=    -2.5247
   XZ=     0.8646   YZ=    -1.6004   ZZ=    32.7656
   Eigenvalues:    26.0676    28.6564    34.1176
     16  H    Isotropic =    28.6471   Anisotropy =     9.4324
   XX=    27.1895   YX=    -2.5905   ZX=    -2.8243
   XY=    -2.5658   YY=    26.8650   ZY=     3.8487
   XZ=    -2.2838   YZ=     2.4296   ZZ=    31.8867
   Eigenvalues:    24.3782    26.6276    34.9354
     17  H    Isotropic =    27.4596   Anisotropy =     8.3725
   XX=    24.7929   YX=    -2.4148   ZX=     0.0887
   XY=    -2.3342   YY=    30.3405   ZY=     2.2820
   XZ=    -0.5400   YZ=     4.4230   ZZ=    27.2453
   Eigenvalues:    23.5328    25.8047    33.0412
     18  H    Isotropic =    27.4789   Anisotropy =     7.3939
   XX=    24.4598   YX=     1.7463   ZX=    -0.4935
   XY=     2.3188   YY=    28.9632   ZY=     2.5975
   XZ=     2.1836   YZ=     3.1886   ZZ=    29.0137
   Eigenvalues:    23.6620    26.3665    32.4082
     19  O    Isotropic =   315.8635   Anisotropy =    34.2233
   XX=   305.0896   YX=    -2.2591   ZX=    15.3629
   XY=    23.7407   YY=   330.8063   ZY=     0.1669
   XZ=    22.8091   YZ=     4.5536   ZZ=   311.6946
   Eigenvalues:   287.9278   320.9837   338.6790
     20  H    Isotropic =    28.7600   Anisotropy =    13.9651
   XX=    28.2041   YX=     3.5768   ZX=     3.8397
   XY=     3.1981   YY=    21.6785   ZY=     2.2808
   XZ=     3.0829   YZ=     0.6264   ZZ=    36.3973
   Eigenvalues:    20.2380    27.9718    38.0700
     21  O    Isotropic =   307.2689   Anisotropy =    59.0031
   XX=   324.2372   YX=    19.4005   ZX=    16.5956
   XY=    29.5983   YY=   315.8205   ZY=    18.5205
   XZ=     2.0949   YZ=    -7.9645   ZZ=   281.7491
   Eigenvalues:   279.7838   295.4187   346.6043
     22  H    Isotropic =    25.4041   Anisotropy =    26.8922
   XX=    35.5004   YX=    13.0110   ZX=     2.4245
   XY=    13.5719   YY=    20.0405   ZY=    -0.5231
   XZ=     3.1656   YZ=    -0.9854   ZZ=    20.6714
   Eigenvalues:    11.9088    20.9712    43.3322
     23  C    Isotropic =   130.6316   Anisotropy =    58.6735
   XX=   121.5214   YX=     9.3634   ZX=     6.8175
   XY=    10.5327   YY=   103.6772   ZY=     9.7895
   XZ=     8.3964   YZ=     8.8440   ZZ=   166.6963
   Eigenvalues:    98.7772   123.3704   169.7473
     24  H    Isotropic =    27.1124   Anisotropy =     7.7359
   XX=    28.9724   YX=    -2.1327   ZX=    -0.9658
   XY=    -3.0259   YY=    24.2003   ZY=     1.7761
   XZ=    -2.4905   YZ=     4.3204   ZZ=    28.1646
   Eigenvalues:    22.1871    26.8805    32.2697
     25  H    Isotropic =    26.9957   Anisotropy =     7.8120
   XX=    28.0030   YX=     2.9848   ZX=    -1.8227
   XY=     2.2648   YY=    24.0764   ZY=    -1.2311
   XZ=    -2.4629   YZ=    -3.6517   ZZ=    28.9078
   Eigenvalues:    22.4693    26.3141    32.2038
     26  O    Isotropic =   312.5079   Anisotropy =    79.6050
   XX=   356.1328   YX=   -10.6654   ZX=    37.0942
   XY=    -7.1207   YY=   287.5359   ZY=     9.4298
   XZ=    13.2631   YZ=     2.1748   ZZ=   293.8550
   Eigenvalues:   277.5034   294.4425   365.5779
     27  H    Isotropic =    29.6736   Anisotropy =    21.8973
   XX=    40.5479   YX=    -5.4568   ZX=     5.7075
   XY=    -4.4603   YY=    21.4560   ZY=    -0.7034
   XZ=     7.4700   YZ=    -0.8027   ZZ=    27.0171
   Eigenvalues:    20.1042    24.6449    44.2718
 End of Minotr Frequency-dependent properties file   721 does not exist.
 End of Minotr Frequency-dependent properties file   722 does not exist.

 **********************************************************************

            Population analysis using the SCF density.

 **********************************************************************

 Orbital symmetries:
       Occupied  (A) (A) (A) (A) (A) (A) (A) (A) (A) (A) (A) (A)
                 (A) (A) (A) (A) (A) (A) (A) (A) (A) (A) (A) (A)
                 (A) (A) (A) (A) (A) (A) (A) (A) (A) (A) (A) (A)
                 (A) (A) (A) (A) (A) (A) (A) (A) (A) (A) (A)
       Virtual   (A) (A) (A) (A) (A) (A) (A) (A) (A) (A) (A) (A)
                 (A) (A) (A) (A) (A) (A) (A) (A) (A) (A) (A) (A)
                 (A) (A) (A) (A) (A) (A) (A) (A) (A) (A) (A) (A)
                 (A) (A) (A) (A) (A) (A) (A) (A) (A) (A) (A) (A)
                 (A) (A) (A) (A) (A) (A) (A) (A) (A) (A) (A) (A)
                 (A) (A) (A) (A) (A) (A) (A) (A) (A) (A) (A) (A)
                 (A) (A) (A) (A) (A) (A) (A) (A) (A) (A) (A) (A)
                 (A) (A) (A) (A) (A) (A) (A) (A) (A) (A) (A) (A)
                 (A) (A) (A) (A) (A) (A) (A) (A) (A) (A) (A) (A)
                 (A) (A) (A) (A) (A) (A) (A) (A) (A) (A) (A) (A)
                 (A) (A) (A) (A) (A) (A) (A) (A) (A) (A) (A) (A)
                 (A) (A) (A) (A) (A) (A) (A) (A) (A) (A) (A) (A)
                 (A) (A) (A) (A) (A) (A) (A) (A) (A) (A) (A) (A)
                 (A) (A) (A) (A) (A) (A) (A) (A) (A) (A) (A) (A)
                 (A) (A) (A) (A) (A) (A) (A) (A) (A) (A) (A) (A)
                 (A) (A) (A) (A) (A) (A) (A) (A) (A) (A) (A) (A)
                 (A) (A) (A) (A) (A) (A) (A) (A) (A) (A) (A) (A)
                 (A) (A) (A) (A) (A) (A) (A) (A) (A) (A) (A) (A)
                 (A) (A) (A) (A) (A) (A) (A) (A) (A) (A) (A) (A)
                 (A) (A) (A) (A) (A) (A) (A) (A) (A) (A) (A) (A)
                 (A) (A) (A) (A) (A) (A) (A) (A) (A) (A) (A) (A)
                 (A) (A) (A) (A)
 The electronic state is 1-A.
 Alpha  occ. eigenvalues --  -19.27416 -19.25149 -19.24694 -14.40849 -10.30984
 Alpha  occ. eigenvalues --  -10.30028 -10.29899 -10.28689 -10.27213 -10.26185
 Alpha  occ. eigenvalues --  -10.24044 -10.23738  -1.07925  -1.06561  -1.03787
 Alpha  occ. eigenvalues --   -0.95667  -0.82607  -0.78124  -0.75811  -0.71796
 Alpha  occ. eigenvalues --   -0.66610  -0.61948  -0.59139  -0.57682  -0.56194
 Alpha  occ. eigenvalues --   -0.54001  -0.51407  -0.50393  -0.47964  -0.47370
 Alpha  occ. eigenvalues --   -0.45828  -0.44532  -0.43522  -0.42818  -0.40781
 Alpha  occ. eigenvalues --   -0.40257  -0.37968  -0.37508  -0.35835  -0.35072
 Alpha  occ. eigenvalues --   -0.34592  -0.33756  -0.33126  -0.31186  -0.30467
 Alpha  occ. eigenvalues --   -0.28259  -0.22281
 Alpha virt. eigenvalues --   -0.00022   0.01631   0.01726   0.02511   0.04062
 Alpha virt. eigenvalues --    0.04134   0.04634   0.04996   0.05600   0.07446
 Alpha virt. eigenvalues --    0.07577   0.08207   0.08634   0.08959   0.10033
 Alpha virt. eigenvalues --    0.10522   0.11403   0.11891   0.12472   0.12860
 Alpha virt. eigenvalues --    0.13838   0.14409   0.14574   0.15205   0.15703
 Alpha virt. eigenvalues --    0.15870   0.16237   0.16750   0.18144   0.18412
 Alpha virt. eigenvalues --    0.19104   0.19278   0.19752   0.20593   0.20983
 Alpha virt. eigenvalues --    0.21462   0.21699   0.22384   0.22552   0.23110
 Alpha virt. eigenvalues --    0.23641   0.23953   0.24391   0.25398   0.25742
 Alpha virt. eigenvalues --    0.26383   0.27026   0.28350   0.28620   0.28926
 Alpha virt. eigenvalues --    0.29485   0.29946   0.30671   0.31073   0.31309
 Alpha virt. eigenvalues --    0.32302   0.33727   0.34137   0.34601   0.34926
 Alpha virt. eigenvalues --    0.35980   0.37236   0.37536   0.38980   0.39586
 Alpha virt. eigenvalues --    0.39792   0.40461   0.40556   0.41687   0.43080
 Alpha virt. eigenvalues --    0.44032   0.44468   0.46502   0.46801   0.47275
 Alpha virt. eigenvalues --    0.50985   0.65003   0.66792   0.68389   0.69122
 Alpha virt. eigenvalues --    0.70464   0.72094   0.72518   0.73652   0.74262
 Alpha virt. eigenvalues --    0.76688   0.77648   0.79053   0.80793   0.82390
 Alpha virt. eigenvalues --    0.83599   0.84275   0.85709   0.86845   0.88784
 Alpha virt. eigenvalues --    0.90689   0.91948   0.92460   0.94999   0.96702
 Alpha virt. eigenvalues --    0.97884   1.00170   1.03424   1.04785   1.05110
 Alpha virt. eigenvalues --    1.06746   1.07948   1.08096   1.09294   1.10308
 Alpha virt. eigenvalues --    1.11661   1.13083   1.14707   1.15397   1.16718
 Alpha virt. eigenvalues --    1.17306   1.18359   1.20373   1.23571   1.25113
 Alpha virt. eigenvalues --    1.27631   1.28973   1.31395   1.32230   1.33304
 Alpha virt. eigenvalues --    1.34305   1.37515   1.38146   1.40045   1.40886
 Alpha virt. eigenvalues --    1.43062   1.44740   1.47137   1.51516   1.54249
 Alpha virt. eigenvalues --    1.55371   1.56858   1.59168   1.61393   1.64184
 Alpha virt. eigenvalues --    1.66422   1.67381   1.69405   1.69773   1.71537
 Alpha virt. eigenvalues --    1.74164   1.74947   1.77729   1.79523   1.80599
 Alpha virt. eigenvalues --    1.82524   1.82959   1.83679   1.84839   1.87257
 Alpha virt. eigenvalues --    1.88019   1.90279   1.91309   1.92432   1.93815
 Alpha virt. eigenvalues --    1.95528   1.99204   1.99747   2.01527   2.03065
 Alpha virt. eigenvalues --    2.05298   2.06121   2.07364   2.10751   2.12305
 Alpha virt. eigenvalues --    2.13512   2.14476   2.14838   2.17393   2.20943
 Alpha virt. eigenvalues --    2.21899   2.23343   2.24696   2.28427   2.31206
 Alpha virt. eigenvalues --    2.32057   2.35093   2.38148   2.38912   2.40713
 Alpha virt. eigenvalues --    2.40976   2.43225   2.43873   2.48615   2.49295
 Alpha virt. eigenvalues --    2.51915   2.53188   2.54206   2.55162   2.56999
 Alpha virt. eigenvalues --    2.57726   2.57943   2.61484   2.62505   2.62970
 Alpha virt. eigenvalues --    2.63792   2.66073   2.67229   2.69544   2.70381
 Alpha virt. eigenvalues --    2.71457   2.71868   2.73581   2.74616   2.76690
 Alpha virt. eigenvalues --    2.78642   2.80530   2.81843   2.83651   2.86108
 Alpha virt. eigenvalues --    2.87374   2.88529   2.89358   2.91180   2.93090
 Alpha virt. eigenvalues --    2.96487   2.99246   3.00347   3.01836   3.03821
 Alpha virt. eigenvalues --    3.06702   3.09733   3.13261   3.15013   3.33717
 Alpha virt. eigenvalues --    3.35912   3.38361   3.40989   3.42229   3.45891
 Alpha virt. eigenvalues --    3.49211   3.50117   3.51682   3.54615   3.56128
 Alpha virt. eigenvalues --    3.57187   3.59524   3.62572   3.67101   4.31153
 Alpha virt. eigenvalues --    4.34029   4.41373   4.45623   4.53964   4.56046
 Alpha virt. eigenvalues --    4.63594   4.72194   4.77226   4.79753   4.93818
 Alpha virt. eigenvalues --    5.01606
          Condensed to atoms (all electrons):
              1          2          3          4          5          6
     1  C    5.694730   0.077187  -0.036241  -0.036027   0.178132  -0.115208
     2  C    0.077187   6.802385  -0.242790   0.026622  -0.316135   0.386413
     3  N   -0.036241  -0.242790   7.677494  -0.016269  -0.024347  -0.679945
     4  C   -0.036027   0.026622  -0.016269   5.838611   0.009779  -0.092316
     5  C    0.178132  -0.316135  -0.024347   0.009779   5.529874  -0.008277
     6  C   -0.115208   0.386413  -0.679945  -0.092316  -0.008277   9.587806
     7  C    0.113655  -0.207026   0.158582   0.032436  -0.029875  -1.815052
     8  C   -0.133726  -0.376127  -0.070995  -0.084020   0.212782   0.415732
     9  H    0.392353  -0.073319   0.012562  -0.011723  -0.023432   0.014186
    10  H    0.425344  -0.111029   0.014884   0.028380  -0.034076   0.000259
    11  H   -0.014684   0.285685  -0.009394  -0.012833   0.026083  -0.053488
    12  H   -0.011898  -0.011676  -0.017866   0.361827  -0.012306  -0.035659
    13  H    0.033298   0.019682  -0.068307   0.398345  -0.045648   0.036056
    14  H   -0.012854   0.012929   0.019971  -0.026580   0.351981  -0.014193
    15  H   -0.082015   0.010574   0.017756  -0.102212   0.473086   0.002267
    16  H    0.003527  -0.017623   0.011912   0.009652   0.001519   0.168344
    17  H   -0.003116   0.014724   0.032105  -0.004866   0.003174  -0.056704
    18  H    0.022207  -0.043602   0.021900   0.002145  -0.004770  -0.086910
    19  O   -0.028202  -0.140974   0.015005  -0.024221   0.035586   0.015742
    20  H    0.018360  -0.013189   0.004422  -0.002088  -0.003779  -0.021404
    21  O    0.023481   0.027580   0.109685  -0.008033  -0.007760  -0.167368
    22  H   -0.002821   0.004996  -0.009340   0.012624  -0.005435  -0.031789
    23  C    0.009270  -0.168671   0.164018  -0.072942   0.010801  -0.859343
    24  H   -0.000062  -0.002876   0.013680  -0.006087   0.001841  -0.077194
    25  H    0.000902   0.002047  -0.012788   0.017430  -0.004332  -0.118912
    26  O    0.005862  -0.027390   0.047473   0.037110  -0.013336  -0.419291
    27  H   -0.000431   0.001378   0.000890  -0.004709   0.001331   0.051546
              7          8          9         10         11         12
     1  C    0.113655  -0.133726   0.392353   0.425344  -0.014684  -0.011898
     2  C   -0.207026  -0.376127  -0.073319  -0.111029   0.285685  -0.011676
     3  N    0.158582  -0.070995   0.012562   0.014884  -0.009394  -0.017866
     4  C    0.032436  -0.084020  -0.011723   0.028380  -0.012833   0.361827
     5  C   -0.029875   0.212782  -0.023432  -0.034076   0.026083  -0.012306
     6  C   -1.815052   0.415732   0.014186   0.000259  -0.053488  -0.035659
     7  C    7.361592  -0.802489  -0.016562  -0.004519   0.053172   0.003092
     8  C   -0.802489   6.427860   0.037206   0.012175  -0.011018   0.007100
     9  H   -0.016562   0.037206   0.528368  -0.024364  -0.007059   0.001533
    10  H   -0.004519   0.012175  -0.024364   0.510011   0.002598  -0.000039
    11  H    0.053172  -0.011018  -0.007059   0.002598   0.569425   0.000816
    12  H    0.003092   0.007100   0.001533  -0.000039   0.000816   0.570554
    13  H   -0.001013  -0.014138  -0.000129  -0.000150  -0.000187  -0.033196
    14  H    0.007069  -0.006688  -0.005555   0.000644  -0.000074  -0.003776
    15  H   -0.002043   0.011694   0.004206  -0.005296  -0.000063   0.004329
    16  H    0.030677  -0.000746   0.000003   0.000006   0.002300   0.000165
    17  H    0.383372  -0.023045   0.000003  -0.000008  -0.000073   0.000006
    18  H    0.063986   0.360270  -0.000066   0.000049  -0.007492   0.000005
    19  O   -0.124038   0.396628   0.000124   0.002593   0.006054   0.000077
    20  H   -0.020327   0.018015   0.000028  -0.000978  -0.000091   0.000003
    21  O    0.303049  -0.189099   0.000124  -0.000079   0.000043   0.000601
    22  H    0.020934   0.005586  -0.000002   0.000001   0.000001  -0.000006
    23  C    0.246940  -0.024753  -0.001201  -0.000038   0.011553   0.020226
    24  H    0.005901   0.001325   0.000000   0.000000   0.000004   0.000005
    25  H    0.017220  -0.005484   0.000000   0.000000  -0.000017  -0.000355
    26  O    0.097931  -0.000201   0.000009  -0.000005   0.000151   0.001681
    27  H   -0.007943  -0.001025   0.000000   0.000000   0.000000  -0.000005
             13         14         15         16         17         18
     1  C    0.033298  -0.012854  -0.082015   0.003527  -0.003116   0.022207
     2  C    0.019682   0.012929   0.010574  -0.017623   0.014724  -0.043602
     3  N   -0.068307   0.019971   0.017756   0.011912   0.032105   0.021900
     4  C    0.398345  -0.026580  -0.102212   0.009652  -0.004866   0.002145
     5  C   -0.045648   0.351981   0.473086   0.001519   0.003174  -0.004770
     6  C    0.036056  -0.014193   0.002267   0.168344  -0.056704  -0.086910
     7  C   -0.001013   0.007069  -0.002043   0.030677   0.383372   0.063986
     8  C   -0.014138  -0.006688   0.011694  -0.000746  -0.023045   0.360270
     9  H   -0.000129  -0.005555   0.004206   0.000003   0.000003  -0.000066
    10  H   -0.000150   0.000644  -0.005296   0.000006  -0.000008   0.000049
    11  H   -0.000187  -0.000074  -0.000063   0.002300  -0.000073  -0.007492
    12  H   -0.033196  -0.003776   0.004329   0.000165   0.000006   0.000005
    13  H    0.526027   0.000712  -0.006069  -0.000294  -0.000063   0.000010
    14  H    0.000712   0.531122  -0.024613   0.000005   0.000000   0.000003
    15  H   -0.006069  -0.024613   0.515916   0.000001   0.000025  -0.000006
    16  H   -0.000294   0.000005   0.000001   0.563476  -0.001426   0.001333
    17  H   -0.000063   0.000000   0.000025  -0.001426   0.569647  -0.004339
    18  H    0.000010   0.000003  -0.000006   0.001333  -0.004339   0.544830
    19  O    0.000223   0.000225  -0.000471  -0.000516   0.000684  -0.061700
    20  H    0.000002   0.000016   0.000073   0.000002   0.000066   0.006629
    21  O   -0.003711   0.000461  -0.002524   0.011844  -0.046115   0.007446
    22  H   -0.000309  -0.000009  -0.000412  -0.000111   0.000010  -0.000141
    23  C   -0.008052   0.003682   0.004290   0.026186  -0.024454   0.007647
    24  H    0.000114   0.000000  -0.000001  -0.004764   0.001400   0.000008
    25  H    0.000556  -0.000001  -0.000005  -0.002264  -0.000122   0.000006
    26  O   -0.011074   0.000358   0.000833   0.014608  -0.000259   0.000093
    27  H    0.000421   0.000000  -0.000005  -0.000208   0.000099   0.000000
             19         20         21         22         23         24
     1  C   -0.028202   0.018360   0.023481  -0.002821   0.009270  -0.000062
     2  C   -0.140974  -0.013189   0.027580   0.004996  -0.168671  -0.002876
     3  N    0.015005   0.004422   0.109685  -0.009340   0.164018   0.013680
     4  C   -0.024221  -0.002088  -0.008033   0.012624  -0.072942  -0.006087
     5  C    0.035586  -0.003779  -0.007760  -0.005435   0.010801   0.001841
     6  C    0.015742  -0.021404  -0.167368  -0.031789  -0.859343  -0.077194
     7  C   -0.124038  -0.020327   0.303049   0.020934   0.246940   0.005901
     8  C    0.396628   0.018015  -0.189099   0.005586  -0.024753   0.001325
     9  H    0.000124   0.000028   0.000124  -0.000002  -0.001201   0.000000
    10  H    0.002593  -0.000978  -0.000079   0.000001  -0.000038   0.000000
    11  H    0.006054  -0.000091   0.000043   0.000001   0.011553   0.000004
    12  H    0.000077   0.000003   0.000601  -0.000006   0.020226   0.000005
    13  H    0.000223   0.000002  -0.003711  -0.000309  -0.008052   0.000114
    14  H    0.000225   0.000016   0.000461  -0.000009   0.003682   0.000000
    15  H   -0.000471   0.000073  -0.002524  -0.000412   0.004290  -0.000001
    16  H   -0.000516   0.000002   0.011844  -0.000111   0.026186  -0.004764
    17  H    0.000684   0.000066  -0.046115   0.000010  -0.024454   0.001400
    18  H   -0.061700   0.006629   0.007446  -0.000141   0.007647   0.000008
    19  O    8.208437   0.246626  -0.011964   0.001219  -0.003880   0.000055
    20  H    0.246626   0.356138   0.022506  -0.000128   0.001196   0.000000
    21  O   -0.011964   0.022506   8.379525   0.244889  -0.024658   0.000748
    22  H    0.001219  -0.000128   0.244889   0.306642  -0.008303   0.000184
    23  C   -0.003880   0.001196  -0.024658  -0.008303   5.818709   0.441029
    24  H    0.000055   0.000000   0.000748   0.000184   0.441029   0.537105
    25  H    0.000001   0.000001  -0.001706   0.000188   0.466566  -0.035515
    26  O   -0.000333   0.000102  -0.015554   0.032649   0.249613  -0.051104
    27  H   -0.000009   0.000000   0.001459  -0.002127  -0.026387  -0.006999
             25         26         27
     1  C    0.000902   0.005862  -0.000431
     2  C    0.002047  -0.027390   0.001378
     3  N   -0.012788   0.047473   0.000890
     4  C    0.017430   0.037110  -0.004709
     5  C   -0.004332  -0.013336   0.001331
     6  C   -0.118912  -0.419291   0.051546
     7  C    0.017220   0.097931  -0.007943
     8  C   -0.005484  -0.000201  -0.001025
     9  H    0.000000   0.000009   0.000000
    10  H    0.000000  -0.000005   0.000000
    11  H   -0.000017   0.000151   0.000000
    12  H   -0.000355   0.001681  -0.000005
    13  H    0.000556  -0.011074   0.000421
    14  H   -0.000001   0.000358   0.000000
    15  H   -0.000005   0.000833  -0.000005
    16  H   -0.002264   0.014608  -0.000208
    17  H   -0.000122  -0.000259   0.000099
    18  H    0.000006   0.000093   0.000000
    19  O    0.000001  -0.000333  -0.000009
    20  H    0.000001   0.000102   0.000000
    21  O   -0.001706  -0.015554   0.001459
    22  H    0.000188   0.032649  -0.002127
    23  C    0.466566   0.249613  -0.026387
    24  H   -0.035515  -0.051104  -0.006999
    25  H    0.543713  -0.043436  -0.001575
    26  O   -0.043436   8.512488   0.231955
    27  H   -0.001575   0.231955   0.342816
 Mulliken atomic charges:
              1
     1  C   -0.521024
     2  C    0.080225
     3  N   -0.134056
     4  C   -0.270034
     5  C   -0.302460
     6  C   -0.025297
     7  C    0.131283
     8  C   -0.162820
     9  H    0.172708
    10  H    0.183638
    11  H    0.158589
    12  H    0.154763
    13  H    0.176895
    14  H    0.165167
    15  H    0.180686
    16  H    0.182393
    17  H    0.159278
    18  H    0.170460
    19  O   -0.532969
    20  H    0.387799
    21  O   -0.654870
    22  H    0.431012
    23  C   -0.259045
    24  H    0.181203
    25  H    0.177883
    26  O   -0.650936
    27  H    0.419531
 Sum of Mulliken atomic charges =   0.00000
 Mulliken charges with hydrogens summed into heavy atoms:
              1
     1  C   -0.164679
     2  C    0.238814
     3  N   -0.134056
     4  C    0.061624
     5  C    0.043392
     6  C    0.157096
     7  C    0.290561
     8  C    0.007639
    19  O   -0.145169
    21  O   -0.223859
    23  C    0.100042
    26  O   -0.231405
 Sum of Mulliken charges with hydrogens summed into heavy atoms =   0.00000
 Electronic spatial extent (au):  <R**2>=           1815.0151
 Charge=              0.0000 electrons
 Dipole moment (field-independent basis, Debye):
    X=              5.3835    Y=              0.7944    Z=             -1.1375  Tot=              5.5594
 Quadrupole moment (field-independent basis, Debye-Ang):
   XX=            -62.2960   YY=            -78.5453   ZZ=            -73.3244
   XY=             -8.5898   XZ=              0.9096   YZ=              5.5249
 Traceless Quadrupole moment (field-independent basis, Debye-Ang):
   XX=              9.0926   YY=             -7.1567   ZZ=             -1.9358
   XY=             -8.5898   XZ=              0.9096   YZ=              5.5249
 Octapole moment (field-independent basis, Debye-Ang**2):
  XXX=             87.6462  YYY=              6.4402  ZZZ=             11.3561  XYY=             12.7493
  XXY=              2.3410  XXZ=              6.7317  XZZ=              2.7823  YZZ=             -9.7117
  YYZ=             -3.9097  XYZ=             -2.1953
 Hexadecapole moment (field-independent basis, Debye-Ang**3):
 XXXX=           -972.0665 YYYY=           -806.9295 ZZZZ=           -398.4744 XXXY=            -54.7654
 XXXZ=             53.3677 YYYX=            -24.6028 YYYZ=             15.1320 ZZZX=             11.1435
 ZZZY=              4.0063 XXYY=           -348.9551 XXZZ=           -227.7352 YYZZ=           -204.5328
 XXYZ=             -8.1591 YYXZ=              2.7192 ZZXY=              5.9035
 N-N= 8.285037614864D+02 E-N=-3.043277659526D+03  KE= 5.886598034389D+02
 1\1\GINC-COMPUTE-3-0\SP\RmPW1PW91\6-31+G(d,p)\C8H15N1O3\MAMICHETTI.IQU
 IR\17-May-2024\0\\# mpw1pw91/6-31+G** nmr scrf=(pcm,solvent=water)\\co
 mment\\0,1\C,0,-2.087152,1.142013,0.102221\C,0,-1.319521,0.282386,-0.9
 19373\N,0,0.059566,0.859828,-0.99664\C,0,0.166697,1.921219,0.038916\C,
 0,-0.992269,1.707447,1.017866\C,0,0.99828,-0.286487,-0.970354\C,0,0.32
 1472,-1.422467,-0.185624\C,0,-1.161279,-1.244079,-0.56825\H,0,-2.59966
 1,1.959098,-0.419188\H,0,-2.845035,0.56061,0.633546\H,0,-1.806161,0.34
 6409,-1.899649\H,0,0.054505,2.898891,-0.451437\H,0,1.14568,1.913168,0.
 518262\H,0,-1.293135,2.631166,1.523528\H,0,-0.715146,0.973921,1.781409
 \H,0,1.06538,-0.657634,-2.005023\H,0,0.707565,-2.403173,-0.49414\H,0,-
 1.374918,-1.832815,-1.465035\O,0,-2.038199,-1.738143,0.437338\H,0,-1.6
 29016,-1.473999,1.282499\O,0,0.425158,-1.299767,1.239303\H,0,1.26705,-
 0.821954,1.409306\C,0,2.447457,0.003405,-0.595662\H,0,3.051238,-0.8546
 64,-0.909188\H,0,2.807043,0.88713,-1.137669\O,0,2.612274,0.202243,0.82
 7032\H,0,3.511679,-0.080234,1.061435\\Version=AM64L-G09RevC.01\State=1
 -A\HF=-594.1912645\RMSD=6.964e-09\Dipole=2.1180441,0.3125231,-0.447517
 7\Quadrupole=6.7600964,-5.3208536,-1.4392428,-6.386322,0.6762297,4.107
 6309\PG=C01 [X(C8H15N1O3)]\\@


 IT IS A PROFOUNDLY ERRONEOUS TRUISM ... THAT WE SHOULD CULTIVATE
 THE HABIT OF THINKING OF WHAT WE ARE DOING.
 THE PRECISE OPPOSITE IS THE CASE.
 CIVILIZATION ADVANCES BY EXTENDING THE NUMBER OF IMPORTANT OPERATIONS
 WHICH WE CAN PERFORM WITHOUT THINKING ABOUT THEM.

                                    -- ALFRED NORTH WHITEHEAD
 Job cpu time:  0 days  0 hours  9 minutes  6.1 seconds.
 File lengths (MBytes):  RWF=    109 Int=      0 D2E=      0 Chk=      7 Scr=      1
 Normal termination of Gaussian 09 at Fri May 17 12:49:47 2024.
