 Entering Gaussian System, Link 0=g09
 Input=/home/mamichetti.iquir/Linux/04_Cardona_A1A3_R__S_R_S_001_OptB.gjc
 Output=/home/mamichetti.iquir/Linux/04_Cardona_A1A3_R__S_R_S_001_OptB.log
 Initial command:
 /opt/ohpc/pub/apps/software/Gaussian/09/AMD64.SSE4a-enabled/g09/l1.exe /local/mamichetti.iquir/Gau-407898.inp -scrdir=/local/mamichetti.iquir/
 Entering Link 1 = /opt/ohpc/pub/apps/software/Gaussian/09/AMD64.SSE4a-enabled/g09/l1.exe PID=    407899.
  
 Copyright (c) 1988,1990,1992,1993,1995,1998,2003,2009,2011,
            Gaussian, Inc.  All Rights Reserved.
  
 This is part of the Gaussian(R) 09 program.  It is based on
 the Gaussian(R) 03 system (copyright 2003, Gaussian, Inc.),
 the Gaussian(R) 98 system (copyright 1998, Gaussian, Inc.),
 the Gaussian(R) 94 system (copyright 1995, Gaussian, Inc.),
 the Gaussian 92(TM) system (copyright 1992, Gaussian, Inc.),
 the Gaussian 90(TM) system (copyright 1990, Gaussian, Inc.),
 the Gaussian 88(TM) system (copyright 1988, Gaussian, Inc.),
 the Gaussian 86(TM) system (copyright 1986, Carnegie Mellon
 University), and the Gaussian 82(TM) system (copyright 1983,
 Carnegie Mellon University). Gaussian is a federally registered
 trademark of Gaussian, Inc.
  
 This software contains proprietary and confidential information,
 including trade secrets, belonging to Gaussian, Inc.
  
 This software is provided under written license and may be
 used, copied, transmitted, or stored only in accord with that
 written license.
  
 The following legend is applicable only to US Government
 contracts under FAR:
  
                    RESTRICTED RIGHTS LEGEND
  
 Use, reproduction and disclosure by the US Government is
 subject to restrictions as set forth in subparagraphs (a)
 and (c) of the Commercial Computer Software - Restricted
 Rights clause in FAR 52.227-19.
  
 Gaussian, Inc.
 340 Quinnipiac St., Bldg. 40, Wallingford CT 06492
  
  
 ---------------------------------------------------------------
 Warning -- This program may not be used in any manner that
 competes with the business of Gaussian, Inc. or will provide
 assistance to any competitor of Gaussian, Inc.  The licensee
 of this program is prohibited from giving any competitor of
 Gaussian, Inc. access to this program.  By using this program,
 the user acknowledges that Gaussian, Inc. is engaged in the
 business of creating and licensing software in the field of
 computational chemistry and represents and warrants to the
 licensee that it is not a competitor of Gaussian, Inc. and that
 it will not use this program in any manner prohibited above.
 ---------------------------------------------------------------
  

 Cite this work as:
 Gaussian 09, Revision C.01,
 M. J. Frisch, G. W. Trucks, H. B. Schlegel, G. E. Scuseria, 
 M. A. Robb, J. R. Cheeseman, G. Scalmani, V. Barone, B. Mennucci, 
 G. A. Petersson, H. Nakatsuji, M. Caricato, X. Li, H. P. Hratchian, 
 A. F. Izmaylov, J. Bloino, G. Zheng, J. L. Sonnenberg, M. Hada, 
 M. Ehara, K. Toyota, R. Fukuda, J. Hasegawa, M. Ishida, T. Nakajima, 
 Y. Honda, O. Kitao, H. Nakai, T. Vreven, J. A. Montgomery, Jr., 
 J. E. Peralta, F. Ogliaro, M. Bearpark, J. J. Heyd, E. Brothers, 
 K. N. Kudin, V. N. Staroverov, T. Keith, R. Kobayashi, J. Normand, 
 K. Raghavachari, A. Rendell, J. C. Burant, S. S. Iyengar, J. Tomasi, 
 M. Cossi, N. Rega, J. M. Millam, M. Klene, J. E. Knox, J. B. Cross, 
 V. Bakken, C. Adamo, J. Jaramillo, R. Gomperts, R. E. Stratmann, 
 O. Yazyev, A. J. Austin, R. Cammi, C. Pomelli, J. W. Ochterski, 
 R. L. Martin, K. Morokuma, V. G. Zakrzewski, G. A. Voth, 
 P. Salvador, J. J. Dannenberg, S. Dapprich, A. D. Daniels, 
 O. Farkas, J. B. Foresman, J. V. Ortiz, J. Cioslowski, 
 and D. J. Fox, Gaussian, Inc., Wallingford CT, 2010.
 
 ******************************************
 Gaussian 09:  AM64L-G09RevC.01 23-Sep-2011
                17-May-2024 
 ******************************************
 %nprocshared=4
 Will use up to    4 processors via shared memory.
 ------------------------------------------------
 # mpw1pw91/6-31+G** nmr scrf=(pcm,solvent=water)
 ------------------------------------------------
 1/38=1/1;
 2/12=2,17=6,18=5,40=1/2;
 3/5=1,6=6,7=111,11=2,16=1,25=1,30=1,70=2201,72=1,74=-7/1,2,8,3;
 4//1;
 5/5=2,38=5,53=1/2;
 8/6=1,10=90,11=11/1;
 10/13=100,45=16/2;
 6/7=2,8=2,9=2,10=2,28=1/1;
 99/9=1/99;
 -------
 comment
 -------
 Charge =  0 Multiplicity = 1
 Symbolic Z-Matrix:
 6                    -1.83157   1.41861   0.04232 
 6                    -1.05636   0.47862  -0.9017 
 7                     0.40064   0.72872  -0.62901 
 6                     0.48186   1.64079   0.53737 
 6                    -0.78708   2.4809    0.41404 
 6                     1.04309  -0.60331  -0.49657 
 6                    -0.0379   -1.55744   0.02491 
 6                    -1.28961  -1.05005  -0.72305 
 1                    -2.72798   1.83173  -0.42972 
 1                    -2.1466    0.88422   0.94329 
 1                    -1.27763   0.74028  -1.94266 
 1                     1.39871   2.24151   0.49445 
 1                     0.47336   1.11364   1.50083 
 1                    -0.68105   3.21971  -0.38965 
 1                    -1.02713   3.01601   1.3382 
 1                     1.27881  -0.95557  -1.51242 
 1                     0.19017  -2.60415  -0.22166 
 1                    -1.34076  -1.53354  -1.70403 
 8                    -2.49176  -1.31966   0.00571 
 1                    -2.71204  -2.25564  -0.13933 
 8                    -0.23206  -1.4243    1.43591 
 1                    -1.19929  -1.50716   1.55764 
 6                     2.35751  -0.63787   0.27762 
 1                     2.233    -0.27506   1.30369 
 1                     2.68861  -1.67975   0.33565 
 8                     3.4152    0.07161  -0.37941 
 1                     3.23463   1.0202   -0.27855 
 
                          Input orientation:                          
 ---------------------------------------------------------------------
 Center     Atomic      Atomic             Coordinates (Angstroms)
 Number     Number       Type             X           Y           Z
 ---------------------------------------------------------------------
      1          6           0       -1.831573    1.418608    0.042323
      2          6           0       -1.056360    0.478617   -0.901700
      3          7           0        0.400638    0.728723   -0.629008
      4          6           0        0.481862    1.640786    0.537374
      5          6           0       -0.787075    2.480896    0.414036
      6          6           0        1.043094   -0.603314   -0.496565
      7          6           0       -0.037899   -1.557440    0.024905
      8          6           0       -1.289611   -1.050051   -0.723046
      9          1           0       -2.727983    1.831727   -0.429722
     10          1           0       -2.146602    0.884221    0.943287
     11          1           0       -1.277631    0.740277   -1.942657
     12          1           0        1.398706    2.241513    0.494452
     13          1           0        0.473355    1.113644    1.500825
     14          1           0       -0.681045    3.219706   -0.389650
     15          1           0       -1.027132    3.016007    1.338195
     16          1           0        1.278812   -0.955569   -1.512419
     17          1           0        0.190167   -2.604148   -0.221662
     18          1           0       -1.340759   -1.533537   -1.704033
     19          8           0       -2.491760   -1.319664    0.005713
     20          1           0       -2.712040   -2.255636   -0.139327
     21          8           0       -0.232057   -1.424302    1.435906
     22          1           0       -1.199289   -1.507162    1.557644
     23          6           0        2.357511   -0.637873    0.277620
     24          1           0        2.233002   -0.275061    1.303685
     25          1           0        2.688612   -1.679753    0.335652
     26          8           0        3.415195    0.071609   -0.379410
     27          1           0        3.234635    1.020199   -0.278554
 ---------------------------------------------------------------------
                    Distance matrix (angstroms):
                    1          2          3          4          5
     1  C    0.000000
     2  C    1.541336   0.000000
     3  N    2.430924   1.503249   0.000000
     4  C    2.376220   2.405763   1.482870   0.000000
     5  C    1.535449   2.410974   2.359812   1.526826   0.000000
     6  C    3.555598   2.396334   1.484794   2.533771   3.700144
     7  C    3.474828   2.457923   2.417945   3.280461   4.125633
     8  C    2.640793   1.556647   2.455570   3.459390   3.743405
     9  H    1.094095   2.201816   3.323342   3.357803   2.213701
    10  H    1.093869   2.181082   2.997453   2.765136   2.162820
    11  H    2.169592   1.095910   2.131289   3.171322   2.970589
    12  H    3.363970   3.329323   2.132331   1.096959   2.200320
    13  H    2.744617   2.918118   2.165558   1.098266   2.153874
    14  H    2.180429   2.813650   2.726229   2.169035   1.096811
    15  H    2.208641   3.384720   3.337676   2.193082   1.094551
    16  H    4.210515   2.807649   2.094861   3.402623   4.448417
    17  H    4.509954   3.394071   3.364262   4.322116   5.216971
    18  H    3.464941   2.184808   3.050568   4.292107   4.572576
    19  O    2.816970   2.473375   3.600656   4.229581   4.185324
    20  H    3.782630   3.286127   4.339925   5.083408   5.142610
    21  O    3.547205   3.124896   3.049539   3.272889   4.074658
    22  H    3.355013   3.164193   3.512890   3.711711   4.169217
    23  C    4.672569   3.780458   2.553216   2.962738   4.430999
    24  H    4.580428   4.031334   2.846128   2.706325   4.184213
    25  H    5.487983   4.496045   3.459212   3.992044   5.421950
    26  O    5.433308   4.520315   3.095424   3.450689   4.908492
    27  H    5.091970   4.369698   2.870421   2.937452   4.334451
                    6          7          8          9         10
     6  C    0.000000
     7  C    1.533243   0.000000
     8  C    2.385871   1.543910   0.000000
     9  H    4.489423   4.350826   3.234130   0.000000
    10  H    3.802643   3.354365   2.693048   1.766614   0.000000
    11  H    3.046668   3.269211   2.166303   2.362997   3.017367
    12  H    3.033416   4.088564   4.420831   4.248716   3.822683
    13  H    2.694831   3.094254   3.568645   3.806733   2.688430
    14  H    4.195184   4.838039   4.325775   2.473469   3.062526
    15  H    4.555399   4.860013   4.566228   2.724141   2.440016
    16  H    1.100730   2.111715   2.688649   4.999566   4.598780
    17  H    2.192349   1.099276   2.203712   5.313744   4.357329
    18  H    2.829496   2.165004   1.094856   3.856587   3.674675
    19  O    3.641515   2.465429   1.431413   3.190089   2.419770
    20  H    4.118109   2.768660   1.953834   4.097697   3.369047
    21  O    2.456517   1.430506   2.433014   4.506877   3.039315
    22  H    3.172538   1.923706   2.327801   4.175489   2.644532
    23  C    1.525860   2.578266   3.804303   5.697500   4.800720
    24  H    2.182781   2.904611   4.137276   5.661681   4.544750
    25  H    2.135190   2.746887   4.164568   6.500445   5.506585
    26  O    2.469030   3.839418   4.848856   6.390554   5.774379
    27  H    2.736088   4.176816   4.995229   6.019489   5.519882
                   11         12         13         14         15
    11  H    0.000000
    12  H    3.918672   0.000000
    13  H    3.881098   1.772329   0.000000
    14  H    2.985852   2.462491   3.056474   0.000000
    15  H    4.000711   2.682617   2.428352   1.773899   0.000000
    16  H    3.097806   3.776670   3.742999   4.747059   5.405256
    17  H    4.037503   5.045178   4.107205   5.891053   5.958281
    18  H    2.287172   5.156453   4.535382   4.975555   5.481958
    19  O    3.084414   5.296846   4.116826   4.903150   4.766412
    20  H    3.779553   6.125705   4.918220   5.845252   5.728194
    21  O    4.146482   4.121156   2.634955   5.010095   4.511988
    22  H    4.160436   4.683217   3.109597   5.138464   4.531761
    23  C    4.476962   3.042563   2.848523   4.955703   5.092295
    24  H    4.888169   2.772012   2.250272   4.855147   4.632580
    25  H    5.174777   4.131029   3.750741   5.990438   6.071409
    26  O    4.991340   3.088421   3.643562   5.166217   5.599457
    27  H    4.817483   2.336618   3.286273   4.492519   4.975921
                   16         17         18         19         20
    16  H    0.000000
    17  H    2.359876   0.000000
    18  H    2.689408   2.384820   0.000000
    19  O    4.080993   2.982336   2.072143   0.000000
    20  H    4.416158   2.924217   2.202304   0.972421   0.000000
    21  O    3.345901   2.077942   3.331722   2.676314   3.053325
    22  H    3.983783   2.509959   3.264850   2.028331   2.393395
    23  C    2.113945   2.968653   4.290264   4.904508   5.337729
    24  H    3.050248   3.453188   4.837551   5.009920   5.518913
    25  H    2.434614   2.721641   4.518576   5.203343   5.451999
    26  O    2.627344   4.193491   5.191360   6.080796   6.558713
    27  H    3.041599   4.733700   5.430266   6.192525   6.790686
                   21         22         23         24         25
    21  O    0.000000
    22  H    0.978378   0.000000
    23  C    2.943800   3.878782   0.000000
    24  H    2.723004   3.655570   1.095420   0.000000
    25  H    3.131473   4.079072   1.094765   1.765737   0.000000
    26  O    4.339996   5.247681   1.433091   2.085802   2.026451
    27  H    4.575250   5.423915   1.956497   2.276938   2.822256
                   26         27
    26  O    0.000000
    27  H    0.970874   0.000000
 Stoichiometry    C8H15NO3
 Framework group  C1[X(C8H15NO3)]
 Deg. of freedom    75
 Full point group                 C1      NOp   1
 Largest Abelian subgroup         C1      NOp   1
 Largest concise Abelian subgroup C1      NOp   1
                         Standard orientation:                         
 ---------------------------------------------------------------------
 Center     Atomic      Atomic             Coordinates (Angstroms)
 Number     Number       Type             X           Y           Z
 ---------------------------------------------------------------------
      1          6           0       -1.831573    1.418608    0.042323
      2          6           0       -1.056360    0.478617   -0.901700
      3          7           0        0.400638    0.728723   -0.629008
      4          6           0        0.481862    1.640786    0.537374
      5          6           0       -0.787075    2.480896    0.414036
      6          6           0        1.043094   -0.603314   -0.496565
      7          6           0       -0.037899   -1.557440    0.024905
      8          6           0       -1.289611   -1.050051   -0.723046
      9          1           0       -2.727983    1.831727   -0.429722
     10          1           0       -2.146602    0.884221    0.943287
     11          1           0       -1.277631    0.740277   -1.942657
     12          1           0        1.398706    2.241513    0.494452
     13          1           0        0.473355    1.113644    1.500825
     14          1           0       -0.681045    3.219706   -0.389650
     15          1           0       -1.027132    3.016007    1.338195
     16          1           0        1.278812   -0.955569   -1.512419
     17          1           0        0.190167   -2.604148   -0.221662
     18          1           0       -1.340759   -1.533537   -1.704033
     19          8           0       -2.491760   -1.319664    0.005713
     20          1           0       -2.712040   -2.255636   -0.139327
     21          8           0       -0.232057   -1.424302    1.435906
     22          1           0       -1.199289   -1.507162    1.557644
     23          6           0        2.357511   -0.637873    0.277620
     24          1           0        2.233002   -0.275061    1.303685
     25          1           0        2.688612   -1.679753    0.335652
     26          8           0        3.415195    0.071609   -0.379410
     27          1           0        3.234635    1.020199   -0.278554
 ---------------------------------------------------------------------
 Rotational constants (GHZ):      1.2965373      0.8558654      0.6239023
 Standard basis: 6-31+G(d,p) (6D, 7F)
 There are   303 symmetry adapted basis functions of A   symmetry.
 Integral buffers will be    131072 words long.
 Raffenetti 2 integral format.
 Two-electron integral symmetry is turned on.
   303 basis functions,   489 primitive gaussians,   303 cartesian basis functions
    47 alpha electrons       47 beta electrons
       nuclear repulsion energy       813.6285213736 Hartrees.
 NAtoms=   27 NActive=   27 NUniq=   27 SFac= 1.00D+00 NAtFMM=   60 NAOKFM=F Big=F
 ------------------------------------------------------------------------------
 Polarizable Continuum Model (PCM)
 =================================
 Model                : PCM.
 Atomic radii         : UFF (Universal Force Field).
 Polarization charges : Total charges.
 Charge compensation  : None.
 Solution method      : Matrix inversion.
 Cavity type          : Scaled VdW (van der Waals Surface) (Alpha=1.100).
 Cavity algorithm     : GePol (No added spheres)
                        Default sphere list used, NSphG=   27.
                        Lebedev-Laikov grids with approx.  5.0 points / Ang**2.
                        Smoothing algorithm: Karplus/York (Gamma=1.0000).
                        Polarization charges: spherical gaussians, with
                                              point-specific exponents (IZeta= 3).
                        Self-potential: point-specific (ISelfS= 7).
                        Self-field    : sphere-specific E.n sum rule (ISelfD= 2).
 Solvent              : Water, Eps=  78.355300 Eps(inf)=   1.777849
 ------------------------------------------------------------------------------
 One-electron integrals computed using PRISM.
 NBasis=   303 RedAO= T  NBF=   303
 NBsUse=   303 1.00D-06 NBFU=   303
 Harris functional with IExCor=  908 diagonalized for initial guess.
 ExpMin= 4.38D-02 ExpMax= 5.48D+03 ExpMxC= 8.25D+02 IAcc=2 IRadAn=         4 AccDes= 0.00D+00
 HarFok:  IExCor=  908 AccDes= 0.00D+00 IRadAn=         4 IDoV= 1
 ScaDFX=  1.000000  1.000000  1.000000  1.000000
 FoFCou: FMM=F IPFlag=           0 FMFlag=      100000 FMFlg1=           0
         NFxFlg=           0 DoJE=T BraDBF=F KetDBF=T FulRan=T
         Omega=  0.000000  0.000000  1.000000  0.000000  0.000000 ICntrl=     500 IOpCl=  0
         NMat0=    1 NMatS0=    1 NMatT0=    0 NMatD0=    1 NMtDS0=    0 NMtDT0=    0
         I1Cent=           4 NGrid=           0.
 Petite list used in FoFCou.
 Initial guess orbital symmetries:
       Occupied  (A) (A) (A) (A) (A) (A) (A) (A) (A) (A) (A) (A)
                 (A) (A) (A) (A) (A) (A) (A) (A) (A) (A) (A) (A)
                 (A) (A) (A) (A) (A) (A) (A) (A) (A) (A) (A) (A)
                 (A) (A) (A) (A) (A) (A) (A) (A) (A) (A) (A)
       Virtual   (A) (A) (A) (A) (A) (A) (A) (A) (A) (A) (A) (A)
                 (A) (A) (A) (A) (A) (A) (A) (A) (A) (A) (A) (A)
                 (A) (A) (A) (A) (A) (A) (A) (A) (A) (A) (A) (A)
                 (A) (A) (A) (A) (A) (A) (A) (A) (A) (A) (A) (A)
                 (A) (A) (A) (A) (A) (A) (A) (A) (A) (A) (A) (A)
                 (A) (A) (A) (A) (A) (A) (A) (A) (A) (A) (A) (A)
                 (A) (A) (A) (A) (A) (A) (A) (A) (A) (A) (A) (A)
                 (A) (A) (A) (A) (A) (A) (A) (A) (A) (A) (A) (A)
                 (A) (A) (A) (A) (A) (A) (A) (A) (A) (A) (A) (A)
                 (A) (A) (A) (A) (A) (A) (A) (A) (A) (A) (A) (A)
                 (A) (A) (A) (A) (A) (A) (A) (A) (A) (A) (A) (A)
                 (A) (A) (A) (A) (A) (A) (A) (A) (A) (A) (A) (A)
                 (A) (A) (A) (A) (A) (A) (A) (A) (A) (A) (A) (A)
                 (A) (A) (A) (A) (A) (A) (A) (A) (A) (A) (A) (A)
                 (A) (A) (A) (A) (A) (A) (A) (A) (A) (A) (A) (A)
                 (A) (A) (A) (A) (A) (A) (A) (A) (A) (A) (A) (A)
                 (A) (A) (A) (A) (A) (A) (A) (A) (A) (A) (A) (A)
                 (A) (A) (A) (A) (A) (A) (A) (A) (A) (A) (A) (A)
                 (A) (A) (A) (A) (A) (A) (A) (A) (A) (A) (A) (A)
                 (A) (A) (A) (A) (A) (A) (A) (A) (A) (A) (A) (A)
                 (A) (A) (A) (A) (A) (A) (A) (A) (A) (A) (A) (A)
                 (A) (A) (A) (A)
 The electronic state of the initial guess is 1-A.
 Requested convergence on RMS density matrix=1.00D-08 within 128 cycles.
 Requested convergence on MAX density matrix=1.00D-06.
 Requested convergence on             energy=1.00D-06.
 No special actions if energy rises.
 Error on total polarization charges =  0.01420
 SCF Done:  E(RmPW1PW91) =  -594.191331547     A.U. after   13 cycles
             Convg  =    0.4461D-08             -V/T =  2.0094
 Range of M.O.s used for correlation:     1   303
 NBasis=   303 NAE=    47 NBE=    47 NFC=     0 NFV=     0
 NROrb=    303 NOA=    47 NOB=    47 NVA=   256 NVB=   256

 **** Warning!!: The largest alpha MO coefficient is  0.66738599D+02

 NEqPCM:  Using equilibrium solvation (IEInf=0, Eps=  78.3553, EpsInf=   1.7778)
          Differentiating once with respect to magnetic field using GIAOs.
          Electric field/nuclear overlap derivatives assumed to be zero.
 FoFCou: FMM=F IPFlag=           0 FMFlag=    10101102 FMFlg1=           0
         NFxFlg=    40000000 DoJE=F BraDBF=F KetDBF=T FulRan=T
         Omega=  0.000000  0.000000  1.000000  0.000000  0.000000 ICntrl=    6100 IOpCl=  0
         NMat0=    1 NMatS0=    1 NMatT0=    0 NMatD0=    1 NMtDS0=    0 NMtDT0=    0
         I1Cent=           7 NGrid=        1796.
 Symmetry not used in FoFCou.
          There are     3 degrees of freedom in the 1st order CPHF.  IDoFFX=0.
      3 vectors produced by pass  0 Test12= 4.01D-13 3.33D-08 XBig12= 3.45D+01 8.93D-01.
 AX will form     3 AO Fock derivatives at one time.
      3 vectors produced by pass  1 Test12= 4.01D-13 3.33D-08 XBig12= 8.46D-02 4.52D-02.
      3 vectors produced by pass  2 Test12= 4.01D-13 3.33D-08 XBig12= 1.63D-04 2.27D-03.
      3 vectors produced by pass  3 Test12= 4.01D-13 3.33D-08 XBig12= 6.75D-07 1.63D-04.
      3 vectors produced by pass  4 Test12= 4.01D-13 3.33D-08 XBig12= 1.85D-09 7.49D-06.
      3 vectors produced by pass  5 Test12= 4.01D-13 3.33D-08 XBig12= 6.31D-12 5.26D-07.
 Inverted reduced A of dimension    18 with in-core refinement.
 Calculating GIAO nuclear magnetic shielding tensors.
 SCF GIAO Magnetic shielding tensor (ppm):
      1  C    Isotropic =   168.3398   Anisotropy =    22.0577
   XX=   178.2933   YX=    -2.4458   ZX=     3.3638
   XY=     6.9903   YY=   170.5296   ZY=    16.4337
   XZ=     1.4269   YZ=    15.5124   ZZ=   156.1965
   Eigenvalues:   145.8372   176.1372   183.0450
      2  C    Isotropic =   128.5295   Anisotropy =    57.4833
   XX=   164.2548   YX=     8.1375   ZX=     6.5802
   XY=    10.4024   YY=   130.5405   ZY=     5.3472
   XZ=    -2.5868   YZ=    11.3806   ZZ=    90.7932
   Eigenvalues:    89.1047   129.6322   166.8517
      3  N    Isotropic =   193.8642   Anisotropy =    83.4678
   XX=   231.9801   YX=   -31.8122   ZX=    23.9880
   XY=   -21.5022   YY=   203.2116   ZY=    28.0613
   XZ=    35.0515   YZ=    26.6489   ZZ=   146.4008
   Eigenvalues:   122.4008   209.6824   249.5094
      4  C    Isotropic =   145.5561   Anisotropy =    43.9211
   XX=   139.8944   YX=     2.7482   ZX=     0.0340
   XY=    -7.2954   YY=   150.6675   ZY=    25.7035
   XZ=     6.8967   YZ=    26.9734   ZZ=   146.1064
   Eigenvalues:   121.0611   140.7704   174.8368
      5  C    Isotropic =   166.6978   Anisotropy =    20.8615
   XX=   178.9583   YX=    -3.5094   ZX=     4.0093
   XY=    -4.0512   YY=   171.8413   ZY=    18.7539
   XZ=     6.8256   YZ=     8.2960   ZZ=   149.2938
   Eigenvalues:   141.8182   177.6697   180.6055
      6  C    Isotropic =   129.3058   Anisotropy =    23.3242
   XX=   139.7844   YX=     2.3017   ZX=     4.7758
   XY=   -10.5823   YY=   138.4151   ZY=   -10.5775
   XZ=    -7.8825   YZ=   -12.5555   ZZ=   109.7180
   Eigenvalues:   105.3994   137.6628   144.8552
      7  C    Isotropic =   117.9041   Anisotropy =    22.5106
   XX=   109.9062   YX=     5.1658   ZX=   -10.0296
   XY=     4.6255   YY=   112.9341   ZY=     0.4888
   XZ=    -1.4269   YZ=    -4.8636   ZZ=   130.8720
   Eigenvalues:   105.8100   114.9911   132.9111
      8  C    Isotropic =   120.1581   Anisotropy =    48.9035
   XX=   147.6314   YX=     5.6768   ZX=   -13.0690
   XY=     5.5297   YY=   113.2953   ZY=   -18.0818
   XZ=   -10.2277   YZ=   -16.2086   ZZ=    99.5475
   Eigenvalues:    87.2079   120.5059   152.7604
      9  H    Isotropic =    29.9111   Anisotropy =    11.2506
   XX=    34.8489   YX=    -3.8915   ZX=     3.4289
   XY=    -3.1900   YY=    28.9779   ZY=    -0.3334
   XZ=     3.2073   YZ=    -0.6028   ZZ=    25.9066
   Eigenvalues:    24.6716    27.6502    37.4115
     10  H    Isotropic =    29.5380   Anisotropy =     6.4752
   XX=    28.0634   YX=     1.3938   ZX=    -4.0725
   XY=     1.2944   YY=    31.3285   ZY=    -0.6914
   XZ=    -4.7887   YZ=    -0.5706   ZZ=    29.2220
   Eigenvalues:    24.1240    30.6351    33.8548
     11  H    Isotropic =    27.6965   Anisotropy =     9.0989
   XX=    25.9572   YX=     0.3028   ZX=     3.5924
   XY=    -0.4060   YY=    24.9558   ZY=    -1.3926
   XZ=     3.0818   YZ=    -0.9315   ZZ=    32.1765
   Eigenvalues:    24.2211    25.1059    33.7625
     12  H    Isotropic =    28.8232   Anisotropy =     9.3698
   XX=    31.9309   YX=     2.6895   ZX=     0.9342
   XY=     3.8428   YY=    30.1990   ZY=     2.4727
   XZ=     1.2943   YZ=     3.0095   ZZ=    24.3398
   Eigenvalues:    23.2537    28.1462    35.0698
     13  H    Isotropic =    28.0616   Anisotropy =     6.6603
   XX=    24.3921   YX=    -1.0953   ZX=     1.5499
   XY=    -1.1502   YY=    27.8642   ZY=     1.2033
   XZ=     2.5684   YZ=     0.3182   ZZ=    31.9285
   Eigenvalues:    23.4917    28.1912    32.5018
     14  H    Isotropic =    29.7314   Anisotropy =    11.1719
   XX=    27.0558   YX=     0.6941   ZX=     0.1755
   XY=     0.2939   YY=    35.2859   ZY=    -4.1588
   XZ=     0.2266   YZ=    -4.6463   ZZ=    26.8526
   Eigenvalues:    24.9060    27.1090    37.1794
     15  H    Isotropic =    29.6527   Anisotropy =    11.7238
   XX=    26.8209   YX=    -1.3496   ZX=    -1.2760
   XY=    -1.6938   YY=    31.6261   ZY=     6.0740
   XZ=    -1.6981   YZ=     5.8246   ZZ=    30.5111
   Eigenvalues:    25.0891    26.4004    37.4686
     16  H    Isotropic =    28.4893   Anisotropy =     8.4390
   XX=    28.4964   YX=    -2.3895   ZX=    -2.0474
   XY=    -2.4772   YY=    27.9198   ZY=     3.5046
   XZ=    -3.9032   YZ=     2.3883   ZZ=    29.0516
   Eigenvalues:    25.4847    25.8678    34.1152
     17  H    Isotropic =    27.7805   Anisotropy =     8.4503
   XX=    24.3855   YX=    -1.3909   ZX=    -0.3164
   XY=    -1.4414   YY=    31.8224   ZY=     2.2118
   XZ=    -1.7565   YZ=     3.2727   ZZ=    27.1335
   Eigenvalues:    23.9953    25.9322    33.4140
     18  H    Isotropic =    27.2184   Anisotropy =     6.6622
   XX=    25.6707   YX=     1.8515   ZX=    -1.4586
   XY=     2.1519   YY=    26.3941   ZY=     3.0577
   XZ=     1.3813   YZ=     3.1362   ZZ=    29.5906
   Eigenvalues:    23.2213    26.7741    31.6599
     19  O    Isotropic =   310.9536   Anisotropy =   101.4948
   XX=   289.5923   YX=    17.9855   ZX=    -0.2382
   XY=    46.4182   YY=   366.7312   ZY=    -8.9769
   XZ=    14.1801   YZ=    13.7569   ZZ=   276.5373
   Eigenvalues:   271.3343   282.9097   378.6168
     20  H    Isotropic =    30.0304   Anisotropy =    23.0575
   XX=    28.0922   YX=     8.4570   ZX=    -1.2035
   XY=     8.9723   YY=    40.8716   ZY=     2.7473
   XZ=    -0.9302   YZ=     2.0492   ZZ=    21.1273
   Eigenvalues:    19.9166    24.7724    45.4020
     21  O    Isotropic =   310.1179   Anisotropy =    29.4647
   XX=   329.0032   YX=     5.7055   ZX=    -2.7675
   XY=    -0.7666   YY=   312.6928   ZY=    24.4021
   XZ=    -7.5734   YZ=    -5.2110   ZZ=   288.6578
   Eigenvalues:   284.5665   316.0261   329.7611
     22  H    Isotropic =    28.5330   Anisotropy =    16.8625
   XX=    39.3351   YX=     2.1546   ZX=    -0.8545
   XY=     1.5428   YY=    18.8875   ZY=    -3.5527
   XZ=    -2.2639   YZ=    -2.3111   ZZ=    27.3765
   Eigenvalues:    17.8930    27.9315    39.7747
     23  C    Isotropic =   132.9998   Anisotropy =    60.9501
   XX=   150.9624   YX=    22.0879   ZX=   -12.7929
   XY=    23.8810   YY=   123.9647   ZY=   -20.9786
   XZ=   -13.2293   YZ=   -19.2676   ZZ=   124.0722
   Eigenvalues:   102.3775   122.9886   173.6331
     24  H    Isotropic =    27.1239   Anisotropy =     4.2146
   XX=    29.2471   YX=     0.8505   ZX=    -1.1153
   XY=     1.2225   YY=    23.2167   ZY=    -2.4658
   XZ=     0.2608   YZ=    -0.2012   ZZ=    28.9080
   Eigenvalues:    22.7877    28.6504    29.9337
     25  H    Isotropic =    27.6640   Anisotropy =     6.2370
   XX=    29.8321   YX=     0.3925   ZX=     0.1166
   XY=    -2.2290   YY=    30.2309   ZY=    -2.7675
   XZ=     0.1381   YZ=    -3.5560   ZZ=    22.9288
   Eigenvalues:    21.7451    29.4248    31.8220
     26  O    Isotropic =   311.0996   Anisotropy =    35.3499
   XX=   302.6242   YX=   -10.9976   ZX=     2.2292
   XY=    12.9843   YY=   334.6353   ZY=    -2.7526
   XZ=   -12.8269   YZ=     2.9491   ZZ=   296.0395
   Eigenvalues:   293.0856   305.5471   334.6662
     27  H    Isotropic =    30.1455   Anisotropy =    15.4793
   XX=    29.0543   YX=     0.3808   ZX=    -2.9323
   XY=    -0.0115   YY=    40.4449   ZY=     1.0251
   XZ=    -2.4532   YZ=     0.1983   ZZ=    20.9371
   Eigenvalues:    20.1050    29.8664    40.4650
 End of Minotr Frequency-dependent properties file   721 does not exist.
 End of Minotr Frequency-dependent properties file   722 does not exist.

 **********************************************************************

            Population analysis using the SCF density.

 **********************************************************************

 Orbital symmetries:
       Occupied  (A) (A) (A) (A) (A) (A) (A) (A) (A) (A) (A) (A)
                 (A) (A) (A) (A) (A) (A) (A) (A) (A) (A) (A) (A)
                 (A) (A) (A) (A) (A) (A) (A) (A) (A) (A) (A) (A)
                 (A) (A) (A) (A) (A) (A) (A) (A) (A) (A) (A)
       Virtual   (A) (A) (A) (A) (A) (A) (A) (A) (A) (A) (A) (A)
                 (A) (A) (A) (A) (A) (A) (A) (A) (A) (A) (A) (A)
                 (A) (A) (A) (A) (A) (A) (A) (A) (A) (A) (A) (A)
                 (A) (A) (A) (A) (A) (A) (A) (A) (A) (A) (A) (A)
                 (A) (A) (A) (A) (A) (A) (A) (A) (A) (A) (A) (A)
                 (A) (A) (A) (A) (A) (A) (A) (A) (A) (A) (A) (A)
                 (A) (A) (A) (A) (A) (A) (A) (A) (A) (A) (A) (A)
                 (A) (A) (A) (A) (A) (A) (A) (A) (A) (A) (A) (A)
                 (A) (A) (A) (A) (A) (A) (A) (A) (A) (A) (A) (A)
                 (A) (A) (A) (A) (A) (A) (A) (A) (A) (A) (A) (A)
                 (A) (A) (A) (A) (A) (A) (A) (A) (A) (A) (A) (A)
                 (A) (A) (A) (A) (A) (A) (A) (A) (A) (A) (A) (A)
                 (A) (A) (A) (A) (A) (A) (A) (A) (A) (A) (A) (A)
                 (A) (A) (A) (A) (A) (A) (A) (A) (A) (A) (A) (A)
                 (A) (A) (A) (A) (A) (A) (A) (A) (A) (A) (A) (A)
                 (A) (A) (A) (A) (A) (A) (A) (A) (A) (A) (A) (A)
                 (A) (A) (A) (A) (A) (A) (A) (A) (A) (A) (A) (A)
                 (A) (A) (A) (A) (A) (A) (A) (A) (A) (A) (A) (A)
                 (A) (A) (A) (A) (A) (A) (A) (A) (A) (A) (A) (A)
                 (A) (A) (A) (A) (A) (A) (A) (A) (A) (A) (A) (A)
                 (A) (A) (A) (A) (A) (A) (A) (A) (A) (A) (A) (A)
                 (A) (A) (A) (A)
 The electronic state is 1-A.
 Alpha  occ. eigenvalues --  -19.27168 -19.25657 -19.25011 -14.41039 -10.30828
 Alpha  occ. eigenvalues --  -10.30072 -10.29840 -10.28000 -10.27825 -10.26661
 Alpha  occ. eigenvalues --  -10.24473 -10.24372  -1.08287  -1.05744  -1.04699
 Alpha  occ. eigenvalues --   -0.96020  -0.82846  -0.78821  -0.75526  -0.71511
 Alpha  occ. eigenvalues --   -0.66885  -0.61368  -0.60219  -0.57395  -0.55146
 Alpha  occ. eigenvalues --   -0.53530  -0.52960  -0.51145  -0.49440  -0.46780
 Alpha  occ. eigenvalues --   -0.46340  -0.44015  -0.43509  -0.42659  -0.39771
 Alpha  occ. eigenvalues --   -0.39118  -0.38340  -0.36831  -0.36689  -0.35277
 Alpha  occ. eigenvalues --   -0.34863  -0.34347  -0.34059  -0.32122  -0.29324
 Alpha  occ. eigenvalues --   -0.28889  -0.22792
 Alpha virt. eigenvalues --   -0.00044   0.01225   0.01881   0.02304   0.03431
 Alpha virt. eigenvalues --    0.04465   0.04651   0.05293   0.05502   0.07662
 Alpha virt. eigenvalues --    0.07674   0.08413   0.08788   0.08873   0.09574
 Alpha virt. eigenvalues --    0.10629   0.11502   0.11804   0.12409   0.12691
 Alpha virt. eigenvalues --    0.13333   0.14380   0.14604   0.14781   0.15181
 Alpha virt. eigenvalues --    0.15889   0.16911   0.17365   0.17588   0.18543
 Alpha virt. eigenvalues --    0.18885   0.19063   0.19600   0.20478   0.21240
 Alpha virt. eigenvalues --    0.21652   0.21910   0.22596   0.22871   0.23388
 Alpha virt. eigenvalues --    0.23833   0.24525   0.24677   0.25384   0.26023
 Alpha virt. eigenvalues --    0.26934   0.27066   0.27900   0.28102   0.28641
 Alpha virt. eigenvalues --    0.29281   0.29409   0.29855   0.30940   0.32038
 Alpha virt. eigenvalues --    0.32506   0.33031   0.33844   0.34582   0.34733
 Alpha virt. eigenvalues --    0.35686   0.36108   0.37365   0.37781   0.38380
 Alpha virt. eigenvalues --    0.38772   0.39754   0.40546   0.40690   0.41686
 Alpha virt. eigenvalues --    0.42924   0.43305   0.44195   0.46708   0.49105
 Alpha virt. eigenvalues --    0.50380   0.64826   0.67528   0.68385   0.70101
 Alpha virt. eigenvalues --    0.70389   0.71004   0.71562   0.73026   0.73973
 Alpha virt. eigenvalues --    0.75405   0.77805   0.79503   0.79981   0.80724
 Alpha virt. eigenvalues --    0.83025   0.83768   0.84994   0.86416   0.88314
 Alpha virt. eigenvalues --    0.90411   0.90808   0.94488   0.95365   0.97077
 Alpha virt. eigenvalues --    0.98363   0.99696   1.01335   1.02741   1.04730
 Alpha virt. eigenvalues --    1.06187   1.07540   1.08601   1.09187   1.10180
 Alpha virt. eigenvalues --    1.11535   1.12885   1.14103   1.15881   1.16331
 Alpha virt. eigenvalues --    1.16950   1.18700   1.20335   1.23458   1.25170
 Alpha virt. eigenvalues --    1.26849   1.30101   1.30557   1.31526   1.32470
 Alpha virt. eigenvalues --    1.33959   1.35650   1.38123   1.39950   1.41357
 Alpha virt. eigenvalues --    1.43890   1.45103   1.46607   1.50642   1.51991
 Alpha virt. eigenvalues --    1.54776   1.56851   1.58837   1.59530   1.61488
 Alpha virt. eigenvalues --    1.62837   1.65973   1.67284   1.68605   1.70176
 Alpha virt. eigenvalues --    1.72040   1.73613   1.76878   1.78333   1.79175
 Alpha virt. eigenvalues --    1.81287   1.82804   1.83932   1.85230   1.86840
 Alpha virt. eigenvalues --    1.87896   1.90451   1.91187   1.92525   1.94382
 Alpha virt. eigenvalues --    1.95807   1.99558   2.02700   2.02909   2.03265
 Alpha virt. eigenvalues --    2.04952   2.08106   2.09111   2.10313   2.11145
 Alpha virt. eigenvalues --    2.11764   2.15611   2.17565   2.18388   2.20478
 Alpha virt. eigenvalues --    2.21350   2.22829   2.24420   2.27332   2.29274
 Alpha virt. eigenvalues --    2.30886   2.33129   2.36744   2.38367   2.40661
 Alpha virt. eigenvalues --    2.41713   2.42628   2.43809   2.45383   2.47792
 Alpha virt. eigenvalues --    2.48497   2.50251   2.51115   2.53930   2.55908
 Alpha virt. eigenvalues --    2.56697   2.57924   2.59750   2.60391   2.63145
 Alpha virt. eigenvalues --    2.64244   2.64623   2.67776   2.69099   2.71523
 Alpha virt. eigenvalues --    2.73373   2.75402   2.76568   2.77394   2.78714
 Alpha virt. eigenvalues --    2.79665   2.80794   2.82128   2.84088   2.85544
 Alpha virt. eigenvalues --    2.86884   2.87673   2.90111   2.92527   2.95515
 Alpha virt. eigenvalues --    2.97629   2.99635   3.02324   3.03112   3.04094
 Alpha virt. eigenvalues --    3.05320   3.09490   3.11093   3.13002   3.32613
 Alpha virt. eigenvalues --    3.35842   3.36217   3.37332   3.43834   3.45217
 Alpha virt. eigenvalues --    3.46731   3.51951   3.52974   3.53720   3.54745
 Alpha virt. eigenvalues --    3.57121   3.58880   3.59713   3.60686   4.31547
 Alpha virt. eigenvalues --    4.32567   4.39691   4.44677   4.52169   4.56245
 Alpha virt. eigenvalues --    4.62592   4.73997   4.77224   4.81854   4.88266
 Alpha virt. eigenvalues --    4.96968
          Condensed to atoms (all electrons):
              1          2          3          4          5          6
     1  C    5.848073  -0.572565   0.091045  -0.184597   0.194241   0.171293
     2  C   -0.572565   8.348089  -0.334852  -0.518007   0.183546  -1.015597
     3  N    0.091045  -0.334852   7.550370   0.340052  -0.216742  -0.513518
     4  C   -0.184597  -0.518007   0.340052   5.780045   0.014718  -0.169585
     5  C    0.194241   0.183546  -0.216742   0.014718   5.664463   0.156916
     6  C    0.171293  -1.015597  -0.513518  -0.169585   0.156916  10.926688
     7  C   -0.163702   0.868822   0.042850  -0.124847  -0.018526  -2.744734
     8  C    0.117979  -0.915386   0.033933   0.271384  -0.065977   0.602124
     9  H    0.377870  -0.071182   0.013895   0.047410  -0.043500   0.005130
    10  H    0.490700  -0.173368   0.030806   0.015836  -0.067685  -0.008040
    11  H    0.042331   0.211935   0.000079   0.013276  -0.003904  -0.018824
    12  H    0.033070   0.002892  -0.055407   0.357669   0.002340  -0.010218
    13  H   -0.006120   0.017936  -0.078078   0.383273  -0.017417   0.062175
    14  H   -0.018332  -0.039765   0.018214  -0.053878   0.416405  -0.000462
    15  H   -0.070477   0.043255   0.006880  -0.028729   0.394458  -0.007827
    16  H    0.000634  -0.027296  -0.006549   0.021021  -0.000920   0.249822
    17  H    0.001904   0.014119   0.029983   0.005326  -0.002143  -0.126426
    18  H   -0.004000  -0.020916   0.014533   0.005050  -0.001181  -0.027424
    19  O    0.032462  -0.206078   0.032371  -0.003426   0.006701   0.065943
    20  H   -0.003773   0.035480  -0.002846  -0.000155  -0.000478   0.010931
    21  O    0.025925   0.014392   0.107592   0.043663  -0.038527  -0.439365
    22  H    0.005724  -0.010934  -0.009592   0.001113  -0.003687   0.078628
    23  C   -0.041150   0.226317   0.069632  -0.072757  -0.062052  -0.924714
    24  H   -0.005003   0.012260   0.005807   0.003336   0.001462  -0.130110
    25  H    0.001405   0.000376   0.018503   0.000535  -0.001761  -0.188699
    26  O   -0.001941   0.036739   0.020922  -0.016641  -0.003388  -0.164803
    27  H    0.001388   0.003401   0.013099  -0.001998   0.000189  -0.079839
              7          8          9         10         11         12
     1  C   -0.163702   0.117979   0.377870   0.490700   0.042331   0.033070
     2  C    0.868822  -0.915386  -0.071182  -0.173368   0.211935   0.002892
     3  N    0.042850   0.033933   0.013895   0.030806   0.000079  -0.055407
     4  C   -0.124847   0.271384   0.047410   0.015836   0.013276   0.357669
     5  C   -0.018526  -0.065977  -0.043500  -0.067685  -0.003904   0.002340
     6  C   -2.744734   0.602124   0.005130  -0.008040  -0.018824  -0.010218
     7  C    7.983959  -0.900259  -0.018038   0.013692   0.024249  -0.002928
     8  C   -0.900259   6.687835   0.028889   0.019811   0.003374  -0.004397
     9  H   -0.018038   0.028889   0.521357  -0.024320  -0.005375  -0.000114
    10  H    0.013692   0.019811  -0.024320   0.518809   0.004197  -0.000057
    11  H    0.024249   0.003374  -0.005375   0.004197   0.564177   0.000124
    12  H   -0.002928  -0.004397  -0.000114  -0.000057   0.000124   0.571520
    13  H    0.018211  -0.005844  -0.000100   0.001006  -0.000489  -0.046615
    14  H    0.006471   0.001980  -0.004955   0.004143   0.000774  -0.006673
    15  H    0.004999  -0.003647   0.000404  -0.005450  -0.000136   0.000388
    16  H    0.006426   0.008098   0.000005   0.000015   0.001866   0.000230
    17  H    0.380178   0.029631   0.000004  -0.000056  -0.000075   0.000012
    18  H    0.016764   0.321562  -0.000054   0.000025  -0.008230   0.000003
    19  O   -0.085669   0.181504   0.000130   0.001159   0.008506   0.000096
    20  H   -0.058269   0.032848  -0.000028   0.000071  -0.000255   0.000000
    21  O    0.366089  -0.044874   0.000663  -0.001165   0.000468   0.001299
    22  H   -0.038035  -0.052134   0.000003  -0.000524  -0.000055  -0.000013
    23  C    0.262817  -0.201630   0.000127  -0.001018  -0.003654   0.006628
    24  H    0.034790  -0.014912   0.000000   0.000005   0.000002  -0.000668
    25  H    0.043195  -0.001152   0.000000   0.000000   0.000004   0.000022
    26  O    0.039934  -0.022477  -0.000001   0.000017  -0.000119  -0.002568
    27  H    0.010494  -0.001485   0.000000   0.000000   0.000005   0.002524
             13         14         15         16         17         18
     1  C   -0.006120  -0.018332  -0.070477   0.000634   0.001904  -0.004000
     2  C    0.017936  -0.039765   0.043255  -0.027296   0.014119  -0.020916
     3  N   -0.078078   0.018214   0.006880  -0.006549   0.029983   0.014533
     4  C    0.383273  -0.053878  -0.028729   0.021021   0.005326   0.005050
     5  C   -0.017417   0.416405   0.394458  -0.000920  -0.002143  -0.001181
     6  C    0.062175  -0.000462  -0.007827   0.249822  -0.126426  -0.027424
     7  C    0.018211   0.006471   0.004999   0.006426   0.380178   0.016764
     8  C   -0.005844   0.001980  -0.003647   0.008098   0.029631   0.321562
     9  H   -0.000100  -0.004955   0.000404   0.000005   0.000004  -0.000054
    10  H    0.001006   0.004143  -0.005450   0.000015  -0.000056   0.000025
    11  H   -0.000489   0.000774  -0.000136   0.001866  -0.000075  -0.008230
    12  H   -0.046615  -0.006673   0.000388   0.000230   0.000012   0.000003
    13  H    0.550621   0.003984  -0.004132  -0.000462  -0.000212  -0.000004
    14  H    0.003984   0.524287  -0.025250   0.000007   0.000000   0.000003
    15  H   -0.004132  -0.025250   0.518023   0.000002   0.000000   0.000002
    16  H   -0.000462   0.000007   0.000002   0.560152   0.000186   0.000842
    17  H   -0.000212   0.000000   0.000000   0.000186   0.575052  -0.003622
    18  H   -0.000004   0.000003   0.000002   0.000842  -0.003622   0.548364
    19  O   -0.000490   0.000124   0.000022  -0.000355  -0.007265  -0.031279
    20  H    0.000004   0.000000   0.000000   0.000003   0.001724  -0.008024
    21  O   -0.017094  -0.000131  -0.000009   0.013188  -0.048458   0.005296
    22  H    0.000424   0.000000   0.000000  -0.000291   0.000506   0.001071
    23  C   -0.040837  -0.003180   0.001879   0.001520  -0.011740   0.011009
    24  H   -0.000499   0.000001   0.000006   0.004817   0.000096   0.000001
    25  H   -0.000027   0.000000   0.000000  -0.003609   0.001863   0.000008
    26  O    0.001801   0.000053  -0.000003  -0.000943  -0.000462   0.000068
    27  H   -0.000347  -0.000004   0.000001  -0.000405   0.000003   0.000000
             19         20         21         22         23         24
     1  C    0.032462  -0.003773   0.025925   0.005724  -0.041150  -0.005003
     2  C   -0.206078   0.035480   0.014392  -0.010934   0.226317   0.012260
     3  N    0.032371  -0.002846   0.107592  -0.009592   0.069632   0.005807
     4  C   -0.003426  -0.000155   0.043663   0.001113  -0.072757   0.003336
     5  C    0.006701  -0.000478  -0.038527  -0.003687  -0.062052   0.001462
     6  C    0.065943   0.010931  -0.439365   0.078628  -0.924714  -0.130110
     7  C   -0.085669  -0.058269   0.366089  -0.038035   0.262817   0.034790
     8  C    0.181504   0.032848  -0.044874  -0.052134  -0.201630  -0.014912
     9  H    0.000130  -0.000028   0.000663   0.000003   0.000127   0.000000
    10  H    0.001159   0.000071  -0.001165  -0.000524  -0.001018   0.000005
    11  H    0.008506  -0.000255   0.000468  -0.000055  -0.003654   0.000002
    12  H    0.000096   0.000000   0.001299  -0.000013   0.006628  -0.000668
    13  H   -0.000490   0.000004  -0.017094   0.000424  -0.040837  -0.000499
    14  H    0.000124   0.000000  -0.000131   0.000000  -0.003180   0.000001
    15  H    0.000022   0.000000  -0.000009   0.000000   0.001879   0.000006
    16  H   -0.000355   0.000003   0.013188  -0.000291   0.001520   0.004817
    17  H   -0.007265   0.001724  -0.048458   0.000506  -0.011740   0.000096
    18  H   -0.031279  -0.008024   0.005296   0.001071   0.011009   0.000001
    19  O    8.391773   0.233121  -0.026886   0.042985  -0.008764  -0.000042
    20  H    0.233121   0.352433   0.000853  -0.003038  -0.000909   0.000000
    21  O   -0.026886   0.000853   8.329778   0.237930   0.045836   0.008809
    22  H    0.042985  -0.003038   0.237930   0.356371  -0.000981  -0.000068
    23  C   -0.008764  -0.000909   0.045836  -0.000981   5.814939   0.437816
    24  H   -0.000042   0.000000   0.008809  -0.000068   0.437816   0.561572
    25  H    0.000033   0.000000  -0.000742  -0.000038   0.509460  -0.032231
    26  O    0.000012   0.000000   0.000051  -0.000016   0.256525  -0.044750
    27  H   -0.000002   0.000000  -0.000184  -0.000001   0.054515  -0.008900
             25         26         27
     1  C    0.001405  -0.001941   0.001388
     2  C    0.000376   0.036739   0.003401
     3  N    0.018503   0.020922   0.013099
     4  C    0.000535  -0.016641  -0.001998
     5  C   -0.001761  -0.003388   0.000189
     6  C   -0.188699  -0.164803  -0.079839
     7  C    0.043195   0.039934   0.010494
     8  C   -0.001152  -0.022477  -0.001485
     9  H    0.000000  -0.000001   0.000000
    10  H    0.000000   0.000017   0.000000
    11  H    0.000004  -0.000119   0.000005
    12  H    0.000022  -0.002568   0.002524
    13  H   -0.000027   0.001801  -0.000347
    14  H    0.000000   0.000053  -0.000004
    15  H    0.000000  -0.000003   0.000001
    16  H   -0.003609  -0.000943  -0.000405
    17  H    0.001863  -0.000462   0.000003
    18  H    0.000008   0.000068   0.000000
    19  O    0.000033   0.000012  -0.000002
    20  H    0.000000   0.000000   0.000000
    21  O   -0.000742   0.000051  -0.000184
    22  H   -0.000038  -0.000016  -0.000001
    23  C    0.509460   0.256525   0.054515
    24  H   -0.032231  -0.044750  -0.008900
    25  H    0.532570  -0.058181   0.006192
    26  O   -0.058181   8.248018   0.252912
    27  H    0.006192   0.252912   0.374436
 Mulliken atomic charges:
              1
     1  C   -0.364385
     2  C   -0.113611
     3  N   -0.222982
     4  C   -0.129086
     5  C   -0.487551
     6  C    0.240533
     7  C    0.031069
     8  C   -0.106776
     9  H    0.171780
    10  H    0.181390
    11  H    0.165748
    12  H    0.150841
    13  H    0.179330
    14  H    0.176183
    15  H    0.175342
    16  H    0.171997
    17  H    0.159874
    18  H    0.180131
    19  O   -0.626688
    20  H    0.410307
    21  O   -0.584396
    22  H    0.394651
    23  C   -0.325633
    24  H    0.166404
    25  H    0.172274
    26  O   -0.540755
    27  H    0.374007
 Sum of Mulliken atomic charges =   0.00000
 Mulliken charges with hydrogens summed into heavy atoms:
              1
     1  C   -0.011214
     2  C    0.052137
     3  N   -0.222982
     4  C    0.201086
     5  C   -0.136026
     6  C    0.412530
     7  C    0.190943
     8  C    0.073355
    19  O   -0.216381
    21  O   -0.189745
    23  C    0.013045
    26  O   -0.166748
 Sum of Mulliken charges with hydrogens summed into heavy atoms =   0.00000
 Electronic spatial extent (au):  <R**2>=           1980.3250
 Charge=              0.0000 electrons
 Dipole moment (field-independent basis, Debye):
    X=             -3.5303    Y=             -1.2750    Z=             -0.4585  Tot=              3.7814
 Quadrupole moment (field-independent basis, Debye-Ang):
   XX=            -82.6073   YY=            -61.9925   ZZ=            -75.7795
   XY=              7.3241   XZ=              4.5885   YZ=              5.5965
 Traceless Quadrupole moment (field-independent basis, Debye-Ang):
   XX=             -9.1475   YY=             11.4673   ZZ=             -2.3197
   XY=              7.3241   XZ=              4.5885   YZ=              5.5965
 Octapole moment (field-independent basis, Debye-Ang**2):
  XXX=            -46.8227  YYY=            -26.3552  ZZZ=             -0.1577  XYY=            -12.1281
  XXY=             -5.5778  XXZ=             12.4221  XZZ=            -10.2576  YZZ=             -2.1452
  YYZ=             -4.3187  XYZ=              0.8360
 Hexadecapole moment (field-independent basis, Debye-Ang**3):
 XXXX=          -1565.7103 YYYY=           -840.7807 ZZZZ=           -313.5229 XXXY=             91.4760
 XXXZ=             39.1989 YYYX=             75.1895 YYYZ=              9.2452 ZZZX=             -3.2707
 ZZZY=              8.7032 XXYY=           -282.4793 XXZZ=           -272.6909 YYZZ=           -206.5381
 XXYZ=             -7.5226 YYXZ=             -0.6545 ZZXY=             10.8298
 N-N= 8.136285213736D+02 E-N=-3.013234108645D+03  KE= 5.886545329883D+02
 1\1\GINC-COMPUTE-3-1\SP\RmPW1PW91\6-31+G(d,p)\C8H15N1O3\MAMICHETTI.IQU
 IR\17-May-2024\0\\# mpw1pw91/6-31+G** nmr scrf=(pcm,solvent=water)\\co
 mment\\0,1\C,0,-1.831573,1.418608,0.042323\C,0,-1.05636,0.478617,-0.90
 17\N,0,0.400638,0.728723,-0.629008\C,0,0.481862,1.640786,0.537374\C,0,
 -0.787075,2.480896,0.414036\C,0,1.043094,-0.603314,-0.496565\C,0,-0.03
 7899,-1.55744,0.024905\C,0,-1.289611,-1.050051,-0.723046\H,0,-2.727983
 ,1.831727,-0.429722\H,0,-2.146602,0.884221,0.943287\H,0,-1.277631,0.74
 0277,-1.942657\H,0,1.398706,2.241513,0.494452\H,0,0.473355,1.113644,1.
 500825\H,0,-0.681045,3.219706,-0.38965\H,0,-1.027132,3.016007,1.338195
 \H,0,1.278812,-0.955569,-1.512419\H,0,0.190167,-2.604148,-0.221662\H,0
 ,-1.340759,-1.533537,-1.704033\O,0,-2.49176,-1.319664,0.005713\H,0,-2.
 71204,-2.255636,-0.139327\O,0,-0.232057,-1.424302,1.435906\H,0,-1.1992
 89,-1.507162,1.557644\C,0,2.357511,-0.637873,0.27762\H,0,2.233002,-0.2
 75061,1.303685\H,0,2.688612,-1.679753,0.335652\O,0,3.415195,0.071609,-
 0.37941\H,0,3.234635,1.020199,-0.278554\\Version=AM64L-G09RevC.01\Stat
 e=1-A\HF=-594.1913315\RMSD=4.461e-09\Dipole=-1.3889391,-0.5016122,-0.1
 80374\Quadrupole=-6.8009708,8.5256405,-1.7246697,5.4453195,3.4114617,4
 .1608551\PG=C01 [X(C8H15N1O3)]\\@


 Mondays are the potholes in the road of life.
                                -- Tom Wilson
 Job cpu time:  0 days  0 hours  9 minutes  1.0 seconds.
 File lengths (MBytes):  RWF=    111 Int=      0 D2E=      0 Chk=      7 Scr=      1
 Normal termination of Gaussian 09 at Fri May 17 12:50:13 2024.
