 Entering Gaussian System, Link 0=g09
 Input=/home/lpassaglia.iquir/Link1/01_RRSS_THC_009.gjc
 Output=/home/lpassaglia.iquir/Link1/01_RRSS_THC_009.log
 Initial command:
 /share/apps/Gaussian09/EM64T.SSE4.2-enabled/g09/l1.exe /tmp/Gau-24805.inp -scrdir=/tmp/
 Entering Link 1 = /share/apps/Gaussian09/EM64T.SSE4.2-enabled/g09/l1.exe PID=     24806.
  
 Copyright (c) 1988,1990,1992,1993,1995,1998,2003,2009,2011,
            Gaussian, Inc.  All Rights Reserved.
  
 This is part of the Gaussian(R) 09 program.  It is based on
 the Gaussian(R) 03 system (copyright 2003, Gaussian, Inc.),
 the Gaussian(R) 98 system (copyright 1998, Gaussian, Inc.),
 the Gaussian(R) 94 system (copyright 1995, Gaussian, Inc.),
 the Gaussian 92(TM) system (copyright 1992, Gaussian, Inc.),
 the Gaussian 90(TM) system (copyright 1990, Gaussian, Inc.),
 the Gaussian 88(TM) system (copyright 1988, Gaussian, Inc.),
 the Gaussian 86(TM) system (copyright 1986, Carnegie Mellon
 University), and the Gaussian 82(TM) system (copyright 1983,
 Carnegie Mellon University). Gaussian is a federally registered
 trademark of Gaussian, Inc.
  
 This software contains proprietary and confidential information,
 including trade secrets, belonging to Gaussian, Inc.
  
 This software is provided under written license and may be
 used, copied, transmitted, or stored only in accord with that
 written license.
  
 The following legend is applicable only to US Government
 contracts under FAR:
  
                    RESTRICTED RIGHTS LEGEND
  
 Use, reproduction and disclosure by the US Government is
 subject to restrictions as set forth in subparagraphs (a)
 and (c) of the Commercial Computer Software - Restricted
 Rights clause in FAR 52.227-19.
  
 Gaussian, Inc.
 340 Quinnipiac St., Bldg. 40, Wallingford CT 06492
  
  
 ---------------------------------------------------------------
 Warning -- This program may not be used in any manner that
 competes with the business of Gaussian, Inc. or will provide
 assistance to any competitor of Gaussian, Inc.  The licensee
 of this program is prohibited from giving any competitor of
 Gaussian, Inc. access to this program.  By using this program,
 the user acknowledges that Gaussian, Inc. is engaged in the
 business of creating and licensing software in the field of
 computational chemistry and represents and warrants to the
 licensee that it is not a competitor of Gaussian, Inc. and that
 it will not use this program in any manner prohibited above.
 ---------------------------------------------------------------
  

 Cite this work as:
 Gaussian 09, Revision C.01,
 M. J. Frisch, G. W. Trucks, H. B. Schlegel, G. E. Scuseria, 
 M. A. Robb, J. R. Cheeseman, G. Scalmani, V. Barone, B. Mennucci, 
 G. A. Petersson, H. Nakatsuji, M. Caricato, X. Li, H. P. Hratchian, 
 A. F. Izmaylov, J. Bloino, G. Zheng, J. L. Sonnenberg, M. Hada, 
 M. Ehara, K. Toyota, R. Fukuda, J. Hasegawa, M. Ishida, T. Nakajima, 
 Y. Honda, O. Kitao, H. Nakai, T. Vreven, J. A. Montgomery, Jr., 
 J. E. Peralta, F. Ogliaro, M. Bearpark, J. J. Heyd, E. Brothers, 
 K. N. Kudin, V. N. Staroverov, T. Keith, R. Kobayashi, J. Normand, 
 K. Raghavachari, A. Rendell, J. C. Burant, S. S. Iyengar, J. Tomasi, 
 M. Cossi, N. Rega, J. M. Millam, M. Klene, J. E. Knox, J. B. Cross, 
 V. Bakken, C. Adamo, J. Jaramillo, R. Gomperts, R. E. Stratmann, 
 O. Yazyev, A. J. Austin, R. Cammi, C. Pomelli, J. W. Ochterski, 
 R. L. Martin, K. Morokuma, V. G. Zakrzewski, G. A. Voth, 
 P. Salvador, J. J. Dannenberg, S. Dapprich, A. D. Daniels, 
 O. Farkas, J. B. Foresman, J. V. Ortiz, J. Cioslowski, 
 and D. J. Fox, Gaussian, Inc., Wallingford CT, 2010.
 
 ******************************************
 Gaussian 09:  EM64L-G09RevC.01 23-Sep-2011
                23-Dec-2022 
 ******************************************
 %chk=01_RRSS_THC_009_optB_NMR
 %nprocshared=4
 Will use up to    4 processors via shared memory.
 ------------------------------------------------
 # mPW1PW91/6-31+G** scrf=(PCM,solvent=water) nmr
 ------------------------------------------------
 1/38=1/1;
 2/12=2,17=6,18=5,40=1/2;
 3/5=1,6=6,7=111,11=2,16=1,25=1,30=1,70=2201,72=1,74=-7/1,2,8,3;
 4//1;
 5/5=2,38=5,53=1/2;
 8/6=1,10=90,11=11/1;
 10/13=100,45=16/2;
 6/7=2,8=2,9=2,10=2,28=1/1;
 99/9=1/99;
 -------
 comment
 -------
 Charge =  0 Multiplicity = 1
 Symbolic Z-Matrix:
 6                    -1.85527   0.64462  -2.68371 
 6                    -2.62206   1.76248  -1.95707 
 1                    -2.07476   2.71039  -2.03349 
 1                    -3.59908   1.91526  -2.43291 
 6                    -2.86225   1.44383  -0.47907 
 1                    -3.35513   2.3045   -0.00897 
 6                    -1.55764   1.10941   0.2754 
 1                    -0.9436    2.01821   0.24967 
 6                    -0.78305  -0.02759  -0.46237 
 1                    -1.468    -0.88432  -0.48806 
 6                    -0.521     0.33879  -1.94792 
 1                    -0.01678  -0.50862  -2.43112 
 6                     0.50138  -0.48728   0.2354 
 6                     2.78373  -1.40761   1.67137 
 6                     1.54165   0.3811    0.601 
 6                     0.668    -1.8434    0.56841 
 6                     1.78632  -2.30233   1.27378 
 6                     2.6543   -0.06186   1.31976 
 1                     1.88996  -3.35576   1.518 
 1                     3.4264    0.65503   1.58947 
 8                    -0.28546  -2.74967   0.18349 
 1                    -0.09645  -3.59917   0.61455 
 8                     1.55899   1.70565   0.26074 
 1                     1.05345   1.79267  -0.57635 
 8                     0.35975   1.4733   -2.03155 
 1                     0.73398   1.4762   -2.93284 
 6                    -1.61971   1.04693  -4.14381 
 1                    -2.57291   1.15777  -4.67381 
 1                    -1.05996   0.26817  -4.67412 
 1                    -1.06997   1.98921  -4.23095 
 8                    -2.68856  -0.52109  -2.70104 
 1                    -2.19063  -1.25208  -3.1065 
 1                    -3.56769   0.60583  -0.40487 
 6                    -1.88203   0.82455   1.74317 
 6                    -2.42613  -0.32586   2.1762 
 1                    -2.63735  -0.49342   3.22763 
 1                    -2.67434  -1.13326   1.49454 
 6                    -1.54892   1.9318    2.70632 
 1                    -0.47481   2.14245   2.68671 
 1                    -1.81925   1.6783    3.7368 
 1                    -2.08919   2.84477   2.43578 
 6                     3.99556  -1.88779   2.42599 
 1                     4.35022  -1.09612   3.09723 
 1                     3.71796  -2.73004   3.07144 
 6                     5.11722  -2.307     1.48808 
 1                     5.98279  -2.65065   2.06323 
 1                     5.43941  -1.47253   0.85599 
 1                     4.80092  -3.12373   0.83037 
 
                          Input orientation:                          
 ---------------------------------------------------------------------
 Center     Atomic      Atomic             Coordinates (Angstroms)
 Number     Number       Type             X           Y           Z
 ---------------------------------------------------------------------
      1          6           0       -1.855267    0.644619   -2.683713
      2          6           0       -2.622058    1.762476   -1.957067
      3          1           0       -2.074763    2.710390   -2.033494
      4          1           0       -3.599079    1.915258   -2.432906
      5          6           0       -2.862252    1.443830   -0.479074
      6          1           0       -3.355131    2.304501   -0.008972
      7          6           0       -1.557639    1.109415    0.275396
      8          1           0       -0.943605    2.018207    0.249669
      9          6           0       -0.783053   -0.027594   -0.462373
     10          1           0       -1.468005   -0.884323   -0.488060
     11          6           0       -0.521003    0.338793   -1.947918
     12          1           0       -0.016778   -0.508619   -2.431116
     13          6           0        0.501380   -0.487277    0.235403
     14          6           0        2.783730   -1.407613    1.671373
     15          6           0        1.541652    0.381101    0.601003
     16          6           0        0.667996   -1.843398    0.568412
     17          6           0        1.786315   -2.302330    1.273778
     18          6           0        2.654300   -0.061865    1.319756
     19          1           0        1.889961   -3.355764    1.518000
     20          1           0        3.426402    0.655028    1.589474
     21          8           0       -0.285457   -2.749675    0.183490
     22          1           0       -0.096448   -3.599172    0.614552
     23          8           0        1.558988    1.705650    0.260740
     24          1           0        1.053447    1.792668   -0.576349
     25          8           0        0.359753    1.473299   -2.031547
     26          1           0        0.733979    1.476199   -2.932837
     27          6           0       -1.619711    1.046930   -4.143813
     28          1           0       -2.572905    1.157773   -4.673809
     29          1           0       -1.059962    0.268166   -4.674115
     30          1           0       -1.069971    1.989213   -4.230948
     31          8           0       -2.688560   -0.521089   -2.701045
     32          1           0       -2.190625   -1.252080   -3.106504
     33          1           0       -3.567691    0.605832   -0.404874
     34          6           0       -1.882032    0.824552    1.743173
     35          6           0       -2.426127   -0.325856    2.176199
     36          1           0       -2.637351   -0.493422    3.227633
     37          1           0       -2.674340   -1.133260    1.494537
     38          6           0       -1.548918    1.931801    2.706316
     39          1           0       -0.474809    2.142448    2.686713
     40          1           0       -1.819249    1.678295    3.736804
     41          1           0       -2.089190    2.844771    2.435779
     42          6           0        3.995556   -1.887791    2.425987
     43          1           0        4.350222   -1.096123    3.097234
     44          1           0        3.717957   -2.730044    3.071443
     45          6           0        5.117225   -2.307005    1.488080
     46          1           0        5.982793   -2.650648    2.063234
     47          1           0        5.439408   -1.472531    0.855989
     48          1           0        4.800916   -3.123735    0.830370
 ---------------------------------------------------------------------
                    Distance matrix (angstroms):
                    1          2          3          4          5
     1  C    0.000000
     2  C    1.538047   0.000000
     3  H    2.176781   1.097231   0.000000
     4  H    2.172167   1.097422   1.765022   0.000000
     5  C    2.552095   1.530912   2.154191   2.140706   0.000000
     6  H    3.486981   2.150875   2.429564   2.467079   1.097579
     7  C    3.010140   2.558000   2.856836   3.485937   1.543720
     8  H    3.364907   2.784293   2.640354   3.776023   2.131239
     9  C    2.556534   2.969916   3.410791   3.948123   2.547241
    10  H    2.703429   3.239655   3.959607   4.020144   2.713725
    11  C    1.554086   2.537989   2.836541   3.492135   2.976585
    12  H    2.184904   3.488564   3.841279   4.325282   3.964750
    13  C    3.918700   4.429918   4.691426   5.450303   3.943814
    14  C    6.685710   7.241380   7.368103   8.284131   6.680738
    15  C    4.732637   5.078228   5.044266   6.163226   4.657287
    16  C    4.809719   5.495892   5.918583   6.429878   4.936167
    17  C    6.132485   6.811371   7.139562   7.780105   6.222169
    18  C    6.071497   6.473464   6.426019   7.556205   5.994601
    19  H    6.905374   7.657074   8.070339   8.574549   7.043290
    20  H    6.793840   7.098469   6.900234   8.192991   6.666953
    21  O    4.712365   5.513728   6.158648   6.291838   4.966321
    22  H    5.655241   6.460588   7.122952   7.208631   5.854704
    23  O    4.631709   4.733185   4.413293   5.822827   4.490349
    24  H    3.770891   3.926402   3.570880   5.010771   3.932410
    25  O    2.453231   2.996727   2.730800   4.003594   3.576641
    26  H    2.730895   3.506718   3.197042   4.383845   4.353720
    27  C    1.532721   2.509694   2.725366   2.756645   3.889956
    28  H    2.176882   2.783661   3.103229   2.578461   4.214423
    29  H    2.176219   3.472097   3.737266   3.766038   4.714744
    30  H    2.195122   2.762412   2.521608   3.103999   4.193600
    31  O    1.433022   2.402622   3.356311   2.614714   2.971234
    32  H    1.971974   3.254979   4.106816   3.531219   3.823925
    33  H    2.850791   2.154379   3.051295   2.414228   1.097902
    34  C    4.430622   3.888330   4.225724   4.645162   2.506534
    35  C    4.988631   4.635019   5.202284   5.257590   3.220631
    36  H    6.070487   5.654240   6.185498   6.226425   4.188461
    37  H    4.614055   4.505729   5.251680   5.057016   3.251437
    38  C    5.550054   4.788261   4.832030   5.533086   3.479895
    39  H    5.743747   5.130278   5.016250   6.001931   4.026184
    40  H    6.503293   5.750805   5.867440   6.425673   4.349305
    41  H    5.577148   4.555481   4.471316   5.181491   3.325150
    42  C    8.170328   8.736614   8.824909   9.785219   8.158958
    43  H    8.657807   9.073601   9.060593  10.141117   8.441630
    44  H    8.693158   9.255509   9.445333  10.267215   8.563092
    45  C    8.644743   9.398202   9.449890  10.448712   9.033853
    46  H    9.737940  10.472915  10.509430  11.527143  10.072879
    47  H    8.379981   9.130486   9.072414  10.197459   8.899725
    48  H    8.417484   9.313721   9.461167  10.324743   9.016730
                    6          7          8          9         10
     6  H    0.000000
     7  C    2.177171   0.000000
     8  H    2.442195   1.097088   0.000000
     9  C    3.501403   1.561113   2.172115   0.000000
    10  H    3.736224   2.136794   3.040381   1.097179   0.000000
    11  C    3.956741   2.571303   2.797930   1.552339   2.126972
    12  H    4.992497   3.509628   3.798745   2.166682   2.454115
    13  C    4.767223   2.605874   2.892340   1.532308   2.135303
    14  C    7.368104   5.208807   5.258375   4.379414   4.797315
    15  C    5.296227   3.200322   2.996673   2.588832   3.441713
    16  C    5.807235   3.709233   4.196528   2.542676   2.568746
    17  C    7.021596   4.880451   5.212323   3.845816   3.963006
    18  C    6.593820   4.494776   4.291469   3.872022   4.575809
    19  H    7.866462   5.776489   6.206233   4.705698   4.626903
    20  H    7.159957   5.174353   4.769727   4.732395   5.535428
    21  O    5.916471   4.064415   4.813547   2.841560   2.308449
    22  H    6.772086   4.941750   5.692606   3.793067   3.235325
    23  O    4.957815   3.173180   2.522059   3.002030   4.053560
    24  H    4.474310   2.830207   2.172876   2.588258   3.678559
    25  O    4.310693   3.021720   2.683210   2.453772   3.358784
    26  H    5.094693   3.959647   3.638187   3.265881   4.049412
    27  C    4.657261   4.420087   4.550075   3.925252   4.137304
    28  H    4.866988   5.052498   5.256958   4.727036   4.786592
    29  H    5.583729   5.045100   5.226838   4.231185   4.360939
    30  H    4.811076   4.617250   4.482492   4.283923   4.735489
    31  O    3.959233   3.577250   4.266099   2.980963   2.553232
    32  H    4.857987   4.173077   4.849095   3.236055   2.741108
    33  H    1.757098   2.180979   3.051074   2.856351   2.576075
    34  C    2.725854   1.529950   2.129792   2.607363   2.840787
    35  C    3.543556   2.535217   3.376984   3.122613   2.885855
    36  H    4.338109   3.528537   4.247980   4.155907   3.914914
    37  H    3.813425   2.786201   3.804850   2.937509   2.334075
    38  C    3.282392   2.566276   2.531598   3.803468   4.259242
    39  H    3.948320   2.837980   2.484832   3.836774   4.497440
    40  H    4.096572   3.517586   3.611427   4.649392   4.953772
    41  H    2.805584   2.821571   2.602816   4.284362   4.779210
    42  C    8.805506   6.666803   6.662469   5.885411   6.272887
    43  H    8.976927   6.908689   6.769954   6.337434   6.837467
    44  H    9.212175   7.098678   7.227618   6.328521   6.555223
    45  C    9.761555   7.595810   7.548164   6.619159   7.020997
    46  H   10.772388   8.613509   8.547643   7.683474   8.071145
    47  H    9.610309   7.480788   7.300392   6.522648   7.061501
    48  H    9.833175   7.658901   7.731513   6.514444   6.786206
                   11         12         13         14         15
    11  C    0.000000
    12  H    1.098103   0.000000
    13  C    2.548440   2.716480   0.000000
    14  C    5.202929   5.047916   2.849237   0.000000
    15  C    3.279228   3.523357   1.403534   2.426510   0.000000
    16  C    3.536607   3.353761   1.406315   2.425441   2.390132
    17  C    4.762203   4.493861   2.454323   1.397654   2.777281
    18  C    4.573923   4.626368   2.447828   1.396934   1.396714
    19  H    5.610266   5.228518   3.435321   2.148870   3.863465
    20  H    5.309911   5.419844   3.419667   2.161994   2.145786
    21  O    3.759922   3.454082   2.395882   3.665356   3.648890
    22  H    4.717422   4.339810   3.191402   3.770309   4.304199
    23  O    3.327587   3.825195   2.434770   3.630742   1.367666
    24  H    2.544376   3.143479   2.482311   4.276439   1.901847
    25  O    1.438690   2.056558   3.000496   5.280808   3.085466
    26  H    1.959270   2.180565   3.734580   5.806600   3.786766
    27  C    2.555499   2.814687   5.101995   7.696198   5.740281
    28  H    3.508777   3.786862   6.021444   8.691150   6.734719
    29  H    2.779859   2.592812   5.206904   7.605749   5.882858
    30  H    2.870101   3.253886   5.343261   7.824758   5.723141
    31  O    2.450489   2.685411   4.335848   7.060447   5.441705
    32  H    2.580859   2.394680   4.358916   6.899022   5.508427
    33  H    3.425581   4.237527   4.261710   6.978919   5.212262
    34  C    3.963902   4.762479   3.110453   5.172722   3.636319
    35  C    4.591252   5.202472   3.516112   5.344873   4.327158
    36  H    5.653127   6.236111   4.336486   5.713652   5.012788
    37  H    4.319062   4.781586   3.476767   5.467822   4.567962
    38  C    5.025553   5.890357   4.020083   5.567283   4.048288
    39  H    4.973441   5.781878   3.725227   4.924624   3.393913
    40  H    5.982957   6.787837   4.725974   5.914073   4.776151
    41  H    5.287337   6.263128   4.759753   6.512483   4.755952
    42  C    6.669935   6.449216   4.355384   1.506165   3.807898
    43  H    7.158308   7.069548   4.834704   2.141028   4.037503
    44  H    7.251243   7.011500   4.839370   2.140514   4.529746
    45  C    7.113082   6.704646   5.117288   2.507528   4.560432
    46  H    8.205209   7.796302   6.169849   3.454373   5.572554
    47  H    6.831492   6.442371   5.073458   2.778792   4.323595
    48  H    6.930426   6.378581   5.078475   2.778740   4.791585
                   16         17         18         19         20
    16  C    0.000000
    17  C    1.399571   0.000000
    18  C    2.771964   2.403164   0.000000
    19  H    2.163832   1.086328   3.387224   0.000000
    20  H    3.859210   3.396397   1.087577   4.295604   0.000000
    21  O    1.370611   2.383503   4.142172   2.623109   5.229406
    22  H    1.915528   2.379323   4.536130   2.195743   5.608847
    23  O    3.672094   4.140270   2.333523   5.225721   2.521225
    24  H    3.831452   4.552919   3.097940   5.620712   3.408215
    25  O    4.225551   5.216860   4.341993   6.185521   4.815153
    26  H    4.825228   5.751549   4.913025   6.670391   5.326797
    27  C    5.982697   7.222802   7.024755   7.984839   7.647708
    28  H    6.855024   8.145485   8.045745   8.867226   8.687529
    29  H    5.910045   7.077159   7.059118   7.757397   7.714251
    30  H    6.383047   7.541733   6.991954   8.389302   7.474941
    31  O    4.868707   6.244721   6.702527   6.840948   7.562047
    32  H    4.693226   6.008823   6.669459   6.516341   7.565729
    33  H    4.988692   6.319863   6.491019   7.012678   7.273044
    34  C    3.873069   4.842985   4.641479   5.635040   5.313364
    35  C    3.802829   4.739777   5.158869   5.314337   5.963093
    36  H    4.451878   5.163189   5.641615   5.622490   6.385265
    37  H    3.540228   4.616591   5.438092   5.076704   6.358148
    38  C    4.872111   5.577079   4.854307   6.418436   5.256548
    39  H    4.656197   5.183157   4.064344   6.098226   4.316920
    40  H    5.350460   5.908635   5.374283   6.634989   5.759770
    41  H    5.750483   6.546941   5.674040   7.424459   5.994411
    42  C    3.811196   2.525900   2.521254   2.722667   2.736717
    43  H    4.529034   3.369502   2.665571   3.694975   2.488637
    44  H    4.043955   2.673158   3.364366   2.479169   3.706744
    45  C    4.566877   3.337799   3.336912   3.393527   3.412154
    46  H    5.579715   4.284272   4.281755   4.188764   4.205600
    47  H    4.794436   3.769376   3.156245   4.072272   3.019387
    48  H    4.334618   3.155809   3.771274   3.000056   4.092013
                   21         22         23         24         25
    21  O    0.000000
    22  H    0.971176   0.000000
    23  O    4.822641   5.568374   0.000000
    24  H    4.796133   5.640252   0.981764   0.000000
    25  O    4.812088   5.739331   2.597447   1.643414   0.000000
    26  H    5.348716   6.247637   3.306391   2.399010   0.975898
    27  C    5.909315   6.822656   5.471575   4.519812   2.926045
    28  H    6.640326   7.531808   6.459295   5.508421   3.959999
    29  H    5.770923   6.622285   5.768713   4.856160   3.232816
    30  H    6.523786   7.460339   5.212206   4.231268   2.673508
    31  O    4.366010   5.214098   5.636683   4.885736   3.703784
    32  H    4.086137   4.872440   5.843466   5.118220   3.884282
    33  H    4.730609   5.547145   5.285402   4.774191   4.338592
    34  C    4.213878   4.902186   3.848969   3.864514   4.437904
    35  C    3.798455   4.310539   4.865916   4.916513   5.357538
    36  H    4.459697   4.788535   5.589959   5.772217   6.364716
    37  H    3.168345   3.674320   5.244305   5.171656   5.332274
    38  C    5.466004   6.089073   3.961195   4.191367   5.128411
    39  H    5.498622   6.115816   3.195695   3.620150   4.837999
    40  H    5.880942   6.369314   4.847293   5.183508   6.169599
    41  H    6.294766   6.986579   4.397453   4.478393   5.275913
    42  C    4.909043   4.791098   4.851596   5.587110   6.662252
    43  H    5.719585   5.674667   4.866890   5.719182   6.987859
    44  H    4.936393   4.619673   5.677727   6.392255   7.415264
    45  C    5.575561   5.441979   5.501710   6.130536   7.022251
    46  H    6.544784   6.321040   6.465011   7.142051   8.086578
    47  H    5.904017   5.935200   5.051021   5.652412   6.543597
    48  H    5.140968   4.925118   5.844445   6.339826   7.003371
                   26         27         28         29         30
    26  H    0.000000
    27  C    2.681528   0.000000
    28  H    3.750715   1.096249   0.000000
    29  H    2.776620   1.095907   1.755107   0.000000
    30  H    2.280902   1.094396   1.773761   1.777217   0.000000
    31  O    3.969466   2.383842   2.593020   2.677361   3.355898
    32  H    4.003371   2.586001   2.899996   2.459055   3.609185
    33  H    5.064830   4.238969   4.417924   4.962776   4.774012
    34  C    5.397521   5.897022   6.462662   6.493608   6.140521
    35  C    6.271836   6.517469   7.010372   7.010426   6.946239
    36  H    7.293605   7.599112   8.072385   8.093566   8.015647
    37  H    6.166649   6.136487   6.580853   6.528590   6.716027
    38  C    6.100758   6.907408   7.490923   7.581393   6.954015
    39  H    5.786570   7.011922   7.716792   7.618210   6.944907
    40  H    7.144504   7.908386   8.460340   8.562041   8.008943
    41  H    6.218144   6.836935   7.322990   7.632090   6.798238
    42  C    7.118378   9.127217  10.140378   8.978745   9.219843
    43  H    7.487043   9.626294  10.648890   9.566883   9.622892
    44  H    7.915048   9.737359  10.708828   9.581829   9.925752
    45  C    7.284915   9.399649  10.445653   9.097351   9.457598
    46  H    8.339163  10.487974  11.536542  10.174072  10.530267
    47  H    6.722445   9.009820  10.084361   8.709413   8.957266
    48  H    7.201464   9.130246  10.148918   8.726639   9.285822
                   31         32         33         34         35
    31  O    0.000000
    32  H    0.972977   0.000000
    33  H    2.704667   3.556255   0.000000
    34  C    4.712993   5.284599   2.739231   0.000000
    35  C    4.888199   5.368454   2.972061   1.344243   0.000000
    36  H    5.928964   6.395031   3.907557   2.123956   1.085453
    37  H    4.240031   4.627923   2.725854   2.126641   1.085437
    38  C    6.046073   6.658660   3.938672   1.504862   2.479422
    39  H    6.404924   6.930238   4.635193   2.146484   3.187600
    40  H    6.858490   7.453582   4.621766   2.169651   2.611592
    41  H    6.170511   6.892849   3.907444   2.145670   3.199028
    42  C    8.534151   8.323546   8.451901   6.509154   6.613626
    43  H    9.137568   9.016283   8.823534   6.660591   6.881899
    44  H    8.901941   8.675410   8.734616   6.764565   6.658179
    45  C    9.037064   8.696421   9.353911   7.672113   7.829471
    46  H   10.120560   9.771742  10.387875   8.604355   8.725099
    47  H    8.923093   8.600427   9.329372   7.724453   8.057571
    48  H    8.679683   8.239157   9.244948   7.815624   7.865719
                   36         37         38         39         40
    36  H    0.000000
    37  H    1.847805   0.000000
    38  C    2.708905   3.482755   0.000000
    39  H    3.452101   4.121830   1.094745   0.000000
    40  H    2.375901   3.696456   1.095102   1.767950   0.000000
    41  H    3.474342   4.129536   1.094805   1.778328   1.768106
    42  C    6.825127   6.776757   6.738624   6.024530   6.946018
    43  H    7.014730   7.205171   6.642364   5.825615   6.794764
    44  H    6.739200   6.774793   7.043159   6.439603   7.108925
    45  C    8.151600   7.879480   7.993062   7.246046   8.309876
    46  H    8.961938   8.807488   8.839630   8.066171   9.078130
    47  H    8.474514   8.145904   7.990612   7.169210   8.421098
    48  H    8.245801   7.764185   8.330547   7.681924   8.679483
                   41         42         43         44         45
    41  H    0.000000
    42  C    7.708526   0.000000
    43  H    7.578535   1.096859   0.000000
    44  H    8.074998   1.096843   1.752177   0.000000
    45  C    8.909059   1.521036   2.154972   2.154983   0.000000
    46  H    9.772171   2.159317   2.480119   2.480377   1.094578
    47  H    8.821259   2.173027   2.520156   3.074568   1.095302
    48  H    9.256023   2.173052   3.074574   2.519961   1.095300
                   46         47         48
    46  H    0.000000
    47  H    1.772193   0.000000
    48  H    1.772174   1.770538   0.000000
 Stoichiometry    C18H26O4
 Framework group  C1[X(C18H26O4)]
 Deg. of freedom   138
 Full point group                 C1      NOp   1
 Largest Abelian subgroup         C1      NOp   1
 Largest concise Abelian subgroup C1      NOp   1
                         Standard orientation:                         
 ---------------------------------------------------------------------
 Center     Atomic      Atomic             Coordinates (Angstroms)
 Number     Number       Type             X           Y           Z
 ---------------------------------------------------------------------
      1          6           0       -3.036351   -1.285991    0.187022
      2          6           0       -3.683859   -0.055108   -0.469673
      3          1           0       -3.657459   -0.149462   -1.562520
      4          1           0       -4.739538    0.011932   -0.177471
      5          6           0       -2.999040    1.253252   -0.066052
      6          1           0       -3.467463    2.079875   -0.615556
      7          6           0       -1.479629    1.236209   -0.338396
      8          1           0       -1.361032    1.146328   -1.425345
      9          6           0       -0.824489   -0.012203    0.331928
     10          1           0       -1.043775    0.077469    1.403224
     11          6           0       -1.514277   -1.325925   -0.124233
     12          1           0       -1.048733   -2.165897    0.408256
     13          6           0        0.697896   -0.097897    0.180380
     14          6           0        3.541747   -0.105154    0.005413
     15          6           0        1.360391   -0.052669   -1.056133
     16          6           0        1.508790   -0.199525    1.324863
     17          6           0        2.906149   -0.203406    1.246300
     18          6           0        2.754116   -0.038765   -1.146392
     19          1           0        3.508753   -0.283151    2.146644
     20          1           0        3.217628    0.010111   -2.129038
     21          8           0        0.918031   -0.309405    2.556733
     22          1           0        1.604435   -0.219672    3.237895
     23          8           0        0.700159   -0.047747   -2.253873
     24          1           0       -0.149032   -0.520286   -2.114434
     25          8           0       -1.303953   -1.534147   -1.532152
     26          1           0       -1.472856   -2.479169   -1.707600
     27          6           0       -3.747319   -2.557516   -0.289406
     28          1           0       -4.796183   -2.557591    0.029413
     29          1           0       -3.288664   -3.447319    0.156575
     30          1           0       -3.722332   -2.663500   -1.378372
     31          8           0       -3.249381   -1.193416    1.601094
     32          1           0       -2.793274   -1.936681    2.032611
     33          1           0       -3.190565    1.442569    0.998310
     34          6           0       -0.877955    2.581637    0.072166
     35          6           0       -0.644281    2.935003    1.347908
     36          1           0       -0.210700    3.897658    1.599924
     37          1           0       -0.877106    2.273463    2.176359
     38          6           0       -0.549916    3.516553   -1.060500
     39          1           0        0.191983    3.062707   -1.725388
     40          1           0       -0.140225    4.468036   -0.705419
     41          1           0       -1.450768    3.738586   -1.641677
     42          6           0        5.044526   -0.113786   -0.095148
     43          1           0        5.360426    0.487019   -0.956739
     44          1           0        5.475800    0.373285    0.787932
     45          6           0        5.595303   -1.525766   -0.223640
     46          1           0        6.687297   -1.500934   -0.294587
     47          1           0        5.208270   -2.023276   -1.119395
     48          1           0        5.325446   -2.138038    0.643529
 ---------------------------------------------------------------------
 Rotational constants (GHZ):      0.4437554      0.1892296      0.1719134
 Standard basis: 6-31+G(d,p) (6D, 7F)
 There are   548 symmetry adapted basis functions of A   symmetry.
 Integral buffers will be    131072 words long.
 Raffenetti 2 integral format.
 Two-electron integral symmetry is turned on.
   548 basis functions,   886 primitive gaussians,   548 cartesian basis functions
    83 alpha electrons       83 beta electrons
       nuclear repulsion energy      1980.4097989640 Hartrees.
 NAtoms=   48 NActive=   48 NUniq=   48 SFac= 1.00D+00 NAtFMM=   60 NAOKFM=F Big=F
 ------------------------------------------------------------------------------
 Polarizable Continuum Model (PCM)
 =================================
 Model                : PCM.
 Atomic radii         : UFF (Universal Force Field).
 Polarization charges : Total charges.
 Charge compensation  : None.
 Solution method      : Matrix inversion.
 Cavity type          : Scaled VdW (van der Waals Surface) (Alpha=1.100).
 Cavity algorithm     : GePol (No added spheres)
                        Default sphere list used, NSphG=   48.
                        Lebedev-Laikov grids with approx.  5.0 points / Ang**2.
                        Smoothing algorithm: Karplus/York (Gamma=1.0000).
                        Polarization charges: spherical gaussians, with
                                              point-specific exponents (IZeta= 3).
                        Self-potential: point-specific (ISelfS= 7).
                        Self-field    : sphere-specific E.n sum rule (ISelfD= 2).
 Solvent              : Water, Eps=  78.355300 Eps(inf)=   1.777849
 ------------------------------------------------------------------------------
 One-electron integrals computed using PRISM.
 NBasis=   548 RedAO= T  NBF=   548
 NBsUse=   546 1.00D-06 NBFU=   546
 Harris functional with IExCor=  908 diagonalized for initial guess.
 ExpMin= 4.38D-02 ExpMax= 5.48D+03 ExpMxC= 8.25D+02 IAcc=2 IRadAn=         4 AccDes= 0.00D+00
 HarFok:  IExCor=  908 AccDes= 0.00D+00 IRadAn=         4 IDoV= 1
 ScaDFX=  1.000000  1.000000  1.000000  1.000000
 FoFCou: FMM=F IPFlag=           0 FMFlag=      100000 FMFlg1=           0
         NFxFlg=           0 DoJE=T BraDBF=F KetDBF=T FulRan=T
         Omega=  0.000000  0.000000  1.000000  0.000000  0.000000 ICntrl=     500 IOpCl=  0
         NMat0=    1 NMatS0=    1 NMatT0=    0 NMatD0=    1 NMtDS0=    0 NMtDT0=    0
         I1Cent=           4 NGrid=           0.
 Petite list used in FoFCou.
 Initial guess orbital symmetries:
       Occupied  (A) (A) (A) (A) (A) (A) (A) (A) (A) (A) (A) (A)
                 (A) (A) (A) (A) (A) (A) (A) (A) (A) (A) (A) (A)
                 (A) (A) (A) (A) (A) (A) (A) (A) (A) (A) (A) (A)
                 (A) (A) (A) (A) (A) (A) (A) (A) (A) (A) (A) (A)
                 (A) (A) (A) (A) (A) (A) (A) (A) (A) (A) (A) (A)
                 (A) (A) (A) (A) (A) (A) (A) (A) (A) (A) (A) (A)
                 (A) (A) (A) (A) (A) (A) (A) (A) (A) (A) (A)
       Virtual   (A) (A) (A) (A) (A) (A) (A) (A) (A) (A) (A) (A)
                 (A) (A) (A) (A) (A) (A) (A) (A) (A) (A) (A) (A)
                 (A) (A) (A) (A) (A) (A) (A) (A) (A) (A) (A) (A)
                 (A) (A) (A) (A) (A) (A) (A) (A) (A) (A) (A) (A)
                 (A) (A) (A) (A) (A) (A) (A) (A) (A) (A) (A) (A)
                 (A) (A) (A) (A) (A) (A) (A) (A) (A) (A) (A) (A)
                 (A) (A) (A) (A) (A) (A) (A) (A) (A) (A) (A) (A)
                 (A) (A) (A) (A) (A) (A) (A) (A) (A) (A) (A) (A)
                 (A) (A) (A) (A) (A) (A) (A) (A) (A) (A) (A) (A)
                 (A) (A) (A) (A) (A) (A) (A) (A) (A) (A) (A) (A)
                 (A) (A) (A) (A) (A) (A) (A) (A) (A) (A) (A) (A)
                 (A) (A) (A) (A) (A) (A) (A) (A) (A) (A) (A) (A)
                 (A) (A) (A) (A) (A) (A) (A) (A) (A) (A) (A) (A)
                 (A) (A) (A) (A) (A) (A) (A) (A) (A) (A) (A) (A)
                 (A) (A) (A) (A) (A) (A) (A) (A) (A) (A) (A) (A)
                 (A) (A) (A) (A) (A) (A) (A) (A) (A) (A) (A) (A)
                 (A) (A) (A) (A) (A) (A) (A) (A) (A) (A) (A) (A)
                 (A) (A) (A) (A) (A) (A) (A) (A) (A) (A) (A) (A)
                 (A) (A) (A) (A) (A) (A) (A) (A) (A) (A) (A) (A)
                 (A) (A) (A) (A) (A) (A) (A) (A) (A) (A) (A) (A)
                 (A) (A) (A) (A) (A) (A) (A) (A) (A) (A) (A) (A)
                 (A) (A) (A) (A) (A) (A) (A) (A) (A) (A) (A) (A)
                 (A) (A) (A) (A) (A) (A) (A) (A) (A) (A) (A) (A)
                 (A) (A) (A) (A) (A) (A) (A) (A) (A) (A) (A) (A)
                 (A) (A) (A) (A) (A) (A) (A) (A) (A) (A) (A) (A)
                 (A) (A) (A) (A) (A) (A) (A) (A) (A) (A) (A) (A)
                 (A) (A) (A) (A) (A) (A) (A) (A) (A) (A) (A) (A)
                 (A) (A) (A) (A) (A) (A) (A) (A) (A) (A) (A) (A)
                 (A) (A) (A) (A) (A) (A) (A) (A) (A) (A) (A) (A)
                 (A) (A) (A) (A) (A) (A) (A) (A) (A) (A) (A) (A)
                 (A) (A) (A) (A) (A) (A) (A) (A) (A) (A) (A) (A)
                 (A) (A) (A) (A) (A) (A) (A) (A) (A) (A) (A) (A)
                 (A) (A) (A) (A) (A) (A) (A) (A) (A) (A) (A) (A)
                 (A) (A) (A) (A) (A) (A) (A) (A) (A) (A) (A) (A)
                 (A) (A) (A) (A) (A) (A) (A) (A) (A) (A) (A) (A)
                 (A) (A) (A) (A) (A) (A) (A) (A) (A) (A) (A) (A)
                 (A) (A) (A) (A) (A) (A) (A) (A) (A) (A) (A) (A)
                 (A) (A) (A) (A) (A) (A) (A) (A) (A) (A) (A) (A)
                 (A) (A) (A) (A) (A) (A) (A)
 The electronic state of the initial guess is 1-A.
 Requested convergence on RMS density matrix=1.00D-08 within 128 cycles.
 Requested convergence on MAX density matrix=1.00D-06.
 Requested convergence on             energy=1.00D-06.
 No special actions if energy rises.
 CoulSu:  requested number of processors reduced to:   2 ShMem   1 Linda.
 CoulSu:  requested number of processors reduced to:   2 ShMem   1 Linda.
 Error on total polarization charges =  0.01934
 SCF Done:  E(RmPW1PW91) =  -1002.31542106     A.U. after   14 cycles
             Convg  =    0.4901D-08             -V/T =  2.0094
 Range of M.O.s used for correlation:     1   546
 NBasis=   548 NAE=    83 NBE=    83 NFC=     0 NFV=     0
 NROrb=    546 NOA=    83 NOB=    83 NVA=   463 NVB=   463

 **** Warning!!: The largest alpha MO coefficient is  0.14828425D+03

 NEqPCM:  Using equilibrium solvation (IEInf=0, Eps=  78.3553, EpsInf=   1.7778)
          Differentiating once with respect to magnetic field using GIAOs.
          Electric field/nuclear overlap derivatives assumed to be zero.
 FoFCou: FMM=F IPFlag=           0 FMFlag=    10101102 FMFlg1=           0
         NFxFlg=    40000000 DoJE=F BraDBF=F KetDBF=T FulRan=T
         Omega=  0.000000  0.000000  1.000000  0.000000  0.000000 ICntrl=    6100 IOpCl=  0
         NMat0=    1 NMatS0=    1 NMatT0=    0 NMatD0=    1 NMtDS0=    0 NMtDT0=    0
         I1Cent=           7 NGrid=        3079.
 Symmetry not used in FoFCou.
          There are     3 degrees of freedom in the 1st order CPHF.  IDoFFX=0.
      3 vectors produced by pass  0 Test12= 1.28D-12 3.33D-08 XBig12= 7.92D+02 3.89D+00.
 AX will form     3 AO Fock derivatives at one time.
      3 vectors produced by pass  1 Test12= 1.28D-12 3.33D-08 XBig12= 1.82D+00 4.67D-01.
      3 vectors produced by pass  2 Test12= 1.28D-12 3.33D-08 XBig12= 7.92D-03 4.02D-02.
      3 vectors produced by pass  3 Test12= 1.28D-12 3.33D-08 XBig12= 3.98D-05 1.90D-03.
      3 vectors produced by pass  4 Test12= 1.28D-12 3.33D-08 XBig12= 1.31D-07 1.28D-04.
      3 vectors produced by pass  5 Test12= 1.28D-12 3.33D-08 XBig12= 4.59D-10 6.38D-06.
      3 vectors produced by pass  6 Test12= 1.28D-12 3.33D-08 XBig12= 2.36D-12 1.93D-07.
 Inverted reduced A of dimension    21 with in-core refinement.
 Calculating GIAO nuclear magnetic shielding tensors.
 SCF GIAO Magnetic shielding tensor (ppm):
      1  C    Isotropic =   121.6915   Anisotropy =    51.4158
   XX=   107.3706   YX=     2.0909   ZX=   -15.3331
   XY=     3.4739   YY=   104.8398   ZY=     4.1733
   XZ=    -7.4435   YZ=     6.5581   ZZ=   152.8641
   Eigenvalues:   100.6248   108.4810   155.9687
      2  C    Isotropic =   161.5383   Anisotropy =    23.0007
   XX=   156.0845   YX=    -3.0054   ZX=     4.5179
   XY=     4.7346   YY=   175.8155   ZY=    -6.5295
   XZ=     0.3582   YZ=    -3.5451   ZZ=   152.7148
   Eigenvalues:   150.4890   157.2537   176.8721
      3  H    Isotropic =    29.4766   Anisotropy =     6.4811
   XX=    27.9230   YX=     0.7349   ZX=     3.2006
   XY=    -0.0282   YY=    28.2676   ZY=     0.0503
   XZ=     2.8491   YZ=    -0.5287   ZZ=    32.2391
   Eigenvalues:    26.2752    28.3572    33.7973
      4  H    Isotropic =    29.8992   Anisotropy =     9.3014
   XX=    36.0742   YX=     0.5008   ZX=    -0.0587
   XY=     0.3540   YY=    29.0576   ZY=    -0.0741
   XZ=     0.0395   YZ=    -0.0720   ZZ=    24.5658
   Eigenvalues:    24.5646    29.0328    36.1001
      5  C    Isotropic =   162.3978   Anisotropy =    27.4533
   XX=   179.0777   YX=     9.7951   ZX=    -0.1880
   XY=     3.0012   YY=   155.3511   ZY=     9.0602
   XZ=    -2.7393   YZ=     5.9967   ZZ=   152.7646
   Eigenvalues:   145.5744   160.9190   180.7000
      6  H    Isotropic =    29.8158   Anisotropy =     8.8417
   XX=    31.5853   YX=    -2.0979   ZX=     2.3649
   XY=    -2.9468   YY=    32.7066   ZY=    -2.6566
   XZ=     1.6227   YZ=    -2.3926   ZZ=    25.1556
   Eigenvalues:    24.1750    29.5621    35.7103
      7  C    Isotropic =   155.9713   Anisotropy =    28.9457
   XX=   160.3046   YX=    16.3483   ZX=     3.6150
   XY=     7.7127   YY=   164.4764   ZY=     3.5301
   XZ=     0.9384   YZ=     4.7416   ZZ=   143.1329
   Eigenvalues:   142.3594   150.2861   175.2684
      8  H    Isotropic =    28.4251   Anisotropy =     4.6859
   XX=    27.0327   YX=    -0.2947   ZX=    -2.5104
   XY=    -1.5661   YY=    28.8845   ZY=    -1.7351
   XZ=    -2.8333   YZ=    -1.8228   ZZ=    29.3581
   Eigenvalues:    24.5479    29.1783    31.5491
      9  C    Isotropic =   154.2596   Anisotropy =    19.8248
   XX=   154.5906   YX=     1.1983   ZX=     3.0325
   XY=    -4.9338   YY=   167.1745   ZY=     4.8872
   XZ=    -0.2846   YZ=    -2.6854   ZZ=   141.0137
   Eigenvalues:   140.8133   154.4894   167.4761
     10  H    Isotropic =    27.1714   Anisotropy =     6.7394
   XX=    29.1511   YX=     1.0475   ZX=     1.8746
   XY=     1.0699   YY=    22.4621   ZY=     0.0443
   XZ=     2.2078   YZ=     0.1584   ZZ=    29.9011
   Eigenvalues:    22.2921    27.5577    31.6644
     11  C    Isotropic =   112.8169   Anisotropy =    36.5203
   XX=   114.5464   YX=     9.8380   ZX=   -14.9049
   XY=    12.4734   YY=    91.4486   ZY=     0.1153
   XZ=    -4.4393   YZ=    -0.1656   ZZ=   132.4556
   Eigenvalues:    86.6413   114.6455   137.1637
     12  H    Isotropic =    27.6704   Anisotropy =     3.3682
   XX=    26.4256   YX=    -0.0595   ZX=     0.2468
   XY=     1.8618   YY=    28.3739   ZY=    -0.8040
   XZ=     1.2394   YZ=    -2.4252   ZZ=    28.2117
   Eigenvalues:    25.3822    27.7132    29.9159
     13  C    Isotropic =    85.6170   Anisotropy =   122.2057
   XX=    42.8652   YX=     5.2756   ZX=     1.2653
   XY=     0.7115   YY=   166.6034   ZY=     8.6683
   XZ=     0.3350   YZ=     5.3381   ZZ=    47.3825
   Eigenvalues:    42.7001    47.0635   167.0875
     14  C    Isotropic =    49.9052   Anisotropy =   189.7608
   XX=   -32.1240   YX=    -3.5540   ZX=     4.0892
   XY=    -3.5904   YY=   175.5259   ZY=    10.5989
   XZ=     4.7016   YZ=    13.2420   ZZ=     6.3136
   Eigenvalues:   -32.7368     6.0399   176.4124
     15  C    Isotropic =    41.9023   Anisotropy =   130.3787
   XX=    16.1563   YX=    -6.0285   ZX=   -31.7250
   XY=    -1.9787   YY=   128.5180   ZY=     6.5198
   XZ=   -30.7332   YZ=     0.7318   ZZ=   -18.9673
   Eigenvalues:   -37.2413    34.1269   128.8215
     16  C    Isotropic =    45.0554   Anisotropy =   124.4440
   XX=    32.3693   YX=    -2.1162   ZX=    29.2865
   XY=    -0.4437   YY=   127.1239   ZY=    10.7406
   XZ=    21.8381   YZ=    12.5379   ZZ=   -24.3269
   Eigenvalues:   -34.9418    42.0900   128.0181
     17  C    Isotropic =    92.0450   Anisotropy =    96.5901
   XX=    75.4392   YX=     4.4519   ZX=   -32.2013
   XY=    10.0913   YY=   155.2598   ZY=     9.5868
   XZ=   -34.3049   YZ=    10.6927   ZZ=    45.4360
   Eigenvalues:    22.7847    96.9119   156.4384
     18  C    Isotropic =    87.5579   Anisotropy =   109.1377
   XX=    76.0651   YX=    -1.2928   ZX=    27.9953
   XY=    10.8090   YY=   159.7357   ZY=     2.6642
   XZ=    30.7199   YZ=     6.4188   ZZ=    26.8728
   Eigenvalues:    13.1393    89.2179   160.3163
     19  H    Isotropic =    25.3191   Anisotropy =     7.1602
   XX=    28.7317   YX=    -0.5501   ZX=    -2.3278
   XY=    -0.8696   YY=    21.2932   ZY=     0.1907
   XZ=    -2.3057   YZ=     0.0919   ZZ=    25.9324
   Eigenvalues:    21.2246    24.6401    30.0925
     20  H    Isotropic =    24.9596   Anisotropy =     7.7457
   XX=    29.3296   YX=    -0.8658   ZX=     1.8135
   XY=    -1.3110   YY=    21.1870   ZY=    -1.3460
   XZ=     1.8425   YZ=    -0.4381   ZZ=    24.3623
   Eigenvalues:    20.9058    23.8497    30.1234
     21  O    Isotropic =   228.6191   Anisotropy =    49.7852
   XX=   197.1434   YX=    -5.0679   ZX=   -19.2808
   XY=    11.3327   YY=   240.6362   ZY=    -6.4223
   XZ=   -35.9583   YZ=    -3.6573   ZZ=   248.0776
   Eigenvalues:   185.0288   239.0193   261.8092
     22  H    Isotropic =    26.7063   Anisotropy =    15.4569
   XX=    29.3772   YX=     0.3262   ZX=     4.8179
   XY=     0.6844   YY=    18.0045   ZY=     1.4278
   XZ=     6.4892   YZ=     0.3881   ZZ=    32.7373
   Eigenvalues:    17.9461    25.1620    37.0110
     23  O    Isotropic =   219.3670   Anisotropy =    76.3896
   XX=   182.2037   YX=    -7.7943   ZX=    16.2436
   XY=   -10.4189   YY=   265.4010   ZY=   -42.0498
   XZ=    25.6562   YZ=    16.9484   ZZ=   210.4963
   Eigenvalues:   171.0196   216.7879   270.2934
     24  H    Isotropic =    21.7587   Anisotropy =    27.7508
   XX=    31.1749   YX=    11.7562   ZX=    -6.0674
   XY=    15.0816   YY=    16.9758   ZY=    -0.3374
   XZ=    -3.8485   YZ=    -1.8336   ZZ=    17.1253
   Eigenvalues:     8.5551    16.4617    40.2592
     25  O    Isotropic =   285.1487   Anisotropy =    44.1339
   XX=   278.7424   YX=    16.3530   ZX=     6.7295
   XY=    23.9990   YY=   293.3566   ZY=    17.9562
   XZ=    -5.9797   YZ=    16.6996   ZZ=   283.3469
   Eigenvalues:   259.7589   281.1158   314.5713
     26  H    Isotropic =    28.7201   Anisotropy =    18.8178
   XX=    22.6076   YX=     3.7676   ZX=    -2.4239
   XY=     4.0147   YY=    38.0090   ZY=     6.3723
   XZ=    -1.5693   YZ=     6.7754   ZZ=    25.5438
   Eigenvalues:    19.1048    25.7903    41.2654
     27  C    Isotropic =   167.9263   Anisotropy =    45.4346
   XX=   158.1816   YX=    17.6031   ZX=     7.7861
   XY=    14.7720   YY=   187.5153   ZY=    10.5348
   XZ=     6.7326   YZ=     8.9959   ZZ=   158.0821
   Eigenvalues:   149.6517   155.9112   198.2161
     28  H    Isotropic =    30.1830   Anisotropy =     9.5709
   XX=    34.9191   YX=     2.7595   ZX=    -1.1385
   XY=     3.9876   YY=    29.3803   ZY=    -0.3711
   XZ=    -0.3610   YZ=     0.2125   ZZ=    26.2495
   Eigenvalues:    26.1624    27.8229    36.5635
     29  H    Isotropic =    30.7416   Anisotropy =     9.3971
   XX=    28.3874   YX=     0.9616   ZX=     0.0766
   XY=     0.1545   YY=    36.7147   ZY=    -2.1590
   XZ=     0.2520   YZ=    -1.0399   ZZ=    27.1226
   Eigenvalues:    26.8218    28.3966    37.0063
     30  H    Isotropic =    30.2112   Anisotropy =     9.0365
   XX=    28.3262   YX=     2.8691   ZX=     1.4926
   XY=     3.1588   YY=    29.3785   ZY=     4.3427
   XZ=     1.1900   YZ=     3.0201   ZZ=    32.9290
   Eigenvalues:    25.4576    28.9405    36.2355
     31  O    Isotropic =   266.5451   Anisotropy =    50.8034
   XX=   255.6931   YX=   -16.1681   ZX=    12.7132
   XY=    -9.0282   YY=   254.3653   ZY=   -25.8077
   XZ=    -2.7298   YZ=   -13.1840   ZZ=   289.5769
   Eigenvalues:   239.5270   259.6942   300.4140
     32  H    Isotropic =    30.2611   Anisotropy =    16.0653
   XX=    26.2207   YX=    -3.9475   ZX=     1.8532
   XY=    -3.1991   YY=    30.5820   ZY=    -7.2696
   XZ=     2.6121   YZ=    -7.5682   ZZ=    33.9807
   Eigenvalues:    23.5297    26.2824    40.9713
     33  H    Isotropic =    29.8215   Anisotropy =     6.1924
   XX=    29.1479   YX=     0.5215   ZX=    -2.7998
   XY=    -0.0471   YY=    30.0038   ZY=     3.8652
   XZ=    -2.1695   YZ=     2.4633   ZZ=    30.3127
   Eigenvalues:    25.8017    29.7130    33.9497
     34  C    Isotropic =    42.0610   Anisotropy =   185.8257
   XX=   133.4016   YX=   -80.3399   ZX=     5.2472
   XY=   -76.2137   YY=   -26.7962   ZY=    43.4312
   XZ=     7.9907   YZ=    39.2751   ZZ=    19.5776
   Eigenvalues:   -76.1457    36.3838   165.9448
     35  C    Isotropic =    91.3591   Anisotropy =   115.5358
   XX=   141.3483   YX=   -60.1041   ZX=     0.6539
   XY=   -61.9515   YY=    25.5393   ZY=    28.3305
   XZ=     7.6536   YZ=    25.5013   ZZ=   107.1897
   Eigenvalues:    -6.7976   112.4919   168.3829
     36  H    Isotropic =    26.4910   Anisotropy =     5.1705
   XX=    25.0064   YX=    -0.6197   ZX=     0.6264
   XY=    -1.2764   YY=    26.3273   ZY=     1.4626
   XZ=     1.5018   YZ=     3.5853   ZZ=    28.1393
   Eigenvalues:    23.3661    26.1689    29.9380
     37  H    Isotropic =    26.4469   Anisotropy =     7.5614
   XX=    24.9545   YX=    -0.7916   ZX=     2.4128
   XY=    -1.7824   YY=    25.2538   ZY=     5.9818
   XZ=     0.4717   YZ=     1.5672   ZZ=    29.1324
   Eigenvalues:    21.8393    26.0135    31.4878
     38  C    Isotropic =   169.8173   Anisotropy =    40.3450
   XX=   150.5578   YX=    10.1096   ZX=    -5.5517
   XY=    10.3660   YY=   180.9405   ZY=   -13.1714
   XZ=    -7.8423   YZ=   -14.8542   ZZ=   177.9536
   Eigenvalues:   147.2108   165.5272   196.7140
     39  H    Isotropic =    29.9612   Anisotropy =     5.9536
   XX=    29.2467   YX=    -0.4033   ZX=    -4.7508
   XY=    -1.6389   YY=    30.9184   ZY=    -2.0010
   XZ=    -4.1321   YZ=     0.0670   ZZ=    29.7185
   Eigenvalues:    24.7160    31.2373    33.9303
     40  H    Isotropic =    30.0660   Anisotropy =     9.0640
   XX=    26.9548   YX=     2.8489   ZX=     0.6548
   XY=     2.3944   YY=    35.3572   ZY=     0.9631
   XZ=    -0.1374   YZ=    -0.9666   ZZ=    27.8860
   Eigenvalues:    26.1678    27.9215    36.1087
     41  H    Isotropic =    29.6722   Anisotropy =     8.2663
   XX=    29.4419   YX=    -0.9294   ZX=     2.6086
   XY=    -1.9083   YY=    30.4484   ZY=    -4.3737
   XZ=     3.3381   YZ=    -3.0566   ZZ=    29.1265
   Eigenvalues:    25.3820    28.4516    35.1831
     42  C    Isotropic =   164.7117   Anisotropy =    27.4229
   XX=   182.8663   YX=     5.8269   ZX=    -1.0362
   XY=    -7.3164   YY=   153.0303   ZY=    -0.2045
   XZ=    -2.2677   YZ=    -0.6459   ZZ=   158.2386
   Eigenvalues:   152.9697   158.1717   182.9937
     43  H    Isotropic =    29.1264   Anisotropy =     7.3547
   XX=    30.2092   YX=     0.9360   ZX=    -2.4826
   XY=     2.0570   YY=    28.4620   ZY=    -4.4474
   XZ=    -0.8857   YZ=    -3.7851   ZZ=    28.7079
   Eigenvalues:    24.4650    28.8847    34.0295
     44  H    Isotropic =    29.2489   Anisotropy =     7.1907
   XX=    30.6831   YX=     1.1700   ZX=     2.4086
   XY=     1.9801   YY=    27.6965   ZY=     4.0242
   XZ=     1.0579   YZ=     3.5606   ZZ=    29.3670
   Eigenvalues:    24.6447    29.0592    34.0427
     45  C    Isotropic =   177.9001   Anisotropy =    31.7018
   XX=   180.3255   YX=    -7.1355   ZX=    -1.4116
   XY=   -21.0672   YY=   187.8592   ZY=     3.0529
   XZ=    -2.0853   YZ=     2.8548   ZZ=   165.5156
   Eigenvalues:   165.1307   169.5351   199.0347
     46  H    Isotropic =    30.2775   Anisotropy =    12.0025
   XX=    37.1797   YX=    -2.1019   ZX=    -0.9128
   XY=    -4.4782   YY=    27.5572   ZY=     0.4044
   XZ=    -0.9631   YZ=     0.2982   ZZ=    26.0956
   Eigenvalues:    26.0071    26.5462    38.2791
     47  H    Isotropic =    30.5545   Anisotropy =     7.4315
   XX=    29.0208   YX=    -1.3085   ZX=     1.0902
   XY=    -2.2585   YY=    30.7727   ZY=     4.9467
   XZ=     1.0362   YZ=     3.3085   ZZ=    31.8701
   Eigenvalues:    25.8402    30.3145    35.5088
     48  H    Isotropic =    30.6578   Anisotropy =     7.3329
   XX=    28.8229   YX=    -1.5941   ZX=    -0.7876
   XY=    -2.4367   YY=    32.0669   ZY=    -4.4286
   XZ=    -0.8062   YZ=    -3.1374   ZZ=    31.0836
   Eigenvalues:    26.2512    30.1758    35.5464
 End of Minotr Frequency-dependent properties file   721 does not exist.
 End of Minotr Frequency-dependent properties file   722 does not exist.

 **********************************************************************

            Population analysis using the SCF density.

 **********************************************************************

 Orbital symmetries:
       Occupied  (A) (A) (A) (A) (A) (A) (A) (A) (A) (A) (A) (A)
                 (A) (A) (A) (A) (A) (A) (A) (A) (A) (A) (A) (A)
                 (A) (A) (A) (A) (A) (A) (A) (A) (A) (A) (A) (A)
                 (A) (A) (A) (A) (A) (A) (A) (A) (A) (A) (A) (A)
                 (A) (A) (A) (A) (A) (A) (A) (A) (A) (A) (A) (A)
                 (A) (A) (A) (A) (A) (A) (A) (A) (A) (A) (A) (A)
                 (A) (A) (A) (A) (A) (A) (A) (A) (A) (A) (A)
       Virtual   (A) (A) (A) (A) (A) (A) (A) (A) (A) (A) (A) (A)
                 (A) (A) (A) (A) (A) (A) (A) (A) (A) (A) (A) (A)
                 (A) (A) (A) (A) (A) (A) (A) (A) (A) (A) (A) (A)
                 (A) (A) (A) (A) (A) (A) (A) (A) (A) (A) (A) (A)
                 (A) (A) (A) (A) (A) (A) (A) (A) (A) (A) (A) (A)
                 (A) (A) (A) (A) (A) (A) (A) (A) (A) (A) (A) (A)
                 (A) (A) (A) (A) (A) (A) (A) (A) (A) (A) (A) (A)
                 (A) (A) (A) (A) (A) (A) (A) (A) (A) (A) (A) (A)
                 (A) (A) (A) (A) (A) (A) (A) (A) (A) (A) (A) (A)
                 (A) (A) (A) (A) (A) (A) (A) (A) (A) (A) (A) (A)
                 (A) (A) (A) (A) (A) (A) (A) (A) (A) (A) (A) (A)
                 (A) (A) (A) (A) (A) (A) (A) (A) (A) (A) (A) (A)
                 (A) (A) (A) (A) (A) (A) (A) (A) (A) (A) (A) (A)
                 (A) (A) (A) (A) (A) (A) (A) (A) (A) (A) (A) (A)
                 (A) (A) (A) (A) (A) (A) (A) (A) (A) (A) (A) (A)
                 (A) (A) (A) (A) (A) (A) (A) (A) (A) (A) (A) (A)
                 (A) (A) (A) (A) (A) (A) (A) (A) (A) (A) (A) (A)
                 (A) (A) (A) (A) (A) (A) (A) (A) (A) (A) (A) (A)
                 (A) (A) (A) (A) (A) (A) (A) (A) (A) (A) (A) (A)
                 (A) (A) (A) (A) (A) (A) (A) (A) (A) (A) (A) (A)
                 (A) (A) (A) (A) (A) (A) (A) (A) (A) (A) (A) (A)
                 (A) (A) (A) (A) (A) (A) (A) (A) (A) (A) (A) (A)
                 (A) (A) (A) (A) (A) (A) (A) (A) (A) (A) (A) (A)
                 (A) (A) (A) (A) (A) (A) (A) (A) (A) (A) (A) (A)
                 (A) (A) (A) (A) (A) (A) (A) (A) (A) (A) (A) (A)
                 (A) (A) (A) (A) (A) (A) (A) (A) (A) (A) (A) (A)
                 (A) (A) (A) (A) (A) (A) (A) (A) (A) (A) (A) (A)
                 (A) (A) (A) (A) (A) (A) (A) (A) (A) (A) (A) (A)
                 (A) (A) (A) (A) (A) (A) (A) (A) (A) (A) (A) (A)
                 (A) (A) (A) (A) (A) (A) (A) (A) (A) (A) (A) (A)
                 (A) (A) (A) (A) (A) (A) (A) (A) (A) (A) (A) (A)
                 (A) (A) (A) (A) (A) (A) (A) (A) (A) (A) (A) (A)
                 (A) (A) (A) (A) (A) (A) (A) (A) (A) (A) (A) (A)
                 (A) (A) (A) (A) (A) (A) (A) (A) (A) (A) (A) (A)
                 (A) (A) (A) (A) (A) (A) (A) (A) (A) (A) (A) (A)
                 (A) (A) (A) (A) (A) (A) (A) (A) (A) (A) (A) (A)
                 (A) (A) (A) (A) (A) (A) (A) (A) (A) (A) (A) (A)
                 (A) (A) (A) (A) (A) (A) (A) (A) (A) (A) (A) (A)
                 (A) (A) (A) (A) (A) (A) (A)
 The electronic state is 1-A.
 Alpha  occ. eigenvalues --  -19.28202 -19.28063 -19.25753 -19.25591 -10.31954
 Alpha  occ. eigenvalues --  -10.31601 -10.31440 -10.31301 -10.26836 -10.26435
 Alpha  occ. eigenvalues --  -10.26329 -10.25939 -10.25910 -10.24855 -10.24544
 Alpha  occ. eigenvalues --  -10.24459 -10.24383 -10.24005 -10.23962 -10.23883
 Alpha  occ. eigenvalues --  -10.23670 -10.23376  -1.09755  -1.09170  -1.07318
 Alpha  occ. eigenvalues --   -1.06100  -0.88547  -0.86642  -0.82121  -0.81930
 Alpha  occ. eigenvalues --   -0.78556  -0.77020  -0.75768  -0.73912  -0.70915
 Alpha  occ. eigenvalues --   -0.70229  -0.66947  -0.64393  -0.63541  -0.62533
 Alpha  occ. eigenvalues --   -0.60849  -0.59206  -0.56832  -0.55390  -0.54606
 Alpha  occ. eigenvalues --   -0.52068  -0.51323  -0.50833  -0.49850  -0.48415
 Alpha  occ. eigenvalues --   -0.47010  -0.46412  -0.45495  -0.45440  -0.44665
 Alpha  occ. eigenvalues --   -0.43754  -0.43556  -0.43108  -0.42407  -0.42084
 Alpha  occ. eigenvalues --   -0.41486  -0.41191  -0.40350  -0.39728  -0.39411
 Alpha  occ. eigenvalues --   -0.38638  -0.38427  -0.38019  -0.37637  -0.36928
 Alpha  occ. eigenvalues --   -0.36257  -0.35785  -0.35397  -0.34802  -0.34223
 Alpha  occ. eigenvalues --   -0.33665  -0.32494  -0.31234  -0.31016  -0.28604
 Alpha  occ. eigenvalues --   -0.25700  -0.23980  -0.23043
 Alpha virt. eigenvalues --   -0.00592  -0.00001   0.00270   0.00882   0.01250
 Alpha virt. eigenvalues --    0.01720   0.01832   0.02815   0.03217   0.03427
 Alpha virt. eigenvalues --    0.03800   0.04168   0.04284   0.04604   0.05446
 Alpha virt. eigenvalues --    0.05690   0.06125   0.06474   0.06890   0.07246
 Alpha virt. eigenvalues --    0.07504   0.07868   0.08485   0.08981   0.09013
 Alpha virt. eigenvalues --    0.09769   0.10022   0.10186   0.10657   0.10874
 Alpha virt. eigenvalues --    0.11125   0.11579   0.11821   0.12636   0.12905
 Alpha virt. eigenvalues --    0.13170   0.13518   0.13842   0.14515   0.14689
 Alpha virt. eigenvalues --    0.15052   0.15215   0.15763   0.16084   0.16126
 Alpha virt. eigenvalues --    0.16438   0.16980   0.17321   0.17667   0.17875
 Alpha virt. eigenvalues --    0.18286   0.18424   0.18757   0.18998   0.19239
 Alpha virt. eigenvalues --    0.19573   0.19830   0.20153   0.20268   0.20759
 Alpha virt. eigenvalues --    0.21134   0.21692   0.21961   0.22134   0.22371
 Alpha virt. eigenvalues --    0.22441   0.22814   0.22932   0.23251   0.23454
 Alpha virt. eigenvalues --    0.24043   0.24224   0.24369   0.24760   0.25063
 Alpha virt. eigenvalues --    0.25526   0.25714   0.26323   0.26828   0.26870
 Alpha virt. eigenvalues --    0.27162   0.27488   0.27507   0.27884   0.27896
 Alpha virt. eigenvalues --    0.28412   0.28880   0.29210   0.29361   0.29806
 Alpha virt. eigenvalues --    0.30059   0.30349   0.30603   0.31004   0.31226
 Alpha virt. eigenvalues --    0.31497   0.31809   0.32566   0.32759   0.33204
 Alpha virt. eigenvalues --    0.33267   0.33829   0.34415   0.34741   0.35109
 Alpha virt. eigenvalues --    0.35678   0.35890   0.36202   0.36509   0.37152
 Alpha virt. eigenvalues --    0.37259   0.38001   0.38285   0.38802   0.39433
 Alpha virt. eigenvalues --    0.39872   0.40638   0.41278   0.41515   0.42260
 Alpha virt. eigenvalues --    0.43432   0.43935   0.44383   0.44790   0.45912
 Alpha virt. eigenvalues --    0.46450   0.47164   0.47327   0.47493   0.48685
 Alpha virt. eigenvalues --    0.48939   0.49415   0.50696   0.51871   0.52773
 Alpha virt. eigenvalues --    0.54613   0.56718   0.60673   0.63155   0.65492
 Alpha virt. eigenvalues --    0.68215   0.68703   0.69541   0.69748   0.71452
 Alpha virt. eigenvalues --    0.71750   0.72732   0.72975   0.73586   0.73984
 Alpha virt. eigenvalues --    0.74423   0.75358   0.75468   0.76166   0.76597
 Alpha virt. eigenvalues --    0.77741   0.78356   0.79383   0.79614   0.80026
 Alpha virt. eigenvalues --    0.81030   0.81239   0.81860   0.82212   0.83880
 Alpha virt. eigenvalues --    0.84439   0.85149   0.85469   0.86156   0.87621
 Alpha virt. eigenvalues --    0.88031   0.88677   0.89363   0.89667   0.90746
 Alpha virt. eigenvalues --    0.91950   0.92406   0.93604   0.94129   0.94757
 Alpha virt. eigenvalues --    0.95114   0.96164   0.96740   0.98116   0.98931
 Alpha virt. eigenvalues --    1.00166   1.00771   1.01538   1.02251   1.03138
 Alpha virt. eigenvalues --    1.04508   1.04871   1.05792   1.06021   1.07879
 Alpha virt. eigenvalues --    1.08276   1.09333   1.10682   1.10941   1.11428
 Alpha virt. eigenvalues --    1.12405   1.13185   1.13833   1.14073   1.14776
 Alpha virt. eigenvalues --    1.15458   1.16435   1.16733   1.17088   1.18025
 Alpha virt. eigenvalues --    1.19018   1.19771   1.20319   1.20666   1.21702
 Alpha virt. eigenvalues --    1.22963   1.24505   1.24830   1.25792   1.26902
 Alpha virt. eigenvalues --    1.27984   1.28504   1.29208   1.29593   1.30342
 Alpha virt. eigenvalues --    1.31837   1.32605   1.33118   1.33551   1.33800
 Alpha virt. eigenvalues --    1.35292   1.35446   1.37452   1.37563   1.38725
 Alpha virt. eigenvalues --    1.39549   1.40545   1.41283   1.42357   1.44045
 Alpha virt. eigenvalues --    1.44796   1.45654   1.46720   1.47719   1.49483
 Alpha virt. eigenvalues --    1.50747   1.52923   1.53433   1.53764   1.54473
 Alpha virt. eigenvalues --    1.55004   1.57029   1.57407   1.58620   1.59640
 Alpha virt. eigenvalues --    1.60960   1.61630   1.63072   1.64542   1.65080
 Alpha virt. eigenvalues --    1.66904   1.69625   1.70358   1.70893   1.71757
 Alpha virt. eigenvalues --    1.73278   1.74826   1.76930   1.78077   1.80443
 Alpha virt. eigenvalues --    1.80527   1.81394   1.82098   1.84069   1.84387
 Alpha virt. eigenvalues --    1.84722   1.85876   1.86574   1.87344   1.87652
 Alpha virt. eigenvalues --    1.88848   1.89880   1.90346   1.90642   1.91945
 Alpha virt. eigenvalues --    1.92476   1.92834   1.93250   1.95236   1.95871
 Alpha virt. eigenvalues --    1.95939   1.96581   1.97817   1.98871   2.00072
 Alpha virt. eigenvalues --    2.00424   2.02218   2.03223   2.04578   2.04808
 Alpha virt. eigenvalues --    2.06061   2.06679   2.06867   2.07524   2.07779
 Alpha virt. eigenvalues --    2.08920   2.09893   2.10298   2.11159   2.11863
 Alpha virt. eigenvalues --    2.13314   2.13718   2.14391   2.15228   2.15483
 Alpha virt. eigenvalues --    2.15978   2.16926   2.17453   2.19254   2.19548
 Alpha virt. eigenvalues --    2.19696   2.21148   2.23751   2.24640   2.25773
 Alpha virt. eigenvalues --    2.26004   2.27120   2.28910   2.29419   2.30025
 Alpha virt. eigenvalues --    2.31005   2.32003   2.33305   2.34330   2.34941
 Alpha virt. eigenvalues --    2.35617   2.36747   2.37973   2.39296   2.40705
 Alpha virt. eigenvalues --    2.40942   2.41599   2.43225   2.44260   2.46629
 Alpha virt. eigenvalues --    2.47777   2.48302   2.50454   2.50671   2.52004
 Alpha virt. eigenvalues --    2.52977   2.53600   2.54649   2.55624   2.56127
 Alpha virt. eigenvalues --    2.56286   2.56975   2.58143   2.59191   2.59631
 Alpha virt. eigenvalues --    2.60442   2.61355   2.62187   2.62976   2.65364
 Alpha virt. eigenvalues --    2.65986   2.66660   2.68079   2.68945   2.69876
 Alpha virt. eigenvalues --    2.70859   2.71456   2.71978   2.73046   2.73837
 Alpha virt. eigenvalues --    2.74015   2.75601   2.76347   2.76639   2.77354
 Alpha virt. eigenvalues --    2.78034   2.79723   2.81800   2.81997   2.82463
 Alpha virt. eigenvalues --    2.83128   2.85523   2.86256   2.86842   2.88041
 Alpha virt. eigenvalues --    2.88732   2.88937   2.89619   2.90359   2.90549
 Alpha virt. eigenvalues --    2.91472   2.91835   2.93269   2.94134   2.95406
 Alpha virt. eigenvalues --    2.96597   2.97200   2.99505   3.03356   3.07304
 Alpha virt. eigenvalues --    3.07807   3.09281   3.09412   3.10991   3.11940
 Alpha virt. eigenvalues --    3.19518   3.20905   3.25454   3.27725   3.29427
 Alpha virt. eigenvalues --    3.30295   3.31162   3.36261   3.37602   3.39322
 Alpha virt. eigenvalues --    3.39945   3.43451   3.45439   3.47065   3.47985
 Alpha virt. eigenvalues --    3.49147   3.49573   3.51077   3.51619   3.52411
 Alpha virt. eigenvalues --    3.53456   3.54441   3.57491   3.58185   3.58552
 Alpha virt. eigenvalues --    3.59778   3.61850   3.62277   3.67944   3.71797
 Alpha virt. eigenvalues --    3.80616   4.35969   4.36936   4.39617   4.46548
 Alpha virt. eigenvalues --    4.48400   4.50528   4.52680   4.53564   4.55786
 Alpha virt. eigenvalues --    4.57329   4.60642   4.63458   4.66294   4.71002
 Alpha virt. eigenvalues --    4.73520   4.74462   4.78516   4.84304   4.91340
 Alpha virt. eigenvalues --    4.94288   4.99675   5.04117
          Condensed to atoms (all electrons):
              1          2          3          4          5          6
     1  C   13.275942  -1.854561  -0.125462  -0.045049  -0.592966   0.011977
     2  C   -1.854561   7.576823   0.433557   0.368162   0.229571  -0.009815
     3  H   -0.125462   0.433557   0.518170  -0.025414  -0.064069  -0.004829
     4  H   -0.045049   0.368162  -0.025414   0.527654  -0.038386  -0.002338
     5  C   -0.592966   0.229571  -0.064069  -0.038386   7.838771   0.427643
     6  H    0.011977  -0.009815  -0.004829  -0.002338   0.427643   0.546031
     7  C    2.071001  -0.114135   0.034821   0.013603  -3.366503  -0.268653
     8  H   -0.084860   0.012105   0.003382  -0.000049  -0.002918  -0.005551
     9  C   -0.460181   0.041996  -0.022237   0.018976   1.157838   0.163128
    10  H   -0.083585   0.011686   0.000105  -0.000049  -0.062468  -0.000036
    11  C   -4.021878   0.643983   0.064296   0.058996   0.038616  -0.028405
    12  H   -0.018813   0.025185  -0.000073  -0.000117  -0.026875   0.000010
    13  C   -0.117699  -0.356954  -0.011531   0.000769   0.484845   0.036339
    14  C    0.054360  -0.012696  -0.000128  -0.000020   0.024116   0.000128
    15  C    1.282756  -0.044179   0.005530  -0.002670  -0.341982  -0.021745
    16  C   -0.966910   0.041172   0.000416   0.000777   0.368258   0.011410
    17  C   -0.224002   0.021512   0.000139   0.000042   0.055184   0.000846
    18  C   -0.110493  -0.027583   0.000816  -0.000130  -0.136124  -0.002419
    19  H   -0.000165   0.000020   0.000000   0.000000  -0.000087   0.000000
    20  H   -0.000133   0.000030   0.000000   0.000000   0.000095   0.000000
    21  O   -0.019508   0.007559  -0.000001   0.000001   0.016822   0.000001
    22  H    0.000089   0.000110   0.000000   0.000000  -0.000794   0.000000
    23  O    0.024125   0.004376  -0.000054   0.000009   0.028187   0.000161
    24  H    0.003562  -0.008609  -0.000052   0.000001   0.003084  -0.000015
    25  O    0.054045  -0.053602   0.003908  -0.001347  -0.113603  -0.000117
    26  H   -0.001883   0.011335   0.000199  -0.000010   0.014606   0.000000
    27  C   -2.614022   0.271464   0.024561  -0.038033  -0.233529  -0.007012
    28  H   -0.161216   0.024178   0.000196   0.002022   0.010317  -0.000001
    29  H   -0.037512   0.015626   0.000045  -0.000027  -0.008458   0.000002
    30  H   -0.178129   0.034853   0.001572   0.000309   0.000746  -0.000004
    31  O    0.199733  -0.171287   0.009602  -0.002900   0.067388  -0.001060
    32  H    0.091722   0.049989  -0.000220  -0.000028  -0.010801   0.000010
    33  H   -0.041425  -0.037208   0.004500  -0.004324   0.423124  -0.027531
    34  C    0.398017  -0.728950  -0.034113  -0.004413   0.512603   0.041408
    35  C    0.252291  -0.073395  -0.006359   0.000316  -0.038287  -0.027101
    36  H   -0.000122   0.001067   0.000000   0.000000   0.010165  -0.000008
    37  H   -0.006196   0.002823  -0.000001   0.000002  -0.006930   0.000072
    38  C   -0.119857  -0.016245   0.005311  -0.001782  -0.042070  -0.001419
    39  H   -0.001638  -0.004939   0.000001   0.000000  -0.012484   0.000016
    40  H    0.000354   0.001074   0.000000   0.000000   0.003345  -0.000057
    41  H    0.002099   0.009750   0.000008   0.000001   0.012887   0.000765
    42  C   -0.004612  -0.000561  -0.000003   0.000000   0.009296   0.000007
    43  H   -0.000006   0.000000   0.000000   0.000000   0.000009   0.000000
    44  H    0.000010  -0.000001   0.000000   0.000000  -0.000003   0.000000
    45  C   -0.000103  -0.000094   0.000000   0.000000  -0.000022   0.000000
    46  H    0.000000   0.000000   0.000000   0.000000   0.000000   0.000000
    47  H    0.000005  -0.000001   0.000000   0.000000  -0.000001   0.000000
    48  H   -0.000011   0.000000   0.000000   0.000000   0.000001   0.000000
              7          8          9         10         11         12
     1  C    2.071001  -0.084860  -0.460181  -0.083585  -4.021878  -0.018813
     2  C   -0.114135   0.012105   0.041996   0.011686   0.643983   0.025185
     3  H    0.034821   0.003382  -0.022237   0.000105   0.064296  -0.000073
     4  H    0.013603  -0.000049   0.018976  -0.000049   0.058996  -0.000117
     5  C   -3.366503  -0.002918   1.157838  -0.062468   0.038616  -0.026875
     6  H   -0.268653  -0.005551   0.163128  -0.000036  -0.028405   0.000010
     7  C   28.978274   0.314928  -6.283043   0.064088   0.612591  -0.026151
     8  H    0.314928   0.560077   0.075522   0.004966   0.050587  -0.000149
     9  C   -6.283043   0.075522  15.403104   0.349850  -1.683535  -0.034043
    10  H    0.064088   0.004966   0.349850   0.518039   0.172561  -0.003535
    11  C    0.612591   0.050587  -1.683535   0.172561  13.696375   0.224163
    12  H   -0.026151  -0.000149  -0.034043  -0.003535   0.224163   0.567676
    13  C   -4.855684   0.150640   3.937622  -0.206359  -1.194644   0.051466
    14  C   -0.767899  -0.008148  -0.638762  -0.011402  -0.475260   0.008768
    15  C    3.303062  -0.183724  -0.990612  -0.125707  -3.188091   0.058835
    16  C   -5.915989   0.071358  -0.543797   0.096441  -0.121408   0.078142
    17  C   -1.350961   0.013918  -1.627643   0.053743  -0.034476   0.022065
    18  C   -0.387650  -0.028827  -1.519143   0.008047   0.661194   0.009554
    19  H   -0.000164   0.000000   0.000511  -0.000006   0.001193   0.000002
    20  H   -0.002240   0.000004   0.004702   0.000001  -0.001702   0.000000
    21  O   -0.089509  -0.000205  -0.097376   0.002204  -0.014885   0.000198
    22  H    0.002164   0.000000   0.031170   0.000097   0.002547   0.000025
    23  O    0.103539   0.001815   0.153247   0.000105  -0.016814  -0.002725
    24  H   -0.112927   0.002073  -0.023289  -0.000044  -0.006649   0.000540
    25  O    0.510227   0.004693  -0.368720   0.010337   0.271695  -0.044178
    26  H   -0.019394   0.000002   0.058721  -0.000196  -0.022846  -0.008587
    27  C    0.499486   0.008924  -0.989316   0.025866   1.414443  -0.047494
    28  H   -0.011758   0.000000   0.008855  -0.000005   0.040439  -0.000061
    29  H   -0.010410   0.000001   0.017056   0.000006  -0.013673   0.002649
    30  H    0.002572   0.000016  -0.010401   0.000002   0.022657   0.000514
    31  O    0.158332   0.000788  -0.106049   0.009209   0.232554  -0.009111
    32  H    0.030046  -0.000001   0.005667  -0.000029  -0.117803   0.004620
    33  H    0.008838   0.004915  -0.006720   0.003422   0.012486  -0.000056
    34  C   -7.146961  -0.162869   0.961221  -0.023395  -0.959225   0.001215
    35  C   -0.439280  -0.037902  -0.408106  -0.017669  -0.061291  -0.002966
    36  H    0.011137  -0.000121  -0.014092  -0.000004   0.000111   0.000000
    37  H   -0.081005  -0.000038   0.000167   0.001072  -0.011211   0.000007
    38  C    0.432628   0.069976   0.138530   0.007632   0.162133   0.000252
    39  H    0.092538   0.001685  -0.008406   0.000009   0.003218   0.000000
    40  H    0.000772   0.000346  -0.006471   0.000005   0.000028   0.000000
    41  H    0.017655  -0.000375   0.010618  -0.000014   0.001433   0.000000
    42  C   -0.188348   0.000260  -0.315925  -0.000585  -0.044148   0.000301
    43  H   -0.000213   0.000000  -0.000232   0.000000  -0.000018   0.000000
    44  H   -0.000199   0.000000   0.002500   0.000000   0.000074   0.000000
    45  C   -0.002183   0.000005  -0.002932   0.000011   0.001240   0.000022
    46  H    0.000009   0.000000   0.000176   0.000000   0.000013   0.000000
    47  H   -0.000059   0.000000   0.000501   0.000000  -0.000108   0.000000
    48  H   -0.000024   0.000000  -0.000640   0.000000  -0.000141   0.000000
             13         14         15         16         17         18
     1  C   -0.117699   0.054360   1.282756  -0.966910  -0.224002  -0.110493
     2  C   -0.356954  -0.012696  -0.044179   0.041172   0.021512  -0.027583
     3  H   -0.011531  -0.000128   0.005530   0.000416   0.000139   0.000816
     4  H    0.000769  -0.000020  -0.002670   0.000777   0.000042  -0.000130
     5  C    0.484845   0.024116  -0.341982   0.368258   0.055184  -0.136124
     6  H    0.036339   0.000128  -0.021745   0.011410   0.000846  -0.002419
     7  C   -4.855684  -0.767899   3.303062  -5.915989  -1.350961  -0.387650
     8  H    0.150640  -0.008148  -0.183724   0.071358   0.013918  -0.028827
     9  C    3.937622  -0.638762  -0.990612  -0.543797  -1.627643  -1.519143
    10  H   -0.206359  -0.011402  -0.125707   0.096441   0.053743   0.008047
    11  C   -1.194644  -0.475260  -3.188091  -0.121408  -0.034476   0.661194
    12  H    0.051466   0.008768   0.058835   0.078142   0.022065   0.009554
    13  C   26.792438  -3.001324 -16.504412   2.548828  -3.231211   2.329311
    14  C   -3.001324  11.314815   3.961584  -0.390623   0.350419  -2.421111
    15  C  -16.504412   3.961584  39.432702  -6.197255  -2.738281 -10.314745
    16  C    2.548828  -0.390623  -6.197255  13.604209   2.439472  -0.093072
    17  C   -3.231211   0.350419  -2.738281   2.439472  13.290464  -1.470190
    18  C    2.329311  -2.421111 -10.314745  -0.093072  -1.470190  18.238169
    19  H    0.080039   0.048023  -0.062929  -0.042270   0.253281   0.060237
    20  H    0.055344   0.068802   0.103810  -0.001485   0.035117   0.081772
    21  O   -0.066681   0.009762  -0.048456   0.302858   0.000342  -0.002239
    22  H    0.126636   0.012207  -0.030284   0.064659  -0.217867   0.017518
    23  O   -0.446517   0.144095   0.786343  -0.105547  -0.002982  -0.542108
    24  H   -0.013189  -0.006017   0.021404   0.031585  -0.002351   0.144207
    25  O   -0.155705  -0.021386   0.098501  -0.198933  -0.045907  -0.016616
    26  H   -0.030058   0.001921   0.026382  -0.003496  -0.001064  -0.008814
    27  C   -0.426128  -0.021977  -0.074389  -0.162774  -0.018768   0.019691
    28  H   -0.001456  -0.000023  -0.001935   0.000422   0.000022  -0.000099
    29  H    0.001206  -0.000063  -0.005131   0.003743   0.000391  -0.000442
    30  H   -0.003414   0.000123   0.011378  -0.001390  -0.000155   0.001315
    31  O   -0.138299  -0.005734  -0.015173  -0.096888  -0.010682   0.001654
    32  H   -0.015360  -0.000368  -0.004722  -0.003904  -0.000049   0.000019
    33  H   -0.006485  -0.000090  -0.006542   0.010628   0.001593   0.000163
    34  C    0.065739   0.411425   0.668767   1.384061   0.402424  -0.223960
    35  C    0.056925   0.087634   0.797424  -0.895234  -0.508749  -0.206923
    36  H    0.006233  -0.000906   0.002114  -0.007308  -0.005525   0.003556
    37  H    0.011585  -0.000079  -0.011100   0.030372   0.005072   0.001589
    38  C    0.673114  -0.139104  -1.247344   0.344829   0.155947   0.229755
    39  H    0.073731  -0.011609  -0.090883   0.009933   0.002408   0.026781
    40  H   -0.002605   0.000303   0.006991  -0.000267   0.000585   0.000170
    41  H   -0.025664   0.000933   0.020090  -0.004186  -0.000335  -0.006030
    42  C   -1.003720  -2.301267  -0.876076  -0.087018   0.562040   1.167550
    43  H    0.011509  -0.282841   0.023161  -0.028104  -0.108765   0.215737
    44  H   -0.009052  -0.252039  -0.002714   0.051991   0.180796  -0.148866
    45  C    0.031516  -0.001952  -0.011375   0.000841   0.014751   0.042121
    46  H    0.001647   0.009934   0.002728   0.001896   0.007888   0.006007
    47  H   -0.010182  -0.022375   0.010695   0.003286   0.028085  -0.053920
    48  H   -0.000964  -0.048828  -0.007082  -0.011602  -0.020339   0.036698
             19         20         21         22         23         24
     1  C   -0.000165  -0.000133  -0.019508   0.000089   0.024125   0.003562
     2  C    0.000020   0.000030   0.007559   0.000110   0.004376  -0.008609
     3  H    0.000000   0.000000  -0.000001   0.000000  -0.000054  -0.000052
     4  H    0.000000   0.000000   0.000001   0.000000   0.000009   0.000001
     5  C   -0.000087   0.000095   0.016822  -0.000794   0.028187   0.003084
     6  H    0.000000   0.000000   0.000001   0.000000   0.000161  -0.000015
     7  C   -0.000164  -0.002240  -0.089509   0.002164   0.103539  -0.112927
     8  H    0.000000   0.000004  -0.000205   0.000000   0.001815   0.002073
     9  C    0.000511   0.004702  -0.097376   0.031170   0.153247  -0.023289
    10  H   -0.000006   0.000001   0.002204   0.000097   0.000105  -0.000044
    11  C    0.001193  -0.001702  -0.014885   0.002547  -0.016814  -0.006649
    12  H    0.000002   0.000000   0.000198   0.000025  -0.002725   0.000540
    13  C    0.080039   0.055344  -0.066681   0.126636  -0.446517  -0.013189
    14  C    0.048023   0.068802   0.009762   0.012207   0.144095  -0.006017
    15  C   -0.062929   0.103810  -0.048456  -0.030284   0.786343   0.021404
    16  C   -0.042270  -0.001485   0.302858   0.064659  -0.105547   0.031585
    17  C    0.253281   0.035117   0.000342  -0.217867  -0.002982  -0.002351
    18  C    0.060237   0.081772  -0.002239   0.017518  -0.542108   0.144207
    19  H    0.521715  -0.000140  -0.017221   0.008131   0.000146   0.000000
    20  H   -0.000140   0.518412   0.000096  -0.000001  -0.006756   0.000100
    21  O   -0.017221   0.000096   8.317850   0.201240  -0.001795  -0.000102
    22  H    0.008131  -0.000001   0.201240   0.367855   0.000036   0.000000
    23  O    0.000146  -0.006756  -0.001795   0.000036   8.359383   0.186845
    24  H    0.000000   0.000100  -0.000102   0.000000   0.186845   0.311349
    25  O    0.000006  -0.000039  -0.001455  -0.000016  -0.002473   0.015667
    26  H    0.000000   0.000000  -0.000068   0.000000   0.003309   0.000450
    27  C   -0.000002  -0.000019   0.000137   0.000019  -0.000084  -0.005331
    28  H    0.000000   0.000000   0.000001   0.000000   0.000004   0.000000
    29  H    0.000000   0.000000   0.000014   0.000000   0.000011  -0.000004
    30  H    0.000000   0.000000   0.000006   0.000000  -0.000150   0.000046
    31  O    0.000002   0.000000  -0.002083  -0.000042   0.000681  -0.000208
    32  H    0.000000   0.000000   0.000519   0.000003   0.000018   0.000000
    33  H    0.000000   0.000000  -0.000171   0.000000   0.000022  -0.000004
    34  C   -0.001642   0.000033   0.062805  -0.001190  -0.099469   0.004670
    35  C    0.001039   0.000340  -0.050295   0.001474  -0.011431  -0.008427
    36  H    0.000000   0.000000   0.000334   0.000000  -0.000022   0.000000
    37  H    0.000000   0.000000   0.002366  -0.000072  -0.000057   0.000002
    38  C    0.000079   0.001017   0.001654   0.000001   0.020164   0.004382
    39  H    0.000000  -0.000013   0.000036   0.000000   0.001906  -0.000010
    40  H    0.000000   0.000000  -0.000014   0.000000  -0.000232   0.000000
    41  H    0.000000   0.000000  -0.000013   0.000000   0.000308   0.000001
    42  C   -0.022237  -0.028185  -0.003978   0.000985  -0.034755   0.003076
    43  H    0.000079   0.001661   0.000043   0.000000   0.000067   0.000000
    44  H    0.002076   0.000099   0.000043  -0.000001   0.000028   0.000000
    45  C    0.007652   0.005177   0.000353   0.000016   0.000944   0.000006
    46  H   -0.000030  -0.000027   0.000000   0.000000   0.000000   0.000000
    47  H    0.000011   0.000184   0.000003   0.000000  -0.000022   0.000000
    48  H    0.000169   0.000005   0.000017   0.000001   0.000006   0.000000
             25         26         27         28         29         30
     1  C    0.054045  -0.001883  -2.614022  -0.161216  -0.037512  -0.178129
     2  C   -0.053602   0.011335   0.271464   0.024178   0.015626   0.034853
     3  H    0.003908   0.000199   0.024561   0.000196   0.000045   0.001572
     4  H   -0.001347  -0.000010  -0.038033   0.002022  -0.000027   0.000309
     5  C   -0.113603   0.014606  -0.233529   0.010317  -0.008458   0.000746
     6  H   -0.000117   0.000000  -0.007012  -0.000001   0.000002  -0.000004
     7  C    0.510227  -0.019394   0.499486  -0.011758  -0.010410   0.002572
     8  H    0.004693   0.000002   0.008924   0.000000   0.000001   0.000016
     9  C   -0.368720   0.058721  -0.989316   0.008855   0.017056  -0.010401
    10  H    0.010337  -0.000196   0.025866  -0.000005   0.000006   0.000002
    11  C    0.271695  -0.022846   1.414443   0.040439  -0.013673   0.022657
[...]
    16  C   -0.176698   0.001061  -0.135174   0.000470   0.003028  -0.000601
    17  C   -0.041051  -0.000331  -0.020699   0.000025   0.000356  -0.000098
    18  C    0.038062  -0.014000   0.022248  -0.000102  -0.000395   0.000872
    19  H    0.000003   0.000000   0.000002   0.000000   0.000000   0.000000
    20  H   -0.000074   0.000000  -0.000023   0.000000   0.000000   0.000000
    21  O   -0.001835  -0.000059   0.004135   0.000003   0.000009   0.000006
    22  H   -0.000003   0.000000   0.000107   0.000000   0.000000   0.000000
    23  O   -0.014153   0.004608  -0.000237   0.000005   0.000015  -0.000129
    24  H    0.024866  -0.000259  -0.004158   0.000000  -0.000003   0.000040
    25  O    8.512323   0.237645  -0.005382  -0.000917  -0.003028   0.006107
    26  H    0.237645   0.308948  -0.004071  -0.000064   0.000284   0.000237
    27  C   -0.005382  -0.004071   7.684415   0.481644   0.475338   0.476137
    28  H   -0.000917  -0.000064   0.481644   0.529166  -0.028323  -0.025379
    29  H   -0.003028   0.000284   0.475338  -0.028323   0.536559  -0.027360
    30  H    0.006107   0.000237   0.476137  -0.025379  -0.027360   0.529641
    31  O    0.014942   0.000018  -0.058074  -0.002152  -0.009938   0.009572
    32  H    0.001326  -0.000003   0.001187  -0.000458   0.003214  -0.000012
    33  H    0.000432   0.000003   0.000306   0.000002   0.000002   0.000001
    34  C   -0.019616  -0.003071  -0.116182   0.000182  -0.000107  -0.000350
    35  C   -0.003575  -0.000124   0.001397  -0.000044  -0.000130  -0.000130
    36  H   -0.000004   0.000000  -0.000065   0.000000   0.000000   0.000000
    37  H   -0.000068   0.000000  -0.000678   0.000000   0.000000   0.000000
    38  C    0.001563  -0.000079   0.006928   0.000014  -0.000001   0.000035
    39  H    0.000016   0.000000  -0.000022   0.000000   0.000000   0.000000
    40  H   -0.000013   0.000000   0.000010   0.000000   0.000000   0.000000
    41  H    0.000056   0.000000   0.000219   0.000000   0.000000   0.000000
    42  C   -0.006833   0.000075  -0.000817   0.000000  -0.000002   0.000001
    43  H   -0.000001   0.000000   0.000000   0.000000   0.000000   0.000000
    44  H    0.000000   0.000000   0.000000   0.000000   0.000000   0.000000
    45  C   -0.000088  -0.000001  -0.000089   0.000000   0.000000   0.000000
    46  H    0.000000   0.000000   0.000000   0.000000   0.000000   0.000000
    47  H    0.000001   0.000000   0.000000   0.000000   0.000000   0.000000
    48  H    0.000000   0.000000  -0.000001   0.000000   0.000000   0.000000
             31         32         33         34         35         36
     1  C    0.112295   0.071263  -0.069484   0.242720   0.296041  -0.000539
     2  C   -0.163506   0.033089  -0.030164  -0.600531  -0.063026  -0.001079
     3  H    0.008143  -0.000213   0.004944  -0.039697  -0.007509   0.000000
     4  H   -0.003006   0.000016  -0.004753  -0.016269  -0.001974   0.000000
     5  C    0.084328  -0.011887   0.512109   0.759844   0.003620   0.013178
     6  H   -0.000905   0.000010  -0.032207   0.046182  -0.027620  -0.000008
     7  C    0.088140   0.025650  -0.156000  -5.970151  -1.225174  -0.057025
     8  H    0.001162  -0.000002   0.005360  -0.160061  -0.020270  -0.000131
     9  C   -0.058563   0.004727   0.070836   0.701893  -0.616436  -0.015257
    10  H    0.011171  -0.000354   0.003570  -0.042958   0.005830   0.000014
    11  C    0.175877  -0.110220   0.009279  -0.995422  -0.116587  -0.001553
    12  H   -0.009354   0.004886  -0.000051   0.001839  -0.004258   0.000000
    13  C   -0.090793  -0.005335   0.005151  -0.178543   0.024533   0.012836
    14  C   -0.004338  -0.000127   0.000143   0.385837   0.073803  -0.000309
    15  C   -0.022096  -0.000784  -0.012292   0.600851   0.697950  -0.002419
    16  C   -0.071423  -0.005103   0.022425   1.145790  -0.884388  -0.001837
    17  C   -0.007502  -0.000478   0.002570   0.352991  -0.523830  -0.004911
    18  C    0.001747   0.000282  -0.000131  -0.189252  -0.143602   0.002647
    19  H    0.000002   0.000000   0.000000  -0.001240   0.000774   0.000000
    20  H    0.000000   0.000000   0.000000   0.000235   0.000261   0.000000
    21  O   -0.002445   0.000290  -0.000074   0.063172  -0.038572   0.000317
    22  H   -0.000054   0.000002   0.000000  -0.000664   0.001060   0.000000
    23  O    0.000660   0.000012   0.000012  -0.094999  -0.020121  -0.000017
    24  H   -0.000243   0.000001  -0.000006   0.001674  -0.006645   0.000000
    25  O    0.014942   0.001326   0.000432  -0.019616  -0.003575  -0.000004
    26  H    0.000018  -0.000003   0.000003  -0.003071  -0.000124   0.000000
    27  C   -0.058074   0.001187   0.000306  -0.116182   0.001397  -0.000065
    28  H   -0.002152  -0.000458   0.000002   0.000182  -0.000044   0.000000
    29  H   -0.009938   0.003214   0.000002  -0.000107  -0.000130   0.000000
    30  H    0.009572  -0.000012   0.000001  -0.000350  -0.000130   0.000000
    31  O    8.366269   0.249505   0.009176  -0.033269  -0.003279  -0.000004
    32  H    0.249505   0.335743  -0.000172  -0.001016  -0.000721   0.000000
    33  H    0.009176  -0.000172   0.558129   0.000249  -0.084136  -0.000042
    34  C   -0.033269  -0.001016   0.000249  11.877188  -0.446351  -0.169442
    35  C   -0.003279  -0.000721  -0.084136  -0.446351   9.981702   0.625898
    36  H   -0.000004   0.000000  -0.000042  -0.169442   0.625898   0.535527
    37  H   -0.000303   0.000006   0.000184  -0.095503   0.536709  -0.034660
    38  C    0.002713   0.000212   0.027084  -1.165537  -1.486741  -0.050371
    39  H   -0.000001   0.000000  -0.000014  -0.262798  -0.065831   0.000148
    40  H    0.000000   0.000000   0.000006  -0.082194   0.020837   0.003309
    41  H    0.000007   0.000000   0.000053  -0.059881   0.001646   0.000136
    42  C   -0.000048  -0.000001   0.000007   0.045574  -0.011901  -0.000111
    43  H    0.000000   0.000000   0.000000   0.000187   0.000042   0.000000
    44  H    0.000000   0.000000   0.000000   0.000001   0.000120   0.000000
    45  C    0.000003   0.000000   0.000000  -0.001685  -0.000092   0.000001
    46  H    0.000000   0.000000   0.000000   0.000002   0.000002   0.000000
    47  H    0.000000   0.000000   0.000000   0.000006   0.000001   0.000000
    48  H    0.000000   0.000000   0.000000   0.000025  -0.000002   0.000000
             37         38         39         40         41         42
     1  C   -0.000539  -0.139084  -0.002354   0.000803   0.002195  -0.005274
     2  C    0.001500  -0.066283  -0.003167  -0.001371   0.010700  -0.000421
     3  H   -0.000001   0.005688   0.000000   0.000000   0.000008  -0.000006
     4  H    0.000003  -0.001269   0.000000   0.000000   0.000001   0.000000
     5  C   -0.019131  -0.096985  -0.008408   0.001751   0.008063   0.009882
     6  H    0.000086  -0.005161   0.000011  -0.000062   0.000877   0.000009
     7  C   -0.061032   0.300411   0.109017  -0.065143   0.033623  -0.142377
     8  H   -0.000043   0.057446   0.001497   0.000420  -0.000393   0.000186
     9  C   -0.011859   0.188819  -0.018204  -0.005726   0.000524  -0.203949
    10  H    0.000781   0.002038   0.000009   0.000005  -0.000015  -0.000671
    11  C   -0.009080   0.142111   0.003864  -0.001004   0.002667  -0.067136
    12  H    0.000006   0.000493   0.000000   0.000000   0.000000   0.000381
    13  C    0.001662   0.821597   0.059924   0.003191  -0.027565  -0.808630
    14  C    0.000664  -0.130025  -0.009449   0.000353   0.000448  -2.279425
    15  C   -0.006511  -1.469287  -0.085040   0.003900   0.017079  -0.883606
    16  C    0.015925   0.436054   0.007388   0.000042  -0.004800  -0.109854
    17  C    0.003879   0.175576   0.002188   0.000650  -0.000414   0.621467
    18  C    0.000306   0.278133   0.028649  -0.000556  -0.005939   0.815464
    19  H   -0.000001   0.000112   0.000000   0.000000   0.000000  -0.021342
    20  H    0.000000   0.000900  -0.000010   0.000000   0.000000  -0.016854
    21  O    0.003535   0.001346   0.000054  -0.000014  -0.000020   0.001815
    22  H   -0.000075   0.000066   0.000000   0.000000   0.000000   0.000050
    23  O   -0.000064   0.033449   0.001599  -0.000125   0.000394  -0.024047
    24  H    0.000002   0.001291  -0.000005   0.000000   0.000001   0.001114
    25  O   -0.000068   0.001563   0.000016  -0.000013   0.000056  -0.006833
    26  H    0.000000  -0.000079   0.000000   0.000000   0.000000   0.000075
    27  C   -0.000678   0.006928  -0.000022   0.000010   0.000219  -0.000817
    28  H    0.000000   0.000014   0.000000   0.000000   0.000000   0.000000
    29  H    0.000000  -0.000001   0.000000   0.000000   0.000000  -0.000002
    30  H    0.000000   0.000035   0.000000   0.000000   0.000000   0.000001
    31  O   -0.000303   0.002713  -0.000001   0.000000   0.000007  -0.000048
    32  H    0.000006   0.000212   0.000000   0.000000   0.000000  -0.000001
    33  H    0.000184   0.027084  -0.000014   0.000006   0.000053   0.000007
    34  C   -0.095503  -1.165537  -0.262798  -0.082194  -0.059881   0.045574
    35  C    0.536709  -1.486741  -0.065831   0.020837   0.001646  -0.011901
    36  H   -0.034660  -0.050371   0.000148   0.003309   0.000136  -0.000111
    37  H    0.542171  -0.012720  -0.000188   0.000186  -0.000187   0.000025
    38  C   -0.012720   7.323540   0.588186   0.478033   0.368913   0.017326
    39  H   -0.000188   0.588186   0.538448  -0.027466  -0.028906  -0.000154
    40  H    0.000186   0.478033  -0.027466   0.542266  -0.027136   0.000077
    41  H   -0.000187   0.368913  -0.028906  -0.027136   0.536299  -0.000006
    42  C    0.000025   0.017326  -0.000154   0.000077  -0.000006   8.045426
    43  H    0.000000  -0.000057   0.000000   0.000000   0.000000   0.527029
    44  H    0.000000   0.000006   0.000000   0.000000   0.000000   0.530655
    45  C    0.000001   0.000932   0.000015   0.000001  -0.000001   0.151816
    46  H    0.000000  -0.000001   0.000000   0.000000   0.000000  -0.040012
    47  H    0.000000  -0.000005   0.000000   0.000000   0.000000  -0.046371
    48  H    0.000000  -0.000001   0.000000   0.000000   0.000000  -0.040535
             43         44         45         46         47         48
     1  C   -0.000004   0.000005   0.000053   0.000000   0.000005  -0.000015
     2  C    0.000000  -0.000001  -0.000162   0.000000   0.000000   0.000001
     3  H    0.000000   0.000000   0.000000   0.000000   0.000000   0.000000
     4  H    0.000000   0.000000   0.000000   0.000000   0.000000   0.000000
     5  C    0.000005  -0.000004  -0.000067   0.000000  -0.000003   0.000001
     6  H    0.000000   0.000000   0.000000   0.000000   0.000000   0.000000
     7  C   -0.000251  -0.000201  -0.001178   0.000011  -0.000065  -0.000054
     8  H    0.000000   0.000000   0.000004   0.000000   0.000000   0.000000
     9  C   -0.000320   0.001617  -0.004258   0.000207   0.000301  -0.001190
    10  H    0.000000   0.000000   0.000013   0.000000   0.000000   0.000000
    11  C   -0.000048   0.000032   0.002404   0.000000  -0.000157  -0.000146
    12  H    0.000000   0.000000   0.000022   0.000000   0.000000   0.000000
    13  C   -0.004539  -0.010347   0.016871   0.000594  -0.019122   0.000607
    14  C   -0.210435  -0.208319   0.081438  -0.046202   0.069687   0.019798
    15  C    0.021030  -0.011870  -0.031649   0.002629  -0.001536  -0.002934
    16  C   -0.022932   0.027612  -0.012362   0.000676   0.013010  -0.033491
    17  C   -0.065881   0.104855   0.004986   0.004317   0.062626  -0.072153
    18  C    0.098628  -0.091891  -0.012529   0.014004  -0.138767   0.068029
    19  H    0.000109   0.002362   0.004104  -0.000035   0.000015   0.000198
    20  H    0.002178   0.000117   0.003407  -0.000034   0.000247   0.000007
    21  O    0.000033   0.000049   0.000770  -0.000001   0.000002   0.000042
    22  H    0.000000  -0.000003  -0.000021   0.000000   0.000000   0.000001
    23  O    0.000018   0.000027   0.001076  -0.000001  -0.000030   0.000010
    24  H    0.000000   0.000000  -0.000013   0.000000   0.000000   0.000000
    25  O   -0.000001   0.000000  -0.000088   0.000000   0.000001   0.000000
    26  H    0.000000   0.000000  -0.000001   0.000000   0.000000   0.000000
    27  C    0.000000   0.000000  -0.000089   0.000000   0.000000  -0.000001
    28  H    0.000000   0.000000   0.000000   0.000000   0.000000   0.000000
    29  H    0.000000   0.000000   0.000000   0.000000   0.000000   0.000000
    30  H    0.000000   0.000000   0.000000   0.000000   0.000000   0.000000
    31  O    0.000000   0.000000   0.000003   0.000000   0.000000   0.000000
    32  H    0.000000   0.000000   0.000000   0.000000   0.000000   0.000000
    33  H    0.000000   0.000000   0.000000   0.000000   0.000000   0.000000
    34  C    0.000187   0.000001  -0.001685   0.000002   0.000006   0.000025
    35  C    0.000042   0.000120  -0.000092   0.000002   0.000001  -0.000002
    36  H    0.000000   0.000000   0.000001   0.000000   0.000000   0.000000
    37  H    0.000000   0.000000   0.000001   0.000000   0.000000   0.000000
    38  C   -0.000057   0.000006   0.000932  -0.000001  -0.000005  -0.000001
    39  H    0.000000   0.000000   0.000015   0.000000   0.000000   0.000000
    40  H    0.000000   0.000000   0.000001   0.000000   0.000000   0.000000
    41  H    0.000000   0.000000  -0.000001   0.000000   0.000000   0.000000
    42  C    0.527029   0.530655   0.151816  -0.040012  -0.046371  -0.040535
    43  H    0.565357  -0.033671  -0.024581  -0.003300  -0.005033   0.004870
    44  H   -0.033671   0.567161  -0.025938  -0.003331   0.004919  -0.005023
    45  C   -0.024581  -0.025938   5.183712   0.422670   0.415816   0.417947
    46  H   -0.003300  -0.003331   0.422670   0.549875  -0.026845  -0.027040
    47  H   -0.005033   0.004919   0.415816  -0.026845   0.542474  -0.028515
    48  H    0.004870  -0.005023   0.417947  -0.027040  -0.028515   0.541934
 Mulliken atomic charges:
              1
     1  C    0.333460
     2  C   -0.287306
     3  H    0.166809
     4  H    0.155694
     5  C   -0.647968
     6  H    0.151142
     7  C    0.174153
     8  H    0.144703
     9  C   -0.351700
    10  H    0.169552
    11  C   -0.247541
    12  H    0.155118
    13  C    0.204774
    14  C    0.052398
    15  C   -1.216865
    16  C    0.668901
    17  C   -0.159927
    18  C    0.334585
    19  H    0.148036
    20  H    0.146144
    21  O   -0.586030
    22  H    0.444943
    23  O   -0.630590
    24  H    0.473071
    25  O   -0.681020
    26  H    0.447654
    27  C   -0.350297
    28  H    0.167312
    29  H    0.163443
    30  H    0.168878
    31  O   -0.594436
    32  H    0.405465
    33  H    0.157491
    34  C    0.520344
    35  C   -0.469159
    36  H    0.145775
    37  H    0.145011
    38  C   -0.637404
    39  H    0.171003
    40  H    0.154970
    41  H    0.171356
    42  C   -0.057999
    43  H    0.151567
    44  H    0.151060
    45  C   -0.593351
    46  H    0.151814
    47  H    0.157339
    48  H    0.157630
 Sum of Mulliken atomic charges =   0.00000
 Mulliken charges with hydrogens summed into heavy atoms:
              1
     1  C    0.333460
     2  C    0.035197
     5  C   -0.339335
     7  C    0.318856
     9  C   -0.182149
    11  C   -0.092422
    13  C    0.204774
    14  C    0.052398
    15  C   -1.216865
    16  C    0.668901
    17  C   -0.011891
    18  C    0.480729
    21  O   -0.141088
    23  O   -0.157519
    25  O   -0.233366
    27  C    0.149336
    31  O   -0.188971
    34  C    0.520344
    35  C   -0.178373
    38  C   -0.140075
    42  C    0.244627
    45  C   -0.126568
 Sum of Mulliken charges with hydrogens summed into heavy atoms =   0.00000
 Electronic spatial extent (au):  <R**2>=           7176.4354
 Charge=              0.0000 electrons
 Dipole moment (field-independent basis, Debye):
    X=              0.2137    Y=             -4.5757    Z=              1.5795  Tot=              4.8453
 Quadrupole moment (field-independent basis, Debye-Ang):
   XX=           -127.0271   YY=           -124.2826   ZZ=           -133.4723
   XY=              7.5635   XZ=             16.5919   YZ=             -0.6953
 Traceless Quadrupole moment (field-independent basis, Debye-Ang):
   XX=              1.2336   YY=              3.9781   ZZ=             -5.2116
   XY=              7.5635   XZ=             16.5919   YZ=             -0.6953
 Octapole moment (field-independent basis, Debye-Ang**2):
  XXX=             58.4255  YYY=            -52.6168  ZZZ=             50.7079  XYY=            -37.0039
  XXY=            -18.5883  XXZ=            -12.1550  XZZ=             20.1919  YZZ=            -18.9563
  YYZ=             -9.8248  XYZ=              0.1867
 Hexadecapole moment (field-independent basis, Debye-Ang**3):
 XXXX=          -6214.7319 YYYY=          -2064.5971 ZZZZ=          -1151.0354 XXXY=             39.3637
 XXXZ=            141.5941 YYYX=            138.3247 YYYZ=             -0.4496 ZZZX=            122.9292
 ZZZY=             -1.2447 XXYY=          -1436.0791 XXZZ=          -1233.1935 YYZZ=           -534.1730
 XXYZ=            -12.7916 YYXZ=             17.0325 ZZXY=             27.4911
 N-N= 1.980422906692D+03 E-N=-6.294059719268D+03  KE= 9.931691269207D+02

 Test job not archived.
 1\1\GINC-COMPUTE-10-3\SP\RB3LYP\6-31+G(d,p)\C18H26O4\LPASSAGLIA.IQUIR\
 23-Dec-2022\0\\# B3LYP/6-31+G** geom=allcheck test scrf=(pcm,solvent=w
 ater,smd,dovacuum)\\comment\\0,1\C,0,-1.855266957,0.644618836,-2.68371
 2785\C,0,-2.62205817,1.76247597,-1.95706691\H,0,-2.074762634,2.7103901
 35,-2.033494167\H,0,-3.599078538,1.915258298,-2.43290633\C,0,-2.862251
 739,1.443830064,-0.479073579\H,0,-3.355130925,2.304500631,-0.008971597
 \C,0,-1.557638764,1.109414748,0.275395557\H,0,-0.943604825,2.018206837
 ,0.249668729\C,0,-0.783053357,-0.027594282,-0.462372727\H,0,-1.4680048
 14,-0.884322915,-0.488059901\C,0,-0.521003203,0.338792592,-1.947918419
 \H,0,-0.016778184,-0.508619139,-2.43111577\C,0,0.501379588,-0.48727679
 5,0.235402701\C,0,2.783730491,-1.40761291,1.671372796\C,0,1.541651684,
 0.381100785,0.601002605\C,0,0.66799566,-1.843398003,0.56841168\C,0,1.7
 86315361,-2.302330371,1.273778374\C,0,2.654300079,-0.061864704,1.31975
 5503\H,0,1.889960505,-3.355764177,1.518000323\H,0,3.426402037,0.655027
 567,1.589473995\O,0,-0.285456518,-2.74967499,0.183490053\H,0,-0.096448
 273,-3.599172063,0.614551717\O,0,1.558987743,1.705650025,0.260739933\H
 ,0,1.053447283,1.792667517,-0.576349042\O,0,0.359753281,1.473298684,-2
 .03154744\H,0,0.733979357,1.476199233,-2.932837218\C,0,-1.619711157,1.
 046930076,-4.143813425\H,0,-2.572905475,1.157773311,-4.673809393\H,0,-
 1.059962017,0.268165871,-4.674115185\H,0,-1.06997094,1.989212796,-4.23
 0948342\O,0,-2.688559723,-0.521088519,-2.701044516\H,0,-2.190625013,-1
 .252079732,-3.106503585\H,0,-3.567690655,0.605832478,-0.404873612\C,0,
 -1.882032197,0.824552221,1.743172878\C,0,-2.426127304,-0.325855959,2.1
 76198629\H,0,-2.637351411,-0.493422401,3.227633402\H,0,-2.674340429,-1
 .133259762,1.494537133\C,0,-1.548917992,1.931800925,2.706316181\H,0,-0
 .474808626,2.142448102,2.686712778\H,0,-1.819248771,1.678295273,3.7368
 04087\H,0,-2.089189862,2.844770858,2.435778711\C,0,3.995555723,-1.8877
 91295,2.425987148\H,0,4.350222051,-1.096123085,3.097233902\H,0,3.71795
 6797,-2.730044348,3.071442829\C,0,5.117224922,-2.3070046,1.488079705\H
 ,0,5.982792679,-2.650647894,2.063234322\H,0,5.439407608,-1.472530931,0
 .855988666\H,0,4.800915624,-3.123734961,0.830369609\\Version=EM64L-G09
 RevC.01\State=1-A\HF=-1002.5571758\RMSD=7.394e-09\Dipole=0.6036365,-1.
 0046565,-1.5034205\Quadrupole=-12.2119401,4.7711312,7.440809,-6.799893
 7,-0.8188146,-5.9849505\PG=C01 [X(C18H26O4)]\\@


 THERE ONCE WAS A GIRL NAMED IRENE,
 WHO LIVED ON DISTILLED KEROSENE,
      BUT SHE STARTED ABSORBIN'
      A NEW HYDROCARBON,
 AND SINCE THEN HAS NEVER BENZENE.
 Job cpu time:  0 days  1 hours 37 minutes 47.6 seconds.
 File lengths (MBytes):  RWF=    241 Int=      0 D2E=      0 Chk=     19 Scr=      1
 Normal termination of Gaussian 09 at Fri Dec 23 15:06:10 2022.
