 Entering Gaussian System, Link 0=g09
 Input=/home/lpassaglia.iquir/Link1/01_RRSS_THC_004.gjc
 Output=/home/lpassaglia.iquir/Link1/01_RRSS_THC_004.log
 Initial command:
 /share/apps/Gaussian09/EM64T.SSE4.2-enabled/g09/l1.exe /tmp/Gau-14876.inp -scrdir=/tmp/
 Entering Link 1 = /share/apps/Gaussian09/EM64T.SSE4.2-enabled/g09/l1.exe PID=     14878.
  
 Copyright (c) 1988,1990,1992,1993,1995,1998,2003,2009,2011,
            Gaussian, Inc.  All Rights Reserved.
  
 This is part of the Gaussian(R) 09 program.  It is based on
 the Gaussian(R) 03 system (copyright 2003, Gaussian, Inc.),
 the Gaussian(R) 98 system (copyright 1998, Gaussian, Inc.),
 the Gaussian(R) 94 system (copyright 1995, Gaussian, Inc.),
 the Gaussian 92(TM) system (copyright 1992, Gaussian, Inc.),
 the Gaussian 90(TM) system (copyright 1990, Gaussian, Inc.),
 the Gaussian 88(TM) system (copyright 1988, Gaussian, Inc.),
 the Gaussian 86(TM) system (copyright 1986, Carnegie Mellon
 University), and the Gaussian 82(TM) system (copyright 1983,
 Carnegie Mellon University). Gaussian is a federally registered
 trademark of Gaussian, Inc.
  
 This software contains proprietary and confidential information,
 including trade secrets, belonging to Gaussian, Inc.
  
 This software is provided under written license and may be
 used, copied, transmitted, or stored only in accord with that
 written license.
  
 The following legend is applicable only to US Government
 contracts under FAR:
  
                    RESTRICTED RIGHTS LEGEND
  
 Use, reproduction and disclosure by the US Government is
 subject to restrictions as set forth in subparagraphs (a)
 and (c) of the Commercial Computer Software - Restricted
 Rights clause in FAR 52.227-19.
  
 Gaussian, Inc.
 340 Quinnipiac St., Bldg. 40, Wallingford CT 06492
  
  
 ---------------------------------------------------------------
 Warning -- This program may not be used in any manner that
 competes with the business of Gaussian, Inc. or will provide
 assistance to any competitor of Gaussian, Inc.  The licensee
 of this program is prohibited from giving any competitor of
 Gaussian, Inc. access to this program.  By using this program,
 the user acknowledges that Gaussian, Inc. is engaged in the
 business of creating and licensing software in the field of
 computational chemistry and represents and warrants to the
 licensee that it is not a competitor of Gaussian, Inc. and that
 it will not use this program in any manner prohibited above.
 ---------------------------------------------------------------
  

 Cite this work as:
 Gaussian 09, Revision C.01,
 M. J. Frisch, G. W. Trucks, H. B. Schlegel, G. E. Scuseria, 
 M. A. Robb, J. R. Cheeseman, G. Scalmani, V. Barone, B. Mennucci, 
 G. A. Petersson, H. Nakatsuji, M. Caricato, X. Li, H. P. Hratchian, 
 A. F. Izmaylov, J. Bloino, G. Zheng, J. L. Sonnenberg, M. Hada, 
 M. Ehara, K. Toyota, R. Fukuda, J. Hasegawa, M. Ishida, T. Nakajima, 
 Y. Honda, O. Kitao, H. Nakai, T. Vreven, J. A. Montgomery, Jr., 
 J. E. Peralta, F. Ogliaro, M. Bearpark, J. J. Heyd, E. Brothers, 
 K. N. Kudin, V. N. Staroverov, T. Keith, R. Kobayashi, J. Normand, 
 K. Raghavachari, A. Rendell, J. C. Burant, S. S. Iyengar, J. Tomasi, 
 M. Cossi, N. Rega, J. M. Millam, M. Klene, J. E. Knox, J. B. Cross, 
 V. Bakken, C. Adamo, J. Jaramillo, R. Gomperts, R. E. Stratmann, 
 O. Yazyev, A. J. Austin, R. Cammi, C. Pomelli, J. W. Ochterski, 
 R. L. Martin, K. Morokuma, V. G. Zakrzewski, G. A. Voth, 
 P. Salvador, J. J. Dannenberg, S. Dapprich, A. D. Daniels, 
 O. Farkas, J. B. Foresman, J. V. Ortiz, J. Cioslowski, 
 and D. J. Fox, Gaussian, Inc., Wallingford CT, 2010.
 
 ******************************************
 Gaussian 09:  EM64L-G09RevC.01 23-Sep-2011
                23-Dec-2022 
 ******************************************
 %chk=01_RRSS_THC_004_optB_NMR
 %nprocshared=4
 Will use up to    4 processors via shared memory.
 ------------------------------------------------
 # mPW1PW91/6-31+G** scrf=(PCM,solvent=water) nmr
 ------------------------------------------------
 1/38=1/1;
 2/12=2,17=6,18=5,40=1/2;
 3/5=1,6=6,7=111,11=2,16=1,25=1,30=1,70=2201,72=1,74=-7/1,2,8,3;
 4//1;
 5/5=2,38=5,53=1/2;
 8/6=1,10=90,11=11/1;
 10/13=100,45=16/2;
 6/7=2,8=2,9=2,10=2,28=1/1;
 99/9=1/99;
 -------
 comment
 -------
 Charge =  0 Multiplicity = 1
 Symbolic Z-Matrix:
 6                    -1.7379    0.85371  -2.80747 
 6                    -2.38124   2.02552  -2.04636 
 1                    -1.75506   2.92278  -2.12756 
 1                    -3.35439   2.26988  -2.49087 
 6                    -2.60617   1.70404  -0.56639 
 1                    -3.01714   2.59134  -0.06837 
 6                    -1.30982   1.25785   0.14403 
 1                    -0.63193   2.11975   0.09217 
 6                    -0.6554    0.06855  -0.62557 
 1                    -1.41185  -0.72636  -0.63103 
 6                    -0.41298   0.42486  -2.11782 
 1                    -0.00102  -0.45875  -2.62317 
 6                     0.6087   -0.50581   0.02304 
 6                     2.85884  -1.6332    1.35972 
 6                     1.73373   0.26644   0.35288 
 6                     0.66813  -1.87309   0.34688 
 6                     1.76764  -2.43244   1.00799 
 6                     2.82984  -0.27688   1.02688 
 1                     1.78284  -3.49011   1.25538 
 1                     3.66649   0.37068   1.27884 
 8                    -0.37642  -2.68944  -0.0006 
 1                    -0.23813  -3.5606    0.40578 
 8                     1.85241   1.58844   0.02256 
 1                     1.31857   1.72988  -0.78893 
 8                     0.55972   1.47934  -2.2245 
 1                     0.9083    1.45343  -3.13562 
 6                    -1.51486   1.2508   -4.27093 
 1                    -2.47124   1.44912  -4.76867 
 1                    -1.04139   0.43292  -4.82583 
 1                    -0.88893   2.14329  -4.36774 
 8                    -2.6689   -0.23583  -2.80663 
 1                    -2.25328  -0.99863  -3.24501 
 1                    -3.37271   0.92293  -0.49302 
 6                    -1.57952   0.96909   1.62321 
 6                    -0.94527   1.66108   2.5861 
 1                    -1.11693   1.46371   3.63939 
 1                    -0.21927   2.43286   2.3459 
 6                    -2.55992  -0.11547   1.98105 
 1                    -3.56932   0.14857   1.65265 
 1                    -2.60522  -0.2817    3.06311 
 1                    -2.27978  -1.06715   1.52194 
 6                     4.03499  -2.21415   2.09972 
 1                     4.18292  -3.25784   1.79664 
 1                     4.95104  -1.68312   1.81351 
 6                     3.84681  -2.13847   3.60717 
 1                     4.71449  -2.56677   4.11881 
 1                     2.95746  -2.69328   3.92492 
 1                     3.73305  -1.10175   3.94182 
 
                          Input orientation:                          
 ---------------------------------------------------------------------
 Center     Atomic      Atomic             Coordinates (Angstroms)
 Number     Number       Type             X           Y           Z
 ---------------------------------------------------------------------
      1          6           0       -1.737896    0.853713   -2.807469
      2          6           0       -2.381235    2.025520   -2.046361
      3          1           0       -1.755064    2.922782   -2.127565
      4          1           0       -3.354391    2.269881   -2.490871
      5          6           0       -2.606173    1.704039   -0.566389
      6          1           0       -3.017140    2.591337   -0.068374
      7          6           0       -1.309819    1.257852    0.144029
      8          1           0       -0.631931    2.119751    0.092175
      9          6           0       -0.655405    0.068554   -0.625573
     10          1           0       -1.411847   -0.726359   -0.631033
     11          6           0       -0.412980    0.424860   -2.117819
     12          1           0       -0.001019   -0.458749   -2.623168
     13          6           0        0.608698   -0.505813    0.023035
     14          6           0        2.858839   -1.633199    1.359718
     15          6           0        1.733728    0.266443    0.352883
     16          6           0        0.668126   -1.873088    0.346881
     17          6           0        1.767643   -2.432442    1.007989
     18          6           0        2.829844   -0.276881    1.026878
     19          1           0        1.782838   -3.490114    1.255376
     20          1           0        3.666491    0.370677    1.278836
     21          8           0       -0.376419   -2.689443   -0.000598
     22          1           0       -0.238127   -3.560600    0.405778
     23          8           0        1.852415    1.588436    0.022563
     24          1           0        1.318569    1.729877   -0.788929
     25          8           0        0.559715    1.479345   -2.224497
     26          1           0        0.908303    1.453425   -3.135621
     27          6           0       -1.514857    1.250796   -4.270934
     28          1           0       -2.471244    1.449120   -4.768667
     29          1           0       -1.041386    0.432920   -4.825830
     30          1           0       -0.888926    2.143294   -4.367744
     31          8           0       -2.668896   -0.235834   -2.806630
     32          1           0       -2.253276   -0.998635   -3.245007
     33          1           0       -3.372707    0.922934   -0.493023
     34          6           0       -1.579516    0.969089    1.623212
     35          6           0       -0.945266    1.661084    2.586099
     36          1           0       -1.116927    1.463713    3.639389
     37          1           0       -0.219272    2.432858    2.345903
     38          6           0       -2.559921   -0.115466    1.981048
     39          1           0       -3.569320    0.148571    1.652652
     40          1           0       -2.605220   -0.281703    3.063114
     41          1           0       -2.279783   -1.067150    1.521944
     42          6           0        4.034987   -2.214152    2.099724
     43          1           0        4.182916   -3.257844    1.796643
     44          1           0        4.951045   -1.683122    1.813515
     45          6           0        3.846805   -2.138473    3.607166
     46          1           0        4.714488   -2.566770    4.118811
     47          1           0        2.957462   -2.693278    3.924924
     48          1           0        3.733052   -1.101754    3.941817
 ---------------------------------------------------------------------
                    Distance matrix (angstroms):
                    1          2          3          4          5
     1  C    0.000000
     2  C    1.538279   0.000000
     3  H    2.177983   1.097161   0.000000
     4  H    2.172285   1.097421   1.765253   0.000000
     5  C    2.549391   1.531099   2.155688   2.140943   0.000000
     6  H    3.486895   2.153359   2.437819   2.466893   1.097366
     7  C    3.009637   2.556375   2.851381   3.485279   1.544121
     8  H    3.351707   2.764467   2.614102   3.755856   2.122300
     9  C    2.559088   2.971002   3.407617   3.950912   2.546333
    10  H    2.709208   3.242793   3.958994   4.026155   2.708769
    11  C    1.554006   2.537961   2.835647   3.492158   2.975454
    12  H    2.184780   3.488514   3.841490   4.325278   3.961669
    13  C    3.920021   4.430547   4.686973   5.452547   3.945410
    14  C    6.684321   7.241959   7.362486   8.286452   6.686808
    15  C    4.731267   5.077761   5.037900   6.163575   4.663313
    16  C    4.813970   5.497759   5.915666   6.434102   4.934667
    17  C    6.135579   6.812905   7.135796   7.783900   6.222492
    18  C    6.069984   6.473114   6.419481   7.556806   6.001069
    19  H    6.911664   7.659190   8.067606   8.579220   7.039990
    20  H    6.792541   7.097213   6.892755   8.192097   6.673008
    21  O    4.720816   5.516822   6.158062   6.297990   4.959295
    22  H    5.662192   6.466115   7.124126   7.217769   5.853988
    23  O    4.630251   4.732365   4.406522   5.821730   4.498804
    24  H    3.766184   3.918813   3.558397   5.002476   3.931131
    25  O    2.451589   2.996537   2.729672   4.002016   3.580874
    26  H    2.733077   3.512100   3.204483   4.387809   4.360654
    27  C    1.532694   2.509887   2.728968   2.755185   3.888451
    28  H    2.176834   2.784114   3.108056   2.577198   4.212164
    29  H    2.176230   3.472323   3.740239   3.765164   4.712445
    30  H    2.195047   2.762187   2.525114   3.101161   4.194304
    31  O    1.433135   2.403015   3.357540   2.616910   2.964071
    32  H    1.971865   3.255556   4.107846   3.530492   3.821515
    33  H    2.834441   2.147457   3.047604   2.409564   1.096851
    34  C    4.435011   3.901867   4.232737   4.665610   2.527554
    35  C    5.510960   4.863589   4.946340   5.652445   3.563515
    36  H    6.505357   5.851654   5.982797   6.575426   4.468130
    37  H    5.599746   4.912432   4.755060   5.766274   3.835351
    38  C    4.954283   4.564622   5.172953   5.130216   3.130843
    39  H    4.872783   4.314764   5.027705   4.659929   2.875983
    40  H    6.041950   5.610721   6.159110   6.157807   4.137205
    41  H    4.767303   4.723103   5.432661   5.328531   3.485277
    42  C    8.174259   8.736861   8.819453   9.786880   8.158761
    43  H    8.553289   9.261247   9.426513  10.283458   8.734754
    44  H    8.516511   9.078271   9.039820  10.155503   8.616748
    45  C    9.016075   9.385611   9.480737  10.415223   8.592112
    46  H   10.065104  10.461729  10.536009  11.497299   9.684162
    47  H    8.941624   9.296504   9.506874  10.277882   8.394184
    48  H    8.905503   9.111676   9.118866  10.147869   8.269352
                    6          7          8          9         10
     6  H    0.000000
     7  C    2.176751   0.000000
     8  H    2.436677   1.097767   0.000000
     9  C    3.500386   1.560441   2.173275   0.000000
    10  H    3.728359   2.132656   3.038362   1.097324   0.000000
    11  C    3.959229   2.571799   2.793683   1.553230   2.129219
    12  H    4.992693   3.509566   3.797341   2.167177   2.455738
    13  C    4.769423   2.608804   2.904742   1.532496   2.135192
    14  C    7.376536   5.216683   5.279846   4.380325   4.798354
    15  C    5.305973   3.207755   3.016466   2.589303   3.442149
    16  C    5.803854   3.708936   4.206874   2.543103   2.568577
    17  C    7.020759   4.882158   5.226771   3.846383   3.963113
    18  C    6.604050   4.502404   4.312934   3.872580   4.576313
    19  H    7.859780   5.774322   6.217293   4.706071   4.626325
    20  H    7.170581   5.180592   4.789975   4.732529   5.535396
    21  O    5.904629   4.058731   4.816871   2.841650   2.307219
    22  H    6.767131   4.943128   5.702615   3.795861   3.238135
    23  O    4.972590   3.181786   2.541479   3.003211   4.054734
    24  H    4.478804   2.828717   2.175499   2.585199   3.676030
    25  O    4.321955   3.025579   2.682743   2.454263   3.360255
    26  H    5.109986   3.964141   3.637990   3.265485   4.050619
    27  C    4.659980   4.419727   4.535566   3.927469   4.143505
    28  H    4.867793   5.051739   5.240286   4.729531   4.793229
    29  H    5.585317   5.045004   5.215345   4.233664   4.367779
    30  H    4.818155   4.617061   4.467379   4.285199   4.740397
    31  O    3.951230   3.575552   4.254536   2.983925   2.560080
    32  H    4.854110   4.179403   4.846636   3.248618   2.759528
    33  H    1.757931   2.184837   3.047406   2.851538   2.565967
    34  C    2.749530   1.531047   2.136824   2.592677   2.825646
    35  C    3.493460   2.501840   2.555036   3.596527   4.033301
    36  H    4.316231   3.506726   3.639826   4.511028   4.808315
    37  H    3.698907   2.723634   2.312491   3.822279   4.501670
    38  C    3.425779   2.612164   3.504453   3.233499   2.917916
    39  H    3.038740   2.934586   3.866381   3.699678   3.261198
    40  H    4.269690   3.545329   4.299690   4.186989   3.907503
    41  H    4.056764   2.871432   3.862124   2.922372   2.346223
    42  C    8.804878   6.666821   6.677806   5.885385   6.272046
    43  H    9.462136   7.300191   7.416636   6.351487   6.603287
    44  H    9.236042   7.115822   6.970974   6.360015   6.883139
    45  C    9.110129   7.079486   7.109621   6.561778   6.899987
    46  H   10.193952   8.168164   8.170770   7.634779   7.967441
    47  H    8.920172   6.936591   7.123129   6.433315   6.611836
    48  H    8.676731   6.739547   6.652137   6.441213   6.893611
                   11         12         13         14         15
    11  C    0.000000
    12  H    1.098115   0.000000
    13  C    2.548183   2.715946   0.000000
    14  C    5.199391   5.041974   2.849711   0.000000
    15  C    3.276862   3.520246   1.403878   2.426567   0.000000
    16  C    3.538941   3.356978   1.406361   2.425409   2.390217
    17  C    4.763399   4.495434   2.454626   1.397573   2.777462
    18  C    4.571375   4.622737   2.448183   1.396861   1.396760
    19  H    5.614898   5.235878   3.435596   2.148673   3.863757
    20  H    5.308699   5.418876   3.419850   2.162028   2.145653
    21  O    3.766012   3.463350   2.395674   3.665106   3.648963
    22  H    4.720488   4.341913   3.193012   3.770420   4.305493
    23  O    3.326733   3.824405   2.435715   3.630399   1.367795
    24  H    2.543085   3.145765   2.482239   4.277779   1.902034
    25  O    1.438560   2.056592   2.999108   5.274513   3.080962
    26  H    1.959504   2.178506   3.729005   5.791364   3.776230
    27  C    2.555818   2.815916   5.102287   7.690961   5.736021
    28  H    3.508925   3.787498   6.022310   8.687207   6.731329
    29  H    2.779979   2.594062   5.207254   7.598789   5.877758
    30  H    2.870837   3.256157   5.342246   7.817382   5.717098
    31  O    2.449517   2.683452   4.338492   7.061652   5.442234
    32  H    2.585262   2.398087   4.371941   6.909405   5.517376
    33  H    3.412920   4.220764   4.261364   6.985601   5.217492
    34  C    3.956299   4.749959   3.086127   5.151730   3.617324
    35  C    4.892690   5.702785   3.698586   5.179529   3.756233
    36  H    5.892385   6.645354   4.464843   5.531227   4.512296
    37  H    4.898407   5.753320   3.836279   5.194241   3.532661
    38  C    4.658542   5.278695   3.745174   5.661494   4.607841
    39  H    4.924964   5.602165   4.532075   6.676956   5.461284
    40  H    5.669852   6.256758   4.429625   5.880820   5.145123
    41  H    4.354185   4.769159   3.302295   5.172249   4.387876
    42  C    6.673564   6.455733   4.355515   1.506134   3.807964
    43  H    7.071604   6.698878   4.847102   2.140924   4.528086
    44  H    6.976513   6.760635   4.842298   2.141437   4.035514
    45  C    7.582342   7.512942   5.098717   2.506472   4.564983
    46  H    8.610246   8.493176   6.154709   3.453634   5.576221
    47  H    7.589296   7.524842   5.052369   2.777369   4.797598
    48  H    7.499288   7.579959   5.047137   2.777394   4.330093
                   16         17         18         19         20
    16  C    0.000000
    17  C    1.399599   0.000000
    18  C    2.771877   2.403138   0.000000
    19  H    2.163958   1.086324   3.387226   0.000000
    20  H    3.859173   3.396537   1.087563   4.295859   0.000000
    21  O    1.370492   2.383337   4.142015   2.623153   5.229379
    22  H    1.916366   2.378762   4.536631   2.193418   5.609208
    23  O    3.672856   4.140738   2.333114   5.226503   2.520324
    24  H    3.833341   4.555819   3.099707   5.625214   3.411131
    25  O    4.226410   5.216333   4.336963   6.188785   4.811917
    26  H    4.821949   5.745253   4.900273   6.669650   5.316707
    27  C    5.987343   7.225516   7.019760   7.993191   7.643358
    28  H    6.860141   8.148892   8.041701   8.875941   8.683728
    29  H    5.915830   7.080564   7.052973   7.768365   7.709405
    30  H    6.386190   7.542760   6.984873   8.396016   7.468458
    31  O    4.874520   6.249742   6.703254   6.848953   7.562805
    32  H    4.711785   6.025908   6.678925   6.538434   7.575211
    33  H    4.985129   6.319397   6.497792   7.007962   7.279752
    34  C    3.841729   4.811692   4.620661   5.596893   5.291246
    35  C    4.484139   5.158223   4.520878   5.978981   4.964110
    36  H    5.016101   5.515889   5.043003   6.215509   5.445000
    37  H    4.829569   5.423005   4.287146   6.346596   4.526630
    38  C    4.022440   5.004301   5.475953   5.547468   6.284715
    39  H    4.873202   5.963253   6.443749   6.484092   7.248864
    40  H    4.541501   5.288776   5.803982   5.728601   6.553138
    41  H    3.274214   4.302305   5.194027   4.737795   6.122469
    42  C    3.811107   2.525942   2.521187   2.722715   2.736967
    43  H    4.046370   2.671480   3.362957   2.471294   3.701484
    44  H    4.531059   3.368145   2.663795   3.689753   2.480736
    45  C    4.561128   3.341415   3.340303   3.408491   3.427750
    46  H    5.575096   4.287092   4.284335   4.200762   4.218098
    47  H    4.326219   3.161047   3.775438   3.023438   4.110027
    48  H    4.786679   3.773713   3.161182   4.089568   3.043674
                   21         22         23         24         25
    21  O    0.000000
    22  H    0.971174   0.000000
    23  O    4.823742   5.570438   0.000000
    24  H    4.798421   5.642675   0.981588   0.000000
    25  O    4.816728   5.740726   2.594658   1.643010   0.000000
    26  H    5.351844   6.244698   3.299045   2.398272   0.975875
    27  C    5.920921   6.830169   5.466867   4.514663   2.923010
    28  H    6.652104   7.540490   6.455178   5.502711   3.957326
    29  H    5.785689   6.630471   5.763351   4.852634   3.228849
    30  H    6.533757   7.466222   5.205537   4.225147   2.670749
    31  O    4.376010   5.223243   5.636891   4.882112   3.701979
    32  H    4.111887   4.894152   5.850354   5.122028   3.885195
    33  H    4.719057   5.543962   5.292506   4.769359   4.332614
    34  C    4.179600   4.878478   3.837163   3.846572   4.431877
    35  C    5.093297   5.702616   3.795262   4.064540   5.043791
    36  H    5.571944   6.039226   4.681237   5.060877   6.098896
    37  H    5.636376   6.299681   3.225344   3.561784   4.733346
    38  C    3.914072   4.443101   5.119341   5.110846   5.473770
    39  H    4.580631   5.139017   5.841713   5.687997   5.818263
    40  H    4.488998   4.838981   5.710769   5.854982   6.409130
    41  H    2.927929   3.410496   5.135693   5.109955   5.346327
    42  C    4.908946   4.789767   4.851586   5.592728   6.664707
    43  H    4.933628   4.644543   5.662599   6.306110   7.192920
    44  H    5.717128   5.695099   4.848928   5.622825   6.752074
    45  C    5.581680   5.381264   5.542276   6.378226   7.609327
    46  H    6.549955   6.269187   6.498957   7.353867   8.594809
    47  H    5.150194   4.832021   5.897679   6.668634   7.808671
    48  H    5.911949   5.858307   5.112189   6.018955   7.399701
                   26         27         28         29         30
    26  H    0.000000
    27  C    2.683598   0.000000
    28  H    3.753425   1.096242   0.000000
    29  H    2.774802   1.095905   1.755115   0.000000
    30  H    2.285625   1.094402   1.773795   1.777208   0.000000
    31  O    3.969659   2.384547   2.593786   2.678282   3.356431
    32  H    4.002517   2.580257   2.891462   2.452963   3.604679
    33  H    5.058833   4.222761   4.401209   4.944532   4.761503
    34  C    5.391689   5.901228   6.471609   6.493628   6.143877
    35  C    6.018049   6.892871   7.514394   7.513609   6.970770
    36  H    7.071239   7.923187   8.516442   8.528082   8.039154
    37  H    5.681357   6.845315   7.527033   7.490620   6.753173
    38  C    6.377327   6.484297   6.929245   6.995732   6.942722
    39  H    6.684259   6.365893   6.643082   6.960032   6.885391
    40  H    7.333473   7.571374   8.021876   8.074139   8.002746
    41  H    6.181432   6.286130   6.777910   6.639133   6.850538
    42  C    7.115905   9.131917  10.145215   8.985535   9.222819
    43  H    7.566133   9.466147  10.465976   9.207183   9.638233
    44  H    7.118682   9.350737  10.403193   9.190634   9.324949
    45  C    8.185456  10.114298  11.087973  10.080769  10.215668
    46  H    9.125557  11.125033  12.114016  11.051463  11.207345
    47  H    8.440704  10.135554  11.054811  10.116304  10.341928
    48  H    8.037305  10.026182  10.994216  10.100600  10.046981
                   31         32         33         34         35
    31  O    0.000000
    32  H    0.973026   0.000000
    33  H    2.681580   3.538216   0.000000
    34  C    4.718271   5.293906   2.774187   0.000000
    35  C    5.970822   6.541161   3.989778   1.344724   0.000000
    36  H    6.844576   7.399281   4.738967   2.126879   1.085285
    37  H    6.298505   6.868085   4.503723   2.124892   1.086460
    38  C    4.790430   5.309018   2.803556   1.505158   2.475748
    39  H    4.565493   5.199531   2.289589   2.152542   3.169334
    40  H    5.870269   6.358479   3.832271   2.165611   2.599503
    41  H    4.424822   4.767517   3.035624   2.155667   3.218171
    42  C    8.539795   8.341815   8.452075   6.471686   6.329054
    43  H    8.790335   8.482147   8.933583   7.148612   7.149640
    44  H    9.027950   8.829462   9.022000   7.051146   6.822542
    45  C    9.338692   9.244593   8.849018   6.560333   6.200255
    46  H   10.387943  10.258392   9.942322   7.638377   7.228885
    47  H    9.110914   9.023942   8.524453   6.268571   5.998684
    48  H    9.342178   9.353994   8.617365   6.155299   5.599813
                   36         37         38         39         40
    36  H    0.000000
    37  H    1.848819   0.000000
    38  C    2.706683   3.479326   0.000000
    39  H    3.419204   4.113561   1.093822   0.000000
    40  H    2.365077   3.684560   1.095698   1.761825   0.000000
    41  H    3.498725   4.144233   1.093140   1.777067   1.760125
    42  C    6.514558   6.305079   6.921804   7.975451   6.982466
    43  H    7.333290   7.215611   7.441397   8.468858   7.519319
    44  H    7.075073   6.630000   7.674648   8.716513   7.786053
    45  C    6.133141   6.246666   6.912522   8.003100   6.735891
    46  H    7.104931   7.244410   7.968434   9.059608   7.740424
    47  H    5.827757   6.233957   6.392596   7.472497   6.123875
    48  H    5.495033   5.537264   6.664750   7.754240   6.451225
                   41         42         43         44         45
    41  H    0.000000
    42  C    6.444049   0.000000
    43  H    6.829428   1.096830   0.000000
    44  H    7.262872   1.096846   1.752158   0.000000
    45  C    6.559800   1.521026   2.154984   2.154965   0.000000
    46  H    7.610020   2.159346   2.480447   2.480158   1.094574
    47  H    5.987265   2.173011   2.519931   3.074546   1.095312
    48  H    6.481603   2.172993   3.074553   2.520152   1.095316
                   46         47         48
    46  H    0.000000
    47  H    1.772212   0.000000
    48  H    1.772234   1.770529   0.000000
 Stoichiometry    C18H26O4
 Framework group  C1[X(C18H26O4)]
 Deg. of freedom   138
 Full point group                 C1      NOp   1
 Largest Abelian subgroup         C1      NOp   1
 Largest concise Abelian subgroup C1      NOp   1
                         Standard orientation:                         
 ---------------------------------------------------------------------
 Center     Atomic      Atomic             Coordinates (Angstroms)
 Number     Number       Type             X           Y           Z
 ---------------------------------------------------------------------
      1          6           0       -3.228183   -0.894879    0.275613
      2          6           0       -3.669211    0.315085   -0.565685
      3          1           0       -3.652931    0.063515   -1.633491
      4          1           0       -4.701980    0.587980   -0.314193
      5          6           0       -2.785620    1.542464   -0.326789
      6          1           0       -3.115762    2.352517   -0.989383
      7          6           0       -1.288902    1.247386   -0.565695
      8          1           0       -1.205248    0.981307   -1.627437
      9          6           0       -0.838532    0.020742    0.287232
     10          1           0       -1.037657    0.301546    1.329162
     11          6           0       -1.731724   -1.219542    0.010779
     12          1           0       -1.406883   -2.035185    0.670370
     13          6           0        0.649756   -0.329551    0.183126
     14          6           0        3.452782   -0.831444    0.073579
     15          6           0        1.307700   -0.577417   -1.032006
     16          6           0        1.437317   -0.385317    1.346951
     17          6           0        2.815267   -0.626036    1.300197
     18          6           0        2.684808   -0.802820   -1.092877
     19          1           0        3.401635   -0.653532    2.214263
     20          1           0        3.148795   -0.967217   -2.062661
     21          8           0        0.841013   -0.207442    2.568029
     22          1           0        1.533819   -0.145267    3.245772
     23          8           0        0.655521   -0.640535   -2.232648
     24          1           0       -0.262130   -0.934152   -2.044975
     25          8           0       -1.558370   -1.663227   -1.346625
     26          1           0       -1.869590   -2.587324   -1.385580
     27          6           0       -4.133272   -2.093025   -0.031656
     28          1           0       -5.168806   -1.880939    0.258924
     29          1           0       -3.823338   -2.970455    0.547191
     30          1           0       -4.124816   -2.357640   -1.093551
     31          8           0       -3.424013   -0.565685    1.656612
     32          1           0       -3.104073   -1.306739    2.199988
     33          1           0       -2.948806    1.893743    0.699395
     34          6           0       -0.449374    2.507033   -0.336379
     35          6           0        0.295090    3.027633   -1.327858
     36          1           0        0.903457    3.914269   -1.180859
     37          1           0        0.332120    2.567588   -2.311414
     38          6           0       -0.461874    3.146017    1.026355
     39          1           0       -1.455984    3.535158    1.264599
     40          1           0        0.237625    3.987165    1.087387
     41          1           0       -0.171052    2.430441    1.799872
     42          6           0        4.939924   -1.059731    0.004773
     43          1           0        5.273393   -1.593799    0.902885
     44          1           0        5.174631   -1.715922   -0.842220
     45          6           0        5.706042    0.247326   -0.130087
     46          1           0        6.782013    0.052107   -0.177706
     47          1           0        5.518398    0.907758    0.723335
     48          1           0        5.417985    0.784638   -1.040052
 ---------------------------------------------------------------------
 Rotational constants (GHZ):      0.4723329      0.1865048      0.1732851
 Standard basis: 6-31+G(d,p) (6D, 7F)
 There are   548 symmetry adapted basis functions of A   symmetry.
 Integral buffers will be    131072 words long.
 Raffenetti 2 integral format.
 Two-electron integral symmetry is turned on.
   548 basis functions,   886 primitive gaussians,   548 cartesian basis functions
    83 alpha electrons       83 beta electrons
       nuclear repulsion energy      1984.5002328699 Hartrees.
 NAtoms=   48 NActive=   48 NUniq=   48 SFac= 1.00D+00 NAtFMM=   60 NAOKFM=F Big=F
 ------------------------------------------------------------------------------
 Polarizable Continuum Model (PCM)
 =================================
 Model                : PCM.
 Atomic radii         : UFF (Universal Force Field).
 Polarization charges : Total charges.
 Charge compensation  : None.
 Solution method      : Matrix inversion.
 Cavity type          : Scaled VdW (van der Waals Surface) (Alpha=1.100).
 Cavity algorithm     : GePol (No added spheres)
                        Default sphere list used, NSphG=   48.
                        Lebedev-Laikov grids with approx.  5.0 points / Ang**2.
                        Smoothing algorithm: Karplus/York (Gamma=1.0000).
                        Polarization charges: spherical gaussians, with
                                              point-specific exponents (IZeta= 3).
                        Self-potential: point-specific (ISelfS= 7).
                        Self-field    : sphere-specific E.n sum rule (ISelfD= 2).
 Solvent              : Water, Eps=  78.355300 Eps(inf)=   1.777849
 ------------------------------------------------------------------------------
 One-electron integrals computed using PRISM.
 NBasis=   548 RedAO= T  NBF=   548
 NBsUse=   546 1.00D-06 NBFU=   546
 Harris functional with IExCor=  908 diagonalized for initial guess.
 ExpMin= 4.38D-02 ExpMax= 5.48D+03 ExpMxC= 8.25D+02 IAcc=2 IRadAn=         4 AccDes= 0.00D+00
 HarFok:  IExCor=  908 AccDes= 0.00D+00 IRadAn=         4 IDoV= 1
 ScaDFX=  1.000000  1.000000  1.000000  1.000000
 FoFCou: FMM=F IPFlag=           0 FMFlag=      100000 FMFlg1=           0
         NFxFlg=           0 DoJE=T BraDBF=F KetDBF=T FulRan=T
         Omega=  0.000000  0.000000  1.000000  0.000000  0.000000 ICntrl=     500 IOpCl=  0
         NMat0=    1 NMatS0=    1 NMatT0=    0 NMatD0=    1 NMtDS0=    0 NMtDT0=    0
         I1Cent=           4 NGrid=           0.
 Petite list used in FoFCou.
 Initial guess orbital symmetries:
       Occupied  (A) (A) (A) (A) (A) (A) (A) (A) (A) (A) (A) (A)
                 (A) (A) (A) (A) (A) (A) (A) (A) (A) (A) (A) (A)
                 (A) (A) (A) (A) (A) (A) (A) (A) (A) (A) (A) (A)
                 (A) (A) (A) (A) (A) (A) (A) (A) (A) (A) (A) (A)
                 (A) (A) (A) (A) (A) (A) (A) (A) (A) (A) (A) (A)
                 (A) (A) (A) (A) (A) (A) (A) (A) (A) (A) (A) (A)
                 (A) (A) (A) (A) (A) (A) (A) (A) (A) (A) (A)
       Virtual   (A) (A) (A) (A) (A) (A) (A) (A) (A) (A) (A) (A)
                 (A) (A) (A) (A) (A) (A) (A) (A) (A) (A) (A) (A)
                 (A) (A) (A) (A) (A) (A) (A) (A) (A) (A) (A) (A)
                 (A) (A) (A) (A) (A) (A) (A) (A) (A) (A) (A) (A)
                 (A) (A) (A) (A) (A) (A) (A) (A) (A) (A) (A) (A)
                 (A) (A) (A) (A) (A) (A) (A) (A) (A) (A) (A) (A)
                 (A) (A) (A) (A) (A) (A) (A) (A) (A) (A) (A) (A)
                 (A) (A) (A) (A) (A) (A) (A) (A) (A) (A) (A) (A)
                 (A) (A) (A) (A) (A) (A) (A) (A) (A) (A) (A) (A)
                 (A) (A) (A) (A) (A) (A) (A) (A) (A) (A) (A) (A)
                 (A) (A) (A) (A) (A) (A) (A) (A) (A) (A) (A) (A)
                 (A) (A) (A) (A) (A) (A) (A) (A) (A) (A) (A) (A)
                 (A) (A) (A) (A) (A) (A) (A) (A) (A) (A) (A) (A)
                 (A) (A) (A) (A) (A) (A) (A) (A) (A) (A) (A) (A)
                 (A) (A) (A) (A) (A) (A) (A) (A) (A) (A) (A) (A)
                 (A) (A) (A) (A) (A) (A) (A) (A) (A) (A) (A) (A)
                 (A) (A) (A) (A) (A) (A) (A) (A) (A) (A) (A) (A)
                 (A) (A) (A) (A) (A) (A) (A) (A) (A) (A) (A) (A)
                 (A) (A) (A) (A) (A) (A) (A) (A) (A) (A) (A) (A)
                 (A) (A) (A) (A) (A) (A) (A) (A) (A) (A) (A) (A)
                 (A) (A) (A) (A) (A) (A) (A) (A) (A) (A) (A) (A)
                 (A) (A) (A) (A) (A) (A) (A) (A) (A) (A) (A) (A)
                 (A) (A) (A) (A) (A) (A) (A) (A) (A) (A) (A) (A)
                 (A) (A) (A) (A) (A) (A) (A) (A) (A) (A) (A) (A)
                 (A) (A) (A) (A) (A) (A) (A) (A) (A) (A) (A) (A)
                 (A) (A) (A) (A) (A) (A) (A) (A) (A) (A) (A) (A)
                 (A) (A) (A) (A) (A) (A) (A) (A) (A) (A) (A) (A)
                 (A) (A) (A) (A) (A) (A) (A) (A) (A) (A) (A) (A)
                 (A) (A) (A) (A) (A) (A) (A) (A) (A) (A) (A) (A)
                 (A) (A) (A) (A) (A) (A) (A) (A) (A) (A) (A) (A)
                 (A) (A) (A) (A) (A) (A) (A) (A) (A) (A) (A) (A)
                 (A) (A) (A) (A) (A) (A) (A) (A) (A) (A) (A) (A)
                 (A) (A) (A) (A) (A) (A) (A) (A) (A) (A) (A) (A)
                 (A) (A) (A) (A) (A) (A) (A) (A) (A) (A) (A) (A)
                 (A) (A) (A) (A) (A) (A) (A) (A) (A) (A) (A) (A)
                 (A) (A) (A) (A) (A) (A) (A) (A) (A) (A) (A) (A)
                 (A) (A) (A) (A) (A) (A) (A) (A) (A) (A) (A) (A)
                 (A) (A) (A) (A) (A) (A) (A) (A) (A) (A) (A) (A)
                 (A) (A) (A) (A) (A) (A) (A)
 The electronic state of the initial guess is 1-A.
 Requested convergence on RMS density matrix=1.00D-08 within 128 cycles.
 Requested convergence on MAX density matrix=1.00D-06.
 Requested convergence on             energy=1.00D-06.
 No special actions if energy rises.
 CoulSu:  requested number of processors reduced to:   2 ShMem   1 Linda.
 CoulSu:  requested number of processors reduced to:   2 ShMem   1 Linda.
 Error on total polarization charges =  0.01927
 SCF Done:  E(RmPW1PW91) =  -1002.31691863     A.U. after   14 cycles
             Convg  =    0.5189D-08             -V/T =  2.0094
 Range of M.O.s used for correlation:     1   546
 NBasis=   548 NAE=    83 NBE=    83 NFC=     0 NFV=     0
 NROrb=    546 NOA=    83 NOB=    83 NVA=   463 NVB=   463

 **** Warning!!: The largest alpha MO coefficient is  0.15450841D+03

 NEqPCM:  Using equilibrium solvation (IEInf=0, Eps=  78.3553, EpsInf=   1.7778)
          Differentiating once with respect to magnetic field using GIAOs.
          Electric field/nuclear overlap derivatives assumed to be zero.
 FoFCou: FMM=F IPFlag=           0 FMFlag=    10101102 FMFlg1=           0
         NFxFlg=    40000000 DoJE=F BraDBF=F KetDBF=T FulRan=T
         Omega=  0.000000  0.000000  1.000000  0.000000  0.000000 ICntrl=    6100 IOpCl=  0
         NMat0=    1 NMatS0=    1 NMatT0=    0 NMatD0=    1 NMtDS0=    0 NMtDT0=    0
         I1Cent=           7 NGrid=        3045.
 Symmetry not used in FoFCou.
          There are     3 degrees of freedom in the 1st order CPHF.  IDoFFX=0.
      3 vectors produced by pass  0 Test12= 1.28D-12 3.33D-08 XBig12= 7.28D+02 3.76D+00.
 AX will form     3 AO Fock derivatives at one time.
      3 vectors produced by pass  1 Test12= 1.28D-12 3.33D-08 XBig12= 1.39D+00 3.07D-01.
      3 vectors produced by pass  2 Test12= 1.28D-12 3.33D-08 XBig12= 5.83D-03 3.61D-02.
      3 vectors produced by pass  3 Test12= 1.28D-12 3.33D-08 XBig12= 3.08D-05 1.73D-03.
      3 vectors produced by pass  4 Test12= 1.28D-12 3.33D-08 XBig12= 9.33D-08 5.71D-05.
      3 vectors produced by pass  5 Test12= 1.28D-12 3.33D-08 XBig12= 2.57D-10 3.09D-06.
      3 vectors produced by pass  6 Test12= 1.28D-12 3.33D-08 XBig12= 1.12D-12 2.62D-07.
 Inverted reduced A of dimension    21 with in-core refinement.
 Calculating GIAO nuclear magnetic shielding tensors.
 SCF GIAO Magnetic shielding tensor (ppm):
      1  C    Isotropic =   122.4485   Anisotropy =    51.6326
   XX=   108.5827   YX=    -0.9705   ZX=   -14.9143
   XY=     1.3886   YY=   108.6367   ZY=    14.1329
   XZ=    -7.5898   YZ=    14.1651   ZZ=   150.1262
   Eigenvalues:   101.6675   108.8079   156.8702
      2  C    Isotropic =   162.2825   Anisotropy =    23.8974
   XX=   157.0973   YX=     0.0522   ZX=     3.0522
   XY=     6.3235   YY=   173.9622   ZY=   -11.2561
   XZ=    -1.8928   YZ=    -7.3040   ZZ=   155.7879
   Eigenvalues:   151.3175   157.3158   178.2141
      3  H    Isotropic =    29.5038   Anisotropy =     6.7958
   XX=    28.1342   YX=     1.0036   ZX=     2.9213
   XY=     0.3245   YY=    27.6946   ZY=     0.2253
   XZ=     2.6896   YZ=    -0.1912   ZZ=    32.6827
   Eigenvalues:    26.5004    27.9767    34.0343
      4  H    Isotropic =    29.8975   Anisotropy =     9.3337
   XX=    36.0381   YX=    -0.7192   ZX=     0.1037
   XY=    -0.7628   YY=    29.0008   ZY=    -0.4544
   XZ=     0.2551   YZ=    -0.5525   ZZ=    24.6535
   Eigenvalues:    24.5952    28.9773    36.1200
      5  C    Isotropic =   167.3170   Anisotropy =    21.1694
   XX=   181.1064   YX=    -0.3051   ZX=     2.7500
   XY=    -2.2331   YY=   165.2425   ZY=    -0.6620
   XZ=     1.6208   YZ=    -4.4702   ZZ=   155.6022
   Eigenvalues:   154.8352   165.6859   181.4300
      6  H    Isotropic =    30.1322   Anisotropy =    10.0685
   XX=    30.6848   YX=    -2.4420   ZX=     2.4124
   XY=    -2.5423   YY=    33.0592   ZY=    -4.2727
   XZ=     2.6599   YZ=    -3.7555   ZZ=    26.6525
   Eigenvalues:    24.4405    29.1115    36.8445
      7  C    Isotropic =   151.9280   Anisotropy =    29.7013
   XX=   160.7297   YX=    13.8674   ZX=     3.5458
   XY=    10.5945   YY=   156.1498   ZY=     0.8334
   XZ=     3.8115   YZ=     6.7979   ZZ=   138.9045
   Eigenvalues:   138.0171   146.0380   171.7289
      8  H    Isotropic =    28.2318   Anisotropy =     4.2293
   XX=    27.5328   YX=    -0.2420   ZX=    -1.9461
   XY=    -1.5365   YY=    27.3108   ZY=    -0.4740
   XZ=    -2.1615   YZ=    -0.6757   ZZ=    29.8516
   Eigenvalues:    25.6570    27.9869    31.0513
      9  C    Isotropic =   155.9600   Anisotropy =    13.6608
   XX=   161.1098   YX=     1.1053   ZX=     1.2318
   XY=    -1.3791   YY=   164.1982   ZY=    -0.9680
   XZ=    -2.9210   YZ=    -7.8740   ZZ=   142.5721
   Eigenvalues:   141.6656   161.1472   165.0672
     10  H    Isotropic =    27.2921   Anisotropy =     6.7598
   XX=    28.9873   YX=     0.1620   ZX=     2.2406
   XY=     0.2577   YY=    23.0435   ZY=     0.6429
   XZ=     2.3060   YZ=     1.0216   ZZ=    29.8456
   Eigenvalues:    22.9423    27.1354    31.7987
     11  C    Isotropic =   112.8555   Anisotropy =    37.0005
   XX=   117.2645   YX=     2.6009   ZX=   -16.1916
   XY=     8.4185   YY=    90.1214   ZY=    10.1947
   XZ=    -5.1567   YZ=     7.0896   ZZ=   131.1806
   Eigenvalues:    86.4266   114.6175   137.5225
     12  H    Isotropic =    27.8562   Anisotropy =     3.3155
   XX=    26.9016   YX=     0.3095   ZX=     0.0286
   XY=     2.2154   YY=    27.7257   ZY=    -0.6908
   XZ=     0.6770   YZ=    -2.4157   ZZ=    28.9413
   Eigenvalues:    25.5184    27.9837    30.0666
     13  C    Isotropic =    88.7974   Anisotropy =   120.3776
   XX=    52.3536   YX=    24.9384   ZX=    -0.9175
   XY=    23.3615   YY=   163.0673   ZY=    -9.5556
   XZ=    -3.0466   YZ=   -11.1801   ZZ=    50.9715
   Eigenvalues:    47.3036    50.0396   169.0492
     14  C    Isotropic =    50.7465   Anisotropy =   188.6775
   XX=   -24.7555   YX=    38.2823   ZX=     0.8082
   XY=    36.4055   YY=   168.2590   ZY=   -16.2424
   XZ=     1.6752   YZ=   -14.2558   ZZ=     8.7362
   Eigenvalues:   -32.1346     7.8426   176.5316
     15  C    Isotropic =    40.8834   Anisotropy =   128.5768
   XX=    16.9240   YX=     7.5259   ZX=   -33.2086
   XY=    13.7687   YY=   124.0386   ZY=    -6.4968
   XZ=   -31.5692   YZ=   -15.9866   ZZ=   -18.3123
   Eigenvalues:   -37.6771    33.7261   126.6013
     16  C    Isotropic =    44.2750   Anisotropy =   122.8620
   XX=    32.3023   YX=    16.7139   ZX=    27.4717
   XY=    19.1775   YY=   121.7990   ZY=   -18.7733
   XZ=    18.8449   YZ=   -13.3335   ZZ=   -21.2762
   Eigenvalues:   -32.8662    39.5082   126.1831
     17  C    Isotropic =    93.1585   Anisotropy =    99.1101
   XX=    76.6847   YX=     8.8567   ZX=   -32.8378
   XY=     1.6451   YY=   158.5570   ZY=    -2.8435
   XZ=   -34.2762   YZ=    -4.6433   ZZ=    44.2339
   Eigenvalues:    23.1844    97.0592   159.2319
     18  C    Isotropic =    88.1120   Anisotropy =   108.8078
   XX=    77.4482   YX=    12.0975   ZX=    25.6298
   XY=    14.5159   YY=   156.8452   ZY=   -23.3278
   XZ=    28.6383   YZ=   -13.9318   ZZ=    30.0427
   Eigenvalues:    14.1728    89.5127   160.6505
     19  H    Isotropic =    25.2404   Anisotropy =     6.9448
   XX=    28.5930   YX=    -1.3841   ZX=    -2.1066
   XY=    -1.1424   YY=    21.4601   ZY=    -0.0184
   XZ=    -2.1130   YZ=     0.3768   ZZ=    25.6680
   Eigenvalues:    21.2344    24.6164    29.8702
     20  H    Isotropic =    24.8510   Anisotropy =     7.7312
   XX=    29.1538   YX=    -1.0362   ZX=     2.0746
   XY=    -1.2522   YY=    21.2594   ZY=     0.8171
   XZ=     2.1407   YZ=     0.5290   ZZ=    24.1398
   Eigenvalues:    20.7770    23.7708    30.0051
     21  O    Isotropic =   228.2458   Anisotropy =    41.9446
   XX=   201.2192   YX=     0.9194   ZX=   -17.8603
   XY=    12.6469   YY=   241.5099   ZY=     4.2027
   XZ=   -38.0239   YZ=     2.3340   ZZ=   242.0082
   Eigenvalues:   185.9996   242.5289   256.2088
     22  H    Isotropic =    26.6169   Anisotropy =    15.3739
   XX=    29.1777   YX=    -0.7329   ZX=     5.0730
   XY=    -0.2802   YY=    18.2962   ZY=     2.0970
   XZ=     6.5783   YZ=     1.0335   ZZ=    32.3766
   Eigenvalues:    17.9791    25.0053    36.8661
     23  O    Isotropic =   221.8956   Anisotropy =    78.2999
   XX=   179.2024   YX=     6.0170   ZX=    13.2011
   XY=     5.2118   YY=   260.2673   ZY=   -54.2918
   XZ=    30.0329   YZ=     3.5796   ZZ=   226.2169
   Eigenvalues:   168.3182   223.2730   274.0955
     24  H    Isotropic =    21.8499   Anisotropy =    27.9052
   XX=    35.4077   YX=     7.8800   ZX=    -6.9631
   XY=    11.3372   YY=    12.6646   ZY=     1.5644
   XZ=    -6.0043   YZ=    -0.4490   ZZ=    17.4773
   Eigenvalues:     8.2170    16.8793    40.4533
     25  O    Isotropic =   285.6883   Anisotropy =    40.7715
   XX=   283.8971   YX=    17.5657   ZX=     5.6093
   XY=    23.3229   YY=   292.4323   ZY=    14.0836
   XZ=    -6.0869   YZ=    14.0476   ZZ=   280.7356
   Eigenvalues:   262.1796   282.0160   312.8693
     26  H    Isotropic =    28.6961   Anisotropy =    18.9746
   XX=    24.1937   YX=     5.4753   ZX=    -2.2862
   XY=     6.2135   YY=    38.1946   ZY=     5.1166
   XZ=    -1.4981   YZ=     5.1672   ZZ=    23.7001
   Eigenvalues:    18.9229    25.8196    41.3458
     27  C    Isotropic =   167.7221   Anisotropy =    46.7136
   XX=   164.5623   YX=    22.2176   ZX=     6.1758
   XY=    19.3941   YY=   184.6771   ZY=     6.1354
   XZ=     4.8635   YZ=     3.7892   ZZ=   153.9269
   Eigenvalues:   150.0374   154.2644   198.8646
     28  H    Isotropic =    30.2903   Anisotropy =     9.4419
   XX=    35.8742   YX=     1.4936   ZX=    -1.3876
   XY=     2.8709   YY=    28.4855   ZY=    -0.4279
   XZ=    -0.7130   YZ=    -0.0280   ZZ=    26.5113
   Eigenvalues:    26.3948    27.8913    36.5849
     29  H    Isotropic =    30.7860   Anisotropy =     9.4030
   XX=    28.7796   YX=     2.1640   ZX=    -0.5645
   XY=     1.4843   YY=    35.7503   ZY=    -3.4082
   XZ=    -0.0449   YZ=    -2.2244   ZZ=    27.8281
   Eigenvalues:    26.8839    28.4194    37.0546
     30  H    Isotropic =    30.2200   Anisotropy =     9.1267
   XX=    29.3654   YX=     3.1370   ZX=     1.7033
   XY=     3.3845   YY=    29.3882   ZY=     4.7804
   XZ=     1.0587   YZ=     3.3449   ZZ=    31.9064
   Eigenvalues:    25.3305    29.0251    36.3044
     31  O    Isotropic =   264.3271   Anisotropy =    47.5995
   XX=   250.8981   YX=   -13.3190   ZX=     8.3146
   XY=    -8.7500   YY=   252.4170   ZY=   -22.9639
   XZ=    -2.4969   YZ=    -7.4980   ZZ=   289.6662
   Eigenvalues:   239.0215   257.8998   296.0601
     32  H    Isotropic =    30.2959   Anisotropy =    16.0860
   XX=    25.0540   YX=    -2.8541   ZX=     0.9586
   XY=    -1.8709   YY=    29.7539   ZY=    -6.8453
   XZ=     1.4139   YZ=    -7.3592   ZZ=    36.0797
   Eigenvalues:    23.5960    26.2718    41.0199
     33  H    Isotropic =    29.4005   Anisotropy =     6.5292
   XX=    29.2195   YX=     0.5914   ZX=    -2.0503
   XY=     0.4040   YY=    30.5598   ZY=     4.4438
   XZ=    -1.4136   YZ=     3.5932   ZZ=    28.4221
   Eigenvalues:    24.7036    29.7446    33.7532
     34  C    Isotropic =    43.6818   Anisotropy =   181.0750
   XX=   105.2332   YX=   -78.1803   ZX=     6.5872
   XY=   -75.8928   YY=    25.5987   ZY=   -70.4670
   XZ=     8.3709   YZ=   -68.5963   ZZ=     0.2135
   Eigenvalues:   -70.5130    37.1600   164.3985
     35  C    Isotropic =    87.0860   Anisotropy =    99.6750
   XX=   125.6524   YX=   -43.2851   ZX=   -13.7563
   XY=   -44.5849   YY=    64.1625   ZY=   -62.1785
   XZ=   -14.8328   YZ=   -60.4899   ZZ=    71.4430
   Eigenvalues:    -7.0782   114.8001   153.5360
     36  H    Isotropic =    26.7409   Anisotropy =     6.6876
   XX=    26.5958   YX=     2.0868   ZX=    -1.6958
   XY=     0.2491   YY=    27.7175   ZY=    -2.0152
   XZ=    -3.1083   YZ=    -3.9378   ZZ=    25.9094
   Eigenvalues:    23.1267    25.8967    31.1993
     37  H    Isotropic =    26.5102   Anisotropy =     7.4879
   XX=    25.7068   YX=     0.0445   ZX=    -3.8480
   XY=    -0.1402   YY=    26.5133   ZY=    -5.2370
   XZ=    -1.7758   YZ=    -2.3204   ZZ=    27.3105
   Eigenvalues:    21.9792    26.0492    31.5021
     38  C    Isotropic =   177.8170   Anisotropy =    27.7942
   XX=   168.4466   YX=     2.1639   ZX=     0.3224
   XY=     0.0053   YY=   174.7612   ZY=    12.1997
   XZ=    -0.0289   YZ=    10.7205   ZZ=   190.2433
   Eigenvalues:   167.6555   169.4491   196.3465
     39  H    Isotropic =    29.7783   Anisotropy =     8.3435
   XX=    31.6805   YX=    -1.3124   ZX=    -1.8858
   XY=    -2.7006   YY=    30.5513   ZY=     4.3625
   XZ=    -2.3687   YZ=     3.4697   ZZ=    27.1031
   Eigenvalues:    24.4734    29.5208    35.3406
     40  H    Isotropic =    30.0802   Anisotropy =     8.7741
   XX=    28.8981   YX=     4.0021   ZX=    -0.1410
   XY=     3.5898   YY=    33.2002   ZY=     1.3939
   XZ=     1.0405   YZ=     2.7147   ZZ=    28.1422
   Eigenvalues:    26.3720    27.9390    35.9296
     41  H    Isotropic =    29.8797   Anisotropy =     6.0905
   XX=    25.7719   YX=    -0.1821   ZX=     3.6779
   XY=    -1.6802   YY=    31.9349   ZY=     0.0313
   XZ=     2.6094   YZ=    -1.7762   ZZ=    31.9323
   Eigenvalues:    24.4142    31.2849    33.9400
     42  C    Isotropic =   164.0489   Anisotropy =    30.2548
   XX=   183.6929   YX=   -10.8884   ZX=    -0.4218
   XY=     2.9643   YY=   151.8303   ZY=     0.3209
   XZ=    -1.5191   YZ=     1.2378   ZZ=   156.6234
   Eigenvalues:   151.2643   156.6635   184.2187
     43  H    Isotropic =    29.3380   Anisotropy =     7.6306
   XX=    29.9237   YX=    -1.5909   ZX=     1.9106
   XY=    -2.6402   YY=    28.4271   ZY=    -4.5379
   XZ=     0.7487   YZ=    -3.5635   ZZ=    29.6630
   Eigenvalues:    24.8240    28.7649    34.4250
     44  H    Isotropic =    29.2143   Anisotropy =     7.3428
   XX=    29.6236   YX=    -1.4215   ZX=    -1.6353
   XY=    -2.2028   YY=    29.4160   ZY=     4.5737
   XZ=    -0.2487   YZ=     3.8366   ZZ=    28.6033
   Eigenvalues:    24.7238    28.8095    34.1095
     45  C    Isotropic =   177.3859   Anisotropy =    29.3643
   XX=   184.5137   YX=     7.4995   ZX=    -1.5181
   XY=    19.6024   YY=   181.7675   ZY=    -1.8690
   XZ=    -2.5326   YZ=    -1.1076   ZZ=   165.8766
   Eigenvalues:   165.6589   169.5368   196.9621
     46  H    Isotropic =    30.2925   Anisotropy =    12.0948
   XX=    38.0984   YX=     0.3625   ZX=    -0.7097
   XY=     2.6594   YY=    26.9498   ZY=    -0.4828
   XZ=    -0.9057   YZ=    -0.0904   ZZ=    25.8294
   Eigenvalues:    25.7421    26.7798    38.3557
     47  H    Isotropic =    30.6554   Anisotropy =     7.4265
   XX=    29.7517   YX=     1.7283   ZX=    -0.0738
   XY=     2.7796   YY=    31.4238   ZY=     4.7711
   XZ=    -0.3835   YZ=     3.3884   ZZ=    30.7908
   Eigenvalues:    26.1538    30.2061    35.6064
     48  H    Isotropic =    30.6590   Anisotropy =     7.1051
   XX=    29.8597   YX=     1.3024   ZX=     0.1318
   XY=     2.1068   YY=    30.3180   ZY=    -4.8385
   XZ=     0.3375   YZ=    -3.3877   ZZ=    31.7994
   Eigenvalues:    26.2711    30.3103    35.3957
 End of Minotr Frequency-dependent properties file   721 does not exist.
 End of Minotr Frequency-dependent properties file   722 does not exist.

 **********************************************************************

            Population analysis using the SCF density.

 **********************************************************************

 Orbital symmetries:
       Occupied  (A) (A) (A) (A) (A) (A) (A) (A) (A) (A) (A) (A)
                 (A) (A) (A) (A) (A) (A) (A) (A) (A) (A) (A) (A)
                 (A) (A) (A) (A) (A) (A) (A) (A) (A) (A) (A) (A)
                 (A) (A) (A) (A) (A) (A) (A) (A) (A) (A) (A) (A)
                 (A) (A) (A) (A) (A) (A) (A) (A) (A) (A) (A) (A)
                 (A) (A) (A) (A) (A) (A) (A) (A) (A) (A) (A) (A)
                 (A) (A) (A) (A) (A) (A) (A) (A) (A) (A) (A)
       Virtual   (A) (A) (A) (A) (A) (A) (A) (A) (A) (A) (A) (A)
                 (A) (A) (A) (A) (A) (A) (A) (A) (A) (A) (A) (A)
                 (A) (A) (A) (A) (A) (A) (A) (A) (A) (A) (A) (A)
                 (A) (A) (A) (A) (A) (A) (A) (A) (A) (A) (A) (A)
                 (A) (A) (A) (A) (A) (A) (A) (A) (A) (A) (A) (A)
                 (A) (A) (A) (A) (A) (A) (A) (A) (A) (A) (A) (A)
                 (A) (A) (A) (A) (A) (A) (A) (A) (A) (A) (A) (A)
                 (A) (A) (A) (A) (A) (A) (A) (A) (A) (A) (A) (A)
                 (A) (A) (A) (A) (A) (A) (A) (A) (A) (A) (A) (A)
                 (A) (A) (A) (A) (A) (A) (A) (A) (A) (A) (A) (A)
                 (A) (A) (A) (A) (A) (A) (A) (A) (A) (A) (A) (A)
                 (A) (A) (A) (A) (A) (A) (A) (A) (A) (A) (A) (A)
                 (A) (A) (A) (A) (A) (A) (A) (A) (A) (A) (A) (A)
                 (A) (A) (A) (A) (A) (A) (A) (A) (A) (A) (A) (A)
                 (A) (A) (A) (A) (A) (A) (A) (A) (A) (A) (A) (A)
                 (A) (A) (A) (A) (A) (A) (A) (A) (A) (A) (A) (A)
                 (A) (A) (A) (A) (A) (A) (A) (A) (A) (A) (A) (A)
                 (A) (A) (A) (A) (A) (A) (A) (A) (A) (A) (A) (A)
                 (A) (A) (A) (A) (A) (A) (A) (A) (A) (A) (A) (A)
                 (A) (A) (A) (A) (A) (A) (A) (A) (A) (A) (A) (A)
                 (A) (A) (A) (A) (A) (A) (A) (A) (A) (A) (A) (A)
                 (A) (A) (A) (A) (A) (A) (A) (A) (A) (A) (A) (A)
                 (A) (A) (A) (A) (A) (A) (A) (A) (A) (A) (A) (A)
                 (A) (A) (A) (A) (A) (A) (A) (A) (A) (A) (A) (A)
                 (A) (A) (A) (A) (A) (A) (A) (A) (A) (A) (A) (A)
                 (A) (A) (A) (A) (A) (A) (A) (A) (A) (A) (A) (A)
                 (A) (A) (A) (A) (A) (A) (A) (A) (A) (A) (A) (A)
                 (A) (A) (A) (A) (A) (A) (A) (A) (A) (A) (A) (A)
                 (A) (A) (A) (A) (A) (A) (A) (A) (A) (A) (A) (A)
                 (A) (A) (A) (A) (A) (A) (A) (A) (A) (A) (A) (A)
                 (A) (A) (A) (A) (A) (A) (A) (A) (A) (A) (A) (A)
                 (A) (A) (A) (A) (A) (A) (A) (A) (A) (A) (A) (A)
                 (A) (A) (A) (A) (A) (A) (A) (A) (A) (A) (A) (A)
                 (A) (A) (A) (A) (A) (A) (A) (A) (A) (A) (A) (A)
                 (A) (A) (A) (A) (A) (A) (A) (A) (A) (A) (A) (A)
                 (A) (A) (A) (A) (A) (A) (A) (A) (A) (A) (A) (A)
                 (A) (A) (A) (A) (A) (A) (A) (A) (A) (A) (A) (A)
                 (A) (A) (A) (A) (A) (A) (A) (A) (A) (A) (A) (A)
                 (A) (A) (A) (A) (A) (A) (A)
 The electronic state is 1-A.
 Alpha  occ. eigenvalues --  -19.28282 -19.28059 -19.25742 -19.25605 -10.32020
 Alpha  occ. eigenvalues --  -10.31648 -10.31461 -10.31327 -10.26901 -10.26459
 Alpha  occ. eigenvalues --  -10.26402 -10.25968 -10.25949 -10.24862 -10.24565
 Alpha  occ. eigenvalues --  -10.24519 -10.24309 -10.24004 -10.23980 -10.23873
 Alpha  occ. eigenvalues --  -10.23668 -10.23489  -1.09844  -1.09173  -1.07298
 Alpha  occ. eigenvalues --   -1.06111  -0.88573  -0.86657  -0.82118  -0.81960
 Alpha  occ. eigenvalues --   -0.78573  -0.77043  -0.75788  -0.73936  -0.71091
 Alpha  occ. eigenvalues --   -0.70225  -0.66940  -0.64423  -0.63576  -0.62388
 Alpha  occ. eigenvalues --   -0.60812  -0.59163  -0.56819  -0.55421  -0.54724
 Alpha  occ. eigenvalues --   -0.52240  -0.51389  -0.50907  -0.49871  -0.48227
 Alpha  occ. eigenvalues --   -0.47026  -0.46177  -0.45860  -0.45569  -0.44823
 Alpha  occ. eigenvalues --   -0.43991  -0.43573  -0.42856  -0.42539  -0.41784
 Alpha  occ. eigenvalues --   -0.41557  -0.41332  -0.40577  -0.39703  -0.39122
 Alpha  occ. eigenvalues --   -0.38742  -0.38351  -0.37977  -0.37527  -0.36809
 Alpha  occ. eigenvalues --   -0.36660  -0.35759  -0.35458  -0.34769  -0.34096
 Alpha  occ. eigenvalues --   -0.33330  -0.32612  -0.31453  -0.31079  -0.28625
 Alpha  occ. eigenvalues --   -0.25914  -0.24045  -0.23047
 Alpha virt. eigenvalues --   -0.00517  -0.00247   0.00439   0.00837   0.01123
 Alpha virt. eigenvalues --    0.01713   0.02022   0.02692   0.03201   0.03365
 Alpha virt. eigenvalues --    0.03601   0.04186   0.04452   0.04750   0.05381
 Alpha virt. eigenvalues --    0.05941   0.06244   0.06486   0.06788   0.07189
 Alpha virt. eigenvalues --    0.07352   0.08172   0.08593   0.08747   0.09434
 Alpha virt. eigenvalues --    0.09574   0.10176   0.10298   0.10654   0.10988
 Alpha virt. eigenvalues --    0.11381   0.11418   0.12515   0.12855   0.13304
 Alpha virt. eigenvalues --    0.13348   0.13469   0.13754   0.14014   0.14508
 Alpha virt. eigenvalues --    0.14877   0.15062   0.15420   0.15939   0.16251
 Alpha virt. eigenvalues --    0.16567   0.17100   0.17155   0.17529   0.17711
 Alpha virt. eigenvalues --    0.18269   0.18445   0.18827   0.19171   0.19373
 Alpha virt. eigenvalues --    0.19554   0.19959   0.20333   0.20745   0.20920
 Alpha virt. eigenvalues --    0.21362   0.21494   0.21714   0.21868   0.22284
 Alpha virt. eigenvalues --    0.22393   0.22749   0.23245   0.23451   0.23647
 Alpha virt. eigenvalues --    0.23965   0.24017   0.24419   0.24754   0.25041
 Alpha virt. eigenvalues --    0.25226   0.25875   0.26082   0.26470   0.26715
 Alpha virt. eigenvalues --    0.27084   0.27210   0.27490   0.27817   0.28121
 Alpha virt. eigenvalues --    0.28228   0.28515   0.28859   0.29437   0.30139
 Alpha virt. eigenvalues --    0.30242   0.30325   0.30606   0.31054   0.31345
 Alpha virt. eigenvalues --    0.31452   0.32052   0.32475   0.32972   0.33240
 Alpha virt. eigenvalues --    0.33687   0.34121   0.34418   0.34871   0.35190
 Alpha virt. eigenvalues --    0.35659   0.36153   0.36496   0.36770   0.37112
 Alpha virt. eigenvalues --    0.37261   0.37401   0.38269   0.38359   0.39139
 Alpha virt. eigenvalues --    0.40063   0.40630   0.41035   0.41855   0.42877
 Alpha virt. eigenvalues --    0.43391   0.43926   0.44389   0.45504   0.45763
 Alpha virt. eigenvalues --    0.46234   0.47018   0.47713   0.47943   0.48766
 Alpha virt. eigenvalues --    0.49278   0.49580   0.51005   0.51927   0.52718
 Alpha virt. eigenvalues --    0.53483   0.56694   0.60834   0.63320   0.65670
 Alpha virt. eigenvalues --    0.68248   0.68800   0.69362   0.70068   0.71210
 Alpha virt. eigenvalues --    0.71760   0.72287   0.73236   0.73689   0.74082
 Alpha virt. eigenvalues --    0.74717   0.75156   0.75413   0.76572   0.77021
 Alpha virt. eigenvalues --    0.77964   0.78106   0.78772   0.79531   0.79841
 Alpha virt. eigenvalues --    0.80869   0.81422   0.81943   0.82916   0.83526
 Alpha virt. eigenvalues --    0.84166   0.85122   0.86091   0.86461   0.87553
 Alpha virt. eigenvalues --    0.87734   0.88376   0.89098   0.89867   0.90745
 Alpha virt. eigenvalues --    0.91280   0.93177   0.93932   0.94349   0.95427
 Alpha virt. eigenvalues --    0.95484   0.96267   0.97018   0.97597   0.99405
 Alpha virt. eigenvalues --    1.00273   1.00740   1.01654   1.02515   1.03657
 Alpha virt. eigenvalues --    1.04195   1.05454   1.05765   1.07444   1.08066
 Alpha virt. eigenvalues --    1.08671   1.09506   1.10007   1.10483   1.11496
 Alpha virt. eigenvalues --    1.12501   1.12905   1.13768   1.14026   1.14993
 Alpha virt. eigenvalues --    1.15215   1.16141   1.16488   1.17891   1.18649
 Alpha virt. eigenvalues --    1.19202   1.20150   1.20709   1.21278   1.21821
 Alpha virt. eigenvalues --    1.23704   1.25004   1.25259   1.26415   1.27105
 Alpha virt. eigenvalues --    1.27492   1.28461   1.29899   1.30315   1.31225
 Alpha virt. eigenvalues --    1.31435   1.32253   1.33419   1.33814   1.34369
 Alpha virt. eigenvalues --    1.34820   1.35939   1.36943   1.38333   1.38744
 Alpha virt. eigenvalues --    1.39543   1.40371   1.41449   1.42300   1.43326
 Alpha virt. eigenvalues --    1.44181   1.44568   1.46522   1.47729   1.48722
 Alpha virt. eigenvalues --    1.50319   1.53018   1.53347   1.54002   1.54664
 Alpha virt. eigenvalues --    1.55118   1.56896   1.57446   1.58350   1.59493
 Alpha virt. eigenvalues --    1.60678   1.61772   1.62649   1.63154   1.65857
 Alpha virt. eigenvalues --    1.66896   1.68159   1.69329   1.69953   1.72032
 Alpha virt. eigenvalues --    1.73228   1.75663   1.76849   1.79671   1.79760
 Alpha virt. eigenvalues --    1.80768   1.81719   1.82022   1.82643   1.85140
 Alpha virt. eigenvalues --    1.85509   1.85655   1.86822   1.86957   1.87661
 Alpha virt. eigenvalues --    1.88290   1.89484   1.90211   1.90796   1.91855
 Alpha virt. eigenvalues --    1.92350   1.93192   1.93660   1.94493   1.95528
 Alpha virt. eigenvalues --    1.95984   1.96161   1.97392   1.98599   1.98982
 Alpha virt. eigenvalues --    2.00266   2.02168   2.02821   2.03695   2.05211
 Alpha virt. eigenvalues --    2.06224   2.06863   2.07416   2.07640   2.08267
 Alpha virt. eigenvalues --    2.09493   2.09709   2.10705   2.11107   2.11981
 Alpha virt. eigenvalues --    2.13410   2.13725   2.15051   2.15293   2.15652
 Alpha virt. eigenvalues --    2.16679   2.17339   2.17907   2.19494   2.19650
 Alpha virt. eigenvalues --    2.20012   2.21224   2.23554   2.23942   2.25909
 Alpha virt. eigenvalues --    2.27001   2.27456   2.28683   2.29409   2.29973
 Alpha virt. eigenvalues --    2.30816   2.32140   2.32962   2.33631   2.35563
 Alpha virt. eigenvalues --    2.36549   2.37058   2.38541   2.39492   2.39959
 Alpha virt. eigenvalues --    2.40855   2.41210   2.42648   2.44469   2.46915
 Alpha virt. eigenvalues --    2.48338   2.48888   2.50091   2.50820   2.51620
 Alpha virt. eigenvalues --    2.52759   2.53303   2.54548   2.55364   2.55633
 Alpha virt. eigenvalues --    2.56395   2.57280   2.58243   2.58380   2.60264
 Alpha virt. eigenvalues --    2.61388   2.61668   2.62929   2.63565   2.64880
 Alpha virt. eigenvalues --    2.65650   2.66469   2.68774   2.69362   2.70183
 Alpha virt. eigenvalues --    2.70884   2.71470   2.71879   2.72699   2.73196
 Alpha virt. eigenvalues --    2.73966   2.75497   2.76171   2.76421   2.77502
 Alpha virt. eigenvalues --    2.78375   2.79545   2.80214   2.81163   2.82120
 Alpha virt. eigenvalues --    2.83161   2.85220   2.85655   2.86649   2.87440
 Alpha virt. eigenvalues --    2.88293   2.88480   2.89953   2.90238   2.91098
 Alpha virt. eigenvalues --    2.92158   2.93030   2.93790   2.94066   2.95581
 Alpha virt. eigenvalues --    2.96540   2.97278   2.99751   3.02281   3.06185
 Alpha virt. eigenvalues --    3.07673   3.08104   3.10405   3.10985   3.13406
 Alpha virt. eigenvalues --    3.19751   3.21202   3.25638   3.27820   3.29332
 Alpha virt. eigenvalues --    3.31083   3.31157   3.36001   3.37625   3.39169
 Alpha virt. eigenvalues --    3.40096   3.42364   3.45455   3.47080   3.47955
 Alpha virt. eigenvalues --    3.49494   3.50032   3.51104   3.51594   3.52349
 Alpha virt. eigenvalues --    3.54103   3.54770   3.57789   3.58024   3.58599
 Alpha virt. eigenvalues --    3.59800   3.61786   3.63867   3.66312   3.71862
 Alpha virt. eigenvalues --    3.80656   4.35803   4.37548   4.39301   4.46613
 Alpha virt. eigenvalues --    4.48089   4.50724   4.52729   4.53245   4.55755
 Alpha virt. eigenvalues --    4.59538   4.60611   4.63468   4.67592   4.71111
 Alpha virt. eigenvalues --    4.73339   4.74601   4.77059   4.84653   4.91163
 Alpha virt. eigenvalues --    4.95325   5.00152   5.04115
          Condensed to atoms (all electrons):
              1          2          3          4          5          6
     1  C   13.911727  -2.052109  -0.096797  -0.045819  -0.586593   0.011928
     2  C   -2.052109   7.507020   0.391682   0.364638   0.416655  -0.016016
     3  H   -0.096797   0.391682   0.518095  -0.025570  -0.056373  -0.004856
     4  H   -0.045819   0.364638  -0.025570   0.526817  -0.030956  -0.002499
     5  C   -0.586593   0.416655  -0.056373  -0.030956   8.166464   0.489427
     6  H    0.011928  -0.016016  -0.004856  -0.002499   0.489427   0.541950
     7  C    2.272816  -0.552684   0.047575   0.008883  -3.700262  -0.323711
     8  H   -0.055419  -0.004263   0.003644  -0.000034  -0.027334  -0.005665
     9  C   -0.167999   0.161966  -0.035950   0.022829   1.123485   0.145779
    10  H   -0.059703   0.009630   0.000114  -0.000040  -0.069174  -0.000032
    11  C   -4.538978   0.766601   0.063257   0.057144  -0.000146  -0.032902
    12  H   -0.022244   0.029173  -0.000066  -0.000113  -0.027391   0.000010
    13  C    0.135645  -0.291973  -0.009867   0.000530   0.297161   0.029295
    14  C    0.024018  -0.001495  -0.000099  -0.000023   0.022971   0.000076
    15  C    0.737996  -0.021731   0.003584  -0.002233   0.000670  -0.018312
    16  C   -0.739914   0.081704   0.001249   0.000837   0.241837   0.008463
    17  C   -0.235573   0.024060   0.000245   0.000054   0.019118   0.000703
    18  C   -0.154869  -0.000773   0.000547  -0.000029  -0.129579  -0.002317
    19  H   -0.000124   0.000018   0.000000   0.000000  -0.000156   0.000000
    20  H   -0.000041  -0.000018   0.000000   0.000000   0.000034   0.000000
    21  O   -0.023478   0.011789  -0.000002   0.000004   0.016696  -0.000002
    22  H    0.000309   0.000079   0.000000   0.000000  -0.000639   0.000000
    23  O    0.035725  -0.001356  -0.000027   0.000006   0.017538   0.000073
    24  H    0.005496  -0.012639  -0.000057   0.000001   0.004648  -0.000011
    25  O    0.038511  -0.047529   0.003960  -0.001369  -0.121812  -0.000086
    26  H    0.000255   0.009895   0.000220  -0.000011   0.014386   0.000000
    27  C   -2.899889   0.272761   0.019095  -0.038701  -0.350302  -0.010581
    28  H   -0.157355   0.022259   0.000177   0.002007   0.009467  -0.000002
    29  H   -0.032900   0.014765   0.000034  -0.000024  -0.008087   0.000002
    30  H   -0.175498   0.033160   0.001565   0.000311   0.002669  -0.000004
    31  O    0.203964  -0.193829   0.009775  -0.003118   0.052909  -0.001022
    32  H    0.092739   0.052401  -0.000225  -0.000029  -0.009292   0.000011
    33  H   -0.016694  -0.070502   0.004656  -0.004552   0.399329  -0.029051
    34  C    0.371777  -0.561971  -0.029622  -0.002165   0.976310   0.067734
    35  C    0.019606  -0.101108   0.009501  -0.001484  -0.475634  -0.000697
    36  H    0.000435   0.000685   0.000000   0.000000  -0.008092  -0.000043
    37  H    0.004119  -0.004373   0.000001   0.000000  -0.021691   0.000008
    38  C    0.093024   0.048387  -0.003192  -0.000996  -0.000936  -0.018460
    39  H   -0.003823   0.006799  -0.000005   0.000004   0.053997   0.000089
    40  H    0.000653   0.001365   0.000000   0.000000  -0.004507  -0.000022
    41  H   -0.006059  -0.002060   0.000000   0.000001   0.000694   0.000079
    42  C   -0.007726   0.000553  -0.000002   0.000000   0.004630   0.000006
    43  H    0.000009   0.000000   0.000000   0.000000  -0.000002   0.000000
    44  H    0.000002   0.000000   0.000000   0.000000  -0.000001   0.000000
    45  C    0.000015  -0.000011   0.000000   0.000000  -0.000035   0.000000
    46  H    0.000000   0.000000   0.000000   0.000000   0.000000   0.000000
    47  H    0.000002   0.000000   0.000000   0.000000  -0.000009   0.000000
    48  H    0.000000   0.000000   0.000000   0.000000  -0.000002   0.000000
              7          8          9         10         11         12
     1  C    2.272816  -0.055419  -0.167999  -0.059703  -4.538978  -0.022244
     2  C   -0.552684  -0.004263   0.161966   0.009630   0.766601   0.029173
     3  H    0.047575   0.003644  -0.035950   0.000114   0.063257  -0.000066
     4  H    0.008883  -0.000034   0.022829  -0.000040   0.057144  -0.000113
     5  C   -3.700262  -0.027334   1.123485  -0.069174  -0.000146  -0.027391
     6  H   -0.323711  -0.005665   0.145779  -0.000032  -0.032902   0.000010
     7  C   25.297620   0.306317  -5.930000   0.068328   0.037782  -0.020838
     8  H    0.306317   0.564463   0.113044   0.004976   0.038351  -0.000167
     9  C   -5.930000   0.113044  16.035653   0.379287  -2.006690  -0.025330
    10  H    0.068328   0.004976   0.379287   0.514968   0.152458  -0.003812
    11  C    0.037782   0.038351  -2.006690   0.152458  14.272196   0.228104
    12  H   -0.020838  -0.000167  -0.025330  -0.003812   0.228104   0.565537
    13  C   -3.169862   0.142774   4.826805  -0.195581  -1.583181   0.051477
    14  C   -0.633784  -0.007573  -0.867557  -0.011318  -0.420773   0.008082
    15  C    1.828725  -0.180946  -2.956820  -0.121559  -2.540757   0.065562
    16  C   -4.307290   0.055697  -0.311859   0.048516  -0.279770   0.072467
    17  C   -1.403770   0.015635  -1.374963   0.049426   0.209264   0.019461
    18  C   -0.579799  -0.038922  -1.209146   0.007589   0.761950   0.005580
    19  H    0.000192   0.000000   0.000619  -0.000007   0.001138   0.000002
    20  H   -0.000943   0.000004   0.007527   0.000001  -0.000935   0.000000
    21  O   -0.043803  -0.000239  -0.087230   0.002166  -0.001915  -0.000066
    22  H   -0.001168   0.000000   0.028524   0.000090   0.002761   0.000021
    23  O    0.070476   0.006356   0.161865   0.000456  -0.031126  -0.002857
    24  H   -0.095746   0.001078  -0.021311  -0.000071  -0.005877   0.000570
    25  O    0.411340   0.006023  -0.280230   0.011031   0.243139  -0.043960
    26  H   -0.014300   0.000002   0.044730  -0.000190  -0.015901  -0.008546
    27  C    0.560626   0.009934  -1.174576   0.027552   1.587566  -0.053837
    28  H   -0.009650   0.000000   0.007038  -0.000005   0.041371  -0.000059
    29  H   -0.010324   0.000000   0.018565   0.000005  -0.012238   0.002663
    30  H    0.002048   0.000016  -0.010491   0.000001   0.021673   0.000509
    31  O    0.152415   0.001092  -0.134379   0.010800   0.254118  -0.009534
    32  H    0.020342  -0.000003   0.016419  -0.000129  -0.125527   0.004678
    33  H    0.061920   0.005095  -0.037815   0.003659   0.015040  -0.000056
    34  C   -5.922785  -0.204953   0.242582  -0.033191  -0.877649  -0.002498
    35  C    0.985371   0.115156   0.450371   0.022700   0.164864   0.000055
    36  H    0.055843   0.000303   0.002205   0.000005   0.001567   0.000000
    37  H   -0.005821   0.005610   0.036982  -0.000004  -0.000934   0.000000
    38  C    0.622598  -0.028308  -0.518366  -0.016219  -0.015048  -0.002318
    39  H   -0.082608  -0.000095  -0.008651  -0.000076   0.011838   0.000000
    40  H    0.025181  -0.000076  -0.006370  -0.000015   0.000559   0.000000
    41  H    0.028401  -0.000101   0.002228  -0.000111  -0.025487   0.000005
    42  C   -0.194776   0.000473  -0.363326  -0.000351  -0.050404   0.000217
    43  H    0.000032   0.000000   0.000468   0.000000  -0.000156   0.000000
    44  H   -0.000278   0.000000  -0.000398   0.000000   0.000101   0.000000
    45  C   -0.000750  -0.000011  -0.001055   0.000001  -0.000326   0.000010
    46  H    0.000012   0.000000  -0.000018   0.000000  -0.000006   0.000000
    47  H   -0.000134   0.000000   0.000156   0.000000   0.000023   0.000000
    48  H    0.000037   0.000000  -0.000269   0.000000  -0.000025   0.000000
             13         14         15         16         17         18
     1  C    0.135645   0.024018   0.737996  -0.739914  -0.235573  -0.154869
     2  C   -0.291973  -0.001495  -0.021731   0.081704   0.024060  -0.000773
     3  H   -0.009867  -0.000099   0.003584   0.001249   0.000245   0.000547
     4  H    0.000530  -0.000023  -0.002233   0.000837   0.000054  -0.000029
     5  C    0.297161   0.022971   0.000670   0.241837   0.019118  -0.129579
     6  H    0.029295   0.000076  -0.018312   0.008463   0.000703  -0.002317
     7  C   -3.169862  -0.633784   1.828725  -4.307290  -1.403770  -0.579799
     8  H    0.142774  -0.007573  -0.180946   0.055697   0.015635  -0.038922
     9  C    4.826805  -0.867557  -2.956820  -0.311859  -1.374963  -1.209146
    10  H   -0.195581  -0.011318  -0.121559   0.048516   0.049426   0.007589
    11  C   -1.583181  -0.420773  -2.540757  -0.279770   0.209264   0.761950
    12  H    0.051477   0.008082   0.065562   0.072467   0.019461   0.005580
    13  C   23.218844  -3.155945 -12.335629   0.699474  -2.897067   1.623769
    14  C   -3.155945  10.909664   3.861254   0.015078   0.125782  -2.265182
    15  C  -12.335629   3.861254  33.029044  -1.474676  -3.040894  -9.930057
    16  C    0.699474   0.015078  -1.474676  11.362541   1.295523  -0.997694
    17  C   -2.897067   0.125782  -3.040894   1.295523  13.776355  -0.938994
    18  C    1.623769  -2.265182  -9.930057  -0.997694  -0.938994  18.459652
    19  H    0.078325   0.035074  -0.057441  -0.056475   0.279126   0.053824
    20  H    0.054733   0.058431   0.092258  -0.003545   0.035680   0.098346
    21  O   -0.071812   0.013096   0.028511   0.253429  -0.078893  -0.013427
    22  H    0.119360   0.018370  -0.024983   0.040055  -0.191529   0.014722
    23  O   -0.402740   0.141526   0.927412  -0.075232  -0.015007  -0.704810
    24  H   -0.001566  -0.007513  -0.029183   0.021176  -0.003457   0.167235
    25  O   -0.041823  -0.029310  -0.024315  -0.139119  -0.045410  -0.026358
    26  H   -0.028589   0.002053   0.026764  -0.002910  -0.001423  -0.010677
    27  C   -0.447198  -0.022433  -0.090186  -0.144953  -0.011578   0.042789
    28  H   -0.001910  -0.000025  -0.001613   0.000172   0.000015  -0.000082
    29  H    0.000479  -0.000091  -0.004677   0.003212   0.000394  -0.000389
    30  H   -0.002257   0.000131   0.010221  -0.001033  -0.000148   0.001194
    31  O   -0.138836  -0.005081  -0.023672  -0.082732  -0.007682   0.002389
    32  H   -0.012103  -0.000332  -0.005028  -0.003625  -0.000280  -0.000153
    33  H   -0.010950  -0.000087  -0.008954   0.010782   0.002193   0.000157
    34  C   -0.388885   0.478370   1.155468   0.863285   0.125415   0.050040
    35  C    0.632694  -0.227583  -1.230615   0.129614   0.273145   0.098784
    36  H   -0.004120   0.000532   0.005090  -0.000587   0.000493   0.002508
    37  H    0.023516  -0.002849   0.002506   0.002833   0.002475  -0.028660
    38  C    0.005553   0.009780   0.449196  -0.550181  -0.412984  -0.030344
    39  H   -0.011736   0.000471   0.008524  -0.001365  -0.001014   0.001715
    40  H   -0.000003   0.000062   0.003378   0.003495  -0.000159   0.001976
    41  H    0.047191  -0.005566  -0.011766  -0.008611  -0.014273  -0.004392
    42  C   -1.190052  -1.745554  -0.650164  -0.303643   0.552703   1.156803
    43  H   -0.006060  -0.205806  -0.007686   0.058981   0.156676  -0.134227
    44  H    0.005812  -0.240310   0.035255  -0.024996  -0.096816   0.175386
    45  C    0.001970  -0.048150   0.025341   0.006729   0.033701   0.000743
    46  H    0.002067   0.029730   0.002569   0.003272   0.006376   0.006297
    47  H   -0.000723  -0.043412  -0.002324  -0.003915  -0.016460   0.022353
    48  H   -0.004894  -0.022794   0.000954   0.002568   0.020248  -0.033598
             19         20         21         22         23         24
     1  C   -0.000124  -0.000041  -0.023478   0.000309   0.035725   0.005496
     2  C    0.000018  -0.000018   0.011789   0.000079  -0.001356  -0.012639
     3  H    0.000000   0.000000  -0.000002   0.000000  -0.000027  -0.000057
     4  H    0.000000   0.000000   0.000004   0.000000   0.000006   0.000001
     5  C   -0.000156   0.000034   0.016696  -0.000639   0.017538   0.004648
     6  H    0.000000   0.000000  -0.000002   0.000000   0.000073  -0.000011
     7  C    0.000192  -0.000943  -0.043803  -0.001168   0.070476  -0.095746
     8  H    0.000000   0.000004  -0.000239   0.000000   0.006356   0.001078
     9  C    0.000619   0.007527  -0.087230   0.028524   0.161865  -0.021311
    10  H   -0.000007   0.000001   0.002166   0.000090   0.000456  -0.000071
    11  C    0.001138  -0.000935  -0.001915   0.002761  -0.031126  -0.005877
    12  H    0.000002   0.000000  -0.000066   0.000021  -0.002857   0.000570
    13  C    0.078325   0.054733  -0.071812   0.119360  -0.402740  -0.001566
    14  C    0.035074   0.058431   0.013096   0.018370   0.141526  -0.007513
    15  C   -0.057441   0.092258   0.028511  -0.024983   0.927412  -0.029183
    16  C   -0.056475  -0.003545   0.253429   0.040055  -0.075232   0.021176
    17  C    0.279126   0.035680  -0.078893  -0.191529  -0.015007  -0.003457
    18  C    0.053824   0.098346  -0.013427   0.014722  -0.704810   0.167235
    19  H    0.521868  -0.000140  -0.018174   0.008326   0.000147   0.000000
    20  H   -0.000140   0.518115   0.000086  -0.000001  -0.005652   0.000077
    21  O   -0.018174   0.000086   8.321222   0.200667  -0.002143  -0.000070
    22  H    0.008326  -0.000001   0.200667   0.366475   0.000036   0.000000
    23  O    0.000147  -0.005652  -0.002143   0.000036   8.343372   0.187896
    24  H    0.000000   0.000077  -0.000070   0.000000   0.187896   0.311935
    25  O    0.000006  -0.000010  -0.000977  -0.000016   0.000839   0.014723
    26  H    0.000000   0.000000  -0.000071   0.000000   0.003158   0.000524
    27  C    0.000001  -0.000009   0.001515   0.000038   0.001077  -0.006272
    28  H    0.000000   0.000000   0.000001   0.000000   0.000003   0.000000
    29  H    0.000000   0.000000   0.000015   0.000000   0.000008  -0.000003
    30  H    0.000000   0.000000   0.000006   0.000000  -0.000143   0.000045
    31  O    0.000002   0.000000  -0.001934  -0.000026   0.000776  -0.000199
    32  H    0.000000   0.000000   0.000520   0.000003   0.000017   0.000001
    33  H    0.000000   0.000000  -0.000177   0.000000   0.000044  -0.000005
    34  C   -0.001633  -0.002275   0.038253   0.000584  -0.095900   0.003175
    35  C    0.000134   0.002575  -0.005990   0.000267   0.028397   0.008756
    36  H    0.000000   0.000000  -0.000063   0.000000   0.000024  -0.000002
    37  H    0.000000  -0.000003  -0.000028   0.000000   0.003214  -0.000102
    38  C    0.000365   0.000244  -0.013778   0.000357  -0.015015  -0.002213
    39  H    0.000000   0.000000   0.000092   0.000000  -0.000023   0.000000
    40  H    0.000000   0.000000   0.000048   0.000001  -0.000013   0.000000
    41  H   -0.000001   0.000000   0.002883  -0.000222  -0.000074   0.000002
    42  C   -0.017743  -0.024989  -0.006990   0.002045  -0.038046   0.003329
    43  H    0.002244   0.000095  -0.000034   0.000002   0.000034   0.000000
    44  H    0.000074   0.001828   0.000037   0.000000  -0.000005   0.000000
    45  C    0.007907   0.004171  -0.000128   0.000134   0.000282  -0.000067
    46  H   -0.000028  -0.000025  -0.000001   0.000000   0.000000   0.000000
    47  H    0.000169   0.000008   0.000036   0.000000   0.000006   0.000000
    48  H    0.000010   0.000184   0.000001   0.000000  -0.000001   0.000000
             25         26         27         28         29         30
     1  C    0.038511   0.000255  -2.899889  -0.157355  -0.032900  -0.175498
     2  C   -0.047529   0.009895   0.272761   0.022259   0.014765   0.033160
     3  H    0.003960   0.000220   0.019095   0.000177   0.000034   0.001565
     4  H   -0.001369  -0.000011  -0.038701   0.002007  -0.000024   0.000311
     5  C   -0.121812   0.014386  -0.350302   0.009467  -0.008087   0.002669
     6  H   -0.000086   0.000000  -0.010581  -0.000002   0.000002  -0.000004
     7  C    0.411340  -0.014300   0.560626  -0.009650  -0.010324   0.002048
     8  H    0.006023   0.000002   0.009934   0.000000   0.000000   0.000016
     9  C   -0.280230   0.044730  -1.174576   0.007038   0.018565  -0.010491
    10  H    0.011031  -0.000190   0.027552  -0.000005   0.000005   0.000001
    11  C    0.243139  -0.015901   1.587566   0.041371  -0.012238   0.021673
[...]
    16  C   -0.116339   0.000771  -0.109389   0.000225   0.002663  -0.000603
    17  C   -0.040122  -0.000529  -0.012367   0.000022   0.000343  -0.000105
    18  C    0.039222  -0.016347   0.031527  -0.000083  -0.000388   0.000834
    19  H    0.000004   0.000000   0.000004   0.000000   0.000000   0.000000
    20  H   -0.000039   0.000000  -0.000010   0.000000   0.000000   0.000000
    21  O   -0.001121  -0.000062   0.005545   0.000003   0.000010   0.000006
    22  H   -0.000002   0.000000   0.000131   0.000000   0.000000   0.000000
    23  O   -0.011082   0.004624  -0.000805   0.000004   0.000012  -0.000123
    24  H    0.023367  -0.000238  -0.005122   0.000000  -0.000002   0.000040
    25  O    8.505584   0.240147  -0.007897  -0.000843  -0.003014   0.006257
    26  H    0.240147   0.307955  -0.004476  -0.000068   0.000260   0.000169
    27  C   -0.007897  -0.004476   7.924883   0.480638   0.467495   0.474593
    28  H   -0.000843  -0.000068   0.480638   0.528875  -0.028317  -0.025351
    29  H   -0.003014   0.000260   0.467495  -0.028317   0.536700  -0.027377
    30  H    0.006257   0.000169   0.474593  -0.025351  -0.027377   0.529450
    31  O    0.014510   0.000069  -0.062606  -0.002170  -0.010403   0.009601
    32  H    0.001246  -0.000003   0.000145  -0.000465   0.003338  -0.000006
    33  H    0.000488   0.000003  -0.000790   0.000001   0.000001   0.000000
    34  C   -0.021394  -0.001873  -0.096238   0.000123  -0.000191  -0.000108
    35  C    0.014183  -0.000265   0.004108  -0.000015  -0.000016   0.000061
    36  H   -0.000009   0.000000   0.000026   0.000000   0.000000   0.000000
    37  H    0.000044   0.000000   0.000221   0.000000   0.000000   0.000000
    38  C    0.000845   0.000019   0.004751   0.000011  -0.000134  -0.000043
    39  H   -0.000023   0.000000   0.000283   0.000000   0.000000   0.000000
    40  H   -0.000006   0.000000   0.000002   0.000000   0.000000   0.000000
    41  H    0.000083   0.000000  -0.001150   0.000000   0.000000   0.000000
    42  C   -0.006548   0.000053  -0.001941   0.000000  -0.000003   0.000001
    43  H    0.000000   0.000000  -0.000001   0.000000   0.000000   0.000000
    44  H    0.000000   0.000000  -0.000001   0.000000   0.000000   0.000000
    45  C    0.000004  -0.000002  -0.000050   0.000000   0.000000   0.000000
    46  H    0.000000   0.000000   0.000000   0.000000   0.000000   0.000000
    47  H    0.000000   0.000000   0.000000   0.000000   0.000000   0.000000
    48  H    0.000000   0.000000   0.000000   0.000000   0.000000   0.000000
             31         32         33         34         35         36
     1  C    0.125761   0.070407  -0.048712   0.339626   0.040487   0.000702
     2  C   -0.185843   0.035581  -0.061395  -0.392591  -0.189916  -0.000985
     3  H    0.008308  -0.000216   0.005052  -0.034415   0.009289   0.000000
     4  H   -0.003259   0.000012  -0.004985  -0.010742  -0.000418   0.000000
     5  C    0.073098  -0.011101   0.516257   0.865189  -0.488923  -0.005628
     6  H   -0.000911   0.000011  -0.033332   0.069043   0.001490  -0.000044
     7  C    0.083084   0.019420  -0.150545  -4.429192   0.437533   0.013730
     8  H    0.001408  -0.000004   0.005464  -0.198633   0.076720   0.000337
     9  C   -0.071447   0.013379   0.060903   0.020238   0.621374   0.000941
    10  H    0.011985  -0.000388   0.003708  -0.048567   0.009132   0.000006
    11  C    0.181871  -0.115286   0.009481  -0.942614   0.133668   0.000469
    12  H   -0.009397   0.004889  -0.000052  -0.000897   0.000867   0.000000
    13  C   -0.089089  -0.004297   0.000477  -0.792798   0.664581   0.001609
    14  C   -0.003592  -0.000119   0.000075   0.465537  -0.179947   0.000470
    15  C   -0.031536  -0.001667  -0.017041   1.503558  -1.313711  -0.000567
    16  C   -0.059045  -0.004573   0.023415   0.632327   0.280418  -0.001033
    17  C   -0.004461  -0.000647   0.003413   0.098600   0.355298   0.000099
    18  C    0.001983   0.000144  -0.000391  -0.071277   0.079417   0.002343
    19  H    0.000002   0.000000   0.000000  -0.001062   0.000194   0.000000
    20  H    0.000000   0.000000   0.000000  -0.001687   0.002289   0.000000
    21  O   -0.002524   0.000310  -0.000069   0.037614  -0.012136  -0.000061
    22  H   -0.000032   0.000001   0.000000   0.000461   0.000383   0.000000
    23  O    0.000835   0.000012   0.000043  -0.110537   0.051947   0.000106
    24  H   -0.000251   0.000001  -0.000008   0.006329   0.004201  -0.000001
    25  O    0.014510   0.001246   0.000488  -0.021394   0.014183  -0.000009
    26  H    0.000069  -0.000003   0.000003  -0.001873  -0.000265   0.000000
    27  C   -0.062606   0.000145  -0.000790  -0.096238   0.004108   0.000026
    28  H   -0.002170  -0.000465   0.000001   0.000123  -0.000015   0.000000
    29  H   -0.010403   0.003338   0.000001  -0.000191  -0.000016   0.000000
    30  H    0.009601  -0.000006   0.000000  -0.000108   0.000061   0.000000
    31  O    8.374393   0.248818   0.010325  -0.023373   0.009478   0.000002
    32  H    0.248818   0.336383  -0.000203   0.000030   0.000323   0.000000
    33  H    0.010325  -0.000203   0.561488  -0.022505   0.049850   0.000007
    34  C   -0.023373   0.000030  -0.022505  11.698383  -2.559271  -0.134064
    35  C    0.009478   0.000323   0.049850  -2.559271   8.778846   0.468286
    36  H    0.000002   0.000000   0.000007  -0.134064   0.468286   0.538235
    37  H    0.000004   0.000000  -0.000003  -0.228222   0.636798  -0.035348
    38  C   -0.000703  -0.000058  -0.064790   0.049450  -1.393523   0.000912
    39  H   -0.000320   0.000000  -0.001294  -0.079490  -0.040493   0.000225
    40  H   -0.000008   0.000000   0.000042  -0.067767  -0.052917   0.003567
    41  H    0.000059   0.000006  -0.000029  -0.149795  -0.016769   0.000160
    42  C   -0.000066   0.000001   0.000008   0.015869   0.038880   0.000346
    43  H    0.000000   0.000000   0.000000   0.000058  -0.000052   0.000000
    44  H    0.000000   0.000000   0.000000  -0.000103   0.000090   0.000000
    45  C    0.000001   0.000000   0.000000  -0.000095  -0.002423   0.000009
    46  H    0.000000   0.000000   0.000000  -0.000050   0.000044   0.000000
    47  H    0.000000   0.000000   0.000000   0.000041  -0.000084   0.000000
    48  H    0.000000   0.000000   0.000000   0.000274  -0.000364   0.000000
             37         38         39         40         41         42
     1  C    0.004863   0.107516  -0.005569   0.000832  -0.005380  -0.004215
     2  C   -0.004450   0.073428   0.006213  -0.001185   0.001493  -0.000011
     3  H    0.000000  -0.004118  -0.000005   0.000000   0.000000  -0.000005
     4  H    0.000000  -0.002415   0.000002   0.000000   0.000001   0.000000
     5  C   -0.021527   0.017023   0.043422   0.004511  -0.015448   0.005676
     6  H   -0.000003  -0.017868   0.000044  -0.000017   0.000082   0.000008
     7  C   -0.047697   0.327030  -0.050222  -0.049967   0.091958  -0.152197
     8  H    0.006012  -0.025489  -0.000103  -0.000083  -0.000100   0.000470
     9  C    0.028745  -0.660539  -0.015157  -0.007109  -0.010147  -0.236255
    10  H   -0.000004  -0.005140  -0.000078   0.000005  -0.000012  -0.000491
    11  C    0.000715  -0.111976   0.010468  -0.002020  -0.015630  -0.084602
    12  H    0.000000  -0.002822   0.000000   0.000000   0.000004   0.000249
    13  C    0.003335   0.026548  -0.010095   0.005357   0.033816  -0.882616
    14  C   -0.001045   0.013082  -0.000187   0.001136  -0.004870  -1.444738
    15  C    0.013410   0.492759   0.008244   0.000510  -0.012779  -0.413467
    16  C    0.003291  -0.590840  -0.007410   0.008529  -0.029960  -0.277146
    17  C    0.002791  -0.486368  -0.002675   0.001896  -0.016648   0.555683
    18  C   -0.025921   0.025300   0.002235   0.000203  -0.001120   0.552323
    19  H    0.000000   0.000251   0.000000   0.000000  -0.000001  -0.016635
    20  H   -0.000003   0.000223   0.000000   0.000000   0.000000  -0.013838
    21  O   -0.000046  -0.007101   0.000352   0.000054   0.003393  -0.003086
    22  H    0.000000   0.000376   0.000000   0.000000  -0.000234   0.001217
    23  O    0.003369  -0.022514  -0.000045  -0.000010  -0.000005  -0.026177
    24  H   -0.000102  -0.001110   0.000000   0.000000   0.000002   0.001364
    25  O    0.000044   0.000845  -0.000023  -0.000006   0.000083  -0.006548
    26  H    0.000000   0.000019   0.000000   0.000000   0.000000   0.000053
    27  C    0.000221   0.004751   0.000283   0.000002  -0.001150  -0.001941
    28  H    0.000000   0.000011   0.000000   0.000000   0.000000   0.000000
    29  H    0.000000  -0.000134   0.000000   0.000000   0.000000  -0.000003
    30  H    0.000000  -0.000043   0.000000   0.000000   0.000000   0.000001
    31  O    0.000004  -0.000703  -0.000320  -0.000008   0.000059  -0.000066
    32  H    0.000000  -0.000058   0.000000   0.000000   0.000006   0.000001
    33  H   -0.000003  -0.064790  -0.001294   0.000042  -0.000029   0.000008
    34  C   -0.228222   0.049450  -0.079490  -0.067767  -0.149795   0.015869
    35  C    0.636798  -1.393523  -0.040493  -0.052917  -0.016769   0.038880
    36  H   -0.035348   0.000912   0.000225   0.003567   0.000160   0.000346
    37  H    0.548295  -0.028597  -0.000191   0.000201  -0.000209   0.000414
    38  C   -0.028597   7.444438   0.488844   0.510003   0.498548  -0.020556
    39  H   -0.000191   0.488844   0.536453  -0.027028  -0.028878  -0.000021
    40  H    0.000201   0.510003  -0.027028   0.541250  -0.027012   0.000026
    41  H   -0.000209   0.498548  -0.028878  -0.027012   0.536005  -0.000233
    42  C    0.000414  -0.020556  -0.000021   0.000026  -0.000233   7.386308
    43  H    0.000000   0.000021   0.000000   0.000000   0.000000   0.484367
    44  H    0.000000  -0.000015   0.000000   0.000000   0.000000   0.487062
    45  C   -0.000028   0.001826  -0.000002   0.000017   0.000039   0.203295
    46  H    0.000000  -0.000003   0.000000   0.000000   0.000000  -0.066767
    47  H    0.000000   0.000039   0.000000   0.000000   0.000000  -0.047735
    48  H    0.000000  -0.000032   0.000000   0.000000   0.000000  -0.052906
             43         44         45         46         47         48
     1  C    0.000007   0.000000  -0.000075   0.000000   0.000001   0.000001
     2  C    0.000000   0.000000  -0.000034   0.000000  -0.000001   0.000000
     3  H    0.000000   0.000000   0.000000   0.000000   0.000000   0.000000
     4  H    0.000000   0.000000   0.000000   0.000000   0.000000   0.000000
     5  C   -0.000003  -0.000002  -0.000017   0.000000  -0.000002   0.000001
     6  H    0.000000   0.000000   0.000000   0.000000   0.000000   0.000000
     7  C   -0.000005  -0.000253   0.000153   0.000001  -0.000162   0.000116
     8  H    0.000000   0.000000  -0.000013   0.000000   0.000000   0.000000
     9  C   -0.000319  -0.000834  -0.007439  -0.000099  -0.000115  -0.000352
    10  H    0.000000   0.000000   0.000008   0.000000   0.000000   0.000000
    11  C   -0.000158   0.000076  -0.002681   0.000002   0.000010  -0.000063
    12  H    0.000000   0.000000   0.000011   0.000000   0.000000   0.000000
    13  C   -0.008055  -0.005158  -0.022773   0.001667  -0.000765  -0.015418
    14  C   -0.159394  -0.162940   0.053924  -0.018213   0.022075   0.068913
    15  C   -0.009705   0.030281   0.045941  -0.002947   0.008943   0.003977
    16  C    0.036718  -0.019300   0.002200   0.001622  -0.025699   0.013933
    17  C    0.088146  -0.065710  -0.010821   0.002260  -0.064114   0.053020
    18  C   -0.091586   0.077119  -0.059149   0.017680   0.044395  -0.132724
    19  H    0.002492   0.000108   0.004542  -0.000034   0.000191   0.000015
    20  H    0.000118   0.002317   0.002445  -0.000034   0.000013   0.000260
    21  O   -0.000002   0.000024   0.000030  -0.000003   0.000062   0.000000
    22  H    0.000000   0.000000   0.000104   0.000000  -0.000001   0.000000
    23  O    0.000023  -0.000030   0.000068   0.000000   0.000007  -0.000039
    24  H    0.000000   0.000000  -0.000051   0.000000   0.000000   0.000000
    25  O    0.000000   0.000000   0.000004   0.000000   0.000000   0.000000
    26  H    0.000000   0.000000  -0.000002   0.000000   0.000000   0.000000
    27  C   -0.000001  -0.000001  -0.000050   0.000000   0.000000   0.000000
    28  H    0.000000   0.000000   0.000000   0.000000   0.000000   0.000000
    29  H    0.000000   0.000000   0.000000   0.000000   0.000000   0.000000
    30  H    0.000000   0.000000   0.000000   0.000000   0.000000   0.000000
    31  O    0.000000   0.000000   0.000001   0.000000   0.000000   0.000000
    32  H    0.000000   0.000000   0.000000   0.000000   0.000000   0.000000
    33  H    0.000000   0.000000   0.000000   0.000000   0.000000   0.000000
    34  C    0.000058  -0.000103  -0.000095  -0.000050   0.000041   0.000274
    35  C   -0.000052   0.000090  -0.002423   0.000044  -0.000084  -0.000364
    36  H    0.000000   0.000000   0.000009   0.000000   0.000000   0.000000
    37  H    0.000000   0.000000  -0.000028   0.000000   0.000000   0.000000
    38  C    0.000021  -0.000015   0.001826  -0.000003   0.000039  -0.000032
    39  H    0.000000   0.000000  -0.000002   0.000000   0.000000   0.000000
    40  H    0.000000   0.000000   0.000017   0.000000   0.000000   0.000000
    41  H    0.000000   0.000000   0.000039   0.000000   0.000000   0.000000
    42  C    0.484367   0.487062   0.203295  -0.066767  -0.047735  -0.052906
    43  H    0.567411  -0.033741  -0.023883  -0.003368  -0.005004   0.004899
    44  H   -0.033741   0.565265  -0.022349  -0.003305   0.004852  -0.005064
    45  C   -0.023883  -0.022349   5.182108   0.423967   0.419049   0.417392
    46  H   -0.003368  -0.003305   0.423967   0.549564  -0.027102  -0.027056
    47  H   -0.005004   0.004852   0.419049  -0.027102   0.541848  -0.028572
    48  H    0.004899  -0.005064   0.417392  -0.027056  -0.028572   0.541945
 Mulliken atomic charges:
              1
     1  C    0.298194
     2  C   -0.286823
     3  H    0.167028
     4  H    0.155816
     5  C   -0.690597
     6  H    0.150688
     7  C    0.170550
     8  H    0.140938
     9  C   -0.286454
    10  H    0.172150
    11  C   -0.235932
    12  H    0.155756
    13  C    0.331361
    14  C   -0.067683
    15  C   -1.310591
    16  C    0.476634
    17  C   -0.116446
    18  C    0.432261
    19  H    0.148250
    20  H    0.146624
    21  O   -0.595189
    22  H    0.446668
    23  O   -0.623278
    24  H    0.474516
    25  O   -0.678269
    26  H    0.446970
    27  C   -0.320450
    28  H    0.167622
    29  H    0.163435
    30  H    0.169127
    31  O   -0.594560
    32  H    0.404577
    33  H    0.155639
    34  C    0.616802
    35  C   -0.518994
    36  H    0.145155
    37  H    0.140887
    38  C   -0.636491
    39  H    0.172500
    40  H    0.156991
    41  H    0.170763
    42  C    0.018635
    43  H    0.151015
    44  H    0.151610
    45  C   -0.605249
    46  H    0.152174
    47  H    0.157829
    48  H    0.157844
 Sum of Mulliken atomic charges =   0.00000
 Mulliken charges with hydrogens summed into heavy atoms:
              1
     1  C    0.298194
     2  C    0.036021
     5  C   -0.384270
     7  C    0.311488
     9  C   -0.114304
    11  C   -0.080176
    13  C    0.331361
    14  C   -0.067683
    15  C   -1.310591
    16  C    0.476634
    17  C    0.031804
    18  C    0.578885
    21  O   -0.148521
    23  O   -0.148762
    25  O   -0.231299
    27  C    0.179733
    31  O   -0.189984
    34  C    0.616802
    35  C   -0.232952
    38  C   -0.136236
    42  C    0.321259
    45  C   -0.137401
 Sum of Mulliken charges with hydrogens summed into heavy atoms =   0.00000
 Electronic spatial extent (au):  <R**2>=           7115.9590
 Charge=              0.0000 electrons
 Dipole moment (field-independent basis, Debye):
    X=             -0.7309    Y=             -4.1895    Z=              3.6817  Tot=              5.6250
 Quadrupole moment (field-independent basis, Debye-Ang):
   XX=           -123.9361   YY=           -126.5929   ZZ=           -133.4529
   XY=              9.4858   XZ=             13.9761   YZ=             -0.0466
 Traceless Quadrupole moment (field-independent basis, Debye-Ang):
   XX=              4.0579   YY=              1.4010   ZZ=             -5.4589
   XY=              9.4858   XZ=             13.9761   YZ=             -0.0466
 Octapole moment (field-independent basis, Debye-Ang**2):
  XXX=             39.9844  YYY=            -46.6722  ZZZ=             58.1737  XYY=            -38.9017
  XXY=            -42.9167  XXZ=             -3.0306  XZZ=             16.8631  YZZ=            -15.7876
  YYZ=              7.5260  XYZ=              0.7286
 Hexadecapole moment (field-independent basis, Debye-Ang**3):
 XXXX=          -6345.6714 YYYY=          -1918.6557 ZZZZ=          -1136.9321 XXXY=             -6.8158
 XXXZ=            126.6704 YYYX=            138.2101 YYYZ=             65.6132 ZZZX=            103.7336
 ZZZY=            -14.8730 XXYY=          -1360.8591 XXZZ=          -1240.2720 YYZZ=           -522.6492
 XXYZ=             -9.6846 YYXZ=            -13.4773 ZZXY=             39.3953
 N-N= 1.984513517320D+03 E-N=-6.302219143598D+03  KE= 9.931645120783D+02

 Test job not archived.
 1\1\GINC-COMPUTE-10-6\SP\RB3LYP\6-31+G(d,p)\C18H26O4\LPASSAGLIA.IQUIR\
 23-Dec-2022\0\\# B3LYP/6-31+G** geom=allcheck test scrf=(pcm,solvent=w
 ater,smd,dovacuum)\\comment\\0,1\C,0,-1.737896155,0.853713197,-2.80746
 8515\C,0,-2.381235309,2.025520408,-2.046360863\H,0,-1.755063956,2.9227
 81899,-2.127564852\H,0,-3.354391104,2.2698811,-2.490870576\C,0,-2.6061
 73301,1.704038715,-0.566389379\H,0,-3.017140497,2.59133682,-0.06837413
 6\C,0,-1.309818881,1.257852108,0.144028545\H,0,-0.631930744,2.11975145
 3,0.092174689\C,0,-0.655404502,0.068553551,-0.625572768\H,0,-1.4118468
 86,-0.726358871,-0.631033016\C,0,-0.412980296,0.424860382,-2.117818836
 \H,0,-0.00101947,-0.458749453,-2.623168079\C,0,0.608697824,-0.50581284
 1,0.023035037\C,0,2.858838518,-1.633198796,1.359717903\C,0,1.73372841,
 0.266442686,0.352883019\C,0,0.668125823,-1.873088439,0.346880638\C,0,1
 .767642666,-2.43244208,1.007989068\C,0,2.829844227,-0.276880988,1.0268
 77906\H,0,1.782837712,-3.490113513,1.255375566\H,0,3.666491223,0.37067
 7086,1.278836168\O,0,-0.376418571,-2.689443365,-0.000597754\H,0,-0.238
 126701,-3.560600039,0.405777958\O,0,1.852414833,1.588435525,0.02256270
 9\H,0,1.318568952,1.7298773,-0.788928701\O,0,0.559715444,1.479344617,-
 2.22449698\H,0,0.908303303,1.453425002,-3.135620601\C,0,-1.514856837,1
 .250796159,-4.270933904\H,0,-2.471244483,1.44911999,-4.768666668\H,0,-
 1.041385656,0.432919696,-4.825830354\H,0,-0.88892591,2.143294313,-4.36
 7744191\O,0,-2.668896319,-0.235834449,-2.806629635\H,0,-2.253275889,-0
 .998634902,-3.245007098\H,0,-3.372707145,0.922934219,-0.493022804\C,0,
 -1.579515875,0.969088562,1.623211667\C,0,-0.945265753,1.661084327,2.58
 6098555\H,0,-1.11692672,1.463713214,3.639388763\H,0,-0.219272217,2.432
 857695,2.34590298\C,0,-2.559921009,-0.115466435,1.981047991\H,0,-3.569
 320095,0.148571018,1.652652499\H,0,-2.605220399,-0.281703107,3.0631142
 96\H,0,-2.279783494,-1.067150275,1.521944251\C,0,4.034986557,-2.214151
 993,2.099723973\H,0,4.182915685,-3.257844422,1.79664261\H,0,4.95104481
 8,-1.683121758,1.813514965\C,0,3.846805207,-2.138472995,3.607166125\H,
 0,4.714488065,-2.566770313,4.118810771\H,0,2.957462458,-2.693277851,3.
 924923968\H,0,3.733052445,-1.101754153,3.941817088\\Version=EM64L-G09R
 evC.01\State=1-A\HF=-1002.5584512\RMSD=6.495e-09\Dipole=0.1396306,-1.5
 101993,-1.6116523\Quadrupole=-10.8666453,3.6128174,7.2538279,-4.416139
 8,-1.6598347,-7.5434584\PG=C01 [X(C18H26O4)]\\@


 SCIENCE AT ITS BEST PROVIDES US WITH BETTER QUESTIONS, 
 NOT ABSOLUTE ANSWERS

                                    -- NORMAN COUSINS, 1976
 Job cpu time:  0 days  1 hours 22 minutes  9.7 seconds.
 File lengths (MBytes):  RWF=    241 Int=      0 D2E=      0 Chk=     19 Scr=      1
 Normal termination of Gaussian 09 at Fri Dec 23 14:58:22 2022.
