 Entering Gaussian System, Link 0=g09
 Input=/home/lpassaglia.iquir/Link1/01_RRSS_THC_007.gjc
 Output=/home/lpassaglia.iquir/Link1/01_RRSS_THC_007.log
 Initial command:
 /share/apps/Gaussian09/EM64T.SSE4.2-enabled/g09/l1.exe /tmp/Gau-4256.inp -scrdir=/tmp/
 Entering Link 1 = /share/apps/Gaussian09/EM64T.SSE4.2-enabled/g09/l1.exe PID=      4258.
  
 Copyright (c) 1988,1990,1992,1993,1995,1998,2003,2009,2011,
            Gaussian, Inc.  All Rights Reserved.
  
 This is part of the Gaussian(R) 09 program.  It is based on
 the Gaussian(R) 03 system (copyright 2003, Gaussian, Inc.),
 the Gaussian(R) 98 system (copyright 1998, Gaussian, Inc.),
 the Gaussian(R) 94 system (copyright 1995, Gaussian, Inc.),
 the Gaussian 92(TM) system (copyright 1992, Gaussian, Inc.),
 the Gaussian 90(TM) system (copyright 1990, Gaussian, Inc.),
 the Gaussian 88(TM) system (copyright 1988, Gaussian, Inc.),
 the Gaussian 86(TM) system (copyright 1986, Carnegie Mellon
 University), and the Gaussian 82(TM) system (copyright 1983,
 Carnegie Mellon University). Gaussian is a federally registered
 trademark of Gaussian, Inc.
  
 This software contains proprietary and confidential information,
 including trade secrets, belonging to Gaussian, Inc.
  
 This software is provided under written license and may be
 used, copied, transmitted, or stored only in accord with that
 written license.
  
 The following legend is applicable only to US Government
 contracts under FAR:
  
                    RESTRICTED RIGHTS LEGEND
  
 Use, reproduction and disclosure by the US Government is
 subject to restrictions as set forth in subparagraphs (a)
 and (c) of the Commercial Computer Software - Restricted
 Rights clause in FAR 52.227-19.
  
 Gaussian, Inc.
 340 Quinnipiac St., Bldg. 40, Wallingford CT 06492
  
  
 ---------------------------------------------------------------
 Warning -- This program may not be used in any manner that
 competes with the business of Gaussian, Inc. or will provide
 assistance to any competitor of Gaussian, Inc.  The licensee
 of this program is prohibited from giving any competitor of
 Gaussian, Inc. access to this program.  By using this program,
 the user acknowledges that Gaussian, Inc. is engaged in the
 business of creating and licensing software in the field of
 computational chemistry and represents and warrants to the
 licensee that it is not a competitor of Gaussian, Inc. and that
 it will not use this program in any manner prohibited above.
 ---------------------------------------------------------------
  

 Cite this work as:
 Gaussian 09, Revision C.01,
 M. J. Frisch, G. W. Trucks, H. B. Schlegel, G. E. Scuseria, 
 M. A. Robb, J. R. Cheeseman, G. Scalmani, V. Barone, B. Mennucci, 
 G. A. Petersson, H. Nakatsuji, M. Caricato, X. Li, H. P. Hratchian, 
 A. F. Izmaylov, J. Bloino, G. Zheng, J. L. Sonnenberg, M. Hada, 
 M. Ehara, K. Toyota, R. Fukuda, J. Hasegawa, M. Ishida, T. Nakajima, 
 Y. Honda, O. Kitao, H. Nakai, T. Vreven, J. A. Montgomery, Jr., 
 J. E. Peralta, F. Ogliaro, M. Bearpark, J. J. Heyd, E. Brothers, 
 K. N. Kudin, V. N. Staroverov, T. Keith, R. Kobayashi, J. Normand, 
 K. Raghavachari, A. Rendell, J. C. Burant, S. S. Iyengar, J. Tomasi, 
 M. Cossi, N. Rega, J. M. Millam, M. Klene, J. E. Knox, J. B. Cross, 
 V. Bakken, C. Adamo, J. Jaramillo, R. Gomperts, R. E. Stratmann, 
 O. Yazyev, A. J. Austin, R. Cammi, C. Pomelli, J. W. Ochterski, 
 R. L. Martin, K. Morokuma, V. G. Zakrzewski, G. A. Voth, 
 P. Salvador, J. J. Dannenberg, S. Dapprich, A. D. Daniels, 
 O. Farkas, J. B. Foresman, J. V. Ortiz, J. Cioslowski, 
 and D. J. Fox, Gaussian, Inc., Wallingford CT, 2010.
 
 ******************************************
 Gaussian 09:  EM64L-G09RevC.01 23-Sep-2011
                13-Oct-2021 
 ******************************************
 %chk=01_RRSS_THC_007_optB_NMR
 %nprocshared=4
 Will use up to    4 processors via shared memory.
 ------------------------------------------------
 # mPW1PW91/6-31+G** scrf=(PCM,solvent=water) nmr
 ------------------------------------------------
 1/38=1/1;
 2/12=2,17=6,18=5,40=1/2;
 3/5=1,6=6,7=111,11=2,16=1,25=1,30=1,70=2201,72=1,74=-7/1,2,8,3;
 4//1;
 5/5=2,38=5,53=1/2;
 8/6=1,10=90,11=11/1;
 10/13=100,45=16/2;
 6/7=2,8=2,9=2,10=2,28=1/1;
 99/9=1/99;
 -------
 comment
 -------
 Charge =  0 Multiplicity = 1
 Symbolic Z-Matrix:
 6                    -1.70146   0.87239  -2.85117 
 6                    -2.3708    2.02071  -2.07432 
 1                    -1.76046   2.92974  -2.14901 
 1                    -3.34752   2.25077  -2.51839 
 6                    -2.58736   1.70002  -0.59376 
 1                    -2.99259   2.59013  -0.09554 
 6                    -1.28938   1.25311   0.11248 
 1                    -0.60852   2.11252   0.05633 
 6                    -0.6411    0.05993  -0.65618 
 1                    -1.40222  -0.72898  -0.66328 
 6                    -0.39104   0.41606  -2.14836 
 1                     0.01283  -0.47022  -2.6555 
 6                     0.61117  -0.52725   0.00263 
 6                     2.84253  -1.68043   1.34808 
 6                     1.74395   0.23177   0.33606 
 6                     0.65045  -1.89403   0.3325 
 6                     1.74133  -2.46617   0.9968 
 6                     2.83137  -0.32422   1.01355 
 1                     1.74071  -3.5223    1.25118 
 1                     3.67542   0.31309   1.26704 
 8                    -0.40973  -2.6942   -0.00632 
 1                    -0.23177  -3.59605   0.30749 
 8                     1.87681   1.55305   0.00875 
 1                     1.35921   1.69737  -0.81294 
 8                     0.59589   1.46023  -2.23768 
 1                     0.96554   1.41362  -3.14066 
 6                    -1.42965   1.33046  -4.29056 
 1                    -2.36927   1.54858  -4.81189 
 1                    -0.93656   0.536    -4.86244 
 1                    -0.8039    2.22748  -4.33163 
 8                    -2.61141  -0.22821  -2.97163 
 1                    -2.93379  -0.48588  -2.09234 
 1                    -3.35839   0.92507  -0.51105 
 6                    -1.55943   0.97002   1.59245 
 6                    -0.92377   1.6666    2.5511 
 1                    -1.09282   1.47431   3.60592 
 1                    -0.19696   2.43662   2.30694 
 6                    -2.53845  -0.11259   1.95961 
 1                    -3.54937   0.15147   1.63587 
 1                    -2.57787  -0.27561   3.04239 
 1                    -2.26235  -1.06587   1.50167 
 6                     4.00972  -2.27507   2.09152 
 1                     4.14444  -3.3213    1.79103 
 1                     4.93313  -1.75674   1.80566 
 6                     3.82002  -2.19351   3.59847 
 1                     4.68114  -2.63201   4.11255 
 1                     2.92293  -2.73585   3.91596 
 1                     3.71935  -1.15463   3.93061 
 
                          Input orientation:                          
 ---------------------------------------------------------------------
 Center     Atomic      Atomic             Coordinates (Angstroms)
 Number     Number       Type             X           Y           Z
 ---------------------------------------------------------------------
      1          6           0       -1.701456    0.872388   -2.851168
      2          6           0       -2.370797    2.020709   -2.074324
      3          1           0       -1.760465    2.929736   -2.149007
      4          1           0       -3.347519    2.250772   -2.518391
      5          6           0       -2.587363    1.700024   -0.593759
      6          1           0       -2.992586    2.590128   -0.095538
      7          6           0       -1.289379    1.253114    0.112478
      8          1           0       -0.608519    2.112517    0.056333
      9          6           0       -0.641096    0.059928   -0.656183
     10          1           0       -1.402217   -0.728978   -0.663279
     11          6           0       -0.391043    0.416061   -2.148362
     12          1           0        0.012831   -0.470218   -2.655503
     13          6           0        0.611171   -0.527255    0.002630
     14          6           0        2.842533   -1.680426    1.348080
     15          6           0        1.743951    0.231768    0.336056
     16          6           0        0.650446   -1.894029    0.332500
     17          6           0        1.741333   -2.466167    0.996799
     18          6           0        2.831371   -0.324215    1.013554
     19          1           0        1.740708   -3.522302    1.251182
     20          1           0        3.675417    0.313092    1.267042
     21          8           0       -0.409733   -2.694199   -0.006323
     22          1           0       -0.231774   -3.596051    0.307492
     23          8           0        1.876810    1.553048    0.008748
     24          1           0        1.359207    1.697370   -0.812941
     25          8           0        0.595895    1.460231   -2.237676
     26          1           0        0.965535    1.413615   -3.140664
     27          6           0       -1.429653    1.330464   -4.290556
     28          1           0       -2.369274    1.548579   -4.811889
     29          1           0       -0.936563    0.536004   -4.862444
     30          1           0       -0.803900    2.227480   -4.331634
     31          8           0       -2.611411   -0.228210   -2.971633
     32          1           0       -2.933786   -0.485880   -2.092338
     33          1           0       -3.358393    0.925066   -0.511050
     34          6           0       -1.559428    0.970018    1.592450
     35          6           0       -0.923767    1.666596    2.551105
     36          1           0       -1.092819    1.474314    3.605920
     37          1           0       -0.196959    2.436617    2.306942
     38          6           0       -2.538448   -0.112586    1.959611
     39          1           0       -3.549373    0.151467    1.635873
     40          1           0       -2.577872   -0.275605    3.042388
     41          1           0       -2.262353   -1.065869    1.501674
     42          6           0        4.009716   -2.275071    2.091523
     43          1           0        4.144440   -3.321299    1.791034
     44          1           0        4.933128   -1.756742    1.805658
     45          6           0        3.820023   -2.193507    3.598472
     46          1           0        4.681144   -2.632011    4.112550
     47          1           0        2.922934   -2.735855    3.915961
     48          1           0        3.719351   -1.154631    3.930609
 ---------------------------------------------------------------------
                    Distance matrix (angstroms):
                    1          2          3          4          5
     1  C    0.000000
     2  C    1.539528   0.000000
     3  H    2.174671   1.097457   0.000000
     4  H    2.172604   1.097320   1.765270   0.000000
     5  C    2.562364   1.530298   2.148197   2.141347   0.000000
     6  H    3.494445   2.150919   2.418717   2.472116   1.097595
     7  C    3.016282   2.557493   2.854347   3.486077   1.543782
     8  H    3.344547   2.766541   2.618845   3.761707   2.123345
     9  C    2.569516   2.974500   3.423055   3.948713   2.545931
    10  H    2.727778   3.238824   3.965088   4.013048   2.703601
    11  C    1.555427   2.549472   2.862496   3.499120   2.981472
    12  H    2.186242   3.496309   3.867920   4.326030   3.965066
    13  C    3.930827   4.438242   4.712216   5.453825   3.942978
    14  C    6.693159   7.251901   7.393971   8.289793   6.684456
    15  C    4.737048   5.093270   5.073017   6.176351   4.666971
    16  C    4.829103   5.499626   5.936250   6.425782   4.925300
    17  C    6.148625   6.817145   7.160618   7.778334   6.214871
    18  C    6.075727   6.488160   6.455614   7.568611   6.003639
    19  H    6.927558   7.660838   8.090012   8.569021   7.029132
    20  H    6.795824   7.115995   6.932894   8.210099   6.678965
    21  O    4.741543   5.509334   6.167999   6.276448   4.939266
    22  H    5.666043   6.465018   7.138429   7.202695   5.865958
    23  O    4.631026   4.753952   4.447578   5.845243   4.507046
    24  H    3.768636   3.950767   3.610560   5.036673   3.952653
    25  O    2.449439   3.023587   2.778441   4.031658   3.590695
    26  H    2.736709   3.554822   3.273084   4.437397   4.380849
    27  C    1.534780   2.504771   2.693203   2.768709   3.891423
    28  H    2.178909   2.777980   3.060912   2.590400   4.226478
    29  H    2.177945   3.469148   3.710998   3.774615   4.722473
    30  H    2.198559   2.755607   2.484358   3.123842   4.175004
    31  O    1.433124   2.433248   3.372454   2.625382   3.061527
    32  H    1.984780   2.569100   3.611970   2.800350   2.672812
    33  H    2.867816   2.149327   3.042200   2.405625   1.096306
    34  C    4.446959   3.899680   4.228406   4.662254   2.523702
    35  C    5.515444   4.859412   4.938283   5.649391   3.557926
    36  H    6.513581   5.847816   5.973541   6.572195   4.463397
    37  H    5.596108   4.908568   4.747968   5.765796   3.830231
    38  C    4.981398   4.566365   5.171241   5.127627   3.131717
    39  H    4.905921   4.318411   5.024370   4.658942   2.880062
    40  H    6.067948   5.612190   6.155725   6.156070   4.138208
    41  H    4.797779   4.725091   5.435460   5.323403   3.485203
    42  C    8.182554   8.747512   8.852520   9.790990   8.156812
    43  H    8.562216   9.269647   9.458714  10.283412   8.730298
    44  H    8.521505   9.092344   9.077810  10.164973   8.617669
    45  C    9.026865   9.395025   9.509100  10.418315   8.590052
    46  H   10.075305  10.471633  10.565721  11.500886   9.682308
    47  H    8.955358   9.302258   9.529795  10.275501   8.389159
    48  H    8.915517   9.123152   9.147249  10.155147   8.270043
                    6          7          8          9         10
     6  H    0.000000
     7  C    2.175268   0.000000
     8  H    2.436176   1.097860   0.000000
     9  C    3.499391   1.560385   2.172984   0.000000
    10  H    3.723986   2.131483   3.036757   1.096234   0.000000
    11  C    3.963418   2.572754   2.790329   1.554334   2.130507
    12  H    4.995165   3.511032   3.796136   2.169322   2.457290
    13  C    4.766002   2.606505   2.908423   1.531990   2.130225
    14  C    7.373620   5.215848   5.288174   4.379678   4.792569
    15  C    5.308758   3.208462   3.024827   2.588922   3.438034
    16  C    5.793320   3.703490   4.208761   2.542346   2.561707
    17  C    7.012082   4.878553   5.231694   3.845708   3.956714
    18  C    6.606206   4.503387   4.322821   3.872159   4.571528
    19  H    7.847262   5.769114   6.220749   4.705678   4.620151
    20  H    7.176613   5.183229   4.801651   4.732353   5.531222
    21  O    5.882448   4.045883   4.811232   2.839201   2.297543
    22  H    6.786260   4.966987   5.726497   3.802946   3.245372
    23  O    4.979702   3.182055   2.547966   3.001898   4.051084
    24  H    4.499976   2.840558   2.190874   2.589788   3.678998
    25  O    4.329274   3.019996   2.671809   2.447879   3.356160
    26  H    5.130662   3.961481   3.631377   3.253671   4.041583
    27  C    4.650559   4.405947   4.492362   3.929981   4.171234
    28  H    4.870042   5.050036   5.207482   4.740524   4.830469
    29  H    5.583014   5.038707   5.175652   4.243416   4.410215
    30  H    4.781879   4.575501   4.393818   4.270096   4.749259
    31  O    4.044780   3.667946   4.319624   3.053927   2.653567
    32  H    3.667765   3.254134   4.095769   2.759868   2.108794
    33  H    1.754679   2.185685   3.048568   2.855386   2.566254
    34  C    2.743720   1.530813   2.137566   2.593829   2.828360
    35  C    3.483911   2.500308   2.553843   3.598330   4.037320
    36  H    4.307545   3.505953   3.638876   4.513321   4.814176
    37  H    3.689309   2.722083   2.310772   3.824398   4.505092
    38  C    3.425572   2.614806   3.506876   3.236060   2.924126
    39  H    3.042181   2.939716   3.871600   3.704049   3.266736
    40  H    4.269777   3.547051   4.300931   4.188450   3.914036
    41  H    4.055939   2.873017   3.863459   2.924422   2.353795
    42  C    8.802592   6.666718   6.687378   5.884911   6.266447
    43  H    9.457339   7.298575   7.424700   6.350034   6.596149
    44  H    9.237249   7.116578   6.981487   6.358689   6.876666
    45  C    9.107168   7.080773   7.120434   6.563661   6.897764
    46  H   10.191412   8.169573   8.181930   7.636334   7.964757
    47  H    8.913562   6.936998   7.132643   6.436088   6.610895
    48  H    8.676587   6.742606   6.664437   6.444169   6.893145
                   11         12         13         14         15
    11  C    0.000000
    12  H    1.098088   0.000000
    13  C    2.553633   2.725240   0.000000
    14  C    5.203497   5.049802   2.849389   0.000000
    15  C    3.280929   3.526895   1.403738   2.426430   0.000000
    16  C    3.546249   3.370749   1.406566   2.425341   2.390560
    17  C    4.769307   4.506755   2.454591   1.397651   2.777668
    18  C    4.574896   4.628981   2.447955   1.396904   1.396640
    19  H    5.622451   5.250044   3.435847   2.148468   3.864002
    20  H    5.311467   5.423511   3.419725   2.162031   2.145672
    21  O    3.776558   3.484653   2.395407   3.665976   3.649228
    22  H    4.706763   4.313931   3.197031   3.768793   4.307726
    23  O    3.330018   3.829655   2.435064   3.630672   1.367685
    24  H    2.547249   3.147412   2.484687   4.275486   1.901635
    25  O    1.439553   2.059412   2.994879   5.269607   3.074289
    26  H    1.954503   2.166069   3.711178   5.765851   3.753702
    27  C    2.550263   2.827828   5.103678   7.688384   5.717030
    28  H    3.505763   3.794729   6.030898   8.691066   6.719669
    29  H    2.770960   2.604692   5.214877   7.600312   5.856801
    30  H    2.866770   3.279335   5.326991   7.799190   5.679942
    31  O    2.454159   2.654271   4.395532   7.107345   5.488312
    32  H    2.698551   2.999992   4.117927   6.828563   5.319148
    33  H    3.427104   4.232097   4.257997   6.978283   5.218445
    34  C    3.957988   4.753040   3.079100   5.144106   3.610520
    35  C    4.892098   5.705433   3.696450   5.180236   3.752585
    36  H    5.892720   6.648992   4.460220   5.526050   4.503687
    37  H    4.895922   5.754961   3.840244   5.206532   3.537356
    38  C    4.665433   5.285472   3.731197   5.638001   4.592761
    39  H    4.936142   5.611747   4.520871   6.655458   5.451170
    40  H    5.674901   6.262235   4.412874   5.850213   5.124433
    41  H    4.361271   4.776336   3.285480   5.144039   4.369554
    42  C    6.677237   6.462728   4.355278   1.506196   3.807834
    43  H    7.075118   6.706008   4.846552   2.140942   4.528089
    44  H    6.978692   6.765089   4.841679   2.141445   4.035437
    45  C    7.587425   7.521745   5.099334   2.506592   4.564580
    46  H    8.614920   8.501356   6.155171   3.453737   5.575863
    47  H    7.595593   7.535646   5.053348   2.777482   4.797135
    48  H    7.504418   7.588385   5.048109   2.777539   4.329563
                   16         17         18         19         20
    16  C    0.000000
    17  C    1.399525   0.000000
    18  C    2.772109   2.403419   0.000000
    19  H    2.164237   1.086340   3.387296   0.000000
    20  H    3.859430   3.396762   1.087580   4.295765   0.000000
    21  O    1.370785   2.384395   4.142672   2.625161   5.230077
    22  H    1.917241   2.375906   4.537212   2.187847   5.609659
    23  O    3.673026   4.141096   2.333439   5.226982   2.521067
    24  H    3.835691   4.555899   3.096799   5.625934   3.406961
    25  O    4.226090   5.214446   4.330369   6.189375   4.804418
    26  H    4.806522   5.724785   4.874313   6.652254   5.289847
    27  C    6.008062   7.240558   7.001991   8.019438   7.614701
    28  H    6.887307   8.170442   8.030558   8.908795   8.661300
    29  H    5.950722   7.107382   7.033111   7.811149   7.674024
    30  H    6.391878   7.543257   6.949632   8.408499   7.421208
    31  O    4.932743   6.301054   6.746466   6.901025   7.601551
    32  H    4.550762   5.943150   6.550552   6.499990   7.456899
    33  H    4.972892   6.307239   6.496022   6.991807   7.280838
    34  C    3.830637   4.801790   4.614031   5.584648   5.285928
    35  C    4.480893   5.157359   4.519785   5.976110   4.963193
    36  H    5.009989   5.510655   5.035310   6.208046   5.436439
    37  H    4.834358   5.432379   4.297190   6.354361   4.537185
    38  C    3.998759   4.978240   5.456627   5.517174   6.266815
    39  H    4.849877   5.937338   6.428643   6.452094   7.236003
    40  H    4.514955   5.257235   5.777408   5.692063   6.527024
    41  H    3.246107   4.271444   5.170526   4.703329   6.100303
    42  C    3.811044   2.525966   2.521181   2.722161   2.736808
    43  H    4.046285   2.671514   3.363203   2.471795   3.701804
    44  H    4.531050   3.368248   2.664009   3.690012   2.481161
    45  C    4.560974   3.341257   3.339684   3.405733   3.426298
    46  H    5.574938   4.286946   4.283849   4.198358   4.216876
    47  H    4.325977   3.160763   3.774700   3.019471   4.108416
    48  H    4.786573   3.773582   3.160270   4.086591   3.041501
                   21         22         23         24         25
    21  O    0.000000
    22  H    0.971332   0.000000
    23  O    4.823651   5.572126   0.000000
    24  H    4.802672   5.639760   0.981792   0.000000
    25  O    4.821774   5.720917   2.587620   1.633631   0.000000
    26  H    5.346923   6.198393   3.281564   2.377770   0.976829
    27  C    5.965970   6.844524   5.428283   4.472825   2.886867
    28  H    6.703315   7.565989   6.424002   5.469487   3.927672
    29  H    5.856079   6.655737   5.716464   4.797687   3.176796
    30  H    6.564039   7.467418   5.145871   4.164282   2.633013
    31  O    4.440895   5.268556   5.674476   4.912597   3.698153
    32  H    3.949553   4.767936   5.631485   4.983295   4.033251
    33  H    4.695574   5.557540   5.298292   4.789920   4.347876
    34  C    4.159851   4.925725   3.828285   3.851412   4.422170
    35  C    5.081456   5.762647   3.784139   4.065676   5.028357
    36  H    5.558004   6.109798   4.665249   5.058510   6.082727
    37  H    5.632206   6.355478   3.219148   3.563960   4.715453
    38  C    3.880857   4.492747   5.106340   5.114167   5.469467
    39  H    4.544443   5.178315   5.835703   5.699181   5.822412
    40  H    4.454779   4.899917   5.691321   5.852930   6.400390
    41  H    2.890971   3.457043   5.120569   5.109661   5.341675
    42  C    4.910007   4.787274   4.851983   5.589402   6.659476
    43  H    4.936015   4.628999   5.663739   6.302797   7.189277
    44  H    5.719114   5.683640   4.850224   5.617906   6.746040
    45  C    5.579971   5.405065   5.540656   6.376136   7.602988
    46  H    6.548742   6.288450   6.497707   7.351142   8.588427
    47  H    5.147109   4.869617   5.895369   6.667927   7.803172
    48  H    5.909234   5.890577   5.109547   6.017097   7.391970
                   26         27         28         29         30
    26  H    0.000000
    27  C    2.658212   0.000000
    28  H    3.732581   1.096472   0.000000
    29  H    2.711587   1.096065   1.755142   0.000000
    30  H    2.282912   1.094483   1.772554   1.777766   0.000000
    31  O    3.939378   2.359147   2.569465   2.638997   3.338729
    32  H    4.462261   3.223924   3.442914   3.564636   4.112564
    33  H    5.084280   4.262517   4.456943   4.995123   4.776879
    34  C    5.382805   5.895467   6.481215   6.499384   6.103016
    35  C    6.002474   6.868568   7.504472   7.499274   6.906595
    36  H    7.053858   7.904966   8.514362   8.521621   7.978439
    37  H    5.663422   6.802213   7.495687   7.453821   6.669543
    38  C    6.373382   6.509717   6.974332   7.037552   6.932844
    39  H    6.692736   6.403578   6.702104   7.014469   6.889020
    40  H    7.323888   7.594072   8.066029   8.114121   7.986777
    41  H    6.174011   6.323427   6.834314   6.695201   6.855707
    42  C    7.088669   9.127845  10.147361   8.984736   9.203305
    43  H    7.539661   9.470752  10.475819   9.217600   9.631308
    44  H    7.089363   9.337004  10.394333   9.174614   9.298058
    45  C    8.159374  10.110106  11.092555  10.082779  10.188836
    46  H    9.098459  11.120038  12.117399  11.051945  11.180546
    47  H    8.416975  10.140360  11.069743  10.132185  10.322152
    48  H    8.011385  10.013765  10.991359  10.092252  10.008153
                   31         32         33         34         35
    31  O    0.000000
    32  H    0.971328   0.000000
    33  H    2.818243   2.161373   0.000000
    34  C    4.834591   4.193586   2.768214   0.000000
    35  C    6.077751   5.498626   3.981716   1.344732   0.000000
    36  H    6.961962   6.300926   4.731167   2.127463   1.085443
    37  H    6.387037   5.948519   4.496724   2.125496   1.086645
    38  C    4.933139   4.088268   2.802356   1.505098   2.474378
    39  H    4.717313   3.832065   2.290024   2.152160   3.166555
    40  H    6.014301   5.151340   3.831154   2.165901   2.597993
    41  H    4.564427   3.701910   3.035817   2.155732   3.218615
    42  C    8.582804   8.301694   8.444128   6.464909   6.331447
    43  H    8.825628   8.556954   8.923212   7.140654   7.151471
    44  H    9.059745   8.871178   9.017125   7.045137   6.824819
    45  C    9.401703   8.995290   8.839871   6.555189   6.204911
    46  H   10.447261  10.054535   9.933007   7.633496   7.234029
    47  H    9.184564   8.686957   8.512100   6.262888   6.003459
    48  H    9.411575   8.999297   8.610919   6.151961   5.605435
                   36         37         38         39         40
    36  H    0.000000
    37  H    1.848225   0.000000
    38  C    2.705259   3.478742   0.000000
    39  H    3.415503   4.112289   1.093846   0.000000
    40  H    2.363296   3.683175   1.095689   1.761955   0.000000
    41  H    3.499741   4.145084   1.093015   1.776608   1.760076
    42  C    6.510542   6.320011   6.897260   7.952077   6.949700
    43  H    7.329434   7.229627   7.415204   8.442685   7.485427
    44  H    7.070552   6.644798   7.651888   8.696143   7.754894
    45  C    6.130986   6.264363   6.888124   7.978639   6.702286
    46  H    7.103326   7.262721   7.943876   9.034550   7.706569
    47  H    5.826485   6.251172   6.366753   7.444876   6.088910
    48  H    5.493064   5.556153   6.643097   7.733437   6.420019
                   41         42         43         44         45
    41  H    0.000000
    42  C    6.414744   0.000000
    43  H    6.798359   1.096831   0.000000
    44  H    7.234961   1.096847   1.752164   0.000000
    45  C    6.531724   1.521030   2.154993   2.154982   0.000000
    46  H    7.581664   2.159345   2.480445   2.480190   1.094574
    47  H    5.958594   2.173014   2.519948   3.074560   1.095311
    48  H    6.456654   2.173001   3.074563   2.520160   1.095315
                   46         47         48
    46  H    0.000000
    47  H    1.772211   0.000000
    48  H    1.772231   1.770526   0.000000
 Stoichiometry    C18H26O4
 Framework group  C1[X(C18H26O4)]
 Deg. of freedom   138
 Full point group                 C1      NOp   1
 Largest Abelian subgroup         C1      NOp   1
 Largest concise Abelian subgroup C1      NOp   1
                         Standard orientation:                         
 ---------------------------------------------------------------------
 Center     Atomic      Atomic             Coordinates (Angstroms)
 Number     Number       Type             X           Y           Z
 ---------------------------------------------------------------------
      1          6           0       -3.235635   -0.903092    0.301375
      2          6           0       -3.679960    0.312856   -0.531807
      3          1           0       -3.689427    0.053519   -1.598141
      4          1           0       -4.704607    0.596057   -0.259768
      5          6           0       -2.782555    1.536910   -0.336443
      6          1           0       -3.114539    2.330273   -1.018410
      7          6           0       -1.291363    1.225216   -0.586355
      8          1           0       -1.221589    0.928890   -1.641162
      9          6           0       -0.837710    0.020121    0.294977
     10          1           0       -1.029364    0.328294    1.329398
     11          6           0       -1.734324   -1.226640    0.054930
     12          1           0       -1.410310   -2.025438    0.735176
     13          6           0        0.651254   -0.326557    0.196018
     14          6           0        3.453906   -0.830245    0.093765
     15          6           0        1.305923   -0.609524   -1.013038
     16          6           0        1.442833   -0.342323    1.358594
     17          6           0        2.820473   -0.585017    1.315261
     18          6           0        2.682710   -0.836919   -1.070946
     19          1           0        3.411000   -0.578988    2.227059
     20          1           0        3.144104   -1.030765   -2.036539
     21          8           0        0.850584   -0.114677    2.573695
     22          1           0        1.534306   -0.141609    3.263105
     23          8           0        0.650376   -0.703484   -2.209696
     24          1           0       -0.262679   -1.005688   -2.012415
     25          8           0       -1.555154   -1.699058   -1.293043
     26          1           0       -1.843122   -2.632460   -1.298553
     27          6           0       -4.127070   -2.103272   -0.045703
     28          1           0       -5.169405   -1.904676    0.230608
     29          1           0       -3.820678   -2.989350    0.522054
     30          1           0       -4.100549   -2.347906   -1.112166
     31          8           0       -3.468929   -0.650480    1.692636
     32          1           0       -3.038603    0.180666    1.952435
     33          1           0       -2.931345    1.923473    0.678603
     34          6           0       -0.445746    2.487794   -0.401374
     35          6           0        0.285103    2.978791   -1.417782
     36          1           0        0.899641    3.866318   -1.304536
     37          1           0        0.306832    2.492244   -2.389171
     38          6           0       -0.432801    3.164702    0.942854
     39          1           0       -1.420378    3.568298    1.184311
     40          1           0        0.274069    4.001426    0.970453
     41          1           0       -0.136866    2.468782    1.732030
     42          6           0        4.940810   -1.061287    0.027689
     43          1           0        5.276808   -1.566641    0.941340
     44          1           0        5.172596   -1.744267   -0.798680
     45          6           0        5.707069    0.240408   -0.151107
     46          1           0        6.782805    0.043203   -0.195753
     47          1           0        5.522322    0.927810    0.681392
     48          1           0        5.416466    0.748593   -1.076857
 ---------------------------------------------------------------------
 Rotational constants (GHZ):      0.4728498      0.1862006      0.1729607
 Standard basis: 6-31+G(d,p) (6D, 7F)
 There are   548 symmetry adapted basis functions of A   symmetry.
 Integral buffers will be    131072 words long.
 Raffenetti 2 integral format.
 Two-electron integral symmetry is turned on.
   548 basis functions,   886 primitive gaussians,   548 cartesian basis functions
    83 alpha electrons       83 beta electrons
       nuclear repulsion energy      1984.5896636525 Hartrees.
 NAtoms=   48 NActive=   48 NUniq=   48 SFac= 1.00D+00 NAtFMM=   60 NAOKFM=F Big=F
 ------------------------------------------------------------------------------
 Polarizable Continuum Model (PCM)
 =================================
 Model                : PCM.
 Atomic radii         : UFF (Universal Force Field).
 Polarization charges : Total charges.
 Charge compensation  : None.
 Solution method      : Matrix inversion.
 Cavity type          : Scaled VdW (van der Waals Surface) (Alpha=1.100).
 Cavity algorithm     : GePol (No added spheres)
                        Default sphere list used, NSphG=   48.
                        Lebedev-Laikov grids with approx.  5.0 points / Ang**2.
                        Smoothing algorithm: Karplus/York (Gamma=1.0000).
                        Polarization charges: spherical gaussians, with
                                              point-specific exponents (IZeta= 3).
                        Self-potential: point-specific (ISelfS= 7).
                        Self-field    : sphere-specific E.n sum rule (ISelfD= 2).
 Solvent              : Water, Eps=  78.355300 Eps(inf)=   1.777849
 ------------------------------------------------------------------------------
 One-electron integrals computed using PRISM.
 NBasis=   548 RedAO= T  NBF=   548
 NBsUse=   546 1.00D-06 NBFU=   546
 Harris functional with IExCor=  908 diagonalized for initial guess.
 ExpMin= 4.38D-02 ExpMax= 5.48D+03 ExpMxC= 8.25D+02 IAcc=2 IRadAn=         4 AccDes= 0.00D+00
 HarFok:  IExCor=  908 AccDes= 0.00D+00 IRadAn=         4 IDoV= 1
 ScaDFX=  1.000000  1.000000  1.000000  1.000000
 FoFCou: FMM=F IPFlag=           0 FMFlag=      100000 FMFlg1=           0
         NFxFlg=           0 DoJE=T BraDBF=F KetDBF=T FulRan=T
         Omega=  0.000000  0.000000  1.000000  0.000000  0.000000 ICntrl=     500 IOpCl=  0
         NMat0=    1 NMatS0=    1 NMatT0=    0 NMatD0=    1 NMtDS0=    0 NMtDT0=    0
         I1Cent=           4 NGrid=           0.
 Petite list used in FoFCou.
 Initial guess orbital symmetries:
       Occupied  (A) (A) (A) (A) (A) (A) (A) (A) (A) (A) (A) (A)
                 (A) (A) (A) (A) (A) (A) (A) (A) (A) (A) (A) (A)
                 (A) (A) (A) (A) (A) (A) (A) (A) (A) (A) (A) (A)
                 (A) (A) (A) (A) (A) (A) (A) (A) (A) (A) (A) (A)
                 (A) (A) (A) (A) (A) (A) (A) (A) (A) (A) (A) (A)
                 (A) (A) (A) (A) (A) (A) (A) (A) (A) (A) (A) (A)
                 (A) (A) (A) (A) (A) (A) (A) (A) (A) (A) (A)
       Virtual   (A) (A) (A) (A) (A) (A) (A) (A) (A) (A) (A) (A)
                 (A) (A) (A) (A) (A) (A) (A) (A) (A) (A) (A) (A)
                 (A) (A) (A) (A) (A) (A) (A) (A) (A) (A) (A) (A)
                 (A) (A) (A) (A) (A) (A) (A) (A) (A) (A) (A) (A)
                 (A) (A) (A) (A) (A) (A) (A) (A) (A) (A) (A) (A)
                 (A) (A) (A) (A) (A) (A) (A) (A) (A) (A) (A) (A)
                 (A) (A) (A) (A) (A) (A) (A) (A) (A) (A) (A) (A)
                 (A) (A) (A) (A) (A) (A) (A) (A) (A) (A) (A) (A)
                 (A) (A) (A) (A) (A) (A) (A) (A) (A) (A) (A) (A)
                 (A) (A) (A) (A) (A) (A) (A) (A) (A) (A) (A) (A)
                 (A) (A) (A) (A) (A) (A) (A) (A) (A) (A) (A) (A)
                 (A) (A) (A) (A) (A) (A) (A) (A) (A) (A) (A) (A)
                 (A) (A) (A) (A) (A) (A) (A) (A) (A) (A) (A) (A)
                 (A) (A) (A) (A) (A) (A) (A) (A) (A) (A) (A) (A)
                 (A) (A) (A) (A) (A) (A) (A) (A) (A) (A) (A) (A)
                 (A) (A) (A) (A) (A) (A) (A) (A) (A) (A) (A) (A)
                 (A) (A) (A) (A) (A) (A) (A) (A) (A) (A) (A) (A)
                 (A) (A) (A) (A) (A) (A) (A) (A) (A) (A) (A) (A)
                 (A) (A) (A) (A) (A) (A) (A) (A) (A) (A) (A) (A)
                 (A) (A) (A) (A) (A) (A) (A) (A) (A) (A) (A) (A)
                 (A) (A) (A) (A) (A) (A) (A) (A) (A) (A) (A) (A)
                 (A) (A) (A) (A) (A) (A) (A) (A) (A) (A) (A) (A)
                 (A) (A) (A) (A) (A) (A) (A) (A) (A) (A) (A) (A)
                 (A) (A) (A) (A) (A) (A) (A) (A) (A) (A) (A) (A)
                 (A) (A) (A) (A) (A) (A) (A) (A) (A) (A) (A) (A)
                 (A) (A) (A) (A) (A) (A) (A) (A) (A) (A) (A) (A)
                 (A) (A) (A) (A) (A) (A) (A) (A) (A) (A) (A) (A)
                 (A) (A) (A) (A) (A) (A) (A) (A) (A) (A) (A) (A)
                 (A) (A) (A) (A) (A) (A) (A) (A) (A) (A) (A) (A)
                 (A) (A) (A) (A) (A) (A) (A) (A) (A) (A) (A) (A)
                 (A) (A) (A) (A) (A) (A) (A) (A) (A) (A) (A) (A)
                 (A) (A) (A) (A) (A) (A) (A) (A) (A) (A) (A) (A)
                 (A) (A) (A) (A) (A) (A) (A) (A) (A) (A) (A) (A)
                 (A) (A) (A) (A) (A) (A) (A) (A) (A) (A) (A) (A)
                 (A) (A) (A) (A) (A) (A) (A) (A) (A) (A) (A) (A)
                 (A) (A) (A) (A) (A) (A) (A) (A) (A) (A) (A) (A)
                 (A) (A) (A) (A) (A) (A) (A) (A) (A) (A) (A) (A)
                 (A) (A) (A) (A) (A) (A) (A) (A) (A) (A) (A) (A)
                 (A) (A) (A) (A) (A) (A) (A)
 The electronic state of the initial guess is 1-A.
 Requested convergence on RMS density matrix=1.00D-08 within 128 cycles.
 Requested convergence on MAX density matrix=1.00D-06.
 Requested convergence on             energy=1.00D-06.
 No special actions if energy rises.
 CoulSu:  requested number of processors reduced to:   2 ShMem   1 Linda.
 CoulSu:  requested number of processors reduced to:   2 ShMem   1 Linda.
 Error on total polarization charges =  0.01929
 SCF Done:  E(RmPW1PW91) =  -1002.31599991     A.U. after   14 cycles
             Convg  =    0.5060D-08             -V/T =  2.0094
 Range of M.O.s used for correlation:     1   546
 NBasis=   548 NAE=    83 NBE=    83 NFC=     0 NFV=     0
 NROrb=    546 NOA=    83 NOB=    83 NVA=   463 NVB=   463

 **** Warning!!: The largest alpha MO coefficient is  0.14583811D+03

 NEqPCM:  Using equilibrium solvation (IEInf=0, Eps=  78.3553, EpsInf=   1.7778)
          Differentiating once with respect to magnetic field using GIAOs.
          Electric field/nuclear overlap derivatives assumed to be zero.
 FoFCou: FMM=F IPFlag=           0 FMFlag=    10101102 FMFlg1=           0
         NFxFlg=    40000000 DoJE=F BraDBF=F KetDBF=T FulRan=T
         Omega=  0.000000  0.000000  1.000000  0.000000  0.000000 ICntrl=    6100 IOpCl=  0
         NMat0=    1 NMatS0=    1 NMatT0=    0 NMatD0=    1 NMtDS0=    0 NMtDT0=    0
         I1Cent=           7 NGrid=        3047.
 Symmetry not used in FoFCou.
          There are     3 degrees of freedom in the 1st order CPHF.  IDoFFX=0.
      3 vectors produced by pass  0 Test12= 1.28D-12 3.33D-08 XBig12= 8.00D+02 4.57D+00.
 AX will form     3 AO Fock derivatives at one time.
      3 vectors produced by pass  1 Test12= 1.28D-12 3.33D-08 XBig12= 1.47D+00 3.27D-01.
      3 vectors produced by pass  2 Test12= 1.28D-12 3.33D-08 XBig12= 5.97D-03 3.67D-02.
      3 vectors produced by pass  3 Test12= 1.28D-12 3.33D-08 XBig12= 3.07D-05 1.78D-03.
      3 vectors produced by pass  4 Test12= 1.28D-12 3.33D-08 XBig12= 9.59D-08 5.00D-05.
      3 vectors produced by pass  5 Test12= 1.28D-12 3.33D-08 XBig12= 2.90D-10 3.93D-06.
      3 vectors produced by pass  6 Test12= 1.28D-12 3.33D-08 XBig12= 1.52D-12 3.47D-07.
 Inverted reduced A of dimension    21 with in-core refinement.
 Calculating GIAO nuclear magnetic shielding tensors.
 SCF GIAO Magnetic shielding tensor (ppm):
      1  C    Isotropic =   122.2784   Anisotropy =    52.0562
   XX=   109.3702   YX=    -2.3745   ZX=   -16.4173
   XY=    -0.0524   YY=   107.1121   ZY=    12.9811
   XZ=    -7.7195   YZ=    13.0836   ZZ=   150.3530
   Eigenvalues:   102.4585   107.3943   156.9826
      2  C    Isotropic =   160.9349   Anisotropy =    23.6025
   XX=   156.0844   YX=    -2.0745   ZX=     1.8920
   XY=     3.0617   YY=   170.1647   ZY=   -14.7385
   XZ=    -2.7238   YZ=    -8.0936   ZZ=   156.5557
   Eigenvalues:   150.0678   156.0671   176.6699
      3  H    Isotropic =    29.5024   Anisotropy =     6.9118
   XX=    27.9403   YX=     1.2057   ZX=     2.8237
   XY=     0.6208   YY=    27.7818   ZY=    -0.3349
   XZ=     2.8808   YZ=    -0.1054   ZZ=    32.7852
   Eigenvalues:    26.1113    28.2857    34.1103
      4  H    Isotropic =    29.9758   Anisotropy =     9.2633
   XX=    36.0891   YX=    -0.6419   ZX=    -0.0289
   XY=    -0.6704   YY=    29.0200   ZY=    -0.3933
   XZ=     0.2233   YZ=    -0.5708   ZZ=    24.8182
   Eigenvalues:    24.7635    29.0125    36.1513
      5  C    Isotropic =   167.9769   Anisotropy =    25.4863
   XX=   184.3899   YX=    -1.9491   ZX=     2.6693
   XY=    -3.9864   YY=   163.4009   ZY=    -0.3335
   XZ=     0.9748   YZ=    -5.1216   ZZ=   156.1400
   Eigenvalues:   155.2073   163.7557   184.9678
      6  H    Isotropic =    29.9359   Anisotropy =    10.2522
   XX=    30.4424   YX=    -2.6751   ZX=     2.6584
   XY=    -2.4992   YY=    32.5737   ZY=    -4.4296
   XZ=     2.6963   YZ=    -3.9211   ZZ=    26.7915
   Eigenvalues:    24.3254    28.7115    36.7707
      7  C    Isotropic =   152.2611   Anisotropy =    29.3272
   XX=   160.5782   YX=    13.7595   ZX=     3.2509
   XY=    10.4273   YY=   156.5009   ZY=     0.6113
   XZ=     5.3986   YZ=     6.7898   ZZ=   139.7041
   Eigenvalues:   138.6950   146.2757   171.8125
      8  H    Isotropic =    28.3063   Anisotropy =     4.3427
   XX=    27.4880   YX=    -0.1769   ZX=    -1.9069
   XY=    -1.3532   YY=    27.3611   ZY=    -0.2943
   XZ=    -2.1930   YZ=    -0.5207   ZZ=    30.0698
   Eigenvalues:    25.8569    27.8605    31.2014
      9  C    Isotropic =   155.9625   Anisotropy =    15.3179
   XX=   160.2038   YX=    -0.9775   ZX=     1.4271
   XY=    -4.3102   YY=   163.6540   ZY=    -2.3976
   XZ=    -1.9209   YZ=    -8.7526   ZZ=   144.0297
   Eigenvalues:   142.5085   159.2046   166.1744
     10  H    Isotropic =    27.9176   Anisotropy =     7.0072
   XX=    29.8096   YX=     0.1115   ZX=     2.5185
   XY=     0.2467   YY=    23.6983   ZY=     0.9295
   XZ=     2.3872   YZ=     1.2795   ZZ=    30.2448
   Eigenvalues:    23.5080    27.6557    32.5890
     11  C    Isotropic =   113.3093   Anisotropy =    37.5600
   XX=   117.1279   YX=     1.5020   ZX=   -15.9719
   XY=     9.0277   YY=    91.2700   ZY=    10.7707
   XZ=    -6.0726   YZ=     8.8546   ZZ=   131.5299
   Eigenvalues:    86.9547   114.6238   138.3493
     12  H    Isotropic =    27.6661   Anisotropy =     3.2750
   XX=    26.6629   YX=     0.1728   ZX=     0.1501
   XY=     2.2114   YY=    27.6030   ZY=    -0.6732
   XZ=     0.7635   YZ=    -2.4203   ZZ=    28.7326
   Eigenvalues:    25.3412    27.8078    29.8494
     13  C    Isotropic =    89.9690   Anisotropy =   118.7046
   XX=    52.9467   YX=    24.1825   ZX=    -1.6142
   XY=    21.1719   YY=   162.9390   ZY=   -13.0254
   XZ=    -4.0162   YZ=   -14.1628   ZZ=    54.0213
   Eigenvalues:    48.4511    52.3505   169.1054
     14  C    Isotropic =    50.6881   Anisotropy =   188.9610
   XX=   -25.2343   YX=    38.1545   ZX=    -0.2553
   XY=    35.7287   YY=   167.4080   ZY=   -21.7570
   XZ=     0.8676   YZ=   -19.1503   ZZ=     9.8907
   Eigenvalues:   -32.4763     7.8785   176.6621
     15  C    Isotropic =    41.0517   Anisotropy =   128.4040
   XX=    17.0654   YX=     6.9005   ZX=   -33.4609
   XY=    12.3897   YY=   123.3585   ZY=   -10.4650
   XZ=   -31.3290   YZ=   -20.0959   ZZ=   -17.2687
   Eigenvalues:   -37.1840    33.6848   126.6544
     16  C    Isotropic =    44.2078   Anisotropy =   123.2108
   XX=    32.5533   YX=    17.9444   ZX=    26.5416
   XY=    21.7814   YY=   120.3860   ZY=   -22.9502
   XZ=    17.4179   YZ=   -17.8869   ZZ=   -20.3159
   Eigenvalues:   -32.7148    38.9898   126.3484
     17  C    Isotropic =    93.3067   Anisotropy =    99.2573
   XX=    76.3203   YX=     7.8962   ZX=   -33.3811
   XY=    -0.1175   YY=   158.2438   ZY=    -8.5170
   XZ=   -34.4810   YZ=    -8.8569   ZZ=    45.3562
   Eigenvalues:    23.3400    97.1020   159.4783
     18  C    Isotropic =    87.9186   Anisotropy =   109.0342
   XX=    77.3604   YX=    12.9556   ZX=    24.9751
   XY=    15.1378   YY=   155.6112   ZY=   -26.8305
   XZ=    28.2731   YZ=   -17.8548   ZZ=    30.7841
   Eigenvalues:    13.8698    89.2778   160.6080
     19  H    Isotropic =    25.2604   Anisotropy =     6.8997
   XX=    28.5836   YX=    -1.4730   ZX=    -2.0636
   XY=    -1.1586   YY=    21.5238   ZY=     0.1062
   XZ=    -2.0670   YZ=     0.4939   ZZ=    25.6739
   Eigenvalues:    21.2852    24.6359    29.8602
     20  H    Isotropic =    24.8280   Anisotropy =     7.7696
   XX=    29.1767   YX=    -0.9698   ZX=     2.0878
   XY=    -1.1867   YY=    21.2932   ZY=     0.9363
   XZ=     2.1727   YZ=     0.6413   ZZ=    24.0143
   Eigenvalues:    20.7433    23.7331    30.0078
     21  O    Isotropic =   227.1126   Anisotropy =    41.7832
   XX=   199.0492   YX=     3.8530   ZX=   -18.3422
   XY=     3.5954   YY=   241.4314   ZY=     4.2247
   XZ=   -37.0080   YZ=     4.1525   ZZ=   240.8573
   Eigenvalues:   184.7924   241.5773   254.9681
     22  H    Isotropic =    26.5329   Anisotropy =    15.4146
   XX=    28.8833   YX=    -1.5496   ZX=     4.9227
   XY=    -1.2735   YY=    18.1340   ZY=     0.7014
   XZ=     6.6329   YZ=     0.2653   ZZ=    32.5813
   Eigenvalues:    17.8267    24.9626    36.8093
     23  O    Isotropic =   222.5637   Anisotropy =    77.8428
   XX=   179.6559   YX=     5.7007   ZX=    14.2783
   XY=     5.7801   YY=   258.6998   ZY=   -54.2063
   XZ=    29.0053   YZ=     1.8147   ZZ=   229.3354
   Eigenvalues:   168.9741   224.2582   274.4589
     24  H    Isotropic =    21.7426   Anisotropy =    28.4240
   XX=    35.3624   YX=     7.9851   ZX=    -7.3210
   XY=    11.5593   YY=    12.5746   ZY=     1.5971
   XZ=    -6.5788   YZ=    -0.2954   ZZ=    17.2906
   Eigenvalues:     7.8408    16.6950    40.6919
     25  O    Isotropic =   285.2779   Anisotropy =    41.6896
   XX=   285.2698   YX=    18.2586   ZX=     4.1244
   XY=    23.6814   YY=   292.8895   ZY=    13.7947
   XZ=    -7.8966   YZ=    13.8633   ZZ=   277.6745
   Eigenvalues:   260.7478   282.0150   313.0710
     26  H    Isotropic =    28.6025   Anisotropy =    18.9184
   XX=    23.9786   YX=     4.9670   ZX=    -2.6524
   XY=     5.9387   YY=    38.5918   ZY=     4.5241
   XZ=    -1.7193   YZ=     4.8325   ZZ=    23.2372
   Eigenvalues:    18.8219    25.7708    41.2148
     27  C    Isotropic =   170.3820   Anisotropy =    43.2855
   XX=   167.5436   YX=    21.0884   ZX=     4.3911
   XY=    18.2425   YY=   186.0365   ZY=     4.0918
   XZ=     3.7747   YZ=     3.6780   ZZ=   157.5660
   Eigenvalues:   154.3311   157.5760   199.2390
     28  H    Isotropic =    30.3464   Anisotropy =     9.9119
   XX=    36.1881   YX=     1.6925   ZX=    -1.2821
   XY=     2.9827   YY=    28.5011   ZY=    -0.2848
   XZ=    -0.9021   YZ=     0.0342   ZZ=    26.3500
   Eigenvalues:    26.2204    27.8645    36.9543
     29  H    Isotropic =    30.5498   Anisotropy =    10.0047
   XX=    28.3758   YX=     2.1333   ZX=    -0.4085
   XY=     1.3856   YY=    35.8964   ZY=    -3.4910
   XZ=     0.0004   YZ=    -2.6162   ZZ=    27.3772
   Eigenvalues:    26.3285    28.1012    37.2196
     30  H    Isotropic =    30.2335   Anisotropy =     8.5939
   XX=    29.4710   YX=     2.8476   ZX=     1.3932
   XY=     3.1731   YY=    29.1663   ZY=     4.3855
   XZ=     1.0184   YZ=     3.4068   ZZ=    32.0633
   Eigenvalues:    25.4683    29.2695    35.9628
     31  O    Isotropic =   271.5728   Anisotropy =    34.3047
   XX=   275.6590   YX=     2.0080   ZX=   -16.0070
   XY=     3.9113   YY=   254.5942   ZY=     4.2537
   XZ=   -10.3272   YZ=    10.7467   ZZ=   284.4652
   Eigenvalues:   251.0988   269.1770   294.4426
     32  H    Isotropic =    29.2275   Anisotropy =    14.7641
   XX=    25.1428   YX=     6.5889   ZX=     0.2215
   XY=     6.5347   YY=    32.2742   ZY=     5.2088
   XZ=     0.2111   YZ=     6.0074   ZZ=    30.2655
   Eigenvalues:    20.3795    28.2327    39.0702
     33  H    Isotropic =    29.8494   Anisotropy =     6.5851
   XX=    29.7201   YX=     0.4707   ZX=    -1.9916
   XY=     0.4087   YY=    31.3009   ZY=     4.5404
   XZ=    -1.4015   YZ=     3.4570   ZZ=    28.5273
   Eigenvalues:    25.0965    30.2123    34.2395
     34  C    Isotropic =    43.9178   Anisotropy =   179.9944
   XX=   105.0171   YX=   -78.9993   ZX=     6.0862
   XY=   -76.7010   YY=    22.5362   ZY=   -70.0465
   XZ=     8.0651   YZ=   -67.6117   ZZ=     4.2003
   Eigenvalues:   -70.2348    38.0742   163.9141
     35  C    Isotropic =    86.3995   Anisotropy =   100.4788
   XX=   124.4780   YX=   -44.9672   ZX=   -13.2189
   XY=   -46.1715   YY=    60.7123   ZY=   -61.2387
   XZ=   -14.2107   YZ=   -59.9360   ZZ=    74.0081
   Eigenvalues:    -7.9361   113.7492   153.3854
     36  H    Isotropic =    26.7141   Anisotropy =     6.6869
   XX=    26.5304   YX=     1.9711   ZX=    -1.7276
   XY=     0.1527   YY=    27.5046   ZY=    -2.0561
   XZ=    -3.1422   YZ=    -4.0326   ZZ=    26.1074
   Eigenvalues:    23.0949    25.8755    31.1721
     37  H    Isotropic =    26.4991   Anisotropy =     7.5193
   XX=    25.6370   YX=    -0.0533   ZX=    -3.8401
   XY=    -0.1666   YY=    26.2689   ZY=    -5.1813
   XZ=    -1.7189   YZ=    -2.3135   ZZ=    27.5914
   Eigenvalues:    22.0106    25.9747    31.5120
     38  C    Isotropic =   177.9116   Anisotropy =    27.7937
   XX=   168.1743   YX=     2.5298   ZX=    -0.0415
   XY=    -0.0640   YY=   175.7392   ZY=    12.4329
   XZ=     0.5711   YZ=    10.9213   ZZ=   189.8213
   Eigenvalues:   167.5809   169.7131   196.4407
     39  H    Isotropic =    29.8073   Anisotropy =     8.3538
   XX=    31.6186   YX=    -1.3090   ZX=    -1.8755
   XY=    -2.7206   YY=    30.8338   ZY=     4.3327
   XZ=    -2.3444   YZ=     3.4063   ZZ=    26.9696
   Eigenvalues:    24.4897    29.5557    35.3765
     40  H    Isotropic =    30.0518   Anisotropy =     8.7761
   XX=    28.9348   YX=     4.0524   ZX=    -0.2428
   XY=     3.6755   YY=    33.2214   ZY=     1.2098
   XZ=     0.9590   YZ=     2.5136   ZZ=    27.9993
   Eigenvalues:    26.3487    27.9042    35.9025
     41  H    Isotropic =    29.8974   Anisotropy =     6.1313
   XX=    25.8411   YX=    -0.1276   ZX=     3.7463
   XY=    -1.6322   YY=    31.8723   ZY=     0.0592
   XZ=     2.7174   YZ=    -1.7773   ZZ=    31.9789
   Eigenvalues:    24.4230    31.2843    33.9850
     42  C    Isotropic =   164.0690   Anisotropy =    30.3842
   XX=   183.5640   YX=   -10.7091   ZX=    -0.1916
   XY=     1.0543   YY=   152.2531   ZY=     0.6152
   XZ=    -1.4830   YZ=     1.3127   ZZ=   156.3900
   Eigenvalues:   151.3877   156.4942   184.3252
     43  H    Isotropic =    29.3214   Anisotropy =     7.6777
   XX=    29.9200   YX=    -1.5655   ZX=     1.9565
   XY=    -2.6382   YY=    28.1085   ZY=    -4.5558
   XZ=     0.8377   YZ=    -3.4837   ZZ=    29.9356
   Eigenvalues:    24.7666    28.7576    34.4398
     44  H    Isotropic =    29.2118   Anisotropy =     7.3901
   XX=    29.6106   YX=    -1.4740   ZX=    -1.5703
   XY=    -2.2054   YY=    29.6724   ZY=     4.6228
   XZ=    -0.1947   YZ=     3.7983   ZZ=    28.3522
   Eigenvalues:    24.6886    28.8082    34.1385
     45  C    Isotropic =   176.9701   Anisotropy =    30.7474
   XX=   184.7668   YX=     7.2829   ZX=    -1.8657
   XY=    21.7119   YY=   180.0411   ZY=    -2.8715
   XZ=    -3.4724   YZ=    -1.4495   ZZ=   166.1025
   Eigenvalues:   165.7234   167.7186   197.4684
     46  H    Isotropic =    30.2809   Anisotropy =    12.1081
   XX=    38.0954   YX=     0.3257   ZX=    -0.7476
   XY=     2.6217   YY=    26.8924   ZY=    -0.4534
   XZ=    -1.0223   YZ=    -0.1232   ZZ=    25.8549
   Eigenvalues:    25.7567    26.7330    38.3530
     47  H    Isotropic =    30.6372   Anisotropy =     7.4088
   XX=    29.7425   YX=     1.7252   ZX=    -0.1242
   XY=     2.7774   YY=    31.6705   ZY=     4.7033
   XZ=    -0.5159   YZ=     3.3843   ZZ=    30.4986
   Eigenvalues:    26.1256    30.2096    35.5764
     48  H    Isotropic =    30.6548   Anisotropy =     7.0914
   XX=    29.8609   YX=     1.2937   ZX=     0.1037
   XY=     2.1161   YY=    30.0795   ZY=    -4.7441
   XZ=     0.3106   YZ=    -3.3849   ZZ=    32.0239
   Eigenvalues:    26.2599    30.3220    35.3823
 End of Minotr Frequency-dependent properties file   721 does not exist.
 End of Minotr Frequency-dependent properties file   722 does not exist.

 **********************************************************************

            Population analysis using the SCF density.

 **********************************************************************

 Orbital symmetries:
       Occupied  (A) (A) (A) (A) (A) (A) (A) (A) (A) (A) (A) (A)
                 (A) (A) (A) (A) (A) (A) (A) (A) (A) (A) (A) (A)
                 (A) (A) (A) (A) (A) (A) (A) (A) (A) (A) (A) (A)
                 (A) (A) (A) (A) (A) (A) (A) (A) (A) (A) (A) (A)
                 (A) (A) (A) (A) (A) (A) (A) (A) (A) (A) (A) (A)
                 (A) (A) (A) (A) (A) (A) (A) (A) (A) (A) (A) (A)
                 (A) (A) (A) (A) (A) (A) (A) (A) (A) (A) (A)
       Virtual   (A) (A) (A) (A) (A) (A) (A) (A) (A) (A) (A) (A)
                 (A) (A) (A) (A) (A) (A) (A) (A) (A) (A) (A) (A)
                 (A) (A) (A) (A) (A) (A) (A) (A) (A) (A) (A) (A)
                 (A) (A) (A) (A) (A) (A) (A) (A) (A) (A) (A) (A)
                 (A) (A) (A) (A) (A) (A) (A) (A) (A) (A) (A) (A)
                 (A) (A) (A) (A) (A) (A) (A) (A) (A) (A) (A) (A)
                 (A) (A) (A) (A) (A) (A) (A) (A) (A) (A) (A) (A)
                 (A) (A) (A) (A) (A) (A) (A) (A) (A) (A) (A) (A)
                 (A) (A) (A) (A) (A) (A) (A) (A) (A) (A) (A) (A)
                 (A) (A) (A) (A) (A) (A) (A) (A) (A) (A) (A) (A)
                 (A) (A) (A) (A) (A) (A) (A) (A) (A) (A) (A) (A)
                 (A) (A) (A) (A) (A) (A) (A) (A) (A) (A) (A) (A)
                 (A) (A) (A) (A) (A) (A) (A) (A) (A) (A) (A) (A)
                 (A) (A) (A) (A) (A) (A) (A) (A) (A) (A) (A) (A)
                 (A) (A) (A) (A) (A) (A) (A) (A) (A) (A) (A) (A)
                 (A) (A) (A) (A) (A) (A) (A) (A) (A) (A) (A) (A)
                 (A) (A) (A) (A) (A) (A) (A) (A) (A) (A) (A) (A)
                 (A) (A) (A) (A) (A) (A) (A) (A) (A) (A) (A) (A)
                 (A) (A) (A) (A) (A) (A) (A) (A) (A) (A) (A) (A)
                 (A) (A) (A) (A) (A) (A) (A) (A) (A) (A) (A) (A)
                 (A) (A) (A) (A) (A) (A) (A) (A) (A) (A) (A) (A)
                 (A) (A) (A) (A) (A) (A) (A) (A) (A) (A) (A) (A)
                 (A) (A) (A) (A) (A) (A) (A) (A) (A) (A) (A) (A)
                 (A) (A) (A) (A) (A) (A) (A) (A) (A) (A) (A) (A)
                 (A) (A) (A) (A) (A) (A) (A) (A) (A) (A) (A) (A)
                 (A) (A) (A) (A) (A) (A) (A) (A) (A) (A) (A) (A)
                 (A) (A) (A) (A) (A) (A) (A) (A) (A) (A) (A) (A)
                 (A) (A) (A) (A) (A) (A) (A) (A) (A) (A) (A) (A)
                 (A) (A) (A) (A) (A) (A) (A) (A) (A) (A) (A) (A)
                 (A) (A) (A) (A) (A) (A) (A) (A) (A) (A) (A) (A)
                 (A) (A) (A) (A) (A) (A) (A) (A) (A) (A) (A) (A)
                 (A) (A) (A) (A) (A) (A) (A) (A) (A) (A) (A) (A)
                 (A) (A) (A) (A) (A) (A) (A) (A) (A) (A) (A) (A)
                 (A) (A) (A) (A) (A) (A) (A) (A) (A) (A) (A) (A)
                 (A) (A) (A) (A) (A) (A) (A) (A) (A) (A) (A) (A)
                 (A) (A) (A) (A) (A) (A) (A) (A) (A) (A) (A) (A)
                 (A) (A) (A) (A) (A) (A) (A) (A) (A) (A) (A) (A)
                 (A) (A) (A) (A) (A) (A) (A) (A) (A) (A) (A) (A)
                 (A) (A) (A) (A) (A) (A) (A)
 The electronic state is 1-A.
 Alpha  occ. eigenvalues --  -19.28395 -19.28108 -19.25873 -19.25739 -10.32156
 Alpha  occ. eigenvalues --  -10.31677 -10.31651 -10.31430 -10.27479 -10.26548
 Alpha  occ. eigenvalues --  -10.26534 -10.26305 -10.26163 -10.24964 -10.24889
 Alpha  occ. eigenvalues --  -10.24648 -10.24574 -10.24134 -10.24069 -10.23994
 Alpha  occ. eigenvalues --  -10.23684 -10.23613  -1.09941  -1.09238  -1.07333
 Alpha  occ. eigenvalues --   -1.06281  -0.88730  -0.86906  -0.82263  -0.82073
 Alpha  occ. eigenvalues --   -0.78767  -0.77592  -0.75870  -0.74054  -0.71202
 Alpha  occ. eigenvalues --   -0.70286  -0.67056  -0.64546  -0.63554  -0.62584
 Alpha  occ. eigenvalues --   -0.61044  -0.59327  -0.56661  -0.55580  -0.55065
 Alpha  occ. eigenvalues --   -0.53105  -0.51571  -0.51157  -0.49557  -0.48800
 Alpha  occ. eigenvalues --   -0.47417  -0.46340  -0.45953  -0.45725  -0.44892
 Alpha  occ. eigenvalues --   -0.44102  -0.43205  -0.42879  -0.42365  -0.41987
 Alpha  occ. eigenvalues --   -0.41414  -0.40792  -0.40584  -0.40442  -0.39733
 Alpha  occ. eigenvalues --   -0.38942  -0.38820  -0.38024  -0.37648  -0.37076
 Alpha  occ. eigenvalues --   -0.36625  -0.35812  -0.35157  -0.34827  -0.34436
 Alpha  occ. eigenvalues --   -0.33757  -0.33026  -0.31757  -0.31545  -0.28620
 Alpha  occ. eigenvalues --   -0.26056  -0.24175  -0.23120
 Alpha virt. eigenvalues --   -0.00593  -0.00296   0.00311   0.00779   0.01142
 Alpha virt. eigenvalues --    0.01697   0.01886   0.02672   0.03199   0.03419
 Alpha virt. eigenvalues --    0.03746   0.04239   0.04383   0.04767   0.05309
 Alpha virt. eigenvalues --    0.05736   0.06417   0.06453   0.06757   0.07174
 Alpha virt. eigenvalues --    0.07352   0.08158   0.08423   0.08596   0.09323
 Alpha virt. eigenvalues --    0.09526   0.10113   0.10349   0.10430   0.10927
 Alpha virt. eigenvalues --    0.11391   0.11429   0.12518   0.12739   0.13004
 Alpha virt. eigenvalues --    0.13406   0.13463   0.13701   0.13972   0.14198
 Alpha virt. eigenvalues --    0.14863   0.15159   0.15314   0.15885   0.16205
 Alpha virt. eigenvalues --    0.16386   0.16894   0.17215   0.17420   0.17596
 Alpha virt. eigenvalues --    0.18230   0.18394   0.18649   0.18768   0.19223
 Alpha virt. eigenvalues --    0.19474   0.19605   0.20135   0.20710   0.20835
 Alpha virt. eigenvalues --    0.21260   0.21607   0.21733   0.21878   0.22173
 Alpha virt. eigenvalues --    0.22452   0.22472   0.23158   0.23390   0.23517
 Alpha virt. eigenvalues --    0.23738   0.23933   0.24277   0.24711   0.24917
 Alpha virt. eigenvalues --    0.25317   0.25856   0.26002   0.26449   0.26667
 Alpha virt. eigenvalues --    0.26989   0.27207   0.27622   0.27739   0.28110
 Alpha virt. eigenvalues --    0.28340   0.28779   0.28835   0.29497   0.30011
 Alpha virt. eigenvalues --    0.30309   0.30505   0.30617   0.30988   0.31219
 Alpha virt. eigenvalues --    0.31735   0.31906   0.32594   0.32839   0.33313
 Alpha virt. eigenvalues --    0.33702   0.34237   0.34481   0.34771   0.35101
 Alpha virt. eigenvalues --    0.35503   0.35869   0.36178   0.36454   0.36905
 Alpha virt. eigenvalues --    0.37029   0.37698   0.38293   0.38492   0.39101
 Alpha virt. eigenvalues --    0.39403   0.40532   0.40633   0.41400   0.42908
 Alpha virt. eigenvalues --    0.43174   0.43230   0.44263   0.44696   0.45903
 Alpha virt. eigenvalues --    0.46331   0.46689   0.47514   0.47687   0.48036
 Alpha virt. eigenvalues --    0.48620   0.49642   0.50989   0.51826   0.52312
 Alpha virt. eigenvalues --    0.53324   0.56368   0.60640   0.62954   0.65675
 Alpha virt. eigenvalues --    0.67641   0.68510   0.69333   0.69480   0.70587
 Alpha virt. eigenvalues --    0.71864   0.72499   0.73080   0.73619   0.73858
 Alpha virt. eigenvalues --    0.74878   0.75170   0.75330   0.76266   0.77197
 Alpha virt. eigenvalues --    0.77690   0.77973   0.78896   0.79357   0.79713
 Alpha virt. eigenvalues --    0.80388   0.81096   0.81604   0.81897   0.83291
 Alpha virt. eigenvalues --    0.83899   0.84447   0.85023   0.86508   0.87415
 Alpha virt. eigenvalues --    0.87519   0.88312   0.88648   0.89891   0.90625
 Alpha virt. eigenvalues --    0.90910   0.92906   0.93934   0.94107   0.94908
 Alpha virt. eigenvalues --    0.95582   0.96340   0.96736   0.97295   0.99393
 Alpha virt. eigenvalues --    1.00050   1.00644   1.01603   1.02421   1.03288
 Alpha virt. eigenvalues --    1.04596   1.05182   1.05974   1.07605   1.08124
 Alpha virt. eigenvalues --    1.08498   1.09426   1.10045   1.10741   1.11375
 Alpha virt. eigenvalues --    1.12980   1.13357   1.13748   1.14218   1.14297
 Alpha virt. eigenvalues --    1.15207   1.15993   1.16528   1.16849   1.18672
 Alpha virt. eigenvalues --    1.19535   1.20259   1.20474   1.20628   1.22399
 Alpha virt. eigenvalues --    1.23871   1.24580   1.25491   1.26176   1.26461
 Alpha virt. eigenvalues --    1.27374   1.28555   1.29663   1.30249   1.30563
 Alpha virt. eigenvalues --    1.31029   1.32058   1.32330   1.33233   1.34139
 Alpha virt. eigenvalues --    1.35245   1.35424   1.37235   1.38078   1.38717
 Alpha virt. eigenvalues --    1.39823   1.40175   1.41874   1.42442   1.43025
 Alpha virt. eigenvalues --    1.43999   1.44911   1.46757   1.47349   1.47984
 Alpha virt. eigenvalues --    1.49531   1.51200   1.53359   1.53505   1.54507
 Alpha virt. eigenvalues --    1.55099   1.57182   1.57633   1.59272   1.59921
 Alpha virt. eigenvalues --    1.60650   1.61996   1.62625   1.63673   1.65933
 Alpha virt. eigenvalues --    1.67194   1.67645   1.68581   1.69760   1.70187
 Alpha virt. eigenvalues --    1.72034   1.76037   1.77017   1.78413   1.79734
 Alpha virt. eigenvalues --    1.80818   1.81230   1.81650   1.83072   1.85113
 Alpha virt. eigenvalues --    1.85378   1.85590   1.86588   1.87478   1.87549
 Alpha virt. eigenvalues --    1.88210   1.89052   1.89718   1.90391   1.91545
 Alpha virt. eigenvalues --    1.92069   1.92774   1.93416   1.94694   1.95200
 Alpha virt. eigenvalues --    1.95491   1.96237   1.97079   1.98021   1.99213
 Alpha virt. eigenvalues --    2.00200   2.01606   2.02700   2.03299   2.04521
 Alpha virt. eigenvalues --    2.06275   2.06671   2.06864   2.07564   2.08209
 Alpha virt. eigenvalues --    2.09146   2.10048   2.10994   2.11500   2.12624
 Alpha virt. eigenvalues --    2.13276   2.13437   2.14345   2.14756   2.15624
 Alpha virt. eigenvalues --    2.16150   2.16742   2.17811   2.19051   2.19811
 Alpha virt. eigenvalues --    2.20378   2.21498   2.22627   2.24124   2.25230
 Alpha virt. eigenvalues --    2.26379   2.27334   2.28290   2.28998   2.29200
 Alpha virt. eigenvalues --    2.30139   2.31572   2.32655   2.33522   2.34945
 Alpha virt. eigenvalues --    2.35933   2.37043   2.37746   2.39460   2.39920
 Alpha virt. eigenvalues --    2.40845   2.42153   2.42488   2.44543   2.47445
 Alpha virt. eigenvalues --    2.48519   2.48918   2.50064   2.50971   2.51333
 Alpha virt. eigenvalues --    2.52654   2.53023   2.53803   2.54271   2.55343
 Alpha virt. eigenvalues --    2.55899   2.56716   2.57181   2.58430   2.60095
 Alpha virt. eigenvalues --    2.60827   2.61088   2.62893   2.64068   2.64734
 Alpha virt. eigenvalues --    2.66156   2.66386   2.68317   2.68802   2.69796
 Alpha virt. eigenvalues --    2.71166   2.71523   2.71687   2.72808   2.73066
 Alpha virt. eigenvalues --    2.74681   2.75315   2.76604   2.76860   2.78123
 Alpha virt. eigenvalues --    2.78539   2.79778   2.80820   2.81293   2.82527
 Alpha virt. eigenvalues --    2.82994   2.84848   2.85759   2.86132   2.87039
 Alpha virt. eigenvalues --    2.87675   2.88027   2.88317   2.89906   2.90643
 Alpha virt. eigenvalues --    2.92027   2.92897   2.93694   2.94632   2.96047
 Alpha virt. eigenvalues --    2.97299   2.98660   3.00521   3.01655   3.04958
 Alpha virt. eigenvalues --    3.05678   3.08027   3.10381   3.11217   3.13412
 Alpha virt. eigenvalues --    3.19305   3.21219   3.25940   3.27794   3.29296
 Alpha virt. eigenvalues --    3.30913   3.31165   3.36002   3.37594   3.38600
 Alpha virt. eigenvalues --    3.40255   3.42171   3.45438   3.47109   3.48021
 Alpha virt. eigenvalues --    3.49648   3.50322   3.50989   3.51628   3.52515
 Alpha virt. eigenvalues --    3.53759   3.55484   3.57311   3.58398   3.59690
 Alpha virt. eigenvalues --    3.59943   3.62202   3.63610   3.66254   3.71821
 Alpha virt. eigenvalues --    3.80635   4.35030   4.37016   4.38904   4.46423
 Alpha virt. eigenvalues --    4.47984   4.50533   4.52333   4.53106   4.55793
 Alpha virt. eigenvalues --    4.58673   4.60678   4.62909   4.66806   4.70984
 Alpha virt. eigenvalues --    4.72976   4.73838   4.77377   4.85000   4.90512
 Alpha virt. eigenvalues --    4.95364   5.01120   5.03701
          Condensed to atoms (all electrons):
              1          2          3          4          5          6
     1  C   16.228927  -2.617953  -0.153368  -0.039567  -0.121334   0.010357
     2  C   -2.617953   7.529460   0.434380   0.367502   0.366034  -0.029512
     3  H   -0.153368   0.434380   0.522224  -0.025660  -0.103885  -0.004876
     4  H   -0.039567   0.367502  -0.025660   0.523533  -0.014326  -0.002290
     5  C   -0.121334   0.366034  -0.103885  -0.014326   8.988382   0.522255
     6  H    0.010357  -0.029512  -0.004876  -0.002290   0.522255   0.520248
     7  C    3.539746  -1.321962   0.041251   0.020068  -3.761318  -0.322772
     8  H   -0.060054   0.009038   0.003312  -0.000020  -0.052664  -0.004770
     9  C   -2.138516   1.264685  -0.001347   0.002218   1.012636   0.124836
    10  H   -0.124786   0.022549   0.000074  -0.000032  -0.059197  -0.000015
    11  C   -3.945851   0.579894   0.053808   0.050346  -0.328694  -0.028786
    12  H   -0.028918   0.034988  -0.000067  -0.000106  -0.034602   0.000011
    13  C   -0.219995  -0.067470  -0.008154  -0.001053   0.267906   0.026072
    14  C    0.031462  -0.001465  -0.000020  -0.000029  -0.013211   0.000191
    15  C    0.891269  -0.089556   0.009444  -0.002522  -0.308209  -0.015338
    16  C   -1.360074   0.317152   0.002310   0.000121   0.082275   0.008333
    17  C   -0.396980   0.071378   0.000304   0.000015  -0.039029   0.000617
    18  C   -0.103272  -0.026319   0.000802   0.000006  -0.243497  -0.001896
    19  H   -0.000199   0.000022   0.000000   0.000000  -0.000146   0.000000
    20  H   -0.000040  -0.000016   0.000000   0.000000   0.000013   0.000000
    21  O   -0.022934   0.006590   0.000002   0.000003   0.017345  -0.000009
    22  H    0.001501  -0.000116   0.000000   0.000000  -0.001308   0.000000
    23  O    0.030938  -0.003744  -0.000213   0.000012   0.039737   0.000041
    24  H    0.003920  -0.011384   0.000002   0.000001  -0.001626  -0.000012
    25  O    0.023111  -0.039778   0.001761  -0.000854  -0.093543   0.000287
    26  H    0.000476   0.006936   0.000141  -0.000006   0.014978   0.000000
    27  C   -3.953345   0.144799   0.056075  -0.047410  -0.794103  -0.016078
    28  H   -0.134340   0.024253   0.000255   0.001838   0.008677  -0.000003
    29  H   -0.092838   0.021707   0.000060  -0.000033  -0.010658   0.000002
    30  H   -0.142312   0.027326   0.001842   0.000238   0.002417  -0.000004
    31  O    0.288913  -0.026249   0.009649  -0.004101   0.054859   0.000387
    32  H    0.084771  -0.059131   0.000048  -0.001002  -0.053585  -0.000213
    33  H   -0.031679  -0.004820   0.004863  -0.005295   0.246375  -0.026172
    34  C    0.255383  -0.428022  -0.032598  -0.002522   1.339247   0.076176
    35  C    0.011957  -0.112413   0.009341  -0.001306  -0.590543  -0.005355
    36  H    0.000382   0.000642   0.000000   0.000000  -0.005831  -0.000043
    37  H    0.004056  -0.004797   0.000001   0.000000  -0.018417   0.000016
    38  C    0.201781  -0.022818  -0.003430  -0.000606   0.091712  -0.014075
    39  H   -0.004303   0.007423  -0.000005   0.000004   0.054542   0.000045
    40  H    0.000036   0.001537   0.000000   0.000000  -0.002177  -0.000019
    41  H   -0.002661  -0.001343   0.000000   0.000000  -0.008585   0.000067
    42  C   -0.001860  -0.000234  -0.000001   0.000000  -0.000039   0.000009
    43  H    0.000013  -0.000001   0.000000   0.000000  -0.000004   0.000000
    44  H    0.000002   0.000000   0.000000   0.000000  -0.000002   0.000000
    45  C    0.000085  -0.000006   0.000000   0.000000  -0.000085   0.000000
    46  H    0.000000   0.000000   0.000000   0.000000   0.000000   0.000000
    47  H    0.000001   0.000000   0.000000   0.000000  -0.000008   0.000000
    48  H    0.000001   0.000000   0.000000   0.000000  -0.000004   0.000000
              7          8          9         10         11         12
     1  C    3.539746  -0.060054  -2.138516  -0.124786  -3.945851  -0.028918
     2  C   -1.321962   0.009038   1.264685   0.022549   0.579894   0.034988
     3  H    0.041251   0.003312  -0.001347   0.000074   0.053808  -0.000067
     4  H    0.020068  -0.000020   0.002218  -0.000032   0.050346  -0.000106
     5  C   -3.761318  -0.052664   1.012636  -0.059197  -0.328694  -0.034602
     6  H   -0.322772  -0.004770   0.124836  -0.000015  -0.028786   0.000011
     7  C   24.039895   0.258456  -6.753906  -0.141707  -0.518043   0.010118
     8  H    0.258456   0.549423   0.172554   0.004773   0.015009  -0.000153
     9  C   -6.753906   0.172554  17.580096   0.474530  -2.431831  -0.033337
    10  H   -0.141707   0.004773   0.474530   0.548285   0.123518  -0.004822
    11  C   -0.518043   0.015009  -2.431831   0.123518  13.621158   0.203566
    12  H    0.010118  -0.000153  -0.033337  -0.004822   0.203566   0.557912
    13  C   -2.335048   0.145145   4.772003  -0.184049  -1.353768   0.039117
    14  C   -0.279804  -0.007259  -0.674653  -0.009825  -0.223037   0.011384
    15  C    4.078650  -0.163730  -3.269666  -0.188930  -1.405911   0.098214
    16  C   -5.080896   0.071525   0.632260   0.234701  -0.161005   0.048609
    17  C   -1.928469   0.016843  -1.684483   0.115067   0.309180   0.010493
    18  C   -0.606007  -0.040753  -1.643917  -0.007201   0.615630   0.016044
    19  H   -0.000379   0.000000  -0.006477  -0.000009   0.000017   0.000002
    20  H   -0.001332   0.000004   0.008037   0.000002  -0.000771   0.000000
    21  O   -0.034231  -0.000295  -0.103564  -0.002711   0.022257  -0.001024
    22  H    0.004285   0.000000   0.039842  -0.000028   0.006805   0.000010
    23  O    0.001026   0.004806   0.182935   0.000576  -0.050880  -0.003111
    24  H   -0.084833   0.001283  -0.029698  -0.000064  -0.001819   0.000643
    25  O    0.313095   0.002835  -0.134771   0.007787   0.128219  -0.040296
    26  H   -0.012783  -0.000016   0.033435  -0.000223   0.002060  -0.008608
    27  C    0.377280   0.009723  -1.183710   0.014848   1.797076  -0.052384
    28  H   -0.009101   0.000000   0.005397  -0.000007   0.040574  -0.000020
    29  H   -0.009898   0.000000   0.013103   0.000004   0.015726   0.002569
    30  H    0.000392   0.000017   0.000941   0.000004   0.010585   0.000328
    31  O   -0.160666   0.000568   0.397938   0.002646  -0.225618   0.002767
    32  H   -0.013147   0.000014  -0.006712   0.002327  -0.041578  -0.000988
    33  H    0.088005   0.004828   0.039576   0.002951   0.006938  -0.000054
    34  C   -4.707152  -0.184406   0.010189   0.005645  -0.666841  -0.004460
    35  C    0.334987   0.102697   0.681031   0.020278   0.080096  -0.000368
    36  H    0.051801   0.000299   0.000839   0.000007   0.001414   0.000000
    37  H   -0.010145   0.005596   0.036711  -0.000005  -0.001758   0.000000
    38  C    0.918475  -0.028810  -0.741126  -0.032211   0.020317  -0.001471
    39  H   -0.071235  -0.000087  -0.014571   0.000015   0.012305   0.000000
    40  H    0.014720  -0.000077  -0.006143  -0.000018   0.000191   0.000000
    41  H    0.056865  -0.000084   0.001800   0.000566  -0.020993   0.000004
    42  C   -0.141818   0.000346  -0.222301  -0.001179  -0.035623   0.000680
    43  H    0.000085   0.000000   0.001007   0.000000  -0.000162   0.000000
    44  H   -0.000294   0.000000  -0.000390   0.000000   0.000096   0.000000
    45  C   -0.000898  -0.000011  -0.000511   0.000005  -0.000623   0.000009
    46  H    0.000016   0.000000   0.000028   0.000000  -0.000006   0.000000
    47  H   -0.000155   0.000000   0.000027   0.000000   0.000025   0.000000
    48  H    0.000069   0.000000  -0.000108   0.000000  -0.000025   0.000000
             13         14         15         16         17         18
     1  C   -0.219995   0.031462   0.891269  -1.360074  -0.396980  -0.103272
     2  C   -0.067470  -0.001465  -0.089556   0.317152   0.071378  -0.026319
     3  H   -0.008154  -0.000020   0.009444   0.002310   0.000304   0.000802
     4  H   -0.001053  -0.000029  -0.002522   0.000121   0.000015   0.000006
     5  C    0.267906  -0.013211  -0.308209   0.082275  -0.039029  -0.243497
     6  H    0.026072   0.000191  -0.015338   0.008333   0.000617  -0.001896
     7  C   -2.335048  -0.279804   4.078650  -5.080896  -1.928469  -0.606007
     8  H    0.145145  -0.007259  -0.163730   0.071525   0.016843  -0.040753
     9  C    4.772003  -0.674653  -3.269666   0.632260  -1.684483  -1.643917
    10  H   -0.184049  -0.009825  -0.188930   0.234701   0.115067  -0.007201
    11  C   -1.353768  -0.223037  -1.405911  -0.161005   0.309180   0.615630
    12  H    0.039117   0.011384   0.098214   0.048609   0.010493   0.016044
    13  C   24.646645  -3.419519 -12.428303   0.648422  -3.727018   0.348369
    14  C   -3.419519  10.920412   3.158316  -0.609414   0.773969  -1.643917
    15  C  -12.428303   3.158316  32.202280  -2.535983  -3.284661  -9.227886
    16  C    0.648422  -0.609414  -2.535983  13.251227   1.451184  -1.377248
    17  C   -3.727018   0.773969  -3.284661   1.451184  14.746476  -0.858291
    18  C    0.348369  -1.643917  -9.227886  -1.377248  -0.858291  19.425133
    19  H    0.077271   0.045049  -0.053765  -0.060798   0.285052   0.050838
    20  H    0.056208   0.054773   0.089428  -0.002964   0.033797   0.105412
    21  O   -0.095662   0.038419   0.048924   0.209912  -0.054141  -0.021829
    22  H    0.126757   0.009566  -0.023718   0.029825  -0.203480   0.015467
    23  O   -0.305589   0.136168   0.936996  -0.053599  -0.016204  -0.791065
    24  H   -0.029840  -0.005017  -0.017289   0.016829  -0.004300   0.186294
    25  O    0.044308  -0.027829   0.005670  -0.140304  -0.051334  -0.066257
    26  H   -0.032262   0.002293   0.028270  -0.005606  -0.001941  -0.009930
    27  C   -0.278064   0.006289   0.211368  -0.041618   0.015912   0.069593
    28  H   -0.001342  -0.000018  -0.001271   0.000328   0.000023  -0.000067
    29  H    0.000017  -0.000035  -0.002735   0.003364   0.000397  -0.000171
    30  H   -0.001835   0.000097   0.008470  -0.000661  -0.000114   0.000997
    31  O   -0.000903  -0.001440  -0.040153   0.071928   0.011058  -0.004873
    32  H    0.006189   0.000077  -0.000445   0.018129   0.003373   0.000120
    33  H   -0.006928  -0.000038  -0.004721   0.020703   0.003392   0.000044
    34  C   -0.521155   0.288822   0.107805   0.885345   0.280950   0.028297
    35  C    0.660996  -0.151087  -0.907495   0.190471   0.236980   0.066119
    36  H    0.000555  -0.000097   0.003432  -0.000362   0.000813   0.000114
    37  H    0.027484  -0.003368   0.000147   0.003483   0.002297  -0.031223
    38  C    0.005258  -0.005385   0.496064  -0.720747  -0.494945  -0.026372
    39  H   -0.013293   0.000281   0.007151  -0.002445  -0.001047   0.001739
    40  H    0.002321  -0.000006   0.002087   0.006252   0.000818   0.001542
    41  H    0.037865  -0.004834  -0.005458  -0.016657  -0.015785  -0.002784
    42  C   -1.421579  -2.050843  -0.914530  -0.119524   0.572113   1.297188
    43  H   -0.006201  -0.214921  -0.010562   0.063013   0.157960  -0.134464
    44  H    0.005137  -0.239376   0.034650  -0.024851  -0.099376   0.177796
    45  C   -0.002572  -0.052224   0.028820   0.009086   0.034763  -0.004457
    46  H    0.002004   0.027641   0.001927   0.003610   0.006341   0.006566
    47  H   -0.000773  -0.042068  -0.002064  -0.004186  -0.016640   0.022160
    48  H   -0.005130  -0.023484  -0.001233   0.003024   0.021177  -0.033064
             19         20         21         22         23         24
     1  C   -0.000199  -0.000040  -0.022934   0.001501   0.030938   0.003920
     2  C    0.000022  -0.000016   0.006590  -0.000116  -0.003744  -0.011384
     3  H    0.000000   0.000000   0.000002   0.000000  -0.000213   0.000002
     4  H    0.000000   0.000000   0.000003   0.000000   0.000012   0.000001
     5  C   -0.000146   0.000013   0.017345  -0.001308   0.039737  -0.001626
     6  H    0.000000   0.000000  -0.000009   0.000000   0.000041  -0.000012
     7  C   -0.000379  -0.001332  -0.034231   0.004285   0.001026  -0.084833
     8  H    0.000000   0.000004  -0.000295   0.000000   0.004806   0.001283
     9  C   -0.006477   0.008037  -0.103564   0.039842   0.182935  -0.029698
    10  H   -0.000009   0.000002  -0.002711  -0.000028   0.000576  -0.000064
    11  C    0.000017  -0.000771   0.022257   0.006805  -0.050880  -0.001819
    12  H    0.000002   0.000000  -0.001024   0.000010  -0.003111   0.000643
    13  C    0.077271   0.056208  -0.095662   0.126757  -0.305589  -0.029840
    14  C    0.045049   0.054773   0.038419   0.009566   0.136168  -0.005017
    15  C   -0.053765   0.089428   0.048924  -0.023718   0.936996  -0.017289
    16  C   -0.060798  -0.002964   0.209912   0.029825  -0.053599   0.016829
    17  C    0.285052   0.033797  -0.054141  -0.203480  -0.016204  -0.004300
    18  C    0.050838   0.105412  -0.021829   0.015467  -0.791065   0.186294
    19  H    0.521394  -0.000140  -0.018731   0.008515   0.000138   0.000000
    20  H   -0.000140   0.516940   0.000083  -0.000001  -0.005644   0.000088
    21  O   -0.018731   0.000083   8.316237   0.203747  -0.001976  -0.000081
    22  H    0.008515  -0.000001   0.203747   0.362678   0.000042   0.000000
    23  O    0.000138  -0.005644  -0.001976   0.000042   8.344739   0.187521
    24  H    0.000000   0.000088  -0.000081   0.000000   0.187521   0.310554
    25  O    0.000005  -0.000026  -0.001547  -0.000018   0.003144   0.014519
    26  H    0.000000   0.000000  -0.000047   0.000000   0.002910   0.000429
    27  C   -0.000007   0.000006   0.001740   0.000357  -0.007781  -0.003482
    28  H    0.000000   0.000000   0.000003   0.000000   0.000002   0.000000
    29  H    0.000000   0.000000   0.000015   0.000000  -0.000002  -0.000002
    30  H    0.000000   0.000000   0.000003   0.000000  -0.000139   0.000045
    31  O    0.000001   0.000000  -0.001730  -0.000067   0.000248  -0.000010
    32  H    0.000000   0.000000  -0.000895   0.000002  -0.000009   0.000000
    33  H    0.000000   0.000000  -0.000047   0.000000  -0.000009  -0.000003
    34  C   -0.001057  -0.002400   0.029373  -0.001847  -0.054464  -0.001920
    35  C    0.000079   0.002693  -0.010363   0.000733   0.016431   0.009803
    36  H    0.000000   0.000000  -0.000062   0.000000   0.000064  -0.000002
    37  H    0.000000  -0.000003  -0.000025   0.000000   0.003392  -0.000102
    38  C    0.000203   0.000234  -0.003708   0.000623  -0.015502  -0.002022
    39  H    0.000000   0.000000   0.000118  -0.000001  -0.000018   0.000000
    40  H    0.000000   0.000000   0.000078   0.000001  -0.000015   0.000000
    41  H   -0.000001   0.000000   0.001828  -0.000231  -0.000081   0.000002
    42  C   -0.019947  -0.025770  -0.007233   0.002141  -0.041434   0.003817
    43  H    0.002220   0.000094  -0.000019   0.000001   0.000035   0.000000
    44  H    0.000075   0.001828   0.000038   0.000000  -0.000006   0.000000
    45  C    0.007813   0.004257  -0.000086   0.000098   0.000259  -0.000065
    46  H   -0.000029  -0.000025  -0.000001   0.000000   0.000000   0.000000
    47  H    0.000177   0.000008   0.000029   0.000000   0.000006   0.000000
    48  H    0.000010   0.000181   0.000001   0.000000   0.000000   0.000000
             25         26         27         28         29         30
     1  C    0.023111   0.000476  -3.953345  -0.134340  -0.092838  -0.142312
     2  C   -0.039778   0.006936   0.144799   0.024253   0.021707   0.027326
     3  H    0.001761   0.000141   0.056075   0.000255   0.000060   0.001842
     4  H   -0.000854  -0.000006  -0.047410   0.001838  -0.000033   0.000238
     5  C   -0.093543   0.014978  -0.794103   0.008677  -0.010658   0.002417
     6  H    0.000287   0.000000  -0.016078  -0.000003   0.000002  -0.000004
     7  C    0.313095  -0.012783   0.377280  -0.009101  -0.009898   0.000392
     8  H    0.002835  -0.000016   0.009723   0.000000   0.000000   0.000017
     9  C   -0.134771   0.033435  -1.183710   0.005397   0.013103   0.000941
    10  H    0.007787  -0.000223   0.014848  -0.000007   0.000004   0.000004
    11  C    0.128219   0.002060   1.797076   0.040574   0.015726   0.010585
[...]
    17  C   -0.044906  -0.000731   0.002968   0.000031   0.000324  -0.000069
    18  C    0.014070  -0.016285   0.037970  -0.000097  -0.000082   0.000816
    19  H    0.000003   0.000000  -0.000002   0.000000   0.000000   0.000000
    20  H   -0.000044   0.000000   0.000002   0.000000   0.000000   0.000000
    21  O   -0.001629  -0.000049   0.003567   0.000004   0.000016   0.000003
    22  H   -0.000003   0.000000   0.000325   0.000000   0.000000   0.000000
    23  O   -0.009375   0.004383  -0.003579   0.000004   0.000003  -0.000148
    24  H    0.023175  -0.000285  -0.003865   0.000000  -0.000001   0.000046
    25  O    8.496706   0.240377   0.001312  -0.001102  -0.002220   0.006816
    26  H    0.240377   0.309220  -0.005437  -0.000052   0.000312  -0.000267
    27  C    0.001312  -0.005437   8.735746   0.445850   0.506507   0.429299
    28  H   -0.001102  -0.000052   0.445850   0.525933  -0.028013  -0.024464
    29  H   -0.002220   0.000312   0.506507  -0.028013   0.535452  -0.027091
    30  H    0.006816  -0.000267   0.429299  -0.024464  -0.027091   0.516764
    31  O    0.010447   0.000029  -0.324191  -0.000361   0.001103   0.008216
    32  H   -0.000561  -0.000013   0.054144  -0.000004  -0.000083  -0.000220
    33  H    0.000024   0.000003   0.013562   0.000002   0.000002   0.000001
    34  C   -0.000129  -0.001926  -0.117326   0.000054  -0.000580  -0.000105
    35  C    0.007782  -0.000315   0.000830  -0.000028   0.000016   0.000054
    36  H   -0.000010   0.000000   0.000022   0.000000   0.000000   0.000000
    37  H    0.000031   0.000000   0.000167   0.000000   0.000000   0.000000
    38  C    0.001605   0.000033   0.006526   0.000015  -0.000113  -0.000051
    39  H   -0.000014   0.000000   0.000327   0.000000   0.000000   0.000000
    40  H   -0.000008   0.000000  -0.000004   0.000000   0.000000   0.000000
    41  H    0.000103   0.000000  -0.000793   0.000000   0.000000   0.000000
    42  C   -0.006976   0.000065  -0.000933   0.000000  -0.000001   0.000001
    43  H    0.000000   0.000000   0.000000   0.000000   0.000000   0.000000
    44  H    0.000000   0.000000  -0.000001   0.000000   0.000000   0.000000
    45  C    0.000006  -0.000002  -0.000035   0.000000   0.000000   0.000000
    46  H    0.000000   0.000000   0.000000   0.000000   0.000000   0.000000
    47  H    0.000000   0.000000   0.000000   0.000000   0.000000   0.000000
    48  H    0.000000   0.000000   0.000000   0.000000   0.000000   0.000000
             31         32         33         34         35         36
     1  C    0.191940   0.097577  -0.035912   0.351938   0.023348   0.000742
     2  C   -0.018002  -0.052989  -0.035596  -0.375827  -0.196685  -0.001112
     3  H    0.007355   0.000130   0.005230  -0.037633   0.009835   0.000000
     4  H   -0.002797  -0.001121  -0.005668  -0.010600  -0.000695   0.000000
     5  C    0.036336  -0.023903   0.438226   1.036851  -0.505922  -0.003013
     6  H    0.000764  -0.000258  -0.031609   0.082859  -0.006238  -0.000044
     7  C   -0.165577  -0.008324  -0.116813  -3.749193  -0.019679   0.008667
     8  H    0.000527   0.000038   0.005257  -0.188866   0.073569   0.000338
     9  C    0.370426   0.000727   0.072231  -0.008850   0.785313   0.000035
    10  H    0.001705   0.002546   0.003386  -0.019409   0.007930   0.000008
    11  C   -0.219278  -0.067728   0.015079  -0.858270   0.085416   0.000364
    12  H    0.006045  -0.000956  -0.000061  -0.003968   0.000493   0.000000
    13  C    0.014076   0.012605  -0.006745  -0.875534   0.717630   0.006244
    14  C   -0.000545   0.000188  -0.000033   0.373798  -0.150018  -0.000186
    15  C   -0.046218   0.001477  -0.016999   0.827526  -1.142993  -0.002498
    16  C    0.077761   0.011634   0.026800   0.696098   0.312052  -0.000932
    17  C    0.012930   0.002133   0.004007   0.209190   0.323096   0.000290
    18  C   -0.003697  -0.000077  -0.000632  -0.055320   0.010718  -0.000178
    19  H    0.000001   0.000000   0.000000  -0.000565   0.000160   0.000000
    20  H    0.000000   0.000000   0.000000  -0.001649   0.002338   0.000000
    21  O   -0.001567  -0.001024   0.000041   0.027245  -0.014673  -0.000060
    22  H   -0.000064   0.000002   0.000000  -0.001483   0.000634   0.000000
    23  O    0.000405  -0.000007   0.000030  -0.082966   0.047293   0.000149
    24  H   -0.000066  -0.000001  -0.000007   0.001448   0.004679  -0.000002
    25  O    0.010447  -0.000561   0.000024  -0.000129   0.007782  -0.000010
    26  H    0.000029  -0.000013   0.000003  -0.001926  -0.000315   0.000000
    27  C   -0.324191   0.054144   0.013562  -0.117326   0.000830   0.000022
    28  H   -0.000361  -0.000004   0.000002   0.000054  -0.000028   0.000000
    29  H    0.001103  -0.000083   0.000002  -0.000580   0.000016   0.000000
    30  H    0.008216  -0.000220   0.000001  -0.000105   0.000054   0.000000
    31  O    8.401991   0.215755  -0.000768   0.006746   0.001726   0.000000
    32  H    0.215755   0.343949   0.003470   0.006269  -0.000737   0.000000
    33  H   -0.000768   0.003470   0.563916  -0.042936   0.054571   0.000008
    34  C    0.006746   0.006269  -0.042936  11.014713  -2.106963  -0.128072
    35  C    0.001726  -0.000737   0.054571  -2.106963   8.522034   0.467764
    36  H    0.000000   0.000000   0.000008  -0.128072   0.467764   0.538104
    37  H    0.000000   0.000000  -0.000004  -0.215150   0.631166  -0.035263
    38  C   -0.010009  -0.000680  -0.068061  -0.086370  -1.340551  -0.000985
    39  H   -0.000205   0.000018  -0.001259  -0.089318  -0.037334   0.000233
    40  H   -0.000008   0.000000   0.000041  -0.061393  -0.052609   0.003571
    41  H    0.000312  -0.000005   0.000008  -0.166830  -0.013885   0.000172
    42  C   -0.000067  -0.000001   0.000002   0.007390   0.033291   0.000229
    43  H    0.000000   0.000000   0.000000   0.000036  -0.000048   0.000000
    44  H    0.000000   0.000000   0.000000  -0.000091   0.000085   0.000000
    45  C    0.000000   0.000000   0.000000  -0.000484  -0.002304   0.000013
    46  H    0.000000   0.000000   0.000000  -0.000060   0.000050   0.000000
    47  H    0.000000   0.000000   0.000000   0.000093  -0.000108   0.000000
    48  H    0.000000   0.000000   0.000000   0.000256  -0.000359   0.000000
             37         38         39         40         41         42
     1  C    0.004554   0.174252  -0.004664   0.000605  -0.003272  -0.001040
     2  C   -0.004819   0.035518   0.006958  -0.001174   0.001694  -0.000170
     3  H    0.000000  -0.004284  -0.000005   0.000000   0.000000  -0.000006
     4  H    0.000000  -0.002167   0.000003   0.000000   0.000001   0.000000
     5  C   -0.017367   0.077046   0.041558   0.005328  -0.020893   0.002239
     6  H    0.000004  -0.015151   0.000032  -0.000016   0.000076   0.000011
     7  C   -0.056300   0.577784  -0.033332  -0.055118   0.107871  -0.121182
     8  H    0.005988  -0.026830  -0.000097  -0.000083  -0.000087   0.000310
     9  C    0.028577  -0.845017  -0.023880  -0.005457  -0.012511  -0.156707
    10  H   -0.000004  -0.015065  -0.000010   0.000005   0.000439  -0.001104
    11  C   -0.000520  -0.066618   0.010395  -0.001995  -0.011932  -0.080844
    12  H    0.000000  -0.002264   0.000000   0.000000   0.000003   0.000693
    13  C    0.009877   0.021098  -0.010299   0.005046   0.029662  -1.058794
    14  C   -0.001668  -0.001279  -0.000293   0.000980  -0.003968  -1.564152
    15  C    0.010898   0.512938   0.007872  -0.000979  -0.008499  -0.536437
    16  C    0.004239  -0.716702  -0.009983   0.011389  -0.035375  -0.137679
    17  C    0.002539  -0.537010  -0.002945   0.002378  -0.016090   0.525106
    18  C   -0.029636   0.032359   0.002272   0.000050   0.000260   0.624724
    19  H    0.000000   0.000098   0.000000   0.000000  -0.000002  -0.019461
    20  H   -0.000003   0.000220   0.000000   0.000000   0.000000  -0.014538
    21  O   -0.000043   0.001085   0.000385   0.000080   0.002536  -0.001661
    22  H    0.000000   0.000534  -0.000001   0.000000  -0.000224   0.000801
    23  O    0.003640  -0.023270  -0.000041  -0.000011  -0.000016  -0.029578
    24  H   -0.000106  -0.000832   0.000000   0.000000   0.000002   0.001743
    25  O    0.000031   0.001605  -0.000014  -0.000008   0.000103  -0.006976
    26  H    0.000000   0.000033   0.000000   0.000000   0.000000   0.000065
    27  C    0.000167   0.006526   0.000327  -0.000004  -0.000793  -0.000933
    28  H    0.000000   0.000015   0.000000   0.000000   0.000000   0.000000
    29  H    0.000000  -0.000113   0.000000   0.000000   0.000000  -0.000001
    30  H    0.000000  -0.000051   0.000000   0.000000   0.000000   0.000001
    31  O    0.000000  -0.010009  -0.000205  -0.000008   0.000312  -0.000067
    32  H    0.000000  -0.000680   0.000018   0.000000  -0.000005  -0.000001
    33  H   -0.000004  -0.068061  -0.001259   0.000041   0.000008   0.000002
    34  C   -0.215150  -0.086370  -0.089318  -0.061393  -0.166830   0.007390
    35  C    0.631166  -1.340551  -0.037334  -0.052609  -0.013885   0.033291
    36  H   -0.035263  -0.000985   0.000233   0.003571   0.000172   0.000229
    37  H    0.547961  -0.029979  -0.000190   0.000204  -0.000206   0.000254
    38  C   -0.029979   7.494195   0.491037   0.504773   0.501837  -0.015988
    39  H   -0.000190   0.491037   0.535950  -0.026911  -0.029123  -0.000023
    40  H    0.000204   0.504773  -0.026911   0.540903  -0.026797  -0.000015
    41  H   -0.000206   0.501837  -0.029123  -0.026797   0.534412  -0.000091
    42  C    0.000254  -0.015988  -0.000023  -0.000015  -0.000091   7.509717
    43  H    0.000000   0.000027   0.000000   0.000000   0.000000   0.490274
    44  H    0.000000  -0.000015   0.000000   0.000000   0.000000   0.488390
    45  C   -0.000025   0.001925  -0.000002   0.000018   0.000040   0.209809
    46  H    0.000000  -0.000002   0.000000   0.000000   0.000000  -0.063828
    47  H    0.000000   0.000035   0.000000   0.000000   0.000000  -0.048759
    48  H    0.000000  -0.000032   0.000000   0.000000   0.000000  -0.052514
             43         44         45         46         47         48
     1  C    0.000010   0.000000   0.000036   0.000000  -0.000001   0.000001
     2  C    0.000000   0.000000  -0.000039   0.000000  -0.000001   0.000000
     3  H    0.000000   0.000000   0.000000   0.000000   0.000000   0.000000
     4  H    0.000000   0.000000   0.000000   0.000000   0.000000   0.000000
     5  C   -0.000005  -0.000003  -0.000095  -0.000001  -0.000002   0.000000
     6  H    0.000000   0.000000   0.000000   0.000000   0.000000   0.000000
     7  C    0.000029  -0.000267   0.000675   0.000005  -0.000217   0.000142
     8  H    0.000000   0.000000  -0.000012   0.000000   0.000000   0.000000
     9  C    0.000077  -0.000798  -0.005263  -0.000049  -0.000264  -0.000263
    10  H    0.000000   0.000000   0.000009   0.000000   0.000000   0.000000
    11  C   -0.000160   0.000072  -0.002817   0.000001   0.000014  -0.000062
    12  H    0.000000   0.000000   0.000011   0.000000   0.000000   0.000000
    13  C   -0.008713  -0.006061  -0.027760   0.001522  -0.001249  -0.015501
    14  C   -0.166055  -0.162832   0.048996  -0.021342   0.025651   0.068489
    15  C   -0.012104   0.028626   0.045610  -0.004162   0.009782   0.002883
    16  C    0.039383  -0.018910   0.005819   0.001981  -0.026523   0.014239
    17  C    0.088190  -0.067926  -0.010939   0.002894  -0.065882   0.053443
    18  C   -0.091341   0.079826  -0.061949   0.017822   0.044387  -0.132460
    19  H    0.002475   0.000109   0.004419  -0.000034   0.000200   0.000015
    20  H    0.000117   0.002314   0.002477  -0.000034   0.000013   0.000259
    21  O    0.000012   0.000025   0.000145  -0.000003   0.000056   0.000001
    22  H   -0.000001   0.000000   0.000052   0.000000  -0.000001   0.000000
    23  O    0.000024  -0.000030   0.000068   0.000000   0.000006  -0.000039
    24  H    0.000000   0.000000  -0.000049   0.000000   0.000000   0.000000
    25  O    0.000000   0.000000   0.000006   0.000000   0.000000   0.000000
    26  H    0.000000   0.000000  -0.000002   0.000000   0.000000   0.000000
    27  C    0.000000  -0.000001  -0.000035   0.000000   0.000000   0.000000
    28  H    0.000000   0.000000   0.000000   0.000000   0.000000   0.000000
    29  H    0.000000   0.000000   0.000000   0.000000   0.000000   0.000000
    30  H    0.000000   0.000000   0.000000   0.000000   0.000000   0.000000
    31  O    0.000000   0.000000   0.000000   0.000000   0.000000   0.000000
    32  H    0.000000   0.000000   0.000000   0.000000   0.000000   0.000000
    33  H    0.000000   0.000000   0.000000   0.000000   0.000000   0.000000
    34  C    0.000036  -0.000091  -0.000484  -0.000060   0.000093   0.000256
    35  C   -0.000048   0.000085  -0.002304   0.000050  -0.000108  -0.000359
    36  H    0.000000   0.000000   0.000013   0.000000   0.000000   0.000000
    37  H    0.000000   0.000000  -0.000025   0.000000   0.000000   0.000000
    38  C    0.000027  -0.000015   0.001925  -0.000002   0.000035  -0.000032
    39  H    0.000000   0.000000  -0.000002   0.000000   0.000000   0.000000
    40  H    0.000000   0.000000   0.000018   0.000000   0.000000   0.000000
    41  H    0.000000   0.000000   0.000040   0.000000   0.000000   0.000000
    42  C    0.490274   0.488390   0.209809  -0.063828  -0.048759  -0.052514
    43  H    0.567387  -0.033724  -0.023499  -0.003369  -0.005010   0.004900
    44  H   -0.033724   0.565189  -0.022196  -0.003305   0.004851  -0.005064
    45  C   -0.023499  -0.022196   5.182349   0.424452   0.418941   0.417501
    46  H   -0.003369  -0.003305   0.424452   0.549303  -0.027097  -0.027040
    47  H   -0.005010   0.004851   0.418941  -0.027097   0.541793  -0.028585
    48  H    0.004900  -0.005064   0.417501  -0.027040  -0.028585   0.541924
 Mulliken atomic charges:
              1
     1  C    0.209123
     2  C   -0.310082
     3  H    0.163413
     4  H    0.159775
     5  C   -0.544969
     6  H    0.157325
     7  C    0.158049
     8  H    0.144227
     9  C   -0.289536
    10  H    0.167285
    11  C   -0.220684
    12  H    0.156985
    13  C    0.442358
    14  C   -0.077712
    15  C   -1.344942
    16  C    0.365195
    17  C   -0.143011
    18  C    0.427380
    19  H    0.148549
    20  H    0.146972
    21  O   -0.593995
    22  H    0.448693
    23  O   -0.624992
    24  H    0.476767
    25  O   -0.681708
    26  H    0.444593
    27  C   -0.343705
    28  H    0.168370
    29  H    0.164706
    30  H    0.177185
    31  O   -0.573177
    32  H    0.406029
    33  H    0.157208
    34  C    0.645357
    35  C   -0.531729
    36  H    0.145403
    37  H    0.141184
    38  C   -0.625614
    39  H    0.172889
    40  H    0.157207
    41  H    0.171170
    42  C    0.017501
    43  H    0.151087
    44  H    0.151735
    45  C   -0.605901
    46  H    0.152297
    47  H    0.157876
    48  H    0.157866
 Sum of Mulliken atomic charges =   0.00000
 Mulliken charges with hydrogens summed into heavy atoms:
              1
     1  C    0.209123
     2  C    0.013106
     5  C   -0.230436
     7  C    0.302276
     9  C   -0.122251
    11  C   -0.063699
    13  C    0.442358
    14  C   -0.077712
    15  C   -1.344942
    16  C    0.365195
    17  C    0.005537
    18  C    0.574352
    21  O   -0.145302
    23  O   -0.148225
    25  O   -0.237115
    27  C    0.166556
    31  O   -0.167148
    34  C    0.645357
    35  C   -0.245142
    38  C   -0.124348
    42  C    0.320323
    45  C   -0.137862
 Sum of Mulliken charges with hydrogens summed into heavy atoms =   0.00000
 Electronic spatial extent (au):  <R**2>=           7123.1255
 Charge=              0.0000 electrons
 Dipole moment (field-independent basis, Debye):
    X=             -0.3529    Y=             -1.0071    Z=              3.0414  Tot=              3.2231
 Quadrupole moment (field-independent basis, Debye-Ang):
   XX=           -125.3702   YY=           -129.2061   ZZ=           -136.2029
   XY=             -0.6564   XZ=             16.6088   YZ=              7.0160
 Traceless Quadrupole moment (field-independent basis, Debye-Ang):
   XX=              4.8895   YY=              1.0536   ZZ=             -5.9432
   XY=             -0.6564   XZ=             16.6088   YZ=              7.0160
 Octapole moment (field-independent basis, Debye-Ang**2):
  XXX=             47.0408  YYY=            -40.8042  ZZZ=             50.2055  XYY=            -29.6298
  XXY=            -12.2603  XXZ=            -12.5517  XZZ=             27.7011  YZZ=              1.7447
  YYZ=             -1.3278  XYZ=            -23.6771
 Hexadecapole moment (field-independent basis, Debye-Ang**3):
 XXXX=          -6376.2422 YYYY=          -1906.6141 ZZZZ=          -1155.4091 XXXY=            -99.2930
 XXXZ=            167.4575 YYYX=            121.7491 YYYZ=             80.4641 ZZZX=            135.5360
 ZZZY=             25.0762 XXYY=          -1388.0175 XXZZ=          -1276.3594 YYZZ=           -544.7524
 XXYZ=             68.2507 YYXZ=             12.9452 ZZXY=            -19.7794
 N-N= 1.984602625113D+03 E-N=-6.301771603177D+03  KE= 9.931620777374D+02

 Test job not archived.
 1\1\GINC-COMPUTE-10-7\SP\RB3LYP\6-31+G(d,p)\C18H26O4\LPASSAGLIA.IQUIR\
 13-Oct-2021\0\\# B3LYP/6-31+G** geom=allcheck test scrf=(pcm,solvent=w
 ater,smd,dovacuum)\\comment\\0,1\C,0,-1.701455602,0.872387667,-2.85116
 8125\C,0,-2.370796875,2.020709486,-2.074323958\H,0,-1.760464505,2.9297
 35999,-2.149007257\H,0,-3.347518836,2.250771953,-2.518391064\C,0,-2.58
 7363139,1.700024071,-0.593759499\H,0,-2.992585575,2.590128117,-0.09553
 766\C,0,-1.289379156,1.253113807,0.112477688\H,0,-0.608518807,2.112516
 962,0.056332666\C,0,-0.641096053,0.059928483,-0.656183283\H,0,-1.40221
 6685,-0.728978339,-0.663279199\C,0,-0.391042614,0.416060594,-2.1483619
 72\H,0,0.012831231,-0.470218215,-2.655503483\C,0,0.611171303,-0.527254
 705,0.002629528\C,0,2.84253307,-1.680425936,1.348080285\C,0,1.74395123
 6,0.231767978,0.336056027\C,0,0.65044555,-1.894028702,0.332499689\C,0,
 1.74133267,-2.466166505,0.996798835\C,0,2.831371445,-0.324215215,1.013
 553658\H,0,1.740707695,-3.522302045,1.251182184\H,0,3.675416806,0.3130
 92056,1.267041756\O,0,-0.40973327,-2.694198756,-0.006323424\H,0,-0.231
 773526,-3.596050713,0.307491618\O,0,1.876810288,1.553047511,0.00874812
 8\H,0,1.359206858,1.697370494,-0.812941286\O,0,0.595894543,1.460231063
 ,-2.237675598\H,0,0.965535133,1.413615057,-3.14066411\C,0,-1.429652655
 ,1.330463664,-4.29055636\H,0,-2.369274128,1.548579127,-4.81188915\H,0,
 -0.936563203,0.536003809,-4.862443928\H,0,-0.80390012,2.227480401,-4.3
 31633802\O,0,-2.611410798,-0.228209646,-2.971632854\H,0,-2.933785678,-
 0.485880157,-2.092338324\H,0,-3.358392554,0.925065948,-0.511050147\C,0
 ,-1.559427622,0.970018269,1.592450185\C,0,-0.923767395,1.666595926,2.5
 51104694\H,0,-1.092819451,1.474313925,3.605920127\H,0,-0.196959413,2.4
 36617326,2.306942445\C,0,-2.538448125,-0.112586246,1.959611163\H,0,-3.
 549372701,0.151466755,1.635873297\H,0,-2.577872059,-0.27560548,3.04238
 7678\H,0,-2.262353016,-1.06586889,1.501674104\C,0,4.009716321,-2.27507
 1258,2.091523464\H,0,4.144439944,-3.321299229,1.791033929\H,0,4.933127
 739,-1.756742442,1.805658223\C,0,3.820022516,-2.193507467,3.5984722\H,
 0,4.681144024,-2.632011257,4.112550446\H,0,2.922934289,-2.73585472,3.9
 15961412\H,0,3.719350892,-1.154630617,3.930608971\\Version=EM64L-G09Re
 vC.01\State=1-A\HF=-1002.5583364\RMSD=5.497e-09\Dipole=-0.3724054,-1.0
 837293,-0.5430254\Quadrupole=-2.972058,4.5650377,-1.5929797,-5.8085202
 ,-4.8585918,-11.0973762\PG=C01 [X(C18H26O4)]\\@


 IT IS THE BEHAVIOR AND DISTRIBUTION OF THE ELECTRONS 
 AROUND THE NUCLEUS THAT GIVES THE FUNDAMENTAL 
 CHARACTER OF AN ATOM:  IT MUST BE THE SAME FOR MOLECULES.

                               -- C. A. COULSON, 1951
 Job cpu time:  0 days  1 hours  2 minutes 56.0 seconds.
 File lengths (MBytes):  RWF=    240 Int=      0 D2E=      0 Chk=     19 Scr=      1
 Normal termination of Gaussian 09 at Wed Oct 13 02:12:27 2021.
