 Entering Gaussian System, Link 0=g09
 Input=/home/lpassaglia.iquir/Link1/01_RRSS_THC_008.gjc
 Output=/home/lpassaglia.iquir/Link1/01_RRSS_THC_008.log
 Initial command:
 /share/apps/Gaussian09/EM64T.SSE4.2-enabled/g09/l1.exe /tmp/Gau-24804.inp -scrdir=/tmp/
 Entering Link 1 = /share/apps/Gaussian09/EM64T.SSE4.2-enabled/g09/l1.exe PID=     24807.
  
 Copyright (c) 1988,1990,1992,1993,1995,1998,2003,2009,2011,
            Gaussian, Inc.  All Rights Reserved.
  
 This is part of the Gaussian(R) 09 program.  It is based on
 the Gaussian(R) 03 system (copyright 2003, Gaussian, Inc.),
 the Gaussian(R) 98 system (copyright 1998, Gaussian, Inc.),
 the Gaussian(R) 94 system (copyright 1995, Gaussian, Inc.),
 the Gaussian 92(TM) system (copyright 1992, Gaussian, Inc.),
 the Gaussian 90(TM) system (copyright 1990, Gaussian, Inc.),
 the Gaussian 88(TM) system (copyright 1988, Gaussian, Inc.),
 the Gaussian 86(TM) system (copyright 1986, Carnegie Mellon
 University), and the Gaussian 82(TM) system (copyright 1983,
 Carnegie Mellon University). Gaussian is a federally registered
 trademark of Gaussian, Inc.
  
 This software contains proprietary and confidential information,
 including trade secrets, belonging to Gaussian, Inc.
  
 This software is provided under written license and may be
 used, copied, transmitted, or stored only in accord with that
 written license.
  
 The following legend is applicable only to US Government
 contracts under FAR:
  
                    RESTRICTED RIGHTS LEGEND
  
 Use, reproduction and disclosure by the US Government is
 subject to restrictions as set forth in subparagraphs (a)
 and (c) of the Commercial Computer Software - Restricted
 Rights clause in FAR 52.227-19.
  
 Gaussian, Inc.
 340 Quinnipiac St., Bldg. 40, Wallingford CT 06492
  
  
 ---------------------------------------------------------------
 Warning -- This program may not be used in any manner that
 competes with the business of Gaussian, Inc. or will provide
 assistance to any competitor of Gaussian, Inc.  The licensee
 of this program is prohibited from giving any competitor of
 Gaussian, Inc. access to this program.  By using this program,
 the user acknowledges that Gaussian, Inc. is engaged in the
 business of creating and licensing software in the field of
 computational chemistry and represents and warrants to the
 licensee that it is not a competitor of Gaussian, Inc. and that
 it will not use this program in any manner prohibited above.
 ---------------------------------------------------------------
  

 Cite this work as:
 Gaussian 09, Revision C.01,
 M. J. Frisch, G. W. Trucks, H. B. Schlegel, G. E. Scuseria, 
 M. A. Robb, J. R. Cheeseman, G. Scalmani, V. Barone, B. Mennucci, 
 G. A. Petersson, H. Nakatsuji, M. Caricato, X. Li, H. P. Hratchian, 
 A. F. Izmaylov, J. Bloino, G. Zheng, J. L. Sonnenberg, M. Hada, 
 M. Ehara, K. Toyota, R. Fukuda, J. Hasegawa, M. Ishida, T. Nakajima, 
 Y. Honda, O. Kitao, H. Nakai, T. Vreven, J. A. Montgomery, Jr., 
 J. E. Peralta, F. Ogliaro, M. Bearpark, J. J. Heyd, E. Brothers, 
 K. N. Kudin, V. N. Staroverov, T. Keith, R. Kobayashi, J. Normand, 
 K. Raghavachari, A. Rendell, J. C. Burant, S. S. Iyengar, J. Tomasi, 
 M. Cossi, N. Rega, J. M. Millam, M. Klene, J. E. Knox, J. B. Cross, 
 V. Bakken, C. Adamo, J. Jaramillo, R. Gomperts, R. E. Stratmann, 
 O. Yazyev, A. J. Austin, R. Cammi, C. Pomelli, J. W. Ochterski, 
 R. L. Martin, K. Morokuma, V. G. Zakrzewski, G. A. Voth, 
 P. Salvador, J. J. Dannenberg, S. Dapprich, A. D. Daniels, 
 O. Farkas, J. B. Foresman, J. V. Ortiz, J. Cioslowski, 
 and D. J. Fox, Gaussian, Inc., Wallingford CT, 2010.
 
 ******************************************
 Gaussian 09:  EM64L-G09RevC.01 23-Sep-2011
                23-Dec-2022 
 ******************************************
 %chk=01_RRSS_THC_008_optB_NMR
 %nprocshared=4
 Will use up to    4 processors via shared memory.
 ------------------------------------------------
 # mPW1PW91/6-31+G** scrf=(PCM,solvent=water) nmr
 ------------------------------------------------
 1/38=1/1;
 2/12=2,17=6,18=5,40=1/2;
 3/5=1,6=6,7=111,11=2,16=1,25=1,30=1,70=2201,72=1,74=-7/1,2,8,3;
 4//1;
 5/5=2,38=5,53=1/2;
 8/6=1,10=90,11=11/1;
 10/13=100,45=16/2;
 6/7=2,8=2,9=2,10=2,28=1/1;
 99/9=1/99;
 -------
 comment
 -------
 Charge =  0 Multiplicity = 1
 Symbolic Z-Matrix:
 6                    -1.7835    0.7843   -2.69845 
 6                    -2.55349   1.88805  -1.95082 
 1                    -2.00471   2.83638  -2.01348 
 1                    -3.52945   2.0483   -2.42614 
 6                    -2.79331   1.56095  -0.47526 
 1                    -3.27373   2.42373   0.00383 
 6                    -1.49022   1.2079    0.27347 
 1                    -0.86834   2.11168   0.23183 
 6                    -0.73838   0.058    -0.46623 
 1                    -1.44321  -0.7813   -0.49013 
 6                    -0.46736   0.42251  -1.95269 
 1                     0.0116   -0.43665  -2.4408 
 6                     0.53037  -0.43842   0.23425 
 6                     2.7895   -1.42821   1.66082 
 6                     1.59692   0.39843   0.59826 
 6                     0.65619  -1.79891   0.56824 
 6                     1.76328  -2.292     1.26812 
 6                     2.69878  -0.07867   1.31166 
 1                     1.83447  -3.34728   1.51605 
 1                     3.49277   0.61459   1.57966 
 8                    -0.33151  -2.67289   0.19455 
 1                    -0.1018   -3.55921   0.51883 
 8                     1.64962   1.72384   0.26496 
 1                     1.14913   1.82791  -0.57325 
 8                     0.4483    1.53134  -2.01944 
 1                     0.84794   1.50551  -2.9104 
 6                    -1.49923   1.25244  -4.13218 
 1                    -2.43498   1.40295  -4.68352 
 1                    -0.93555   0.49067  -4.68294 
 1                    -0.93526   2.19     -4.16069 
 8                    -2.61199  -0.37665  -2.83858 
 1                    -2.94225  -0.65181  -1.96756 
 1                    -3.51168   0.73535  -0.41043 
 6                    -1.78624   0.91472   1.74648 
 6                    -1.23314   1.66093   2.71887 
 1                    -1.42145   1.46315   3.7694 
 1                    -0.55616   2.47991   2.49137 
 6                    -2.69617  -0.23346   2.09155 
 1                    -3.712    -0.04622   1.73168 
 1                    -2.7605   -0.39072   3.17399 
 1                    -2.3362   -1.16755   1.65268 
 6                     3.98971  -1.94523   2.40974 
 1                     4.37152  -1.1649    3.07937 
 1                     3.68967  -2.77879   3.05643 
 6                     5.0936   -2.39816   1.46644 
 1                     5.95106  -2.7681    2.03741 
 1                     5.43798  -1.57373   0.83288 
 1                     4.74944  -3.20474   0.81019 
 
                          Input orientation:                          
 ---------------------------------------------------------------------
 Center     Atomic      Atomic             Coordinates (Angstroms)
 Number     Number       Type             X           Y           Z
 ---------------------------------------------------------------------
      1          6           0       -1.783505    0.784300   -2.698453
      2          6           0       -2.553489    1.888052   -1.950819
      3          1           0       -2.004714    2.836383   -2.013484
      4          1           0       -3.529451    2.048300   -2.426140
      5          6           0       -2.793307    1.560950   -0.475262
      6          1           0       -3.273727    2.423728    0.003830
      7          6           0       -1.490223    1.207903    0.273474
      8          1           0       -0.868344    2.111683    0.231829
      9          6           0       -0.738380    0.058001   -0.466230
     10          1           0       -1.443211   -0.781297   -0.490129
     11          6           0       -0.467359    0.422509   -1.952685
     12          1           0        0.011596   -0.436645   -2.440799
     13          6           0        0.530368   -0.438420    0.234247
     14          6           0        2.789500   -1.428206    1.660820
     15          6           0        1.596921    0.398427    0.598257
     16          6           0        0.656188   -1.798906    0.568236
     17          6           0        1.763283   -2.292004    1.268123
     18          6           0        2.698782   -0.078666    1.311664
     19          1           0        1.834466   -3.347279    1.516046
     20          1           0        3.492767    0.614594    1.579664
     21          8           0       -0.331513   -2.672887    0.194551
     22          1           0       -0.101803   -3.559214    0.518833
     23          8           0        1.649619    1.723842    0.264962
     24          1           0        1.149128    1.827913   -0.573249
     25          8           0        0.448300    1.531342   -2.019441
     26          1           0        0.847940    1.505514   -2.910399
     27          6           0       -1.499233    1.252440   -4.132183
     28          1           0       -2.434979    1.402948   -4.683524
     29          1           0       -0.935553    0.490674   -4.682942
     30          1           0       -0.935263    2.189999   -4.160693
     31          8           0       -2.611993   -0.376653   -2.838584
     32          1           0       -2.942254   -0.651811   -1.967555
     33          1           0       -3.511680    0.735349   -0.410426
     34          6           0       -1.786238    0.914723    1.746478
     35          6           0       -1.233139    1.660932    2.718869
     36          1           0       -1.421447    1.463153    3.769401
     37          1           0       -0.556156    2.479909    2.491366
     38          6           0       -2.696170   -0.233457    2.091552
     39          1           0       -3.711998   -0.046216    1.731679
     40          1           0       -2.760505   -0.390718    3.173988
     41          1           0       -2.336200   -1.167553    1.652676
     42          6           0        3.989708   -1.945226    2.409737
     43          1           0        4.371522   -1.164899    3.079370
     44          1           0        3.689667   -2.778785    3.056433
     45          6           0        5.093599   -2.398158    1.466438
     46          1           0        5.951057   -2.768102    2.037409
     47          1           0        5.437979   -1.573725    0.832876
     48          1           0        4.749443   -3.204741    0.810188
 ---------------------------------------------------------------------
                    Distance matrix (angstroms):
                    1          2          3          4          5
     1  C    0.000000
     2  C    1.539513   0.000000
     3  H    2.174663   1.097457   0.000000
     4  H    2.172597   1.097320   1.765271   0.000000
     5  C    2.562316   1.530287   2.148194   2.141342   0.000000
     6  H    3.494399   2.150894   2.418726   2.472064   1.097597
     7  C    3.016256   2.557463   2.854264   3.486062   1.543786
     8  H    3.344550   2.766528   2.618770   3.761689   2.123385
     9  C    2.569556   2.974511   3.423011   3.948749   2.545911
    10  H    2.728294   3.239098   3.965287   4.013372   2.703535
    11  C    1.555411   2.549463   2.862507   3.499109   2.981420
    12  H    2.186202   3.496278   3.867922   4.325989   3.964997
    13  C    3.930620   4.438148   4.712034   5.453766   3.943057
    14  C    6.694088   7.251830   7.394032   8.289661   6.683235
    15  C    4.737559   5.093395   5.073124   6.176467   4.666691
    16  C    4.826625   5.499211   5.935619   6.425484   4.927122
    17  C    6.146306   6.816816   7.160105   7.778101   6.216684
    18  C    6.075907   6.488307   6.455772   7.568755   6.003706
    19  H    6.922547   7.660417   8.089163   8.568821   7.033655
    20  H    6.794860   7.116405   6.933207   8.210574   6.680796
    21  O    4.736020   5.508353   6.166609   6.275701   4.943122
    22  H    5.660844   6.463950   7.137041   7.201794   5.869284
    23  O    4.631512   4.754237   4.447832   5.845517   4.507112
    24  H    3.769079   3.951037   3.610818   5.036951   3.952678
    25  O    2.449506   3.023688   2.778569   4.031767   3.590736
    26  H    2.736708   3.554835   3.273118   4.437417   4.380827
    27  C    1.534779   2.504756   2.693190   2.768710   3.891385
    28  H    2.178910   2.777957   3.060879   2.590391   4.226445
    29  H    2.177943   3.469133   3.710993   3.774607   4.722427
    30  H    2.198556   2.755607   2.484360   3.123870   4.174977
    31  O    1.433123   2.433195   3.372415   2.625307   3.061449
    32  H    1.984773   2.569498   3.612283   2.801017   2.673095
    33  H    2.867760   2.149341   3.042217   2.405672   1.096303
    34  C    4.446844   3.899494   4.228217   4.662030   2.523474
    35  C    5.515320   4.858075   4.936818   5.647497   3.556204
    36  H    6.513452   5.846621   5.972246   6.570450   4.461920
    37  H    5.596042   4.906388   4.745426   5.762693   3.827559
    38  C    4.981258   4.567486   5.172364   5.129358   3.133347
    39  H    4.902541   4.317908   5.024982   4.659161   2.880549
    40  H    6.068011   5.612424   6.155913   6.156421   4.138491
    41  H    4.800784   4.729600   5.438945   5.329381   3.490243
    42  C    8.177647   8.747680   8.852218   9.791410   8.162462
    43  H    8.664119   9.087304   9.088663  10.151879   8.449878
    44  H    8.704591   9.264392   9.468904  10.270103   8.563593
    45  C    8.646902   9.408890   9.481367  10.453714   9.035930
    46  H    9.740195  10.483942  10.541076  11.532607  10.075620
    47  H    8.377374   9.143108   9.107387  10.205638   8.904576
    48  H    8.420357   9.321616   9.491414  10.325131   9.014282
                    6          7          8          9         10
     6  H    0.000000
     7  C    2.175276   0.000000
     8  H    2.436231   1.097855   0.000000
     9  C    3.499372   1.560354   2.172967   0.000000
    10  H    3.723838   2.131247   3.036614   1.096257   0.000000
    11  C    3.963400   2.572719   2.790376   1.554307   2.130847
    12  H    4.995127   3.511022   3.796210   2.169346   2.457715
    13  C    4.766143   2.606666   2.908509   1.531934   2.130094
    14  C    7.371956   5.214387   5.287027   4.379394   4.791755
    15  C    5.308333   3.207989   3.024409   2.588948   3.437838
    16  C    5.795983   3.706058   4.210709   2.542251   2.561863
    17  C    7.014844   4.880982   5.233720   3.845624   3.956677
    18  C    6.606305   4.503428   4.322969   3.872166   4.571243
    19  H    7.853977   5.774705   6.225324   4.705835   4.620840
    20  H    7.179252   5.185397   4.803876   4.732661   5.531404
    21  O    5.887995   4.050848   4.814736   2.838999   2.298428
    22  H    6.791312   4.971249   5.729662   3.802607   3.245644
    23  O    4.979695   3.181961   2.547873   3.002034   4.051109
    24  H    4.499962   2.840339   2.190632   2.589736   3.679009
    25  O    4.329372   3.019924   2.671808   2.447735   3.356324
    26  H    5.130691   3.961392   3.631345   3.253562   4.041854
    27  C    4.650521   4.405891   4.492317   3.929986   4.171784
    28  H    4.869987   5.049993   5.207431   4.740559   4.831055
    29  H    5.582974   5.038664   5.175631   4.243436   4.410817
    30  H    4.781872   4.575405   4.393729   4.270039   4.749700
    31  O    4.044669   3.667982   4.319671   3.054082   2.654247
    32  H    3.668130   3.254096   4.095764   2.759505   2.108716
    33  H    1.754667   2.185707   3.048608   2.855365   2.566151
    34  C    2.743454   1.530790   2.137616   2.593849   2.827819
    35  C    3.480990   2.500257   2.553746   3.599865   4.038103
    36  H    4.305017   3.505908   3.638809   4.514599   4.814730
    37  H    3.684587   2.722044   2.310532   3.827037   4.506843
    38  C    3.428234   2.614811   3.507022   3.234214   2.921491
    39  H    3.046009   2.938616   3.872008   3.699199   3.259474
    40  H    4.270177   3.547138   4.300998   4.188260   3.913255
    41  H    4.061398   2.874138   3.863522   2.923145   2.353346
    42  C    8.810995   6.673492   6.693464   5.885484   6.267421
    43  H    8.988160   6.918330   6.804460   6.338600   6.833710
    44  H    9.212676   7.104211   7.257447   6.329622   6.550916
    45  C    9.767393   7.600892   7.576787   6.616638   7.012295
    46  H   10.779016   8.619324   8.577684   7.681382   8.062943
    47  H    9.620851   7.486679   7.328929   6.519019   7.051883
    48  H    9.833674   7.661131   7.756184   6.510832   6.775904
                   11         12         13         14         15
    11  C    0.000000
    12  H    1.098088   0.000000
    13  C    2.553297   2.724885   0.000000
    14  C    5.204776   5.052051   2.849292   0.000000
    15  C    3.281636   3.527954   1.403691   2.426494   0.000000
    16  C    3.542892   3.365344   1.406521   2.425321   2.390428
    17  C    4.766335   4.501874   2.454538   1.397670   2.777556
    18  C    4.575107   4.629266   2.447912   1.396924   1.396663
    19  H    5.616208   5.239395   3.435861   2.148463   3.863816
    20  H    5.310083   5.421049   3.419765   2.161990   2.145722
    21  O    3.769688   3.473265   2.395257   3.666047   3.648945
    22  H    4.700654   4.303803   3.196871   3.768948   4.307539
    23  O    3.330619   3.830400   2.434962   3.630861   1.367694
    24  H    2.547751   3.148007   2.484186   4.276002   1.901677
    25  O    1.439582   2.059424   2.994295   5.271097   3.074926
    26  H    1.954514   2.166097   3.710596   5.768224   3.754634
    27  C    2.550247   2.827789   5.103331   7.690122   5.717741
    28  H    3.505748   3.794687   6.030621   8.692601   6.720304
    29  H    2.770948   2.604653   5.214488   7.602726   5.857729
    30  H    2.866749   3.279304   5.326551   7.800979   5.680606
    31  O    2.454167   2.654252   4.395513   7.108202   5.488859
    32  H    2.698053   2.999247   4.117350   6.827950   5.318881
    33  H    3.426999   4.231957   4.258109   6.976812   5.218118
    34  C    3.957970   4.753071   3.079692   5.141403   3.609810
    35  C    4.893212   5.707133   3.700079   5.181107   3.755017
    36  H    5.893683   6.650521   4.463505   5.526133   4.505590
    37  H    4.897996   5.758027   3.846006   5.211197   3.542904
    38  C    4.664091   5.283511   3.728558   5.630767   4.589100
    39  H    4.931727   5.605993   4.515949   6.647135   5.446739
    40  H    5.674737   6.261988   4.412958   5.845393   5.122919
    41  H    4.361135   4.775240   3.280365   5.132330   4.362744
    42  C    6.671007   6.452046   4.355486   1.506216   3.807834
    43  H    7.159344   7.071886   4.834973   2.141122   4.037118
    44  H    7.253993   7.016651   4.839754   2.140584   4.529558
    45  C    7.111316   6.703789   5.116830   2.507482   4.560854
    46  H    8.203469   7.795334   6.169496   3.454357   5.572842
    47  H    6.827687   6.438597   5.072664   2.778688   4.324137
    48  H    6.928595   6.377967   5.077877   2.778674   4.792299
                   16         17         18         19         20
    16  C    0.000000
    17  C    1.399517   0.000000
    18  C    2.772022   2.403315   0.000000
    19  H    2.164288   1.086341   3.387130   0.000000
    20  H    3.859294   3.396540   1.087586   4.295398   0.000000
    21  O    1.370780   2.384492   4.142537   2.625380   5.229836
    22  H    1.917205   2.376090   4.537188   2.188261   5.609543
    23  O    3.672687   4.140805   2.333530   5.226437   2.521124
    24  H    3.834031   4.554290   3.096671   5.622940   3.405851
    25  O    4.222539   5.211068   4.330480   6.182399   4.802371
    26  H    4.801755   5.720055   4.874531   6.642005   5.286729
    27  C    6.004205   7.236739   7.002188   8.010833   7.612628
    28  H    6.883906   8.167017   8.030751   8.900982   8.659515
    29  H    5.945644   7.102266   7.033338   7.799380   7.671089
    30  H    6.388023   7.539399   6.949807   8.399893   7.418965
    31  O    4.930541   6.298941   6.746680   6.896261   7.600762
    32  H    4.549159   5.941542   6.550043   6.497543   7.456275
    33  H    4.975073   6.309329   6.496003   6.997172   7.282672
    34  C    3.836337   4.807393   4.614248   5.597075   5.290160
    35  C    4.490574   5.168067   4.523984   5.994928   4.972605
    36  H    5.020463   5.522690   5.039242   6.230476   5.446512
    37  H    4.845251   5.444931   4.304953   6.373573   4.550206
    38  C    4.001178   4.980198   5.453228   5.527545   6.267708
    39  H    4.848358   5.936089   6.424607   6.458078   7.236603
    40  H    4.521806   5.264207   5.776629   5.709972   6.531151
    41  H    3.244843   4.268259   5.162656   4.707900   6.095755
    42  C    3.811154   2.525966   2.521170   2.722041   2.736540
    43  H    4.528958   3.369553   2.665097   3.693699   2.487554
    44  H    4.043920   2.673194   3.364033   2.477449   3.706027
    45  C    4.566891   3.337904   3.337536   3.394884   3.413526
    46  H    5.579736   4.284381   4.282180   4.189701   4.206584
    47  H    4.794399   3.769450   3.157157   4.074005   3.021636
    48  H    4.334703   3.155938   3.772139   3.002606   4.093733
                   21         22         23         24         25
    21  O    0.000000
    22  H    0.971340   0.000000
    23  O    4.822972   5.571589   0.000000
    24  H    4.799897   5.637252   0.981794   0.000000
    25  O    4.815123   5.714823   2.588189   1.634193   0.000000
    26  H    5.337682   6.189758   3.282267   2.378429   0.976824
    27  C    5.957548   6.836429   5.428846   4.473365   2.886927
    28  H    6.695716   7.558523   6.424518   5.469989   3.927737
    29  H    5.844905   6.644937   5.717130   4.798300   3.176834
    30  H    6.555937   7.459629   5.146391   4.164798   2.633065
    31  O    4.435446   5.263268   5.674982   4.913033   3.698221
    32  H    3.946570   4.764796   5.631443   4.983224   4.032952
    33  H    4.700588   5.561839   5.298328   4.789921   4.347870
    34  C    4.170809   4.935640   3.828142   3.851158   4.422162
    35  C    5.095792   5.776677   3.786279   4.067077   5.029474
    36  H    5.574436   6.126322   4.666957   5.059596   6.083691
    37  H    5.645983   6.369326   3.223965   3.567205   4.717636
    38  C    3.891148   4.501649   5.104246   5.112410   5.468315
    39  H    4.548609   5.181279   5.833635   5.696982   5.819594
    40  H    4.470497   4.915070   5.690605   5.852294   6.400191
    41  H    2.900160   3.463837   5.115923   5.106376   5.340592
    42  C    4.910142   4.787582   4.851611   5.586026   6.651745
    43  H    5.719680   5.683285   4.865642   5.716850   6.975619
    44  H    4.936748   4.628578   5.676950   6.391448   7.405954
    45  C    5.578980   5.407237   5.504128   6.130160   7.012213
    46  H    6.547968   6.290394   6.466954   7.141247   8.076112
    47  H    5.907847   5.893214   5.054517   5.651776   6.532538
    48  H    5.145677   4.872898   5.847830   6.340645   6.995507
                   26         27         28         29         30
    26  H    0.000000
    27  C    2.658199   0.000000
    28  H    3.732566   1.096472   0.000000
    29  H    2.711578   1.096065   1.755142   0.000000
    30  H    2.282886   1.094483   1.772555   1.777766   0.000000
    31  O    3.939397   2.359148   2.569459   2.639009   3.338728
    32  H    4.461902   3.223986   3.443232   3.564470   4.112632
    33  H    5.084221   4.262487   4.456942   4.995066   4.776864
    34  C    5.382789   5.895343   6.481061   6.499302   6.102880
    35  C    6.003640   6.868375   7.503758   7.499658   6.906302
    36  H    7.054901   7.904776   8.513684   8.521967   7.978162
    37  H    5.665685   6.802019   7.494589   7.454642   6.669157
    38  C    6.372146   6.509640   6.974790   7.036896   6.932857
    39  H    6.689528   6.400602   6.699678   7.010297   6.887014
    40  H    7.323683   7.594136   8.066207   8.114102   7.986811
    41  H    6.172980   6.326253   6.838469   6.697133   6.857918
    42  C    7.076875   9.118676  10.139094   8.972062   9.193801
    43  H    7.444733   9.608110  10.638835   9.547745   9.583100
    44  H    7.876148   9.739182  10.719381   9.590618   9.907861
    45  C    7.240233   9.388123  10.437908   9.083551   9.437318
    46  H    8.293756  10.475468  11.527975  10.159140  10.508122
    47  H    6.675498   8.986875  10.063534   8.678012   8.928581
    48  H    7.158980   9.129044  10.150251   8.726382   9.280558
                   31         32         33         34         35
    31  O    0.000000
    32  H    0.971326   0.000000
    33  H    2.818143   2.161737   0.000000
    34  C    4.834492   4.193381   2.767953   0.000000
    35  C    6.077686   5.498402   3.980068   1.344727   0.000000
    36  H    6.961878   6.300682   4.729665   2.127455   1.085447
    37  H    6.387079   5.948370   4.494331   2.125503   1.086640
    38  C    4.932933   4.088022   2.804200   1.505115   2.474408
    39  H    4.712378   3.826694   2.289015   2.152249   3.167592
    40  H    6.014422   5.151376   3.831491   2.165909   2.597931
    41  H    4.568698   3.706665   3.042890   2.155721   3.217738
    42  C    8.578330   8.299741   8.450422   6.479257   6.354374
    43  H    9.187654   8.900900   8.828051   6.634714   6.287090
    44  H    8.957253   8.587599   8.730845   6.733760   6.637700
    45  C    9.055156   8.911620   9.348386   7.641057   7.620526
    46  H   10.140028   9.980451  10.383134   8.574006   8.467196
    47  H    8.928306   8.883729   9.325986   7.695216   7.650084
    48  H    8.689209   8.567118   9.233654   7.782143   7.944125
                   36         37         38         39         40
    36  H    0.000000
    37  H    1.848214   0.000000
    38  C    2.705288   3.478774   0.000000
    39  H    3.417182   4.113122   1.093835   0.000000
    40  H    2.363140   3.683154   1.095691   1.761896   0.000000
    41  H    3.498273   4.144386   1.093035   1.776643   1.760085
    42  C    6.538067   6.344553   6.908861   7.961299   6.968927
    43  H    6.398538   6.157303   7.196919   8.271095   7.174546
    44  H    6.680258   6.782343   6.941802   8.000410   6.879055
    45  C    7.915755   7.534304   8.109081   9.118143   8.284473
    46  H    8.675087   8.372067   9.011209  10.043743   9.101378
    47  H    8.055900   7.423758   8.339362   9.320043   8.607871
    48  H    8.284084   7.955563   8.118348   9.078624   8.360956
                   41         42         43         44         45
    41  H    0.000000
    42  C    6.418335   0.000000
    43  H    6.857769   1.096859   0.000000
    44  H    6.393566   1.096841   1.752164   0.000000
    45  C    7.533325   1.521031   2.154964   2.154991   0.000000
    46  H    8.449166   2.159316   2.480095   2.480405   1.094578
    47  H    7.827829   2.173015   2.520159   3.074568   1.095303
    48  H    7.420664   2.173047   3.074567   2.519956   1.095301
                   46         47         48
    46  H    0.000000
    47  H    1.772198   0.000000
    48  H    1.772175   1.770539   0.000000
 Stoichiometry    C18H26O4
 Framework group  C1[X(C18H26O4)]
 Deg. of freedom   138
 Full point group                 C1      NOp   1
 Largest Abelian subgroup         C1      NOp   1
 Largest concise Abelian subgroup C1      NOp   1
                         Standard orientation:                         
 ---------------------------------------------------------------------
 Center     Atomic      Atomic             Coordinates (Angstroms)
 Number     Number       Type             X           Y           Z
 ---------------------------------------------------------------------
      1          6           0       -3.044468   -1.253111    0.322791
      2          6           0       -3.690668   -0.117594   -0.491536
      3          1           0       -3.675585   -0.366957   -1.560182
      4          1           0       -4.742931   -0.004024   -0.201788
      5          6           0       -2.997419    1.232700   -0.296883
      6          1           0       -3.462834    1.967941   -0.965858
      7          6           0       -1.479785    1.165443   -0.571729
      8          1           0       -1.380448    0.892160   -1.630377
      9          6           0       -0.825280    0.041798    0.290680
     10          1           0       -1.046851    0.307996    1.330787
     11          6           0       -1.514881   -1.330440    0.051341
     12          1           0       -1.056591   -2.072275    0.718761
     13          6           0        0.698077   -0.062021    0.166480
     14          6           0        3.543205   -0.103914    0.018297
     15          6           0        1.370328   -0.225460   -1.054878
     16          6           0        1.500113    0.032400    1.318055
     17          6           0        2.897951    0.011803    1.252694
     18          6           0        2.764701   -0.230371   -1.134672
     19          1           0        3.494165    0.089184    2.157502
     20          1           0        3.235938   -0.348121   -2.107767
     21          8           0        0.898035    0.143496    2.544512
     22          1           0        1.587888    0.219633    3.224076
     23          8           0        0.719308   -0.414635   -2.242722
     24          1           0       -0.130347   -0.860634   -2.035135
     25          8           0       -1.283910   -1.757855   -1.303785
     26          1           0       -1.419133   -2.725215   -1.314514
     27          6           0       -3.738026   -2.577756   -0.023386
     28          1           0       -4.794169   -2.550575    0.269999
     29          1           0       -3.284942   -3.407709    0.530917
     30          1           0       -3.689733   -2.806865   -1.092530
     31          8           0       -3.292974   -1.051659    1.719753
     32          1           0       -2.996038   -0.164747    1.981839
     33          1           0       -3.189778    1.582714    0.724082
     34          6           0       -0.844278    2.545680   -0.386273
     35          6           0       -0.221412    3.156976   -1.409330
     36          1           0        0.244849    4.130620   -1.296129
     37          1           0       -0.140645    2.689181   -2.386791
     38          6           0       -0.914236    3.203544    0.965649
     39          1           0       -1.949162    3.438486    1.230608
     40          1           0       -0.352741    4.144108    0.990164
     41          1           0       -0.492647    2.558151    1.740540
     42          6           0        5.046705   -0.133004   -0.067303
     43          1           0        5.371322    0.311983   -1.015833
     44          1           0        5.473164    0.495928    0.723670
     45          6           0        5.593118   -1.547624    0.050254
     46          1           0        6.685696   -1.537864   -0.015154
     47          1           0        5.210903   -2.189091   -0.751070
     48          1           0        5.314501   -2.003061    1.006619
 ---------------------------------------------------------------------
 Rotational constants (GHZ):      0.4494332      0.1890069      0.1720487
 Standard basis: 6-31+G(d,p) (6D, 7F)
 There are   548 symmetry adapted basis functions of A   symmetry.
 Integral buffers will be    131072 words long.
 Raffenetti 2 integral format.
 Two-electron integral symmetry is turned on.
   548 basis functions,   886 primitive gaussians,   548 cartesian basis functions
    83 alpha electrons       83 beta electrons
       nuclear repulsion energy      1982.7836883313 Hartrees.
 NAtoms=   48 NActive=   48 NUniq=   48 SFac= 1.00D+00 NAtFMM=   60 NAOKFM=F Big=F
 ------------------------------------------------------------------------------
 Polarizable Continuum Model (PCM)
 =================================
 Model                : PCM.
 Atomic radii         : UFF (Universal Force Field).
 Polarization charges : Total charges.
 Charge compensation  : None.
 Solution method      : Matrix inversion.
 Cavity type          : Scaled VdW (van der Waals Surface) (Alpha=1.100).
 Cavity algorithm     : GePol (No added spheres)
                        Default sphere list used, NSphG=   48.
                        Lebedev-Laikov grids with approx.  5.0 points / Ang**2.
                        Smoothing algorithm: Karplus/York (Gamma=1.0000).
                        Polarization charges: spherical gaussians, with
                                              point-specific exponents (IZeta= 3).
                        Self-potential: point-specific (ISelfS= 7).
                        Self-field    : sphere-specific E.n sum rule (ISelfD= 2).
 Solvent              : Water, Eps=  78.355300 Eps(inf)=   1.777849
 ------------------------------------------------------------------------------
 One-electron integrals computed using PRISM.
 NBasis=   548 RedAO= T  NBF=   548
 NBsUse=   546 1.00D-06 NBFU=   546
 Harris functional with IExCor=  908 diagonalized for initial guess.
 ExpMin= 4.38D-02 ExpMax= 5.48D+03 ExpMxC= 8.25D+02 IAcc=2 IRadAn=         4 AccDes= 0.00D+00
 HarFok:  IExCor=  908 AccDes= 0.00D+00 IRadAn=         4 IDoV= 1
 ScaDFX=  1.000000  1.000000  1.000000  1.000000
 FoFCou: FMM=F IPFlag=           0 FMFlag=      100000 FMFlg1=           0
         NFxFlg=           0 DoJE=T BraDBF=F KetDBF=T FulRan=T
         Omega=  0.000000  0.000000  1.000000  0.000000  0.000000 ICntrl=     500 IOpCl=  0
         NMat0=    1 NMatS0=    1 NMatT0=    0 NMatD0=    1 NMtDS0=    0 NMtDT0=    0
         I1Cent=           4 NGrid=           0.
 Petite list used in FoFCou.
 Initial guess orbital symmetries:
       Occupied  (A) (A) (A) (A) (A) (A) (A) (A) (A) (A) (A) (A)
                 (A) (A) (A) (A) (A) (A) (A) (A) (A) (A) (A) (A)
                 (A) (A) (A) (A) (A) (A) (A) (A) (A) (A) (A) (A)
                 (A) (A) (A) (A) (A) (A) (A) (A) (A) (A) (A) (A)
                 (A) (A) (A) (A) (A) (A) (A) (A) (A) (A) (A) (A)
                 (A) (A) (A) (A) (A) (A) (A) (A) (A) (A) (A) (A)
                 (A) (A) (A) (A) (A) (A) (A) (A) (A) (A) (A)
       Virtual   (A) (A) (A) (A) (A) (A) (A) (A) (A) (A) (A) (A)
                 (A) (A) (A) (A) (A) (A) (A) (A) (A) (A) (A) (A)
                 (A) (A) (A) (A) (A) (A) (A) (A) (A) (A) (A) (A)
                 (A) (A) (A) (A) (A) (A) (A) (A) (A) (A) (A) (A)
                 (A) (A) (A) (A) (A) (A) (A) (A) (A) (A) (A) (A)
                 (A) (A) (A) (A) (A) (A) (A) (A) (A) (A) (A) (A)
                 (A) (A) (A) (A) (A) (A) (A) (A) (A) (A) (A) (A)
                 (A) (A) (A) (A) (A) (A) (A) (A) (A) (A) (A) (A)
                 (A) (A) (A) (A) (A) (A) (A) (A) (A) (A) (A) (A)
                 (A) (A) (A) (A) (A) (A) (A) (A) (A) (A) (A) (A)
                 (A) (A) (A) (A) (A) (A) (A) (A) (A) (A) (A) (A)
                 (A) (A) (A) (A) (A) (A) (A) (A) (A) (A) (A) (A)
                 (A) (A) (A) (A) (A) (A) (A) (A) (A) (A) (A) (A)
                 (A) (A) (A) (A) (A) (A) (A) (A) (A) (A) (A) (A)
                 (A) (A) (A) (A) (A) (A) (A) (A) (A) (A) (A) (A)
                 (A) (A) (A) (A) (A) (A) (A) (A) (A) (A) (A) (A)
                 (A) (A) (A) (A) (A) (A) (A) (A) (A) (A) (A) (A)
                 (A) (A) (A) (A) (A) (A) (A) (A) (A) (A) (A) (A)
                 (A) (A) (A) (A) (A) (A) (A) (A) (A) (A) (A) (A)
                 (A) (A) (A) (A) (A) (A) (A) (A) (A) (A) (A) (A)
                 (A) (A) (A) (A) (A) (A) (A) (A) (A) (A) (A) (A)
                 (A) (A) (A) (A) (A) (A) (A) (A) (A) (A) (A) (A)
                 (A) (A) (A) (A) (A) (A) (A) (A) (A) (A) (A) (A)
                 (A) (A) (A) (A) (A) (A) (A) (A) (A) (A) (A) (A)
                 (A) (A) (A) (A) (A) (A) (A) (A) (A) (A) (A) (A)
                 (A) (A) (A) (A) (A) (A) (A) (A) (A) (A) (A) (A)
                 (A) (A) (A) (A) (A) (A) (A) (A) (A) (A) (A) (A)
                 (A) (A) (A) (A) (A) (A) (A) (A) (A) (A) (A) (A)
                 (A) (A) (A) (A) (A) (A) (A) (A) (A) (A) (A) (A)
                 (A) (A) (A) (A) (A) (A) (A) (A) (A) (A) (A) (A)
                 (A) (A) (A) (A) (A) (A) (A) (A) (A) (A) (A) (A)
                 (A) (A) (A) (A) (A) (A) (A) (A) (A) (A) (A) (A)
                 (A) (A) (A) (A) (A) (A) (A) (A) (A) (A) (A) (A)
                 (A) (A) (A) (A) (A) (A) (A) (A) (A) (A) (A) (A)
                 (A) (A) (A) (A) (A) (A) (A) (A) (A) (A) (A) (A)
                 (A) (A) (A) (A) (A) (A) (A) (A) (A) (A) (A) (A)
                 (A) (A) (A) (A) (A) (A) (A) (A) (A) (A) (A) (A)
                 (A) (A) (A) (A) (A) (A) (A) (A) (A) (A) (A) (A)
                 (A) (A) (A) (A) (A) (A) (A)
 The electronic state of the initial guess is 1-A.
 Requested convergence on RMS density matrix=1.00D-08 within 128 cycles.
 Requested convergence on MAX density matrix=1.00D-06.
 Requested convergence on             energy=1.00D-06.
 No special actions if energy rises.
 CoulSu:  requested number of processors reduced to:   2 ShMem   1 Linda.
 CoulSu:  requested number of processors reduced to:   2 ShMem   1 Linda.
 Error on total polarization charges =  0.01934
 SCF Done:  E(RmPW1PW91) =  -1002.31599901     A.U. after   14 cycles
             Convg  =    0.5021D-08             -V/T =  2.0094
 Range of M.O.s used for correlation:     1   546
 NBasis=   548 NAE=    83 NBE=    83 NFC=     0 NFV=     0
 NROrb=    546 NOA=    83 NOB=    83 NVA=   463 NVB=   463

 **** Warning!!: The largest alpha MO coefficient is  0.14658921D+03

 NEqPCM:  Using equilibrium solvation (IEInf=0, Eps=  78.3553, EpsInf=   1.7778)
          Differentiating once with respect to magnetic field using GIAOs.
          Electric field/nuclear overlap derivatives assumed to be zero.
 FoFCou: FMM=F IPFlag=           0 FMFlag=    10101102 FMFlg1=           0
         NFxFlg=    40000000 DoJE=F BraDBF=F KetDBF=T FulRan=T
         Omega=  0.000000  0.000000  1.000000  0.000000  0.000000 ICntrl=    6100 IOpCl=  0
         NMat0=    1 NMatS0=    1 NMatT0=    0 NMatD0=    1 NMtDS0=    0 NMtDT0=    0
         I1Cent=           7 NGrid=        3066.
 Symmetry not used in FoFCou.
          There are     3 degrees of freedom in the 1st order CPHF.  IDoFFX=0.
      3 vectors produced by pass  0 Test12= 1.28D-12 3.33D-08 XBig12= 7.94D+02 3.98D+00.
 AX will form     3 AO Fock derivatives at one time.
      3 vectors produced by pass  1 Test12= 1.28D-12 3.33D-08 XBig12= 1.67D+00 4.54D-01.
      3 vectors produced by pass  2 Test12= 1.28D-12 3.33D-08 XBig12= 7.33D-03 4.06D-02.
      3 vectors produced by pass  3 Test12= 1.28D-12 3.33D-08 XBig12= 3.84D-05 1.73D-03.
      3 vectors produced by pass  4 Test12= 1.28D-12 3.33D-08 XBig12= 1.23D-07 1.05D-04.
      3 vectors produced by pass  5 Test12= 1.28D-12 3.33D-08 XBig12= 3.80D-10 4.61D-06.
      3 vectors produced by pass  6 Test12= 1.28D-12 3.33D-08 XBig12= 1.86D-12 2.82D-07.
 Inverted reduced A of dimension    21 with in-core refinement.
 Calculating GIAO nuclear magnetic shielding tensors.
 SCF GIAO Magnetic shielding tensor (ppm):
      1  C    Isotropic =   121.7527   Anisotropy =    51.9937
   XX=   108.9248   YX=    -1.4654   ZX=   -16.9621
   XY=     1.6972   YY=   105.6238   ZY=     9.1430
   XZ=    -9.8623   YZ=    10.6613   ZZ=   150.7095
   Eigenvalues:   101.5170   107.3260   156.4151
      2  C    Isotropic =   160.9713   Anisotropy =    23.4426
   XX=   156.3192   YX=    -5.0107   ZX=     4.6882
   XY=     1.2551   YY=   170.4088   ZY=   -13.6669
   XZ=     0.3397   YZ=    -7.8637   ZZ=   156.1860
   Eigenvalues:   150.0986   156.2157   176.5998
      3  H    Isotropic =    29.4404   Anisotropy =     6.8341
   XX=    27.6540   YX=     1.2242   ZX=     2.9998
   XY=     0.4291   YY=    28.1365   ZY=     0.0700
   XZ=     2.9704   YZ=     0.3354   ZZ=    32.5306
   Eigenvalues:    26.0277    28.2970    33.9965
      4  H    Isotropic =    29.9082   Anisotropy =     9.4707
   XX=    36.1888   YX=     0.5449   ZX=    -0.1441
   XY=     0.4437   YY=    28.8718   ZY=    -0.3925
   XZ=     0.2232   YZ=    -0.4141   ZZ=    24.6642
   Eigenvalues:    24.6252    28.8775    36.2220
      5  C    Isotropic =   167.3523   Anisotropy =    29.1349
   XX=   186.7402   YX=     0.8672   ZX=     1.5378
   XY=     0.2006   YY=   161.3662   ZY=    -1.4216
   XZ=     0.3990   YZ=    -6.9290   ZZ=   153.9504
   Eigenvalues:   152.0392   163.2420   186.7755
      6  H    Isotropic =    30.0654   Anisotropy =    10.0535
   XX=    31.4077   YX=    -2.7145   ZX=     3.3802
   XY=    -2.9371   YY=    32.0674   ZY=    -3.6029
   XZ=     3.1309   YZ=    -3.1441   ZZ=    26.7210
   Eigenvalues:    24.5299    28.8985    36.7677
      7  C    Isotropic =   152.6728   Anisotropy =    31.9142
   XX=   157.0603   YX=    14.9968   ZX=     2.6943
   XY=    12.2468   YY=   161.4682   ZY=     4.8963
   XZ=     3.0971   YZ=     4.6785   ZZ=   139.4899
   Eigenvalues:   138.4921   145.5774   173.9490
      8  H    Isotropic =    28.2384   Anisotropy =     4.1975
   XX=    27.5420   YX=    -0.1896   ZX=    -1.9691
   XY=    -1.7154   YY=    27.2521   ZY=    -0.4015
   XZ=    -1.9670   YZ=    -0.9899   ZZ=    29.9212
   Eigenvalues:    25.5997    28.0788    31.0367
      9  C    Isotropic =   157.1027   Anisotropy =    18.7712
   XX=   161.3025   YX=    -1.7697   ZX=     1.9302
   XY=    -8.5463   YY=   165.6674   ZY=     0.2609
   XZ=    -0.1826   YZ=    -7.8660   ZZ=   144.3382
   Eigenvalues:   143.6805   158.0107   169.6168
     10  H    Isotropic =    27.8602   Anisotropy =     6.8504
   XX=    29.6228   YX=     1.0055   ZX=     2.2332
   XY=     1.2257   YY=    23.8924   ZY=     1.5731
   XZ=     2.1003   YZ=     1.4203   ZZ=    30.0655
   Eigenvalues:    23.4807    27.6728    32.4272
     11  C    Isotropic =   113.3913   Anisotropy =    37.4325
   XX=   114.7646   YX=     5.8331   ZX=   -17.0783
   XY=    12.3230   YY=    93.3551   ZY=     6.8117
   XZ=    -6.9449   YZ=     7.8081   ZZ=   132.0542
   Eigenvalues:    87.1705   114.6571   138.3463
     12  H    Isotropic =    27.5812   Anisotropy =     3.3683
   XX=    26.3642   YX=    -0.1601   ZX=     0.4377
   XY=     1.8674   YY=    27.9330   ZY=    -0.8540
   XZ=     1.1031   YZ=    -2.3790   ZZ=    28.4464
   Eigenvalues:    25.3052    27.6117    29.8268
     13  C    Isotropic =    87.9213   Anisotropy =   119.9298
   XX=    45.2642   YX=     5.4029   ZX=     0.9180
   XY=    -1.1491   YY=   166.5552   ZY=   -10.7291
   XZ=     0.0363   YZ=   -13.6729   ZZ=    51.9444
   Eigenvalues:    45.1413    50.7480   167.8745
     14  C    Isotropic =    49.3486   Anisotropy =   189.6545
   XX=   -32.6797   YX=    -2.3135   ZX=     4.7939
   XY=    -2.3212   YY=   173.9915   ZY=   -18.0625
   XZ=     4.4603   YZ=   -16.3978   ZZ=     6.7341
   Eigenvalues:   -33.2161     5.4771   175.7850
     15  C    Isotropic =    41.1011   Anisotropy =   130.0703
   XX=    15.5303   YX=   -10.0823   ZX=   -29.5258
   XY=    -6.4883   YY=   124.6384   ZY=   -18.0383
   XZ=   -29.3579   YZ=   -23.7920   ZZ=   -16.8654
   Eigenvalues:   -37.3230    32.8117   127.8147
     16  C    Isotropic =    44.8956   Anisotropy =   124.3505
   XX=    30.9890   YX=     2.8913   ZX=    29.2117
   XY=     4.6417   YY=   126.3719   ZY=   -15.8257
   XZ=    20.5409   YZ=   -13.2433   ZZ=   -22.6741
   Eigenvalues:   -33.8191    40.7100   127.7959
     17  C    Isotropic =    92.0245   Anisotropy =    96.9619
   XX=    75.9192   YX=    -0.7426   ZX=   -32.5622
   XY=     2.9606   YY=   155.4293   ZY=   -12.2913
   XZ=   -34.8278   YZ=    -8.6490   ZZ=    44.7248
   Eigenvalues:    22.6803    96.7274   156.6657
     18  C    Isotropic =    87.5285   Anisotropy =   108.9798
   XX=    75.4205   YX=     3.0721   ZX=    28.3534
   XY=    16.1036   YY=   157.4284   ZY=   -19.2309
   XZ=    28.6188   YZ=   -15.6191   ZZ=    29.7367
   Eigenvalues:    13.3286    89.0752   160.1818
     19  H    Isotropic =    25.2924   Anisotropy =     7.0279
   XX=    28.7483   YX=    -0.9770   ZX=    -2.0661
   XY=    -1.1530   YY=    21.4932   ZY=     1.0370
   XZ=    -2.0027   YZ=     0.8687   ZZ=    25.6356
   Eigenvalues:    21.2278    24.6717    29.9776
     20  H    Isotropic =    24.9739   Anisotropy =     7.7806
   XX=    29.3609   YX=    -0.4726   ZX=     1.9945
   XY=    -0.8512   YY=    21.0055   ZY=    -0.7824
   XZ=     2.0800   YZ=     0.3587   ZZ=    24.5552
   Eigenvalues:    20.9525    23.8081    30.1609
     21  O    Isotropic =   227.5743   Anisotropy =    40.2028
   XX=   199.1761   YX=    -2.8954   ZX=   -16.9871
   XY=    -5.9623   YY=   241.8445   ZY=     4.8822
   XZ=   -34.7842   YZ=    -3.9316   ZZ=   241.7023
   Eigenvalues:   186.6779   241.6689   254.3762
     22  H    Isotropic =    26.6103   Anisotropy =    15.5049
   XX=    29.2956   YX=     0.0590   ZX=     4.9661
   XY=     0.3663   YY=    18.0139   ZY=     1.1653
   XZ=     6.5317   YZ=     1.3480   ZZ=    32.5214
   Eigenvalues:    17.8973    24.9867    36.9469
     23  O    Isotropic =   217.9452   Anisotropy =    77.4490
   XX=   178.1748   YX=    -7.9389   ZX=    20.5265
   XY=    -9.9267   YY=   256.0905   ZY=   -48.8930
   XZ=    28.7285   YZ=     6.9260   ZZ=   219.5702
   Eigenvalues:   166.6953   217.5623   269.5779
     24  H    Isotropic =    21.7127   Anisotropy =    28.2634
   XX=    31.4696   YX=    10.9618   ZX=    -7.7516
   XY=    14.4766   YY=    16.3247   ZY=     0.0463
   XZ=    -6.3489   YZ=    -1.6569   ZZ=    17.3440
   Eigenvalues:     8.1064    16.4768    40.5550
     25  O    Isotropic =   285.6494   Anisotropy =    42.4308
   XX=   279.2357   YX=    17.0199   ZX=     2.2933
   XY=    21.8167   YY=   299.9343   ZY=    13.9553
   XZ=   -10.6918   YZ=    11.8913   ZZ=   277.7781
   Eigenvalues:   260.7742   282.2374   313.9365
     26  H    Isotropic =    28.5015   Anisotropy =    18.8108
   XX=    22.5383   YX=     2.4968   ZX=    -3.3819
   XY=     3.3499   YY=    39.7594   ZY=     4.0005
   XZ=    -2.3587   YZ=     4.4622   ZZ=    23.2066
   Eigenvalues:    18.7803    25.6820    41.0420
     27  C    Isotropic =   170.7859   Anisotropy =    42.0522
   XX=   161.6250   YX=    17.4363   ZX=     4.0097
   XY=    14.5395   YY=   191.1067   ZY=     4.1362
   XZ=     3.6068   YZ=     4.0207   ZZ=   159.6259
   Eigenvalues:   153.9417   159.5952   198.8207
     28  H    Isotropic =    30.2121   Anisotropy =    10.1098
   XX=    35.2081   YX=     2.7894   ZX=    -1.3913
   XY=     4.0905   YY=    29.4022   ZY=    -0.4485
   XZ=    -1.1234   YZ=    -0.1251   ZZ=    26.0261
   Eigenvalues:    25.8439    27.8405    36.9520
     29  H    Isotropic =    30.5167   Anisotropy =     9.9895
   XX=    28.0819   YX=     0.8049   ZX=     0.0683
   XY=    -0.0151   YY=    36.2625   ZY=    -3.3845
   XZ=     0.3395   YZ=    -2.6120   ZZ=    27.2057
   Eigenvalues:    26.2507    28.1231    37.1764
     30  H    Isotropic =    30.2040   Anisotropy =     8.6095
   XX=    28.5289   YX=     2.7736   ZX=     0.7558
   XY=     3.0712   YY=    30.0928   ZY=     4.3985
   XZ=     0.7129   YZ=     3.5633   ZZ=    31.9903
   Eigenvalues:    25.5387    29.1296    35.9437
     31  O    Isotropic =   273.2362   Anisotropy =    38.9015
   XX=   274.4674   YX=     6.4668   ZX=   -16.0624
   XY=     4.9805   YY=   254.9685   ZY=     1.1410
   XZ=   -13.4559   YZ=     9.3991   ZZ=   290.2726
   Eigenvalues:   250.9601   269.5779   299.1705
     32  H    Isotropic =    29.2203   Anisotropy =    14.6746
   XX=    23.2066   YX=     5.1672   ZX=    -0.4454
   XY=     5.2011   YY=    34.1803   ZY=     5.1202
   XZ=    -0.7178   YZ=     5.6892   ZZ=    30.2740
   Eigenvalues:    20.3815    28.2760    39.0033
     33  H    Isotropic =    29.8347   Anisotropy =     6.5202
   XX=    29.4928   YX=     0.2638   ZX=    -2.7374
   XY=     0.1204   YY=    31.3493   ZY=     4.0562
   XZ=    -1.8315   YZ=     3.1866   ZZ=    28.6620
   Eigenvalues:    25.1931    30.1295    34.1815
     34  C    Isotropic =    44.8695   Anisotropy =   180.6995
   XX=   128.2331   YX=   -64.6999   ZX=    16.2960
   XY=   -61.0234   YY=     0.8411   ZY=   -67.8114
   XZ=    15.4671   YZ=   -66.7643   ZZ=     5.5344
   Eigenvalues:   -70.7260    39.9988   165.3359
     35  C    Isotropic =    86.2036   Anisotropy =    99.1376
   XX=   135.7187   YX=   -33.3164   ZX=    -3.9894
   XY=   -35.2578   YY=    47.9534   ZY=   -61.1662
   XZ=    -5.4243   YZ=   -59.1171   ZZ=    74.9386
   Eigenvalues:    -6.5043   112.8197   152.2953
     36  H    Isotropic =    26.7688   Anisotropy =     6.7814
   XX=    25.9345   YX=     1.7360   ZX=    -1.3447
   XY=     0.0627   YY=    27.9153   ZY=    -2.3052
   XZ=    -2.7238   YZ=    -4.2471   ZZ=    26.4566
   Eigenvalues:    23.3230    25.6937    31.2897
     37  H    Isotropic =    26.5310   Anisotropy =     7.5049
   XX=    25.6964   YX=    -0.1521   ZX=    -2.8900
   XY=    -0.4510   YY=    26.3842   ZY=    -5.7349
   XZ=    -1.5271   YZ=    -2.5829   ZZ=    27.5123
   Eigenvalues:    21.9483    26.1104    31.5343
     38  C    Isotropic =   178.0930   Anisotropy =    27.8388
   XX=   168.3724   YX=     1.8873   ZX=    -2.4569
   XY=     0.2539   YY=   175.3969   ZY=    12.8081
   XZ=    -1.5473   YZ=     9.9094   ZZ=   190.5097
   Eigenvalues:   166.8616   170.7652   196.6522
     39  H    Isotropic =    29.7917   Anisotropy =     8.3469
   XX=    32.1561   YX=    -1.1567   ZX=    -2.5484
   XY=    -2.4179   YY=    30.0439   ZY=     4.0889
   XZ=    -2.9258   YZ=     2.8926   ZZ=    27.1751
   Eigenvalues:    24.5807    29.4381    35.3563
     40  H    Isotropic =    30.1243   Anisotropy =     8.7471
   XX=    27.8179   YX=     3.0935   ZX=    -0.3187
   XY=     2.7176   YY=    34.4761   ZY=     1.2110
   XZ=     0.4946   YZ=     2.4584   ZZ=    28.0788
   Eigenvalues:    26.4785    27.9387    35.9557
     41  H    Isotropic =    29.8846   Anisotropy =     6.2346
   XX=    26.5008   YX=    -1.2124   ZX=     3.8130
   XY=    -2.6931   YY=    31.5534   ZY=     0.7666
   XZ=     3.2341   YZ=    -1.4515   ZZ=    31.5996
   Eigenvalues:    24.3456    31.2673    34.0410
     42  C    Isotropic =   164.7928   Anisotropy =    27.2294
   XX=   182.8138   YX=     5.3409   ZX=    -1.6041
   XY=    -8.7114   YY=   153.5159   ZY=     0.3341
   XZ=    -0.2657   YZ=    -0.1803   ZZ=   158.0487
   Eigenvalues:   153.4191   158.0135   182.9457
     43  H    Isotropic =    29.1483   Anisotropy =     7.1613
   XX=    30.2377   YX=     0.5013   ZX=    -2.5572
   XY=     1.6974   YY=    27.1712   ZY=    -4.0816
   XZ=    -1.1761   YZ=    -3.4972   ZZ=    30.0358
   Eigenvalues:    24.5477    28.9747    33.9225
     44  H    Isotropic =    29.1983   Anisotropy =     7.3139
   XX=    30.7140   YX=     1.4974   ZX=     2.2608
   XY=     2.2510   YY=    28.8374   ZY=     4.1463
   XZ=     0.7389   YZ=     3.6616   ZZ=    28.0436
   Eigenvalues:    24.5127    29.0080    34.0743
     45  C    Isotropic =   178.4737   Anisotropy =    31.8816
   XX=   180.1872   YX=    -6.9967   ZX=    -0.1157
   XY=   -21.1548   YY=   189.4173   ZY=    -1.6179
   XZ=     1.2836   YZ=    -2.3651   ZZ=   165.8165
   Eigenvalues:   165.5940   170.0989   199.7281
     46  H    Isotropic =    30.2339   Anisotropy =    12.0780
   XX=    37.1755   YX=    -2.2823   ZX=    -0.3810
   XY=    -4.5952   YY=    27.5754   ZY=     0.2044
   XZ=    -0.1257   YZ=    -0.0280   ZZ=    25.9509
   Eigenvalues:    25.9450    26.4708    38.2860
     47  H    Isotropic =    30.5831   Anisotropy =     7.3772
   XX=    29.0507   YX=    -1.1234   ZX=     1.2411
   XY=    -1.8885   YY=    32.2938   ZY=     4.7608
   XZ=     1.3080   YZ=     3.2735   ZZ=    30.4049
   Eigenvalues:    25.9928    30.2553    35.5013
     48  H    Isotropic =    30.6032   Anisotropy =     7.4616
   XX=    28.7803   YX=    -1.7238   ZX=    -0.5845
   XY=    -2.6844   YY=    30.6688   ZY=    -4.5314
   XZ=    -0.3712   YZ=    -3.0865   ZZ=    32.3605
   Eigenvalues:    26.0559    30.1761    35.5776
 End of Minotr Frequency-dependent properties file   721 does not exist.
 End of Minotr Frequency-dependent properties file   722 does not exist.

 **********************************************************************

            Population analysis using the SCF density.

 **********************************************************************

 Orbital symmetries:
       Occupied  (A) (A) (A) (A) (A) (A) (A) (A) (A) (A) (A) (A)
                 (A) (A) (A) (A) (A) (A) (A) (A) (A) (A) (A) (A)
                 (A) (A) (A) (A) (A) (A) (A) (A) (A) (A) (A) (A)
                 (A) (A) (A) (A) (A) (A) (A) (A) (A) (A) (A) (A)
                 (A) (A) (A) (A) (A) (A) (A) (A) (A) (A) (A) (A)
                 (A) (A) (A) (A) (A) (A) (A) (A) (A) (A) (A) (A)
                 (A) (A) (A) (A) (A) (A) (A) (A) (A) (A) (A)
       Virtual   (A) (A) (A) (A) (A) (A) (A) (A) (A) (A) (A) (A)
                 (A) (A) (A) (A) (A) (A) (A) (A) (A) (A) (A) (A)
                 (A) (A) (A) (A) (A) (A) (A) (A) (A) (A) (A) (A)
                 (A) (A) (A) (A) (A) (A) (A) (A) (A) (A) (A) (A)
                 (A) (A) (A) (A) (A) (A) (A) (A) (A) (A) (A) (A)
                 (A) (A) (A) (A) (A) (A) (A) (A) (A) (A) (A) (A)
                 (A) (A) (A) (A) (A) (A) (A) (A) (A) (A) (A) (A)
                 (A) (A) (A) (A) (A) (A) (A) (A) (A) (A) (A) (A)
                 (A) (A) (A) (A) (A) (A) (A) (A) (A) (A) (A) (A)
                 (A) (A) (A) (A) (A) (A) (A) (A) (A) (A) (A) (A)
                 (A) (A) (A) (A) (A) (A) (A) (A) (A) (A) (A) (A)
                 (A) (A) (A) (A) (A) (A) (A) (A) (A) (A) (A) (A)
                 (A) (A) (A) (A) (A) (A) (A) (A) (A) (A) (A) (A)
                 (A) (A) (A) (A) (A) (A) (A) (A) (A) (A) (A) (A)
                 (A) (A) (A) (A) (A) (A) (A) (A) (A) (A) (A) (A)
                 (A) (A) (A) (A) (A) (A) (A) (A) (A) (A) (A) (A)
                 (A) (A) (A) (A) (A) (A) (A) (A) (A) (A) (A) (A)
                 (A) (A) (A) (A) (A) (A) (A) (A) (A) (A) (A) (A)
                 (A) (A) (A) (A) (A) (A) (A) (A) (A) (A) (A) (A)
                 (A) (A) (A) (A) (A) (A) (A) (A) (A) (A) (A) (A)
                 (A) (A) (A) (A) (A) (A) (A) (A) (A) (A) (A) (A)
                 (A) (A) (A) (A) (A) (A) (A) (A) (A) (A) (A) (A)
                 (A) (A) (A) (A) (A) (A) (A) (A) (A) (A) (A) (A)
                 (A) (A) (A) (A) (A) (A) (A) (A) (A) (A) (A) (A)
                 (A) (A) (A) (A) (A) (A) (A) (A) (A) (A) (A) (A)
                 (A) (A) (A) (A) (A) (A) (A) (A) (A) (A) (A) (A)
                 (A) (A) (A) (A) (A) (A) (A) (A) (A) (A) (A) (A)
                 (A) (A) (A) (A) (A) (A) (A) (A) (A) (A) (A) (A)
                 (A) (A) (A) (A) (A) (A) (A) (A) (A) (A) (A) (A)
                 (A) (A) (A) (A) (A) (A) (A) (A) (A) (A) (A) (A)
                 (A) (A) (A) (A) (A) (A) (A) (A) (A) (A) (A) (A)
                 (A) (A) (A) (A) (A) (A) (A) (A) (A) (A) (A) (A)
                 (A) (A) (A) (A) (A) (A) (A) (A) (A) (A) (A) (A)
                 (A) (A) (A) (A) (A) (A) (A) (A) (A) (A) (A) (A)
                 (A) (A) (A) (A) (A) (A) (A) (A) (A) (A) (A) (A)
                 (A) (A) (A) (A) (A) (A) (A) (A) (A) (A) (A) (A)
                 (A) (A) (A) (A) (A) (A) (A) (A) (A) (A) (A) (A)
                 (A) (A) (A) (A) (A) (A) (A) (A) (A) (A) (A) (A)
                 (A) (A) (A) (A) (A) (A) (A)
 The electronic state is 1-A.
 Alpha  occ. eigenvalues --  -19.28392 -19.28101 -19.25872 -19.25730 -10.32151
 Alpha  occ. eigenvalues --  -10.31675 -10.31649 -10.31423 -10.27473 -10.26547
 Alpha  occ. eigenvalues --  -10.26529 -10.26299 -10.26158 -10.24958 -10.24888
 Alpha  occ. eigenvalues --  -10.24642 -10.24571 -10.24131 -10.24060 -10.23995
 Alpha  occ. eigenvalues --  -10.23687 -10.23613  -1.09937  -1.09229  -1.07327
 Alpha  occ. eigenvalues --   -1.06279  -0.88726  -0.86902  -0.82262  -0.82072
 Alpha  occ. eigenvalues --   -0.78765  -0.77588  -0.75863  -0.74049  -0.71200
 Alpha  occ. eigenvalues --   -0.70284  -0.67055  -0.64543  -0.63550  -0.62586
 Alpha  occ. eigenvalues --   -0.61043  -0.59322  -0.56656  -0.55579  -0.55056
 Alpha  occ. eigenvalues --   -0.53100  -0.51570  -0.51120  -0.49553  -0.48797
 Alpha  occ. eigenvalues --   -0.47511  -0.46316  -0.46035  -0.45687  -0.44869
 Alpha  occ. eigenvalues --   -0.43756  -0.43361  -0.43072  -0.42266  -0.41993
 Alpha  occ. eigenvalues --   -0.41448  -0.40761  -0.40694  -0.40244  -0.39672
 Alpha  occ. eigenvalues --   -0.39107  -0.38798  -0.38005  -0.37598  -0.37073
 Alpha  occ. eigenvalues --   -0.36620  -0.35768  -0.35210  -0.34847  -0.34407
 Alpha  occ. eigenvalues --   -0.33796  -0.33163  -0.31695  -0.31453  -0.28613
 Alpha  occ. eigenvalues --   -0.26052  -0.24185  -0.23104
 Alpha virt. eigenvalues --   -0.00712  -0.00163   0.00474   0.00762   0.01135
 Alpha virt. eigenvalues --    0.01500   0.01982   0.02697   0.03264   0.03396
 Alpha virt. eigenvalues --    0.03772   0.04144   0.04444   0.04592   0.05305
 Alpha virt. eigenvalues --    0.05785   0.06321   0.06513   0.06746   0.07215
 Alpha virt. eigenvalues --    0.07319   0.08198   0.08317   0.08723   0.09252
 Alpha virt. eigenvalues --    0.09616   0.09880   0.10288   0.10380   0.10980
 Alpha virt. eigenvalues --    0.11092   0.11569   0.12061   0.12631   0.12782
 Alpha virt. eigenvalues --    0.12890   0.13578   0.13961   0.14339   0.14588
 Alpha virt. eigenvalues --    0.14740   0.15378   0.15479   0.15975   0.16170
 Alpha virt. eigenvalues --    0.16374   0.16895   0.17025   0.17416   0.17763
 Alpha virt. eigenvalues --    0.18151   0.18239   0.18564   0.18884   0.18965
 Alpha virt. eigenvalues --    0.19355   0.20012   0.20193   0.20505   0.20924
 Alpha virt. eigenvalues --    0.21261   0.21553   0.21675   0.21883   0.22139
 Alpha virt. eigenvalues --    0.22298   0.22808   0.22895   0.23364   0.23603
 Alpha virt. eigenvalues --    0.23984   0.24060   0.24289   0.24465   0.24641
 Alpha virt. eigenvalues --    0.25743   0.25914   0.26111   0.26447   0.26760
 Alpha virt. eigenvalues --    0.26899   0.27334   0.27492   0.28075   0.28129
 Alpha virt. eigenvalues --    0.28290   0.28516   0.28947   0.29560   0.29713
 Alpha virt. eigenvalues --    0.30337   0.30583   0.30707   0.30832   0.30977
 Alpha virt. eigenvalues --    0.31657   0.31850   0.32519   0.32601   0.33152
 Alpha virt. eigenvalues --    0.33385   0.33967   0.34389   0.34451   0.34928
 Alpha virt. eigenvalues --    0.35415   0.35730   0.36290   0.36585   0.36844
 Alpha virt. eigenvalues --    0.37365   0.37627   0.38211   0.38616   0.38986
 Alpha virt. eigenvalues --    0.40060   0.40553   0.40760   0.41389   0.42613
 Alpha virt. eigenvalues --    0.42914   0.43262   0.44117   0.45171   0.45603
 Alpha virt. eigenvalues --    0.46501   0.46640   0.47554   0.47748   0.47978
 Alpha virt. eigenvalues --    0.48373   0.49516   0.51112   0.51500   0.52974
 Alpha virt. eigenvalues --    0.53573   0.56285   0.60530   0.62993   0.65699
 Alpha virt. eigenvalues --    0.67598   0.68456   0.69413   0.69543   0.70864
 Alpha virt. eigenvalues --    0.71746   0.71928   0.72768   0.73783   0.74116
 Alpha virt. eigenvalues --    0.74966   0.75206   0.75641   0.76753   0.77013
 Alpha virt. eigenvalues --    0.77553   0.78344   0.79142   0.79265   0.79517
 Alpha virt. eigenvalues --    0.80327   0.81143   0.81711   0.82080   0.82792
 Alpha virt. eigenvalues --    0.83737   0.84551   0.85040   0.86337   0.86515
 Alpha virt. eigenvalues --    0.87634   0.88657   0.88796   0.89786   0.90479
 Alpha virt. eigenvalues --    0.92098   0.93013   0.93859   0.94095   0.94278
 Alpha virt. eigenvalues --    0.95333   0.96186   0.96721   0.97094   0.99274
 Alpha virt. eigenvalues --    0.99963   1.00311   1.01597   1.02569   1.03248
 Alpha virt. eigenvalues --    1.04403   1.05122   1.05959   1.07605   1.08155
 Alpha virt. eigenvalues --    1.08406   1.09390   1.10037   1.10690   1.11849
 Alpha virt. eigenvalues --    1.12793   1.13510   1.13828   1.14676   1.14998
 Alpha virt. eigenvalues --    1.15443   1.15767   1.16520   1.16667   1.18601
 Alpha virt. eigenvalues --    1.19469   1.19836   1.20284   1.20739   1.22363
 Alpha virt. eigenvalues --    1.23364   1.24592   1.25256   1.25961   1.26698
 Alpha virt. eigenvalues --    1.27125   1.28904   1.29863   1.30231   1.30639
 Alpha virt. eigenvalues --    1.31286   1.32212   1.32436   1.32807   1.34235
 Alpha virt. eigenvalues --    1.35046   1.35432   1.37193   1.38186   1.38808
 Alpha virt. eigenvalues --    1.39944   1.40265   1.41724   1.42427   1.42864
 Alpha virt. eigenvalues --    1.44313   1.45018   1.46756   1.47105   1.48491
 Alpha virt. eigenvalues --    1.49391   1.51224   1.53112   1.53596   1.54389
 Alpha virt. eigenvalues --    1.55264   1.56850   1.57608   1.59587   1.59865
 Alpha virt. eigenvalues --    1.60597   1.62090   1.62210   1.63510   1.65654
 Alpha virt. eigenvalues --    1.66934   1.67437   1.68837   1.69693   1.70856
 Alpha virt. eigenvalues --    1.71890   1.76150   1.76791   1.78343   1.79550
 Alpha virt. eigenvalues --    1.80862   1.81103   1.81660   1.83049   1.85163
 Alpha virt. eigenvalues --    1.85347   1.85619   1.86873   1.87370   1.87555
 Alpha virt. eigenvalues --    1.88276   1.88973   1.89950   1.90214   1.91432
 Alpha virt. eigenvalues --    1.92104   1.92759   1.93360   1.94666   1.94908
 Alpha virt. eigenvalues --    1.95414   1.95952   1.97519   1.98169   1.99080
 Alpha virt. eigenvalues --    2.00252   2.01641   2.02879   2.03387   2.04599
 Alpha virt. eigenvalues --    2.06046   2.06659   2.06901   2.07595   2.08114
 Alpha virt. eigenvalues --    2.09141   2.10025   2.11027   2.11345   2.12604
 Alpha virt. eigenvalues --    2.13345   2.13526   2.14267   2.14678   2.15222
 Alpha virt. eigenvalues --    2.15987   2.16754   2.17730   2.18820   2.19606
 Alpha virt. eigenvalues --    2.20727   2.21554   2.22595   2.24293   2.25773
 Alpha virt. eigenvalues --    2.26166   2.26890   2.28139   2.28647   2.29147
 Alpha virt. eigenvalues --    2.30979   2.31901   2.33310   2.33856   2.34721
 Alpha virt. eigenvalues --    2.35722   2.36139   2.37701   2.39456   2.39507
 Alpha virt. eigenvalues --    2.41218   2.42222   2.42939   2.44303   2.47554
 Alpha virt. eigenvalues --    2.48060   2.49032   2.50083   2.51037   2.51562
 Alpha virt. eigenvalues --    2.52232   2.53102   2.53989   2.54483   2.55388
 Alpha virt. eigenvalues --    2.56355   2.56568   2.57158   2.58693   2.59598
 Alpha virt. eigenvalues --    2.60734   2.60799   2.62703   2.63749   2.64889
 Alpha virt. eigenvalues --    2.66207   2.66553   2.68631   2.68864   2.70026
 Alpha virt. eigenvalues --    2.70808   2.71497   2.71667   2.72851   2.73289
 Alpha virt. eigenvalues --    2.75137   2.75285   2.76478   2.76756   2.78070
 Alpha virt. eigenvalues --    2.78339   2.79491   2.80803   2.81831   2.82545
 Alpha virt. eigenvalues --    2.82949   2.84721   2.85667   2.86249   2.87033
 Alpha virt. eigenvalues --    2.87575   2.88008   2.88239   2.89505   2.90659
 Alpha virt. eigenvalues --    2.92069   2.93140   2.93718   2.94636   2.96022
 Alpha virt. eigenvalues --    2.97285   2.98662   3.00544   3.01696   3.04934
 Alpha virt. eigenvalues --    3.05690   3.08011   3.10423   3.11138   3.13366
 Alpha virt. eigenvalues --    3.19370   3.21230   3.25992   3.27764   3.29454
 Alpha virt. eigenvalues --    3.30891   3.31159   3.36256   3.37596   3.38574
 Alpha virt. eigenvalues --    3.40260   3.42153   3.45416   3.47182   3.47953
 Alpha virt. eigenvalues --    3.49730   3.50307   3.51000   3.51603   3.52507
 Alpha virt. eigenvalues --    3.53746   3.55466   3.57263   3.58322   3.59595
 Alpha virt. eigenvalues --    3.60029   3.62195   3.63601   3.66254   3.71810
 Alpha virt. eigenvalues --    3.80631   4.35059   4.37154   4.39078   4.46514
 Alpha virt. eigenvalues --    4.48129   4.49971   4.52162   4.52905   4.55641
 Alpha virt. eigenvalues --    4.58651   4.60778   4.62992   4.66790   4.70638
 Alpha virt. eigenvalues --    4.72937   4.73999   4.77271   4.85263   4.90546
 Alpha virt. eigenvalues --    4.95391   5.01153   5.03782
          Condensed to atoms (all electrons):
              1          2          3          4          5          6
     1  C   16.021488  -2.537802  -0.153878  -0.040260  -0.168045   0.009661
     2  C   -2.537802   7.495811   0.433996   0.368595   0.391981  -0.029943
     3  H   -0.153878   0.433996   0.522342  -0.025692  -0.102353  -0.004878
     4  H   -0.040260   0.368595  -0.025692   0.523572  -0.015694  -0.002288
     5  C   -0.168045   0.391981  -0.102353  -0.015694   8.988872   0.523042
     6  H    0.009661  -0.029943  -0.004878  -0.002288   0.523042   0.520385
     7  C    3.461349  -1.288311   0.041418   0.021553  -3.980495  -0.324590
     8  H   -0.061976   0.009422   0.003310  -0.000020  -0.050826  -0.004762
     9  C   -2.168415   1.283703  -0.003007   0.001648   1.113162   0.126401
    10  H   -0.125544   0.022391   0.000074  -0.000031  -0.057031  -0.000014
    11  C   -3.767567   0.519146   0.055036   0.050501  -0.345605  -0.028450
    12  H   -0.028217   0.034122  -0.000066  -0.000106  -0.033441   0.000011
    13  C   -0.251264  -0.064518  -0.008779  -0.001001   0.234253   0.025786
    14  C    0.031867  -0.005691  -0.000025  -0.000030   0.004630   0.000179
    15  C    0.905655  -0.113072   0.009473  -0.002416  -0.244745  -0.015393
    16  C   -1.287158   0.295621   0.001865   0.000054   0.128242   0.008498
    17  C   -0.347894   0.062993   0.000250   0.000006  -0.028836   0.000633
    18  C   -0.126777  -0.025920   0.000947   0.000017  -0.238437  -0.001849
    19  H   -0.000209   0.000024   0.000000   0.000000  -0.000134   0.000000
    20  H   -0.000076  -0.000007   0.000000   0.000000   0.000014   0.000000
    21  O   -0.022828   0.006667   0.000002   0.000003   0.016096  -0.000009
    22  H    0.001512  -0.000124   0.000000   0.000000  -0.001202   0.000000
    23  O    0.033189  -0.003307  -0.000208   0.000012   0.034258   0.000037
    24  H    0.001625  -0.010792   0.000001   0.000001  -0.000658  -0.000011
    25  O    0.019153  -0.040172   0.001827  -0.000848  -0.094523   0.000278
    26  H    0.000129   0.007307   0.000142  -0.000006   0.014760   0.000000
    27  C   -3.913157   0.117923   0.056527  -0.047433  -0.786031  -0.016059
    28  H   -0.133822   0.024016   0.000254   0.001839   0.008640  -0.000003
    29  H   -0.092124   0.021695   0.000060  -0.000032  -0.010564   0.000002
    30  H   -0.142371   0.027644   0.001838   0.000238   0.002546  -0.000004
    31  O    0.291007  -0.026636   0.009654  -0.004067   0.054185   0.000378
    32  H    0.086867  -0.059617   0.000048  -0.001006  -0.052945  -0.000213
    33  H   -0.032267  -0.004672   0.004864  -0.005296   0.249919  -0.026171
    34  C    0.262899  -0.420612  -0.032574  -0.002744   1.387746   0.076444
    35  C    0.000795  -0.108223   0.009370  -0.001317  -0.609927  -0.005173
    36  H    0.000386   0.000649   0.000000   0.000000  -0.005236  -0.000042
    37  H    0.004037  -0.004745   0.000001   0.000000  -0.018307   0.000017
    38  C    0.198676  -0.018677  -0.003397  -0.000606   0.095127  -0.014199
    39  H   -0.003966   0.007427  -0.000005   0.000004   0.052834   0.000046
    40  H    0.000001   0.001551   0.000000   0.000000  -0.001121  -0.000019
    41  H   -0.003169  -0.001333   0.000000   0.000001  -0.008981   0.000066
    42  C   -0.002329  -0.001163  -0.000001   0.000000   0.004791   0.000007
    43  H   -0.000005   0.000000   0.000000   0.000000   0.000011   0.000000
    44  H    0.000009  -0.000001   0.000000   0.000000  -0.000002   0.000000
    45  C    0.000266  -0.000061   0.000000   0.000000  -0.000091   0.000000
    46  H    0.000000   0.000000   0.000000   0.000000   0.000000   0.000000
    47  H    0.000005  -0.000001   0.000000   0.000000  -0.000001   0.000000
    48  H   -0.000009   0.000000   0.000000   0.000000   0.000001   0.000000
              7          8          9         10         11         12
     1  C    3.461349  -0.061976  -2.168415  -0.125544  -3.767567  -0.028217
     2  C   -1.288311   0.009422   1.283703   0.022391   0.519146   0.034122
     3  H    0.041418   0.003310  -0.003007   0.000074   0.055036  -0.000066
     4  H    0.021553  -0.000020   0.001648  -0.000031   0.050501  -0.000106
     5  C   -3.980495  -0.050826   1.113162  -0.057031  -0.345605  -0.033441
     6  H   -0.324590  -0.004762   0.126401  -0.000014  -0.028450   0.000011
     7  C   24.322588   0.261702  -6.858108  -0.137460  -0.429774   0.007831
     8  H    0.261702   0.549561   0.169017   0.004781   0.016277  -0.000153
     9  C   -6.858108   0.169017  17.465298   0.478110  -2.645858  -0.028905
    10  H   -0.137460   0.004781   0.478110   0.548513   0.124491  -0.004842
    11  C   -0.429774   0.016277  -2.645858   0.124491  13.513039   0.203475
    12  H    0.007831  -0.000153  -0.028905  -0.004842   0.203475   0.557824
    13  C   -2.217576   0.140472   4.322262  -0.179990  -1.409089   0.039617
    14  C   -0.304911  -0.007281  -0.560644  -0.011728  -0.157039   0.011642
    15  C    3.854381  -0.158843  -2.746066  -0.194320  -1.276781   0.092572
    16  C   -4.983389   0.070459   0.666044   0.229999  -0.205421   0.049984
    17  C   -1.759967   0.016409  -1.560746   0.111746   0.159648   0.011640
    18  C   -0.582835  -0.038850  -1.730368  -0.007118   0.795011   0.014628
    19  H   -0.000600   0.000000  -0.006142  -0.000009   0.000050   0.000002
    20  H   -0.000759   0.000003   0.007356   0.000002  -0.001237   0.000000
    21  O   -0.034693  -0.000294  -0.106906  -0.002408   0.019751  -0.000980
    22  H    0.004126   0.000000   0.040327  -0.000033   0.006778   0.000010
    23  O    0.000365   0.004754   0.178644   0.000624  -0.054964  -0.003086
    24  H   -0.088681   0.001306  -0.030546  -0.000059  -0.000783   0.000642
    25  O    0.317650   0.002968  -0.143751   0.007880   0.137996  -0.040314
    26  H   -0.014282  -0.000014   0.034654  -0.000222   0.000800  -0.008623
    27  C    0.398121   0.009702  -1.219627   0.014928   1.783194  -0.052235
    28  H   -0.008847   0.000000   0.005084  -0.000007   0.040272  -0.000021
    29  H   -0.009991   0.000000   0.013114   0.000004   0.015668   0.002568
    30  H    0.000102   0.000017   0.001358   0.000004   0.010770   0.000328
    31  O   -0.159759   0.000565   0.399287   0.002545  -0.227890   0.002737
    32  H   -0.012116   0.000014  -0.006606   0.002341  -0.043067  -0.000984
    33  H    0.085852   0.004829   0.038359   0.002968   0.007917  -0.000054
    34  C   -4.908482  -0.186101   0.181346   0.004505  -0.686080  -0.003982
    35  C    0.454237   0.103058   0.597324   0.021104   0.078037  -0.000383
    36  H    0.051188   0.000299   0.000997   0.000007   0.001401   0.000000
    37  H   -0.009861   0.005608   0.036430  -0.000005  -0.001945   0.000000
    38  C    0.839278  -0.029317  -0.711018  -0.031330   0.028966  -0.001415
    39  H   -0.067133  -0.000086  -0.015471   0.000014   0.012420   0.000000
    40  H    0.012050  -0.000077  -0.004910  -0.000017   0.000237   0.000000
    41  H    0.054601  -0.000083   0.000302   0.000597  -0.021000   0.000004
    42  C   -0.145898   0.000228  -0.173509  -0.001343  -0.008217   0.000685
    43  H   -0.000176   0.000000   0.000066   0.000000  -0.000026   0.000000
    44  H   -0.000210   0.000000   0.001995   0.000000   0.000072   0.000000
    45  C   -0.000294   0.000001   0.001783   0.000009  -0.001049   0.000022
    46  H    0.000006   0.000000   0.000119   0.000000   0.000014   0.000000
    47  H   -0.000071   0.000000   0.000425   0.000000  -0.000107   0.000000
    48  H    0.000012   0.000000  -0.000354   0.000000  -0.000156   0.000000
             13         14         15         16         17         18
     1  C   -0.251264   0.031867   0.905655  -1.287158  -0.347894  -0.126777
     2  C   -0.064518  -0.005691  -0.113072   0.295621   0.062993  -0.025920
     3  H   -0.008779  -0.000025   0.009473   0.001865   0.000250   0.000947
     4  H   -0.001001  -0.000030  -0.002416   0.000054   0.000006   0.000017
     5  C    0.234253   0.004630  -0.244745   0.128242  -0.028836  -0.238437
     6  H    0.025786   0.000179  -0.015393   0.008498   0.000633  -0.001849
     7  C   -2.217576  -0.304911   3.854381  -4.983389  -1.759967  -0.582835
     8  H    0.140472  -0.007281  -0.158843   0.070459   0.016409  -0.038850
     9  C    4.322262  -0.560644  -2.746066   0.666044  -1.560746  -1.730368
    10  H   -0.179990  -0.011728  -0.194320   0.229999   0.111746  -0.007118
    11  C   -1.409089  -0.157039  -1.276781  -0.205421   0.159648   0.795011
    12  H    0.039617   0.011642   0.092572   0.049984   0.011640   0.014628
    13  C   24.560437  -3.003276 -12.749312   0.644417  -3.486521   0.718729
    14  C   -3.003276  11.105368   2.851908  -0.624557   0.416878  -1.305387
    15  C  -12.749312   2.851908  32.684929  -2.752759  -3.164395  -9.573763
    16  C    0.644417  -0.624557  -2.752759  12.871218   1.618574  -1.219575
    17  C   -3.486521   0.416878  -3.164395   1.618574  14.330398  -1.035512
    18  C    0.718729  -1.305387  -9.573763  -1.219575  -1.035512  19.335919
    19  H    0.077349   0.049770  -0.051902  -0.063246   0.281914   0.050447
    20  H    0.058058   0.062559   0.076657  -0.002647   0.032822   0.115070
    21  O   -0.098411   0.040001   0.041554   0.203030  -0.043967  -0.008925
    22  H    0.127917   0.008986  -0.024338   0.034405  -0.208817   0.015122
    23  O   -0.352477   0.146146   0.942922  -0.062025  -0.016649  -0.744303
    24  H   -0.017714  -0.008503  -0.012617   0.022694  -0.002224   0.170667
    25  O    0.044078  -0.027223  -0.000117  -0.139662  -0.048899  -0.063830
    26  H   -0.035258   0.002561   0.031784  -0.004834  -0.001694  -0.009178
    27  C   -0.271487   0.007509   0.209747  -0.061939   0.005403   0.072571
    28  H   -0.001354  -0.000018  -0.001279   0.000306   0.000020  -0.000064
    29  H   -0.000094  -0.000037  -0.002760   0.003391   0.000401  -0.000172
    30  H   -0.001841   0.000095   0.008434  -0.000656  -0.000117   0.000998
    31  O   -0.003108  -0.001388  -0.038544   0.073323   0.011940  -0.004723
    32  H    0.005482   0.000056  -0.001040   0.017206   0.003158   0.000093
    33  H   -0.006925  -0.000085  -0.004869   0.019750   0.003185   0.000089
    34  C   -0.506735   0.243243   0.153069   0.891836   0.247209  -0.077448
    35  C    0.698301  -0.135773  -0.917446   0.186523   0.220213   0.102335
    36  H    0.000389  -0.000097   0.003509  -0.000713   0.000707  -0.000196
    37  H    0.024908  -0.003270   0.003409   0.003336   0.002234  -0.031940
    38  C   -0.043107   0.005987   0.461371  -0.688576  -0.431820  -0.038867
    39  H   -0.012661   0.000266   0.007022  -0.003227  -0.001377   0.001901
    40  H    0.002570  -0.000170   0.001300   0.005807   0.001132   0.001130
    41  H    0.034210  -0.003766  -0.006092  -0.013306  -0.011570  -0.002890
    42  C   -1.575221  -2.527579  -0.850288  -0.023321   0.784265   1.011825
    43  H    0.005931  -0.272756   0.025402  -0.029536  -0.099719   0.197322
    44  H   -0.012203  -0.248743  -0.000316   0.054060   0.171298  -0.146812
    45  C    0.029810   0.004936   0.039704  -0.002472   0.010039   0.007217
    46  H    0.001441   0.011678   0.002736   0.001445   0.008069   0.005541
    47  H   -0.010681  -0.027192   0.015051   0.004361   0.023944  -0.053330
    48  H   -0.002212  -0.052924  -0.006044  -0.009451  -0.015689   0.029912
             19         20         21         22         23         24
     1  C   -0.000209  -0.000076  -0.022828   0.001512   0.033189   0.001625
     2  C    0.000024  -0.000007   0.006667  -0.000124  -0.003307  -0.010792
     3  H    0.000000   0.000000   0.000002   0.000000  -0.000208   0.000001
     4  H    0.000000   0.000000   0.000003   0.000000   0.000012   0.000001
     5  C   -0.000134   0.000014   0.016096  -0.001202   0.034258  -0.000658
     6  H    0.000000   0.000000  -0.000009   0.000000   0.000037  -0.000011
     7  C   -0.000600  -0.000759  -0.034693   0.004126   0.000365  -0.088681
     8  H    0.000000   0.000003  -0.000294   0.000000   0.004754   0.001306
     9  C   -0.006142   0.007356  -0.106906   0.040327   0.178644  -0.030546
    10  H   -0.000009   0.000002  -0.002408  -0.000033   0.000624  -0.000059
    11  C    0.000050  -0.001237   0.019751   0.006778  -0.054964  -0.000783
    12  H    0.000002   0.000000  -0.000980   0.000010  -0.003086   0.000642
    13  C    0.077349   0.058058  -0.098411   0.127917  -0.352477  -0.017714
    14  C    0.049770   0.062559   0.040001   0.008986   0.146146  -0.008503
    15  C   -0.051902   0.076657   0.041554  -0.024338   0.942922  -0.012617
    16  C   -0.063246  -0.002647   0.203030   0.034405  -0.062025   0.022694
    17  C    0.281914   0.032822  -0.043967  -0.208817  -0.016649  -0.002224
    18  C    0.050447   0.115070  -0.008925   0.015122  -0.744303   0.170667
    19  H    0.520789  -0.000139  -0.018418   0.008462   0.000136   0.000000
    20  H   -0.000139   0.516874   0.000078  -0.000001  -0.005760   0.000107
    21  O   -0.018418   0.000078   8.314919   0.204007  -0.002010  -0.000083
    22  H    0.008462  -0.000001   0.204007   0.362514   0.000042   0.000000
    23  O    0.000136  -0.005760  -0.002010   0.000042   8.350681   0.187096
    24  H    0.000000   0.000107  -0.000083   0.000000   0.187096   0.310651
    25  O    0.000005  -0.000031  -0.001490  -0.000017   0.002614   0.014398
    26  H    0.000000   0.000000  -0.000051   0.000000   0.002845   0.000445
    27  C   -0.000007   0.000003   0.001852   0.000366  -0.008198  -0.003562
    28  H    0.000000   0.000000   0.000003   0.000000   0.000002   0.000000
    29  H    0.000000   0.000000   0.000015   0.000000  -0.000001  -0.000002
    30  H    0.000000   0.000000   0.000003   0.000000  -0.000140   0.000045
    31  O    0.000001   0.000000  -0.001736  -0.000069   0.000257  -0.000010
    32  H    0.000000   0.000000  -0.000888   0.000002  -0.000008   0.000000
    33  H    0.000000   0.000000  -0.000033   0.000000  -0.000008  -0.000002
    34  C   -0.001023  -0.002864   0.029784  -0.001593  -0.052174  -0.001783
    35  C    0.000130   0.002942  -0.008901   0.000691   0.014131   0.009837
    36  H    0.000000   0.000000  -0.000058   0.000000   0.000071  -0.000002
    37  H    0.000000  -0.000002  -0.000024   0.000000   0.003276  -0.000102
    38  C    0.000189   0.000221  -0.004976   0.000675  -0.015312  -0.002269
    39  H    0.000000   0.000000   0.000123  -0.000001  -0.000018   0.000000
    40  H    0.000000   0.000000   0.000083   0.000001  -0.000012   0.000000
    41  H   -0.000001   0.000000   0.001777  -0.000229  -0.000084   0.000002
    42  C   -0.020740  -0.030921  -0.006661   0.002359  -0.039579   0.003354
    43  H    0.000076   0.001650   0.000042   0.000000   0.000056   0.000000
    44  H    0.002115   0.000096   0.000019   0.000001   0.000027   0.000000
    45  C    0.007789   0.004754   0.000018   0.000031   0.001017  -0.000006
    46  H   -0.000030  -0.000027  -0.000001   0.000000   0.000000   0.000000
    47  H    0.000011   0.000182   0.000003   0.000000  -0.000028   0.000000
    48  H    0.000160   0.000005   0.000028   0.000001   0.000005   0.000000
             25         26         27         28         29         30
     1  C    0.019153   0.000129  -3.913157  -0.133822  -0.092124  -0.142371
     2  C   -0.040172   0.007307   0.117923   0.024016   0.021695   0.027644
     3  H    0.001827   0.000142   0.056527   0.000254   0.000060   0.001838
     4  H   -0.000848  -0.000006  -0.047433   0.001839  -0.000032   0.000238
     5  C   -0.094523   0.014760  -0.786031   0.008640  -0.010564   0.002546
     6  H    0.000278   0.000000  -0.016059  -0.000003   0.000002  -0.000004
     7  C    0.317650  -0.014282   0.398121  -0.008847  -0.009991   0.000102
     8  H    0.002968  -0.000014   0.009702   0.000000   0.000000   0.000017
     9  C   -0.143751   0.034654  -1.219627   0.005084   0.013114   0.001358
    10  H    0.007880  -0.000222   0.014928  -0.000007   0.000004   0.000004
    11  C    0.137996   0.000800   1.783194   0.040272   0.015668   0.010770
[...]
    16  C   -0.133630   0.001270  -0.100761   0.000378   0.002271   0.000087
    17  C   -0.045123  -0.000475  -0.008482   0.000028   0.000325  -0.000063
    18  C    0.016953  -0.015768   0.048751  -0.000097  -0.000064   0.000795
    19  H    0.000003   0.000000  -0.000003   0.000000   0.000000   0.000000
    20  H   -0.000061   0.000000  -0.000004   0.000000   0.000000   0.000000
    21  O   -0.001605  -0.000053   0.003611   0.000004   0.000017   0.000004
    22  H   -0.000003   0.000000   0.000332   0.000000   0.000000   0.000000
    23  O   -0.009934   0.004356  -0.004335   0.000004   0.000003  -0.000147
    24  H    0.023337  -0.000285  -0.003815   0.000000  -0.000001   0.000045
    25  O    8.497721   0.240206   0.004337  -0.001077  -0.002178   0.006634
    26  H    0.240206   0.308973  -0.005817  -0.000051   0.000310  -0.000263
    27  C    0.004337  -0.005817   8.741397   0.446073   0.506265   0.428682
    28  H   -0.001077  -0.000051   0.446073   0.526228  -0.028071  -0.024500
    29  H   -0.002178   0.000310   0.506265  -0.028071   0.535640  -0.027054
    30  H    0.006634  -0.000263   0.428682  -0.024500  -0.027054   0.516675
    31  O    0.010352   0.000029  -0.324097  -0.000335   0.001134   0.008201
    32  H   -0.000518  -0.000013   0.053761  -0.000004  -0.000083  -0.000220
    33  H    0.000050   0.000003   0.013638   0.000002   0.000002   0.000001
    34  C   -0.002714  -0.002014  -0.118170   0.000073  -0.000586  -0.000137
    35  C    0.008896  -0.000305   0.000007  -0.000029   0.000018   0.000059
    36  H   -0.000010   0.000000   0.000022   0.000000   0.000000   0.000000
    37  H    0.000041   0.000000   0.000165   0.000000   0.000000   0.000000
    38  C    0.001055   0.000007   0.008125   0.000016  -0.000113  -0.000054
    39  H   -0.000014   0.000000   0.000341   0.000000   0.000000   0.000000
    40  H   -0.000008   0.000000  -0.000005   0.000000   0.000000   0.000000
    41  H    0.000101   0.000000  -0.000792   0.000000   0.000000   0.000000
    42  C   -0.007273   0.000097  -0.000178   0.000000  -0.000001   0.000001
    43  H   -0.000001   0.000000   0.000000   0.000000   0.000000   0.000000
    44  H    0.000000   0.000000   0.000000   0.000000   0.000000   0.000000
    45  C    0.000059  -0.000002  -0.000146   0.000000   0.000000   0.000000
    46  H    0.000000   0.000000   0.000000   0.000000   0.000000   0.000000
    47  H    0.000001   0.000000   0.000000   0.000000   0.000000   0.000000
    48  H    0.000000   0.000000  -0.000001   0.000000   0.000000   0.000000
             31         32         33         34         35         36
     1  C    0.191676   0.099522  -0.036842   0.357830   0.020626   0.000727
     2  C   -0.018024  -0.053367  -0.035453  -0.372984  -0.197749  -0.001111
     3  H    0.007368   0.000131   0.005236  -0.037835   0.009947   0.000000
     4  H   -0.002812  -0.001118  -0.005673  -0.010856  -0.000698   0.000000
     5  C    0.035774  -0.022901   0.441608   1.090930  -0.516057  -0.002563
     6  H    0.000750  -0.000257  -0.031740   0.084138  -0.006261  -0.000044
     7  C   -0.166457  -0.006574  -0.117680  -3.977046   0.092301   0.008728
     8  H    0.000526   0.000038   0.005262  -0.189651   0.072973   0.000340
     9  C    0.373458  -0.000105   0.069343   0.165479   0.705267  -0.000124
    10  H    0.001762   0.002570   0.003435  -0.019981   0.008131   0.000007
    11  C   -0.221324  -0.069292   0.016276  -0.930952   0.093543   0.000355
    12  H    0.005985  -0.000947  -0.000060  -0.003367   0.000447   0.000000
    13  C    0.012129   0.012300  -0.006610  -0.855281   0.755884   0.006264
    14  C   -0.000497   0.000168  -0.000051   0.316780  -0.127744  -0.000288
    15  C   -0.045868   0.001425  -0.016842   0.890838  -1.150703  -0.001954
    16  C    0.079974   0.010104   0.026262   0.717383   0.289674  -0.001117
    17  C    0.013970   0.001810   0.003904   0.189008   0.290969   0.000226
    18  C   -0.003656  -0.000061  -0.000544  -0.165652   0.046093  -0.000789
    19  H    0.000001   0.000000   0.000000  -0.000726   0.000281   0.000000
    20  H    0.000000   0.000000   0.000000  -0.002290   0.002614   0.000000
    21  O   -0.001569  -0.001026   0.000047   0.025888  -0.012736  -0.000056
    22  H   -0.000065   0.000002   0.000000  -0.001317   0.000605   0.000000
    23  O    0.000423  -0.000007   0.000029  -0.083416   0.046291   0.000152
    24  H   -0.000069  -0.000001  -0.000006   0.002404   0.004412  -0.000002
    25  O    0.010352  -0.000518   0.000050  -0.002714   0.008896  -0.000010
    26  H    0.000029  -0.000013   0.000003  -0.002014  -0.000305   0.000000
    27  C   -0.324097   0.053761   0.013638  -0.118170   0.000007   0.000022
    28  H   -0.000335  -0.000004   0.000002   0.000073  -0.000029   0.000000
    29  H    0.001134  -0.000083   0.000002  -0.000586   0.000018   0.000000
    30  H    0.008201  -0.000220   0.000001  -0.000137   0.000059   0.000000
    31  O    8.402619   0.216196  -0.000667   0.006288   0.001786   0.000000
    32  H    0.216196   0.343526   0.003477   0.006134  -0.000766   0.000000
    33  H   -0.000667   0.003477   0.564549  -0.043146   0.054667   0.000008
    34  C    0.006288   0.006134  -0.043146  11.133938  -2.149865  -0.128088
    35  C    0.001786  -0.000766   0.054667  -2.149865   8.535916   0.468139
    36  H    0.000000   0.000000   0.000008  -0.128088   0.468139   0.538043
    37  H    0.000000   0.000000  -0.000004  -0.212428   0.629514  -0.035272
    38  C   -0.010062  -0.000330  -0.067852  -0.049771  -1.346656  -0.001147
    39  H   -0.000204   0.000018  -0.001237  -0.092937  -0.036460   0.000230
    40  H   -0.000008   0.000000   0.000041  -0.061395  -0.051397   0.003556
    41  H    0.000311  -0.000006   0.000013  -0.163296  -0.014508   0.000174
    42  C   -0.000023   0.000000   0.000003   0.031611   0.007642   0.000157
    43  H    0.000000   0.000000   0.000000   0.000355  -0.000223   0.000000
    44  H    0.000000   0.000000   0.000000   0.000182  -0.000104   0.000000
    45  C    0.000005   0.000000   0.000000  -0.001377  -0.000157   0.000002
    46  H    0.000000   0.000000   0.000000   0.000008  -0.000005   0.000000
    47  H    0.000000   0.000000   0.000000   0.000027  -0.000017   0.000000
    48  H    0.000000   0.000000   0.000000   0.000016  -0.000007   0.000000
             37         38         39         40         41         42
     1  C    0.004618   0.168118  -0.004635   0.000604  -0.003736  -0.004150
     2  C   -0.004801   0.043157   0.007155  -0.001182   0.001668  -0.000704
     3  H    0.000000  -0.004279  -0.000005   0.000000   0.000000  -0.000006
     4  H    0.000000  -0.002176   0.000003   0.000000   0.000001   0.000000
     5  C   -0.017053   0.076118   0.039183   0.006309  -0.020653   0.006528
     6  H    0.000004  -0.015304   0.000033  -0.000016   0.000074   0.000009
     7  C   -0.056305   0.489406  -0.027691  -0.057445   0.104727  -0.128743
     8  H    0.005991  -0.027011  -0.000096  -0.000083  -0.000087   0.000151
     9  C    0.028841  -0.802490  -0.025344  -0.004252  -0.013861  -0.118826
    10  H   -0.000004  -0.013724  -0.000009   0.000006   0.000447  -0.001260
    11  C   -0.000738  -0.068583   0.010923  -0.002005  -0.011915  -0.052446
    12  H    0.000000  -0.002212   0.000000   0.000000   0.000003   0.000739
    13  C    0.008539  -0.024218  -0.009377   0.005294   0.025449  -1.300475
    14  C   -0.001944   0.011880  -0.000341   0.000800  -0.002443  -2.246947
    15  C    0.013576   0.465868   0.008354  -0.002078  -0.010237  -0.599125
    16  C    0.003631  -0.679109  -0.010840   0.011030  -0.031814  -0.144336
    17  C    0.002380  -0.460200  -0.003358   0.002666  -0.011098   0.735196
    18  C   -0.031357   0.014312   0.002506  -0.000230   0.000143   0.569319
    19  H    0.000000   0.000029   0.000000   0.000000  -0.000001  -0.021134
    20  H   -0.000002   0.000206   0.000000   0.000000   0.000000  -0.018936
    21  O   -0.000041  -0.000026   0.000392   0.000083   0.002434  -0.001289
    22  H    0.000000   0.000565  -0.000001   0.000000  -0.000224   0.001131
    23  O    0.003584  -0.022978  -0.000042  -0.000008  -0.000016  -0.027204
    24  H   -0.000107  -0.001024   0.000000   0.000000   0.000001   0.001268
    25  O    0.000041   0.001055  -0.000014  -0.000008   0.000101  -0.007273
    26  H    0.000000   0.000007   0.000000   0.000000   0.000000   0.000097
    27  C    0.000165   0.008125   0.000341  -0.000005  -0.000792  -0.000178
    28  H    0.000000   0.000016   0.000000   0.000000   0.000000   0.000000
    29  H    0.000000  -0.000113   0.000000   0.000000   0.000000  -0.000001
    30  H    0.000000  -0.000054   0.000000   0.000000   0.000000   0.000001
    31  O    0.000000  -0.010062  -0.000204  -0.000008   0.000311  -0.000023
    32  H    0.000000  -0.000330   0.000018   0.000000  -0.000006   0.000000
    33  H   -0.000004  -0.067852  -0.001237   0.000041   0.000013   0.000003
    34  C   -0.212428  -0.049771  -0.092937  -0.061395  -0.163296   0.031611
    35  C    0.629514  -1.346656  -0.036460  -0.051397  -0.014508   0.007642
    36  H   -0.035272  -0.001147   0.000230   0.003556   0.000174   0.000157
    37  H    0.547720  -0.029787  -0.000190   0.000204  -0.000206   0.000035
    38  C   -0.029787   7.485692   0.490718   0.505332   0.499883  -0.008282
    39  H   -0.000190   0.490718   0.536085  -0.026936  -0.029060  -0.000020
    40  H    0.000204   0.505332  -0.026936   0.540744  -0.026821  -0.000051
    41  H   -0.000206   0.499883  -0.029060  -0.026821   0.533925  -0.000014
    42  C    0.000035  -0.008282  -0.000020  -0.000051  -0.000014   8.317385
    43  H    0.000000   0.000038   0.000000   0.000000   0.000000   0.531574
    44  H    0.000000   0.000017   0.000000   0.000000   0.000000   0.533079
    45  C   -0.000005   0.000545   0.000000   0.000000   0.000014   0.123591
    46  H    0.000000   0.000001   0.000000   0.000000   0.000000  -0.040771
    47  H    0.000000  -0.000001   0.000000   0.000000   0.000000  -0.041656
    48  H    0.000000   0.000002   0.000000   0.000000   0.000000  -0.037157
             43         44         45         46         47         48
     1  C   -0.000004   0.000003   0.000389   0.000000   0.000005  -0.000012
     2  C    0.000000  -0.000001  -0.000141   0.000000   0.000000   0.000000
     3  H    0.000000   0.000000   0.000000   0.000000   0.000000   0.000000
     4  H    0.000000   0.000000   0.000000   0.000000   0.000000   0.000000
     5  C    0.000007  -0.000003  -0.000098   0.000000  -0.000003   0.000001
     6  H    0.000000   0.000000   0.000000   0.000000   0.000000   0.000000
     7  C   -0.000245  -0.000171   0.000982   0.000009  -0.000091  -0.000013
     8  H    0.000000   0.000000  -0.000002   0.000000   0.000000   0.000000
     9  C   -0.000270   0.001138  -0.000412   0.000148   0.000069  -0.000804
    10  H    0.000000   0.000000   0.000008   0.000000   0.000000   0.000000
    11  C   -0.000056   0.000028   0.000164   0.000000  -0.000152  -0.000163
    12  H    0.000000   0.000000   0.000023   0.000000   0.000000   0.000000
    13  C   -0.009480  -0.013408   0.013627   0.000506  -0.020204  -0.000867
    14  C   -0.204272  -0.203828   0.093999  -0.044631   0.062823   0.015895
    15  C    0.026479  -0.009586   0.025149   0.002672   0.004704  -0.001601
    16  C   -0.023534   0.028971  -0.017243   0.000006   0.015296  -0.031326
    17  C   -0.064778   0.099452  -0.015112   0.004404   0.054903  -0.064570
    18  C    0.086857  -0.093126  -0.030830   0.014144  -0.137288   0.058299
    19  H    0.000108   0.002378   0.004199  -0.000036   0.000015   0.000187
    20  H    0.002156   0.000115   0.002919  -0.000034   0.000246   0.000008
    21  O    0.000033   0.000033   0.000296  -0.000001   0.000001   0.000052
    22  H    0.000000  -0.000001  -0.000002   0.000000   0.000000   0.000000
    23  O    0.000008   0.000025   0.001123  -0.000001  -0.000038   0.000009
    24  H    0.000000   0.000000  -0.000001   0.000000   0.000000   0.000000
    25  O   -0.000001   0.000000   0.000059   0.000000   0.000001   0.000000
    26  H    0.000000   0.000000  -0.000002   0.000000   0.000000   0.000000
    27  C    0.000000   0.000000  -0.000146   0.000000   0.000000  -0.000001
    28  H    0.000000   0.000000   0.000000   0.000000   0.000000   0.000000
    29  H    0.000000   0.000000   0.000000   0.000000   0.000000   0.000000
    30  H    0.000000   0.000000   0.000000   0.000000   0.000000   0.000000
    31  O    0.000000   0.000000   0.000005   0.000000   0.000000   0.000000
    32  H    0.000000   0.000000   0.000000   0.000000   0.000000   0.000000
    33  H    0.000000   0.000000   0.000000   0.000000   0.000000   0.000000
    34  C    0.000355   0.000182  -0.001377   0.000008   0.000027   0.000016
    35  C   -0.000223  -0.000104  -0.000157  -0.000005  -0.000017  -0.000007
    36  H    0.000000   0.000000   0.000002   0.000000   0.000000   0.000000
    37  H    0.000000   0.000000  -0.000005   0.000000   0.000000   0.000000
    38  C    0.000038   0.000017   0.000545   0.000001  -0.000001   0.000002
    39  H    0.000000   0.000000   0.000000   0.000000   0.000000   0.000000
    40  H    0.000000   0.000000   0.000000   0.000000   0.000000   0.000000
    41  H    0.000000   0.000000   0.000014   0.000000   0.000000   0.000000
    42  C    0.531574   0.533079   0.123591  -0.040771  -0.041656  -0.037157
    43  H    0.565186  -0.033602  -0.024716  -0.003313  -0.004984   0.004872
    44  H   -0.033602   0.566918  -0.026429  -0.003336   0.004925  -0.004989
    45  C   -0.024716  -0.026429   5.184508   0.422437   0.416728   0.417992
    46  H   -0.003313  -0.003336   0.422437   0.549735  -0.026810  -0.027032
    47  H   -0.004984   0.004925   0.416728  -0.026810   0.542694  -0.028468
    48  H    0.004872  -0.004989   0.417992  -0.027032  -0.028468   0.542080
 Mulliken atomic charges:
              1
     1  C    0.204179
     2  C   -0.309394
     3  H    0.163293
     4  H    0.159787
     5  C   -0.544867
     6  H    0.157036
     7  C    0.128658
     8  H    0.144654
     9  C   -0.315129
    10  H    0.166824
    11  C   -0.217800
    12  H    0.157136
    13  C    0.443501
    14  C   -0.000545
    15  C   -1.302282
    16  C    0.410743
    17  C   -0.132843
    18  C    0.365509
    19  H    0.148494
    20  H    0.146691
    21  O   -0.595011
    22  H    0.449009
    23  O   -0.626653
    24  H    0.476704
    25  O   -0.682984
    26  H    0.445000
    27  C   -0.345275
    28  H    0.168202
    29  H    0.164517
    30  H    0.177195
    31  O   -0.574980
    32  H    0.406415
    33  H    0.156551
    34  C    0.657965
    35  C   -0.534257
    36  H    0.145435
    37  H    0.141398
    38  C   -0.623701
    39  H    0.172856
    40  H    0.157250
    41  H    0.171422
    42  C   -0.058506
    43  H    0.151805
    44  H    0.151318
    45  C   -0.592086
    46  H    0.151901
    47  H    0.157272
    48  H    0.157595
 Sum of Mulliken atomic charges =   0.00000
 Mulliken charges with hydrogens summed into heavy atoms:
              1
     1  C    0.204179
     2  C    0.013685
     5  C   -0.231280
     7  C    0.273312
     9  C   -0.148304
    11  C   -0.060664
    13  C    0.443501
    14  C   -0.000545
    15  C   -1.302282
    16  C    0.410743
    17  C    0.015652
    18  C    0.512200
    21  O   -0.146002
    23  O   -0.149950
    25  O   -0.237984
    27  C    0.164639
    31  O   -0.168566
    34  C    0.657965
    35  C   -0.247424
    38  C   -0.122173
    42  C    0.244616
    45  C   -0.125318
 Sum of Mulliken charges with hydrogens summed into heavy atoms =   0.00000
 Electronic spatial extent (au):  <R**2>=           7158.9428
 Charge=              0.0000 electrons
 Dipole moment (field-independent basis, Debye):
    X=             -0.1320    Y=             -1.1982    Z=              3.0511  Tot=              3.2806
 Quadrupole moment (field-independent basis, Debye-Ang):
   XX=           -124.8202   YY=           -129.8073   ZZ=           -136.6368
   XY=             -0.1490   XZ=             15.1330   YZ=             10.0892
 Traceless Quadrupole moment (field-independent basis, Debye-Ang):
   XX=              5.6013   YY=              0.6141   ZZ=             -6.2154
   XY=             -0.1490   XZ=             15.1330   YZ=             10.0892
 Octapole moment (field-independent basis, Debye-Ang**2):
  XXX=             48.7694  YYY=            -47.6860  ZZZ=             49.0885  XYY=            -22.9436
  XXY=              7.6574  XXZ=             -5.1039  XZZ=             27.2045  YZZ=              6.0279
  YYZ=             -6.5543  XYZ=            -22.5879
 Hexadecapole moment (field-independent basis, Debye-Ang**3):
 XXXX=          -6196.6562 YYYY=          -2036.6089 ZZZZ=          -1164.5837 XXXY=            -23.4517
 XXXZ=            123.7264 YYYX=            113.3278 YYYZ=             85.4039 ZZZX=            128.2686
 ZZZY=             51.8660 XXYY=          -1461.7535 XXZZ=          -1249.5147 YYZZ=           -576.0524
 XXYZ=             84.0548 YYXZ=             17.6443 ZZXY=             -9.2266
 N-N= 1.982796560529D+03 E-N=-6.298135873963D+03  KE= 9.931617088506D+02

 Test job not archived.
 1\1\GINC-COMPUTE-10-3\SP\RB3LYP\6-31+G(d,p)\C18H26O4\LPASSAGLIA.IQUIR\
 23-Dec-2022\0\\# B3LYP/6-31+G** geom=allcheck test scrf=(pcm,solvent=w
 ater,smd,dovacuum)\\comment\\0,1\C,0,-1.783504891,0.784300025,-2.69845
 2792\C,0,-2.553489119,1.888052326,-1.950819376\H,0,-2.004713882,2.8363
 83162,-2.013483758\H,0,-3.529450673,2.048299774,-2.426140224\C,0,-2.79
 3307136,1.560950043,-0.475261523\H,0,-3.273726842,2.423728471,0.003830
 282\C,0,-1.49022325,1.207903082,0.273473889\H,0,-0.868344226,2.1116828
 46,0.231828513\C,0,-0.738379979,0.058000763,-0.466229763\H,0,-1.443211
 305,-0.781296829,-0.490128819\C,0,-0.467358516,0.422508984,-1.95268524
 3\H,0,0.01159596,-0.436645104,-2.440798927\C,0,0.530368116,-0.43841969
 8,0.234246576\C,0,2.789500339,-1.428205517,1.6608201\C,0,1.596920527,0
 .398426551,0.598256853\C,0,0.6561879,-1.798905737,0.568235833\C,0,1.76
 3283331,-2.292004245,1.26812266\C,0,2.69878236,-0.078665562,1.31166420
 9\H,0,1.834465906,-3.347278668,1.516045514\H,0,3.492766816,0.614593873
 ,1.579663985\O,0,-0.331513256,-2.672886592,0.194550784\H,0,-0.10180346
 9,-3.559213798,0.518833062\O,0,1.649618799,1.723841805,0.26496244\H,0,
 1.14912804,1.827913402,-0.573249063\O,0,0.44829971,1.531342056,-2.0194
 40872\H,0,0.847940079,1.505513605,-2.910398567\C,0,-1.499233022,1.2524
 39669,-4.132182543\H,0,-2.43497921,1.402947917,-4.683523738\H,0,-0.935
 552607,0.49067361,-4.682942133\H,0,-0.935262711,2.189998941,-4.1606928
 15\O,0,-2.611993443,-0.376653267,-2.838583618\H,0,-2.942253565,-0.6518
 10534,-1.967555212\H,0,-3.511680072,0.735348693,-0.410426448\C,0,-1.78
 6237509,0.914723331,1.746477729\C,0,-1.233138956,1.660932059,2.7188687
 \H,0,-1.421446605,1.4631529,3.769401171\H,0,-0.556155762,2.479908512,2
 .491365732\C,0,-2.696170085,-0.233457227,2.091551964\H,0,-3.711998103,
 -0.046216019,1.731679255\H,0,-2.760504772,-0.390717921,3.173988342\H,0
 ,-2.336200124,-1.167553223,1.652676294\C,0,3.989708012,-1.945225799,2.
 409737282\H,0,4.371521849,-1.164899123,3.07936959\H,0,3.689667357,-2.7
 78785035,3.056433275\C,0,5.093599036,-2.39815844,1.466438214\H,0,5.951
 057325,-2.768101655,2.037409116\H,0,5.43797871,-1.573725266,0.83287603
 4\H,0,4.749442913,-3.204741127,0.810188044\\Version=EM64L-G09RevC.01\S
 tate=1-A\HF=-1002.5585677\RMSD=5.678e-09\Dipole=-0.255434,-1.120545,-0
 .5873392\Quadrupole=-1.6536129,3.644083,-1.9904702,-5.8405537,-4.11506
 82,-11.8862071\PG=C01 [X(C18H26O4)]\\@


 WAR ES EIN GOTT DER DIESE ZEICHEN SCHRIEB?
          - LUDWIG BOLTZMANN, QUOTING GOETHE, ABOUT MAXWELL'S EQUATIONS.
 Job cpu time:  0 days  1 hours 38 minutes  6.9 seconds.
 File lengths (MBytes):  RWF=    241 Int=      0 D2E=      0 Chk=     19 Scr=      1
 Normal termination of Gaussian 09 at Fri Dec 23 15:06:19 2022.
