 Entering Gaussian System, Link 0=g09
 Input=/home/lpassaglia.iquir/Link1/02_RSSS_THC_004.gjc
 Output=/home/lpassaglia.iquir/Link1/02_RSSS_THC_004.log
 Initial command:
 /share/apps/Gaussian09/EM64T.SSE4.2-enabled/g09/l1.exe /tmp/Gau-17656.inp -scrdir=/tmp/
 Entering Link 1 = /share/apps/Gaussian09/EM64T.SSE4.2-enabled/g09/l1.exe PID=     17658.
  
 Copyright (c) 1988,1990,1992,1993,1995,1998,2003,2009,2011,
            Gaussian, Inc.  All Rights Reserved.
  
 This is part of the Gaussian(R) 09 program.  It is based on
 the Gaussian(R) 03 system (copyright 2003, Gaussian, Inc.),
 the Gaussian(R) 98 system (copyright 1998, Gaussian, Inc.),
 the Gaussian(R) 94 system (copyright 1995, Gaussian, Inc.),
 the Gaussian 92(TM) system (copyright 1992, Gaussian, Inc.),
 the Gaussian 90(TM) system (copyright 1990, Gaussian, Inc.),
 the Gaussian 88(TM) system (copyright 1988, Gaussian, Inc.),
 the Gaussian 86(TM) system (copyright 1986, Carnegie Mellon
 University), and the Gaussian 82(TM) system (copyright 1983,
 Carnegie Mellon University). Gaussian is a federally registered
 trademark of Gaussian, Inc.
  
 This software contains proprietary and confidential information,
 including trade secrets, belonging to Gaussian, Inc.
  
 This software is provided under written license and may be
 used, copied, transmitted, or stored only in accord with that
 written license.
  
 The following legend is applicable only to US Government
 contracts under FAR:
  
                    RESTRICTED RIGHTS LEGEND
  
 Use, reproduction and disclosure by the US Government is
 subject to restrictions as set forth in subparagraphs (a)
 and (c) of the Commercial Computer Software - Restricted
 Rights clause in FAR 52.227-19.
  
 Gaussian, Inc.
 340 Quinnipiac St., Bldg. 40, Wallingford CT 06492
  
  
 ---------------------------------------------------------------
 Warning -- This program may not be used in any manner that
 competes with the business of Gaussian, Inc. or will provide
 assistance to any competitor of Gaussian, Inc.  The licensee
 of this program is prohibited from giving any competitor of
 Gaussian, Inc. access to this program.  By using this program,
 the user acknowledges that Gaussian, Inc. is engaged in the
 business of creating and licensing software in the field of
 computational chemistry and represents and warrants to the
 licensee that it is not a competitor of Gaussian, Inc. and that
 it will not use this program in any manner prohibited above.
 ---------------------------------------------------------------
  

 Cite this work as:
 Gaussian 09, Revision C.01,
 M. J. Frisch, G. W. Trucks, H. B. Schlegel, G. E. Scuseria, 
 M. A. Robb, J. R. Cheeseman, G. Scalmani, V. Barone, B. Mennucci, 
 G. A. Petersson, H. Nakatsuji, M. Caricato, X. Li, H. P. Hratchian, 
 A. F. Izmaylov, J. Bloino, G. Zheng, J. L. Sonnenberg, M. Hada, 
 M. Ehara, K. Toyota, R. Fukuda, J. Hasegawa, M. Ishida, T. Nakajima, 
 Y. Honda, O. Kitao, H. Nakai, T. Vreven, J. A. Montgomery, Jr., 
 J. E. Peralta, F. Ogliaro, M. Bearpark, J. J. Heyd, E. Brothers, 
 K. N. Kudin, V. N. Staroverov, T. Keith, R. Kobayashi, J. Normand, 
 K. Raghavachari, A. Rendell, J. C. Burant, S. S. Iyengar, J. Tomasi, 
 M. Cossi, N. Rega, J. M. Millam, M. Klene, J. E. Knox, J. B. Cross, 
 V. Bakken, C. Adamo, J. Jaramillo, R. Gomperts, R. E. Stratmann, 
 O. Yazyev, A. J. Austin, R. Cammi, C. Pomelli, J. W. Ochterski, 
 R. L. Martin, K. Morokuma, V. G. Zakrzewski, G. A. Voth, 
 P. Salvador, J. J. Dannenberg, S. Dapprich, A. D. Daniels, 
 O. Farkas, J. B. Foresman, J. V. Ortiz, J. Cioslowski, 
 and D. J. Fox, Gaussian, Inc., Wallingford CT, 2010.
 
 ******************************************
 Gaussian 09:  EM64L-G09RevC.01 23-Sep-2011
                23-Dec-2022 
 ******************************************
 %chk=02_RSSS_THC_004_optB_NMR
 %nprocshared=4
 Will use up to    4 processors via shared memory.
 ------------------------------------------------
 # mPW1PW91/6-31+G** scrf=(PCM,solvent=water) nmr
 ------------------------------------------------
 1/38=1/1;
 2/12=2,17=6,18=5,40=1/2;
 3/5=1,6=6,7=111,11=2,16=1,25=1,30=1,70=2201,72=1,74=-7/1,2,8,3;
 4//1;
 5/5=2,38=5,53=1/2;
 8/6=1,10=90,11=11/1;
 10/13=100,45=16/2;
 6/7=2,8=2,9=2,10=2,28=1/1;
 99/9=1/99;
 -------
 comment
 -------
 Charge =  0 Multiplicity = 1
 Symbolic Z-Matrix:
 6                     1.65536   2.51338  -1.52775 
 6                     0.82085   3.57165  -0.80298 
 1                     1.34648   4.53552  -0.813 
 1                    -0.09797   3.75656  -1.37006 
 6                     0.48898   3.19092   0.63896 
 1                     1.4132    3.24856   1.229 
 6                    -0.1079    1.77634   0.82161 
 1                     0.07828   1.5506    1.88352 
 6                     0.69096   0.69647   0.01602 
 1                     1.69814   0.6651    0.4558 
 6                     0.95399   1.13312  -1.44505 
 1                     0.02982   1.20623  -2.02262 
 6                     0.14918  -0.72037   0.25917 
 6                    -0.84833  -3.31899   0.87117 
 6                     0.48712  -1.38454   1.45488 
 6                    -0.70581  -1.40247  -0.61701 
 6                    -1.19559  -2.68133  -0.3236 
 6                     0.00513  -2.6611    1.75972 
 1                    -1.84528  -3.19451  -1.02804 
 1                     0.28783  -3.14965   2.68808 
 8                    -1.06843  -0.83016  -1.80284 
 1                    -1.82512  -1.3179   -2.16953 
 8                     1.31351  -0.75856   2.35171 
 1                     1.47857  -1.3545    3.10011 
 8                     1.7771    0.18053  -2.1438 
 1                     1.24527  -0.63756  -2.17615 
 6                     3.10684   2.502    -1.02628 
 1                     3.56899   3.48544  -1.17381 
 1                     3.71886   1.79522  -1.59765 
 1                     3.19008   2.24818   0.03346 
 8                     1.72109   2.88661  -2.917 
 1                     2.06361   2.09046  -3.37104 
 1                    -0.18003   3.94674   1.06932 
 6                    -1.63655   1.74504   0.67051 
 6                    -2.39947   1.19378   1.63355 
 1                    -3.48215   1.1651    1.56076 
 1                    -1.96024   0.74467   2.51963 
 6                    -2.29751   2.35411  -0.53352 
 1                    -2.16523   3.43961  -0.53846 
 1                    -3.37754   2.16715  -0.54279 
 1                    -1.90227   1.93921  -1.46154 
 6                    -1.35949  -4.70272   1.17964 
 1                    -1.4822   -4.8179    2.26349 
 1                    -2.35892  -4.83201   0.74663 
 6                    -0.42651  -5.78114   0.65048 
 1                    -0.82195  -6.77367   0.8884 
 1                     0.57064  -5.6974    1.09587 
 1                    -0.31537  -5.71185  -0.43696 
 
                          Input orientation:                          
 ---------------------------------------------------------------------
 Center     Atomic      Atomic             Coordinates (Angstroms)
 Number     Number       Type             X           Y           Z
 ---------------------------------------------------------------------
      1          6           0        1.655356    2.513376   -1.527749
      2          6           0        0.820850    3.571653   -0.802982
      3          1           0        1.346475    4.535522   -0.813004
      4          1           0       -0.097969    3.756564   -1.370063
      5          6           0        0.488977    3.190919    0.638959
      6          1           0        1.413202    3.248562    1.228998
      7          6           0       -0.107902    1.776337    0.821612
      8          1           0        0.078279    1.550597    1.883517
      9          6           0        0.690961    0.696473    0.016018
     10          1           0        1.698138    0.665099    0.455796
     11          6           0        0.953988    1.133122   -1.445052
     12          1           0        0.029815    1.206235   -2.022620
     13          6           0        0.149183   -0.720371    0.259174
     14          6           0       -0.848326   -3.318989    0.871173
     15          6           0        0.487122   -1.384542    1.454876
     16          6           0       -0.705807   -1.402474   -0.617010
     17          6           0       -1.195591   -2.681331   -0.323598
     18          6           0        0.005131   -2.661099    1.759721
     19          1           0       -1.845283   -3.194511   -1.028040
     20          1           0        0.287831   -3.149650    2.688085
     21          8           0       -1.068431   -0.830155   -1.802839
     22          1           0       -1.825117   -1.317904   -2.169530
     23          8           0        1.313513   -0.758560    2.351710
     24          1           0        1.478570   -1.354502    3.100115
     25          8           0        1.777095    0.180534   -2.143801
     26          1           0        1.245265   -0.637558   -2.176150
     27          6           0        3.106844    2.502000   -1.026277
     28          1           0        3.568995    3.485444   -1.173813
     29          1           0        3.718862    1.795221   -1.597645
     30          1           0        3.190083    2.248176    0.033456
     31          8           0        1.721085    2.886613   -2.916999
     32          1           0        2.063614    2.090456   -3.371041
     33          1           0       -0.180035    3.946743    1.069320
     34          6           0       -1.636550    1.745038    0.670506
     35          6           0       -2.399468    1.193782    1.633546
     36          1           0       -3.482152    1.165100    1.560758
     37          1           0       -1.960241    0.744670    2.519626
     38          6           0       -2.297514    2.354113   -0.533516
     39          1           0       -2.165228    3.439611   -0.538455
     40          1           0       -3.377540    2.167152   -0.542795
     41          1           0       -1.902268    1.939207   -1.461542
     42          6           0       -1.359494   -4.702718    1.179636
     43          1           0       -1.482198   -4.817897    2.263494
     44          1           0       -2.358924   -4.832008    0.746632
     45          6           0       -0.426507   -5.781137    0.650480
     46          1           0       -0.821953   -6.773665    0.888399
     47          1           0        0.570637   -5.697402    1.095874
     48          1           0       -0.315373   -5.711846   -0.436962
 ---------------------------------------------------------------------
                    Distance matrix (angstroms):
                    1          2          3          4          5
     1  C    0.000000
     2  C    1.530241   0.000000
     3  H    2.166874   1.097919   0.000000
     4  H    2.155117   1.095445   1.733063   0.000000
     5  C    2.552279   1.527839   2.156724   2.168093   0.000000
     6  H    2.863353   2.141077   2.414641   3.049068   1.098026
     7  C    3.028499   2.593270   3.521404   2.953783   1.546178
     8  H    3.879543   3.442871   4.217739   3.934861   2.099584
     9  C    2.571850   2.992373   3.981869   3.450767   2.578975
    10  H    2.711533   3.286672   4.088239   4.014588   2.806311
    11  C    1.550437   2.525156   3.482794   2.827487   2.965445
    12  H    2.143804   2.776411   3.779010   2.635591   3.351687
    13  C    3.989833   4.472224   5.496134   4.770581   3.944348
    14  C    6.785258   7.284908   8.327481   7.459867   6.649902
    15  C    5.045254   5.456480   6.397572   5.895217   4.647641
    16  C    4.662448   5.206459   6.285704   5.249022   4.909606
    17  C    6.046723   6.587538   7.667111   6.614103   6.184465
    18  C    6.348692   6.788229   7.759477   7.140909   5.977987
    19  H    6.714473   7.275981   8.365822   7.175481   7.000098
    20  H    7.191192   7.592600   8.511182   8.019551   6.666497
    21  O    4.321329   4.893364   5.966744   4.708194   4.955495
    22  H    5.215772   5.725065   6.794245   5.419633   5.794146
    23  O    5.086514   5.380107   6.167967   6.019155   4.383122
    24  H    6.033976   6.319318   7.072647   6.970722   5.262836
    25  O    2.415883   3.769866   4.574098   4.111268   4.297140
    26  H    3.242989   4.447828   5.350623   4.665015   4.811865
    27  C    1.535715   2.533730   2.698072   3.458749   3.178183
    28  H    2.175362   2.774391   2.484440   3.682206   3.586001
    29  H    2.186021   3.490798   3.708521   4.297308   4.169236
    30  H    2.205239   2.839804   3.057342   3.880256   2.924274
    31  O    1.440014   2.397659   2.699264   2.541414   3.775649
    32  H    1.934750   3.214550   3.610566   3.384120   4.446414
    33  H    3.488262   2.155917   2.494001   2.448161   1.097295
    34  C    4.032285   3.398016   4.345808   3.252291   2.570882
    35  C    5.308174   4.686298   5.584347   4.570166   3.649777
    36  H    6.144161   5.467595   6.349026   5.172822   4.552309
    37  H    5.708074   5.173589   6.034182   5.260156   3.939506
    38  C    4.079099   3.358454   4.256210   2.739467   3.136793
    39  H    4.053822   3.000679   3.688964   2.250687   2.914267
    40  H    5.140044   4.434727   5.291362   3.737137   4.170683
    41  H    3.604267   3.242522   4.209012   2.562547   3.420078
    42  C    8.275945   8.783502   9.830462   8.924790   8.125188
    43  H    8.829798   9.224525  10.244642   9.414893   8.406294
    44  H    8.674210   9.117774  10.193776   9.129945   8.514076
    45  C    8.824839   9.546891  10.569707   9.754910   9.018649
    46  H    9.910800  10.610617  11.640214  10.794005  10.053541
    47  H    8.687744   9.464864  10.438318   9.793128   8.900432
    48  H    8.528063   9.359933  10.388056   9.516761   9.003544
                    6          7          8          9         10
     6  H    0.000000
     7  C    2.155729   0.000000
     8  H    2.256878   1.101483   0.000000
     9  C    2.916524   1.566292   2.143003   0.000000
    10  H    2.711699   2.151848   2.333760   1.099452   0.000000
    11  C    3.440423   2.584396   3.467063   1.547441   2.094285
    12  H    4.081407   2.904073   3.921587   2.202957   3.036227
    13  C    4.276766   2.572155   2.792993   1.536259   2.087450
    14  C    6.955233   5.149080   5.059279   4.384589   4.746574
    15  C    4.730148   3.278145   2.994316   2.538205   2.581811
    16  C    5.434159   3.540052   3.948172   2.599474   3.347346
    17  C    6.661831   4.729205   4.939972   3.883809   4.492184
    18  C    6.098232   4.536923   4.214150   3.845016   3.953490
    19  H    7.564730   5.581132   5.890103   4.760498   5.445566
    20  H    6.658266   5.282582   4.773213   4.700543   4.639438
    21  O    5.655658   3.821539   4.535653   2.955384   3.871837
    22  H    6.548994   4.633583   5.317745   3.894224   4.820577
    23  O    4.162626   3.284407   2.660304   2.821374   2.401923
    24  H    4.969262   4.184570   3.446814   3.786618   3.334580
    25  O    4.573946   3.859207   4.580648   2.471983   2.645551
    26  H    5.169638   4.079771   4.757181   2.625355   2.971388
    27  C    2.917540   3.778343   4.306306   3.191050   2.748672
    28  H    3.236828   4.519108   5.027524   4.180567   3.756338
    29  H    3.926599   4.527393   5.043032   3.602686   3.094693
    30  H    2.363769   3.423526   3.686824   2.941717   2.215944
    31  O    4.173138   4.307565   5.246780   3.802691   4.038737
    32  H    4.787964   4.732071   5.642994   3.911462   4.099988
    33  H    1.746813   2.185686   2.543847   3.525952   3.830552
    34  C    3.445793   1.536417   2.109465   2.635366   3.511768
    35  C    4.349969   2.499976   2.515758   3.523416   4.296158
    36  H    5.330607   3.507921   3.595755   4.474450   5.320371
    37  H    4.394919   2.716385   2.282481   3.646813   4.201126
    38  C    4.204272   2.639052   3.483114   3.461321   4.449352
    39  H    3.995691   2.974702   3.803636   3.998758   4.859223
    40  H    5.221102   3.564390   4.267297   4.362095   5.386637
    41  H    4.466067   2.908447   3.906790   3.233018   4.273459
    42  C    8.420994   6.608542   6.454967   5.891488   6.219849
    43  H    8.632572   6.888515   6.567891   6.338931   6.591325
    44  H    8.930691   6.981615   6.926047   6.356076   6.838313
    45  C    9.233346   7.566122   7.451813   6.603840   6.790138
    46  H   10.274092   8.580028   8.431727   7.671566   7.865953
    47  H    8.986541   7.509489   7.307277   6.485538   6.493257
    48  H    9.276439   7.596048   7.634309   6.502649   6.746605
                   11         12         13         14         15
    11  C    0.000000
    12  H    1.092257   0.000000
    13  C    2.643395   2.988753   0.000000
    14  C    5.332403   5.442685   2.849979   0.000000
    15  C    3.868615   4.360532   1.408911   2.422027   0.000000
    16  C    3.141628   3.053235   1.401418   2.430643   2.390840
    17  C    4.519779   4.416046   2.448144   1.398099   2.770588
    18  C    5.056384   5.409528   2.457401   1.396683   1.398157
    19  H    5.170902   4.885872   3.428730   2.148588   3.857587
    20  H    5.989050   6.421141   3.438055   2.149580   2.162435
    21  O    2.841240   2.324077   2.397193   3.659655   3.652369
    22  H    3.775689   3.135863   3.186458   3.768864   4.299676
    23  O    4.257127   4.964179   2.394959   3.663513   1.370797
    24  H    5.207880   5.907511   3.200052   3.773835   1.921114
    25  O    1.439854   2.029713   3.039082   5.313150   4.130856
    26  H    1.937693   2.213699   2.671902   4.567206   3.783797
    27  C    2.585341   3.484224   4.558927   7.288868   5.303232
    28  H    3.527782   4.294306   5.606910   8.366301   6.334407
    29  H    2.847137   3.759864   4.745376   7.287620   5.465613
    30  H    2.903352   3.911571   4.255619   6.928480   4.745848
    31  O    2.414496   2.546365   5.056607   7.711135   6.235280
    32  H    2.420163   2.595462   4.974360   7.465779   6.152269
    33  H    3.940119   4.136970   4.748334   7.299091   5.386683
    34  C    3.400135   3.212478   3.071852   5.128930   3.862576
    35  C    4.552704   4.389661   3.471095   4.832427   3.874543
    36  H    5.358662   5.017590   4.293683   5.245915   4.718795
    37  H    4.935818   4.980498   3.421352   4.524054   3.414209
    38  C    3.590819   2.991908   4.008383   6.021410   5.068081
    39  H    3.983882   3.465390   4.826817   7.028510   5.854980
    40  H    4.543724   3.837098   4.628036   6.204351   5.616123
    41  H    2.967868   2.141262   3.773946   5.848160   5.026131
    42  C    6.804280   6.862970   4.356885   1.507034   3.807367
    43  H    7.423137   7.546332   4.844422   2.141747   4.039804
    44  H    7.166704   7.059406   4.840845   2.141646   4.526214
    45  C    7.355542   7.495136   5.108414   2.507750   4.561997
    46  H    8.433045   8.536882   6.162906   3.454820   5.574695
    47  H    7.297899   7.594584   5.064438   2.778632   4.328582
    48  H    7.034282   7.105865   5.061151   2.778673   4.790471
                   16         17         18         19         20
    16  C    0.000000
    17  C    1.400519   0.000000
    18  C    2.781802   2.404655   0.000000
    19  H    2.163041   1.087056   3.388241   0.000000
    20  H    3.868280   3.389705   1.086490   4.285064   0.000000
    21  O    1.365736   2.373009   4.146894   2.606529   5.233345
    22  H    1.915810   2.379643   4.537951   2.196602   5.605021
    23  O    3.647681   4.141247   2.383688   5.228246   2.623448
    24  H    4.311707   4.542403   2.382199   5.610284   2.193212
    25  O    3.316898   4.510019   5.143172   5.075183   6.054350
    26  H    2.612030   3.683305   4.596056   4.172248   5.557703
    27  C    5.472543   6.772860   6.636264   7.548100   7.326968
    28  H    6.517339   7.839213   7.686790   8.599852   8.348937
    29  H    5.546585   6.768646   6.702425   7.495438   7.388586
    30  H    5.378505   6.607698   6.101221   7.490296   6.678821
    31  O    5.438384   6.799612   7.456092   7.298439   8.361079
    32  H    5.239746   6.532937   7.289674   6.978539   8.205188
    33  H    5.633318   6.848572   6.646392   7.626892   7.293702
    34  C    3.525736   4.558007   4.826546   5.227597   5.633101
    35  C    3.830670   4.505134   4.545122   5.162197   5.215269
    36  H    4.363852   4.855327   5.180786   5.327985   5.839582
    37  H    4.002788   4.517310   4.004923   5.302480   4.499770
    38  C    4.080741   5.158875   5.976074   5.588944   6.881433
    39  H    5.057852   6.200991   6.871007   6.659852   7.736047
    40  H    4.459361   5.321347   6.328986   5.597384   7.220936
    41  H    3.648505   4.810788   5.931065   5.152304   6.921878
    42  C    3.814034   2.524398   2.523274   2.717446   2.720500
    43  H    4.534887   3.367508   2.667905   3.688009   2.469075
    44  H    4.044010   2.669110   3.365703   2.468742   3.688480
    45  C    4.566971   3.339029   3.339365   3.394258   3.403944
    46  H    5.579376   4.284360   4.284445   4.186919   4.195710
    47  H    4.796841   3.772420   3.159055   4.075800   3.017641
    48  H    4.330767   3.157793   3.772956   3.004492   4.085906
                   21         22         23         24         25
    21  O    0.000000
    22  H    0.972078   0.000000
    23  O    4.789474   5.532222   0.000000
    24  H    5.549875   6.219714   0.970825   0.000000
    25  O    3.038876   3.901528   4.615888   5.472121   0.000000
    26  H    2.351519   3.144863   4.529991   5.329860   0.976301
    27  C    5.398076   6.342156   5.025742   5.878010   2.899361
    28  H    6.365987   7.291094   5.960544   6.786857   3.882551
    29  H    5.463779   6.383910   5.282510   6.083471   2.583787
    30  H    5.566241   6.536231   4.235125   5.031200   3.318452
    31  O    4.778819   5.550876   6.419711   7.365564   2.814930
    32  H    4.560584   5.308745   6.436569   7.354310   2.288233
    33  H    5.644227   6.396324   5.100499   5.914245   5.323423
    34  C    3.615496   4.181265   4.218688   5.021366   4.692651
    35  C    4.204370   4.593673   4.256011   4.866596   5.721774
    36  H    4.595746   4.777669   5.227283   5.772935   6.507904
    37  H    4.686054   5.124514   3.606295   4.070492   6.002789
    38  C    3.641619   4.047642   5.572502   6.419962   4.890798
    39  H    4.586124   5.040836   6.170846   7.035622   5.361029
    40  H    3.987926   4.147517   6.240508   7.018165   5.751534
    41  H    2.912239   3.334063   5.670986   6.564092   4.134746
    42  C    4.896593   4.784421   4.906639   4.790970   6.688018
    43  H    5.710373   5.658555   4.929706   4.632622   7.418326
    44  H    4.917317   4.597595   5.714547   5.688434   7.112443
    45  C    5.562649   5.461594   5.581051   5.406026   6.943010
    46  H    6.529075   6.334240   6.548510   6.288992   8.019363
    47  H    5.897387   5.965107   5.149869   4.868480   6.819177
    48  H    5.124805   4.958613   5.913122   5.891994   6.481657
                   26         27         28         29         30
    26  H    0.000000
    27  C    3.826814   0.000000
    28  H    4.837721   1.096591   0.000000
    29  H    3.517352   1.095703   1.748984   0.000000
    30  H    4.122152   1.092881   1.769719   1.773489   0.000000
    31  O    3.632497   2.375517   2.609993   2.631148   3.357192
    32  H    3.088611   2.599157   3.006655   2.443756   3.589486
    33  H    5.794857   4.157208   4.393139   5.190679   3.913546
    34  C    4.699476   5.094296   5.790357   5.816139   4.894423
    35  C    5.581368   6.253444   6.982516   6.945235   5.908902
    36  H    6.289875   7.203813   7.910787   7.888420   6.929966
    37  H    5.851165   6.429384   7.192064   7.092798   5.913325
    38  C    4.919311   5.428791   6.008812   6.135268   5.517826
    39  H    5.562087   5.376972   5.769497   6.200679   5.515973
    40  H    5.648414   6.511000   7.098622   7.184008   6.593354
    41  H    4.130054   5.059386   5.692833   5.624620   5.316251
    42  C    5.879762   8.759121   9.842496   8.702081   8.386138
    43  H    6.680175   9.244609  10.308982   9.257039   8.759719
    44  H    6.255098   9.316947  10.392706   9.292755   9.023808
    45  C    6.102546   9.160046  10.254833   8.924089   8.827815
    46  H    7.163565  10.253751  11.348236  10.011256   9.910650
    47  H    6.063274   8.841158   9.923018   8.561879   8.433413
    48  H    5.586481   8.917743  10.011064   8.601064   8.710423
                   31         32         33         34         35
    31  O    0.000000
    32  H    0.978440   0.000000
    33  H    4.541902   5.310044   0.000000
    34  C    5.044512   5.490413   2.669831   0.000000
    35  C    6.368052   6.765280   3.580926   1.346615   0.000000
    36  H    7.077258   7.478933   4.345461   2.129582   1.085507
    37  H    6.906299   7.259649   3.940278   2.127147   1.086168
    38  C    4.702519   5.209654   3.096656   1.502503   2.460268
    39  H    4.589848   5.265630   2.604442   2.147712   3.133082
    40  H    5.670137   6.132782   3.998738   2.163637   2.576923
    41  H    4.018037   4.404234   3.660813   2.157298   3.222178
    42  C    9.158074   8.864172   8.730205   6.473757   6.004690
    43  H    9.821304   9.594067   8.940951   6.755261   6.113797
    44  H    9.468145   9.188829   9.050865   6.617035   6.090846
    45  C    9.616077   9.183426   9.740011   7.622854   7.314949
    46  H   10.689671  10.248999  10.741133   8.560336   8.156226
    47  H    9.545260   9.101266   9.673353   7.774479   7.523233
    48  H    9.177758   8.668582   9.776275   7.653569   7.504542
                   36         37         38         39         40
    36  H    0.000000
    37  H    1.847269   0.000000
    38  C    2.683859   3.467814   0.000000
    39  H    3.363686   4.081248   1.093541   0.000000
    40  H    2.332377   3.662050   1.096128   1.757519   0.000000
    41  H    3.497080   4.156919   1.090687   1.781137   1.752850
    42  C    6.251578   5.641853   7.322133   8.360537   7.364401
    43  H    6.347434   5.588943   7.741171   8.746650   7.762634
    44  H    6.155466   5.865304   7.299513   8.373091   7.189468
    45  C    7.643022   6.959324   8.431180   9.458272   8.561997
    46  H    8.399567   7.777015   9.354969  10.399582   9.408377
    47  H    7.983431   7.066307   8.701040   9.676828   8.951232
    48  H    7.830183   7.289280   8.306497   9.337100   8.453797
                   41         42         43         44         45
    41  H    0.000000
    42  C    7.168375   0.000000
    43  H    7.727277   1.096846   0.000000
    44  H    7.136801   1.096845   1.752061   0.000000
    45  C    8.138932   1.521005   2.155024   2.155069   0.000000
    46  H    9.088644   2.159303   2.480290   2.480405   1.094576
    47  H    8.424574   2.172974   2.520119   3.074606   1.095301
    48  H    7.880775   2.172997   3.074588   2.520141   1.095301
                   46         47         48
    46  H    0.000000
    47  H    1.772200   0.000000
    48  H    1.772192   1.770539   0.000000
 Stoichiometry    C18H26O4
 Framework group  C1[X(C18H26O4)]
 Deg. of freedom   138
 Full point group                 C1      NOp   1
 Largest Abelian subgroup         C1      NOp   1
 Largest concise Abelian subgroup C1      NOp   1
                         Standard orientation:                         
 ---------------------------------------------------------------------
 Center     Atomic      Atomic             Coordinates (Angstroms)
 Number     Number       Type             X           Y           Z
 ---------------------------------------------------------------------
      1          6           0        3.123994   -1.061129    0.010854
      2          6           0        3.696760    0.351614    0.144025
      3          1           0        4.724152    0.305249    0.528395
      4          1           0        3.798565    0.794628   -0.852657
      5          6           0        2.859146    1.256769    1.045907
      6          1           0        2.977312    0.911194    2.081414
      7          6           0        1.347791    1.286769    0.720982
      8          1           0        0.888428    1.650800    1.653576
      9          6           0        0.768696   -0.151793    0.500848
     10          1           0        0.866748   -0.675049    1.462816
     11          6           0        1.646446   -0.995457   -0.454328
     12          1           0        1.646126   -0.595159   -1.470589
     13          6           0       -0.747962   -0.130502    0.257151
     14          6           0       -3.576897    0.003070   -0.061698
     15          6           0       -1.613756    0.033156    1.356535
     16          6           0       -1.348516   -0.223403   -1.005654
     17          6           0       -2.738274   -0.162796   -1.167989
     18          6           0       -3.002636    0.095077    1.208138
     19          1           0       -3.179081   -0.252840   -2.157570
     20          1           0       -3.644650    0.216854    2.076152
     21          8           0       -0.576814   -0.396752   -2.119055
     22          1           0       -1.114742   -0.210891   -2.907106
     23          8           0       -1.078120    0.138330    2.613961
     24          1           0       -1.798764    0.209579    3.260564
     25          8           0        1.161652   -2.346599   -0.566444
     26          1           0        0.279782   -2.265595   -0.977427
     27          6           0        3.333589   -1.875862    1.295650
     28          1           0        4.401745   -1.943416    1.534378
     29          1           0        2.988976   -2.908547    1.171676
     30          1           0        2.823245   -1.446196    2.161285
     31          8           0        3.873953   -1.740562   -1.013632
     32          1           0        3.346868   -2.539323   -1.217368
     33          1           0        3.274445    2.272273    1.027596
     34          6           0        0.981770    2.337082   -0.338947
     35          6           0        0.012590    3.238361   -0.090441
     36          1           0       -0.262238    3.998770   -0.814715
     37          1           0       -0.542225    3.233977    0.843327
     38          6           0        1.718655    2.390649   -1.647246
     39          1           0        2.759922    2.686295   -1.491723
     40          1           0        1.279933    3.126168   -2.331375
     41          1           0        1.690522    1.430360   -2.163629
     42          6           0       -5.073453    0.049603   -0.232889
     43          1           0       -5.512970    0.697638    0.535191
     44          1           0       -5.320529    0.511966   -1.196343
     45          6           0       -5.695025   -1.336314   -0.153301
     46          1           0       -6.780269   -1.272169   -0.280684
     47          1           0       -5.494235   -1.806806    0.815205
     48          1           0       -5.299951   -1.994462   -0.934609
 ---------------------------------------------------------------------
 Rotational constants (GHZ):      0.4841499      0.1836800      0.1711481
 Standard basis: 6-31+G(d,p) (6D, 7F)
 There are   548 symmetry adapted basis functions of A   symmetry.
 Integral buffers will be    131072 words long.
 Raffenetti 2 integral format.
 Two-electron integral symmetry is turned on.
   548 basis functions,   886 primitive gaussians,   548 cartesian basis functions
    83 alpha electrons       83 beta electrons
       nuclear repulsion energy      1984.0304905391 Hartrees.
 NAtoms=   48 NActive=   48 NUniq=   48 SFac= 1.00D+00 NAtFMM=   60 NAOKFM=F Big=F
 ------------------------------------------------------------------------------
 Polarizable Continuum Model (PCM)
 =================================
 Model                : PCM.
 Atomic radii         : UFF (Universal Force Field).
 Polarization charges : Total charges.
 Charge compensation  : None.
 Solution method      : Matrix inversion.
 Cavity type          : Scaled VdW (van der Waals Surface) (Alpha=1.100).
 Cavity algorithm     : GePol (No added spheres)
                        Default sphere list used, NSphG=   48.
                        Lebedev-Laikov grids with approx.  5.0 points / Ang**2.
                        Smoothing algorithm: Karplus/York (Gamma=1.0000).
                        Polarization charges: spherical gaussians, with
                                              point-specific exponents (IZeta= 3).
                        Self-potential: point-specific (ISelfS= 7).
                        Self-field    : sphere-specific E.n sum rule (ISelfD= 2).
 Solvent              : Water, Eps=  78.355300 Eps(inf)=   1.777849
 ------------------------------------------------------------------------------
 One-electron integrals computed using PRISM.
 NBasis=   548 RedAO= T  NBF=   548
 NBsUse=   545 1.00D-06 NBFU=   545
 Harris functional with IExCor=  908 diagonalized for initial guess.
 ExpMin= 4.38D-02 ExpMax= 5.48D+03 ExpMxC= 8.25D+02 IAcc=2 IRadAn=         4 AccDes= 0.00D+00
 HarFok:  IExCor=  908 AccDes= 0.00D+00 IRadAn=         4 IDoV= 1
 ScaDFX=  1.000000  1.000000  1.000000  1.000000
 FoFCou: FMM=F IPFlag=           0 FMFlag=      100000 FMFlg1=           0
         NFxFlg=           0 DoJE=T BraDBF=F KetDBF=T FulRan=T
         Omega=  0.000000  0.000000  1.000000  0.000000  0.000000 ICntrl=     500 IOpCl=  0
         NMat0=    1 NMatS0=    1 NMatT0=    0 NMatD0=    1 NMtDS0=    0 NMtDT0=    0
         I1Cent=           4 NGrid=           0.
 Petite list used in FoFCou.
 Initial guess orbital symmetries:
       Occupied  (A) (A) (A) (A) (A) (A) (A) (A) (A) (A) (A) (A)
                 (A) (A) (A) (A) (A) (A) (A) (A) (A) (A) (A) (A)
                 (A) (A) (A) (A) (A) (A) (A) (A) (A) (A) (A) (A)
                 (A) (A) (A) (A) (A) (A) (A) (A) (A) (A) (A) (A)
                 (A) (A) (A) (A) (A) (A) (A) (A) (A) (A) (A) (A)
                 (A) (A) (A) (A) (A) (A) (A) (A) (A) (A) (A) (A)
                 (A) (A) (A) (A) (A) (A) (A) (A) (A) (A) (A)
       Virtual   (A) (A) (A) (A) (A) (A) (A) (A) (A) (A) (A) (A)
                 (A) (A) (A) (A) (A) (A) (A) (A) (A) (A) (A) (A)
                 (A) (A) (A) (A) (A) (A) (A) (A) (A) (A) (A) (A)
                 (A) (A) (A) (A) (A) (A) (A) (A) (A) (A) (A) (A)
                 (A) (A) (A) (A) (A) (A) (A) (A) (A) (A) (A) (A)
                 (A) (A) (A) (A) (A) (A) (A) (A) (A) (A) (A) (A)
                 (A) (A) (A) (A) (A) (A) (A) (A) (A) (A) (A) (A)
                 (A) (A) (A) (A) (A) (A) (A) (A) (A) (A) (A) (A)
                 (A) (A) (A) (A) (A) (A) (A) (A) (A) (A) (A) (A)
                 (A) (A) (A) (A) (A) (A) (A) (A) (A) (A) (A) (A)
                 (A) (A) (A) (A) (A) (A) (A) (A) (A) (A) (A) (A)
                 (A) (A) (A) (A) (A) (A) (A) (A) (A) (A) (A) (A)
                 (A) (A) (A) (A) (A) (A) (A) (A) (A) (A) (A) (A)
                 (A) (A) (A) (A) (A) (A) (A) (A) (A) (A) (A) (A)
                 (A) (A) (A) (A) (A) (A) (A) (A) (A) (A) (A) (A)
                 (A) (A) (A) (A) (A) (A) (A) (A) (A) (A) (A) (A)
                 (A) (A) (A) (A) (A) (A) (A) (A) (A) (A) (A) (A)
                 (A) (A) (A) (A) (A) (A) (A) (A) (A) (A) (A) (A)
                 (A) (A) (A) (A) (A) (A) (A) (A) (A) (A) (A) (A)
                 (A) (A) (A) (A) (A) (A) (A) (A) (A) (A) (A) (A)
                 (A) (A) (A) (A) (A) (A) (A) (A) (A) (A) (A) (A)
                 (A) (A) (A) (A) (A) (A) (A) (A) (A) (A) (A) (A)
                 (A) (A) (A) (A) (A) (A) (A) (A) (A) (A) (A) (A)
                 (A) (A) (A) (A) (A) (A) (A) (A) (A) (A) (A) (A)
                 (A) (A) (A) (A) (A) (A) (A) (A) (A) (A) (A) (A)
                 (A) (A) (A) (A) (A) (A) (A) (A) (A) (A) (A) (A)
                 (A) (A) (A) (A) (A) (A) (A) (A) (A) (A) (A) (A)
                 (A) (A) (A) (A) (A) (A) (A) (A) (A) (A) (A) (A)
                 (A) (A) (A) (A) (A) (A) (A) (A) (A) (A) (A) (A)
                 (A) (A) (A) (A) (A) (A) (A) (A) (A) (A) (A) (A)
                 (A) (A) (A) (A) (A) (A) (A) (A) (A) (A) (A) (A)
                 (A) (A) (A) (A) (A) (A) (A) (A) (A) (A) (A) (A)
                 (A) (A) (A) (A) (A) (A) (A) (A) (A) (A) (A) (A)
                 (A) (A) (A) (A) (A) (A) (A) (A) (A) (A) (A) (A)
                 (A) (A) (A) (A) (A) (A) (A) (A) (A) (A) (A) (A)
                 (A) (A) (A) (A) (A) (A) (A) (A) (A) (A) (A) (A)
                 (A) (A) (A) (A) (A) (A) (A) (A) (A) (A) (A) (A)
                 (A) (A) (A) (A) (A) (A) (A) (A) (A) (A) (A) (A)
                 (A) (A) (A) (A) (A) (A)
 The electronic state of the initial guess is 1-A.
 Requested convergence on RMS density matrix=1.00D-08 within 128 cycles.
 Requested convergence on MAX density matrix=1.00D-06.
 Requested convergence on             energy=1.00D-06.
 No special actions if energy rises.
 CoulSu:  requested number of processors reduced to:   2 ShMem   1 Linda.
 CoulSu:  requested number of processors reduced to:   2 ShMem   1 Linda.
 Error on total polarization charges =  0.01943
 SCF Done:  E(RmPW1PW91) =  -1002.30385532     A.U. after   14 cycles
             Convg  =    0.5326D-08             -V/T =  2.0094
 Range of M.O.s used for correlation:     1   545
 NBasis=   548 NAE=    83 NBE=    83 NFC=     0 NFV=     0
 NROrb=    545 NOA=    83 NOB=    83 NVA=   462 NVB=   462

 **** Warning!!: The largest alpha MO coefficient is  0.10342464D+03

 NEqPCM:  Using equilibrium solvation (IEInf=0, Eps=  78.3553, EpsInf=   1.7778)
          Differentiating once with respect to magnetic field using GIAOs.
          Electric field/nuclear overlap derivatives assumed to be zero.
 FoFCou: FMM=F IPFlag=           0 FMFlag=    10101102 FMFlg1=           0
         NFxFlg=    40000000 DoJE=F BraDBF=F KetDBF=T FulRan=T
         Omega=  0.000000  0.000000  1.000000  0.000000  0.000000 ICntrl=    6100 IOpCl=  0
         NMat0=    1 NMatS0=    1 NMatT0=    0 NMatD0=    1 NMtDS0=    0 NMtDT0=    0
         I1Cent=           7 NGrid=        2988.
 Symmetry not used in FoFCou.
          There are     3 degrees of freedom in the 1st order CPHF.  IDoFFX=0.
      3 vectors produced by pass  0 Test12= 1.28D-12 3.33D-08 XBig12= 7.66D+02 4.51D+00.
 AX will form     3 AO Fock derivatives at one time.
      3 vectors produced by pass  1 Test12= 1.28D-12 3.33D-08 XBig12= 1.86D+00 5.22D-01.
      3 vectors produced by pass  2 Test12= 1.28D-12 3.33D-08 XBig12= 8.15D-03 4.42D-02.
      3 vectors produced by pass  3 Test12= 1.28D-12 3.33D-08 XBig12= 4.20D-05 1.95D-03.
      3 vectors produced by pass  4 Test12= 1.28D-12 3.33D-08 XBig12= 1.26D-07 7.88D-05.
      3 vectors produced by pass  5 Test12= 1.28D-12 3.33D-08 XBig12= 3.93D-10 5.17D-06.
      3 vectors produced by pass  6 Test12= 1.28D-12 3.33D-08 XBig12= 1.85D-12 2.67D-07.
 Inverted reduced A of dimension    21 with in-core refinement.
 Calculating GIAO nuclear magnetic shielding tensors.
 SCF GIAO Magnetic shielding tensor (ppm):
      1  C    Isotropic =   120.9206   Anisotropy =    45.9406
   XX=   119.3470   YX=    -9.3673   ZX=   -14.9691
   XY=   -12.9842   YY=   112.9001   ZY=    11.3822
   XZ=   -22.6099   YZ=    12.9969   ZZ=   130.5147
   Eigenvalues:   104.0453   107.1687   151.5476
      2  C    Isotropic =   159.6043   Anisotropy =    25.8765
   XX=   156.5015   YX=     6.8988   ZX=    -2.0532
   XY=     4.1460   YY=   175.0038   ZY=     2.4035
   XZ=    -2.1440   YZ=     5.1723   ZZ=   147.3075
   Eigenvalues:   145.9746   155.9830   176.8553
      3  H    Isotropic =    29.9086   Anisotropy =     9.3481
   XX=    35.8631   YX=     0.0746   ZX=     1.6801
   XY=     0.9256   YY=    28.0616   ZY=     0.4874
   XZ=     1.4378   YZ=     0.6341   ZZ=    25.8011
   Eigenvalues:    25.4751    28.1101    36.1407
      4  H    Isotropic =    29.4474   Anisotropy =     6.5669
   XX=    28.6391   YX=    -0.2915   ZX=    -2.5857
   XY=     0.3606   YY=    30.1182   ZY=    -3.6568
   XZ=    -1.6738   YZ=    -3.3795   ZZ=    29.5849
   Eigenvalues:    25.4977    29.0192    33.8254
      5  C    Isotropic =   166.8052   Anisotropy =    21.4314
   XX=   180.4452   YX=    -3.2484   ZX=     4.5542
   XY=    -2.1527   YY=   161.9070   ZY=     5.6022
   XZ=     1.2465   YZ=     0.7473   ZZ=   158.0634
   Eigenvalues:   155.6723   163.6505   181.0928
      6  H    Isotropic =    29.3771   Anisotropy =     8.2402
   XX=    28.3521   YX=    -1.4698   ZX=     2.6959
   XY=    -0.6004   YY=    25.8987   ZY=     1.7621
   XZ=     2.2353   YZ=     0.4427   ZZ=    33.8806
   Eigenvalues:    25.0658    28.1950    34.8706
      7  C    Isotropic =   150.1803   Anisotropy =    21.2531
   XX=   148.4125   YX=    -1.3430   ZX=     7.3655
   XY=    -2.9218   YY=   152.1640   ZY=   -10.1184
   XZ=     4.7032   YZ=   -12.2654   ZZ=   149.9643
   Eigenvalues:   138.7133   147.4786   164.3490
      8  H    Isotropic =    28.1173   Anisotropy =     6.0182
   XX=    28.8215   YX=    -1.3060   ZX=    -1.7546
   XY=     1.0497   YY=    26.9846   ZY=     3.1277
   XZ=    -2.9242   YZ=     2.9889   ZZ=    28.5460
   Eigenvalues:    24.1746    28.0479    32.1295
      9  C    Isotropic =   148.1000   Anisotropy =    29.0420
   XX=   147.4784   YX=    -3.1981   ZX=    -3.7695
   XY=     4.5586   YY=   163.5994   ZY=    10.2022
   XZ=    -1.6314   YZ=    12.7881   ZZ=   133.2221
   Eigenvalues:   128.9466   147.8921   167.4613
     10  H    Isotropic =    28.1783   Anisotropy =     6.0285
   XX=    30.9492   YX=    -1.2602   ZX=    -1.9864
   XY=    -3.3064   YY=    24.5427   ZY=    -2.0868
   XZ=    -1.6162   YZ=    -1.7257   ZZ=    29.0430
   Eigenvalues:    22.8826    29.4550    32.1973
     11  C    Isotropic =   119.2270   Anisotropy =    31.0131
   XX=   122.2999   YX=     5.5003   ZX=    -4.2871
   XY=    16.1928   YY=   133.1547   ZY=    -1.6755
   XZ=    -2.1955   YZ=     2.5875   ZZ=   102.2263
   Eigenvalues:   101.5421   116.2365   139.9024
     12  H    Isotropic =    26.4000   Anisotropy =     3.3251
   XX=    25.9117   YX=     0.6202   ZX=     1.2180
   XY=    -0.1843   YY=    27.0981   ZY=    -2.5078
   XZ=     1.2332   YZ=    -1.0416   ZZ=    26.1901
   Eigenvalues:    24.1089    26.4743    28.6167
     13  C    Isotropic =    91.2042   Anisotropy =   118.6315
   XX=    47.4942   YX=     8.0259   ZX=    -0.7084
   XY=     2.9859   YY=   168.4110   ZY=   -14.6760
   XZ=    -0.2933   YZ=   -12.4055   ZZ=    57.7074
   Eigenvalues:    47.2425    56.0782   170.2919
     14  C    Isotropic =    49.6224   Anisotropy =   190.1114
   XX=   -31.9137   YX=    15.4504   ZX=    -6.5982
   XY=    12.2623   YY=   173.6385   ZY=   -17.5902
   XZ=    -5.2942   YZ=   -16.5359   ZZ=     7.1425
   Eigenvalues:   -33.4303     5.9342   176.3633
     15  C    Isotropic =    42.8116   Anisotropy =   126.5252
   XX=    31.7674   YX=     3.3821   ZX=   -26.5939
   XY=     2.6480   YY=   125.0886   ZY=   -16.9156
   XZ=   -18.7966   YZ=   -16.1193   ZZ=   -28.4213
   Eigenvalues:   -37.3580    38.6310   127.1617
     16  C    Isotropic =    43.5364   Anisotropy =   119.6951
   XX=    21.2148   YX=     9.9613   ZX=    37.9765
   XY=    11.1447   YY=   121.5889   ZY=   -10.0330
   XZ=    25.5746   YZ=   -14.6597   ZZ=   -12.1943
   Eigenvalues:   -33.0502    40.3264   123.3332
     17  C    Isotropic =    88.9001   Anisotropy =    99.1276
   XX=    83.1072   YX=     0.1945   ZX=   -27.8984
   XY=    -5.7854   YY=   153.6543   ZY=   -12.4705
   XZ=   -29.8632   YZ=   -13.3249   ZZ=    29.9389
   Eigenvalues:    16.0532    95.6620   154.9852
     18  C    Isotropic =    90.3596   Anisotropy =    99.3411
   XX=    70.4698   YX=     6.3656   ZX=    33.0323
   XY=     1.6559   YY=   154.8718   ZY=   -15.7851
   XZ=    36.3092   YZ=   -11.7828   ZZ=    45.7370
   Eigenvalues:    19.9244    94.5673   156.5870
     19  H    Isotropic =    25.1205   Anisotropy =     7.7731
   XX=    29.6664   YX=     0.0131   ZX=    -1.8491
   XY=     0.4641   YY=    20.8464   ZY=    -0.2450
   XZ=    -1.8636   YZ=     0.4601   ZZ=    24.8488
   Eigenvalues:    20.8331    24.2260    30.3026
     20  H    Isotropic =    25.0931   Anisotropy =     7.2106
   XX=    28.3127   YX=     0.5187   ZX=     2.3735
   XY=     0.6954   YY=    21.1761   ZY=     1.1139
   XZ=     2.4960   YZ=     0.5961   ZZ=    25.7907
   Eigenvalues:    21.0181    24.3611    29.9002
     21  O    Isotropic =   230.5547   Anisotropy =    55.2783
   XX=   211.7186   YX=     6.9688   ZX=   -25.5476
   XY=   -19.2861   YY=   242.0688   ZY=    18.7934
   XZ=   -40.6882   YZ=     5.0264   ZZ=   237.8765
   Eigenvalues:   189.1394   235.1177   267.4068
     22  H    Isotropic =    26.4071   Anisotropy =    15.4570
   XX=    27.3435   YX=    -1.3508   ZX=     4.2849
   XY=    -1.1735   YY=    18.2651   ZY=    -2.2550
   XZ=     5.8268   YZ=    -1.5878   ZZ=    33.6126
   Eigenvalues:    17.9759    24.5335    36.7117
     23  O    Isotropic =   226.8567   Anisotropy =    53.0822
   XX=   192.0950   YX=     2.0892   ZX=    17.2370
   XY=    10.2227   YY=   241.1493   ZY=   -17.1837
   XZ=    38.6996   YZ=    -5.3268   ZZ=   247.3259
   Eigenvalues:   178.7754   239.5499   262.2449
     24  H    Isotropic =    26.5257   Anisotropy =    15.3622
   XX=    29.6076   YX=    -0.4237   ZX=    -4.9503
   XY=    -0.2741   YY=    17.9251   ZY=     0.2699
   XZ=    -6.6046   YZ=     1.3022   ZZ=    32.0445
   Eigenvalues:    17.8814    24.9287    36.7672
     25  O    Isotropic =   295.2124   Anisotropy =    28.5769
   XX=   301.8519   YX=     9.0429   ZX=    24.4512
   XY=    -5.2764   YY=   303.1004   ZY=     3.2085
   XZ=    16.3738   YZ=    -8.8115   ZZ=   280.6850
   Eigenvalues:   267.9519   303.4217   314.2637
     26  H    Isotropic =    29.4042   Anisotropy =    18.5110
   XX=    37.3651   YX=    -0.2015   ZX=     9.1747
   XY=    -2.0976   YY=    27.7850   ZY=     2.0259
   XZ=     8.9003   YZ=     1.3572   ZZ=    23.0624
   Eigenvalues:    18.2591    28.2085    41.7449
     27  C    Isotropic =   174.9429   Anisotropy =    32.0242
   XX=   168.9666   YX=    -3.4327   ZX=     5.2584
   XY=    -1.6867   YY=   169.2565   ZY=   -17.1684
   XZ=    -1.0517   YZ=   -14.3893   ZZ=   186.6056
   Eigenvalues:   159.7811   168.7552   196.2924
     28  H    Isotropic =    30.7203   Anisotropy =     9.9756
   XX=    34.4946   YX=    -2.1121   ZX=     3.3117
   XY=    -2.5488   YY=    28.3557   ZY=    -1.9050
   XZ=     4.1107   YZ=    -1.7375   ZZ=    29.3104
   Eigenvalues:    26.8830    27.9071    37.3707
     29  H    Isotropic =    30.1779   Anisotropy =     8.0492
   XX=    28.1900   YX=     0.9249   ZX=     1.8099
   XY=     0.2301   YY=    34.4718   ZY=    -2.2377
   XZ=     1.6724   YZ=    -3.4966   ZZ=    27.8719
   Eigenvalues:    25.5346    29.4550    35.5440
     30  H    Isotropic =    29.8972   Anisotropy =     7.7894
   XX=    27.7810   YX=    -2.5606   ZX=    -1.2960
   XY=    -2.4315   YY=    27.1555   ZY=    -1.4030
   XZ=    -1.8297   YZ=     0.1889   ZZ=    34.7553
   Eigenvalues:    24.7289    29.8726    35.0902
     31  O    Isotropic =   257.6818   Anisotropy =    79.5273
   XX=   223.9148   YX=   -13.5631   ZX=   -11.1436
   XY=    -6.9595   YY=   247.9438   ZY=    10.8714
   XZ=   -22.7745   YZ=    24.1829   ZZ=   301.1868
   Eigenvalues:   218.6918   243.6536   310.7000
     32  H    Isotropic =    28.4423   Anisotropy =    14.4023
   XX=    28.2323   YX=     2.8412   ZX=    -1.7774
   XY=     3.0829   YY=    33.6240   ZY=     7.3899
   XZ=    -0.2854   YZ=     7.5153   ZZ=    23.4705
   Eigenvalues:    18.9465    28.3365    38.0438
     33  H    Isotropic =    29.8688   Anisotropy =     9.4675
   XX=    29.9973   YX=     2.9280   ZX=     1.2784
   XY=     3.5934   YY=    33.5334   ZY=     2.3927
   XZ=     1.8997   YZ=     1.9291   ZZ=    26.0757
   Eigenvalues:    25.3470    28.0789    36.1805
     34  C    Isotropic =    43.0676   Anisotropy =   180.2537
   XX=    92.6401   YX=    44.9624   ZX=    51.0481
   XY=    45.0089   YY=    70.2751   ZY=    65.6875
   XZ=    52.4415   YZ=    70.5988   ZZ=   -33.7123
   Eigenvalues:   -72.3403    38.3065   163.2368
     35  C    Isotropic =    84.3332   Anisotropy =    96.4016
   XX=   125.8411   YX=     5.9861   ZX=    25.4706
   XY=    10.6538   YY=   104.3542   ZY=    56.3335
   XZ=    26.4529   YZ=    50.5939   ZZ=    22.8042
   Eigenvalues:    -6.6108   111.0094   148.6009
     36  H    Isotropic =    26.8065   Anisotropy =     6.0180
   XX=    27.7215   YX=    -3.0196   ZX=     0.8841
   XY=    -0.8821   YY=    29.5788   ZY=    -0.4771
   XZ=    -0.9773   YZ=     0.9972   ZZ=    23.1193
   Eigenvalues:    23.1086    26.4925    30.8186
     37  H    Isotropic =    27.0676   Anisotropy =     7.7433
   XX=    27.6034   YX=    -1.3622   ZX=    -1.6356
   XY=    -1.5709   YY=    30.9174   ZY=     3.7945
   XZ=    -0.3211   YZ=     1.2127   ZZ=    22.6819
   Eigenvalues:    21.9251    27.0478    32.2298
     38  C    Isotropic =   170.5880   Anisotropy =    26.8877
   XX=   165.5450   YX=    -3.4050   ZX=   -11.4583
   XY=     0.8770   YY=   164.3669   ZY=    -7.2401
   XZ=   -11.6334   YZ=    -3.1159   ZZ=   181.8521
   Eigenvalues:   157.5955   165.6553   188.5131
     39  H    Isotropic =    29.5851   Anisotropy =     7.2515
   XX=    32.9908   YX=     1.5825   ZX=    -0.5962
   XY=     2.5535   YY=    28.4242   ZY=    -3.2432
   XZ=    -1.3887   YZ=    -2.6425   ZZ=    27.3403
   Eigenvalues:    24.8470    29.4889    34.4194
     40  H    Isotropic =    29.7341   Anisotropy =     8.5785
   XX=    27.7176   YX=    -1.3810   ZX=    -0.2921
   XY=    -1.8384   YY=    30.5172   ZY=    -3.9747
   XZ=     0.7149   YZ=    -5.0173   ZZ=    30.9674
   Eigenvalues:    25.6830    28.0662    35.4531
     41  H    Isotropic =    29.5043   Anisotropy =     3.7488
   XX=    26.0632   YX=    -0.2781   ZX=    -0.0409
   XY=     0.6431   YY=    31.9068   ZY=    -0.5285
   XZ=    -0.8895   YZ=     1.2774   ZZ=    30.5429
   Eigenvalues:    26.0072    30.5022    32.0035
     42  C    Isotropic =   164.3943   Anisotropy =    28.2079
   XX=   182.9170   YX=    -7.2665   ZX=     3.3956
   XY=     8.6619   YY=   152.4061   ZY=     1.4279
   XZ=     1.7672   YZ=     0.1241   ZZ=   157.8599
   Eigenvalues:   152.2940   157.6894   183.1996
     43  H    Isotropic =    29.2004   Anisotropy =     7.3362
   XX=    30.5755   YX=    -1.8128   ZX=    -2.0334
   XY=    -2.5793   YY=    29.0170   ZY=     4.0597
   XZ=    -0.4130   YZ=     3.5652   ZZ=    28.0089
   Eigenvalues:    24.6136    28.8965    34.0913
     44  H    Isotropic =    29.1689   Anisotropy =     7.1022
   XX=    29.9794   YX=    -0.4998   ZX=     2.3398
   XY=    -1.5526   YY=    27.2814   ZY=    -4.2330
   XZ=     0.9798   YZ=    -3.5662   ZZ=    30.2458
   Eigenvalues:    24.5898    29.0131    33.9036
     45  C    Isotropic =   178.7685   Anisotropy =    30.7807
   XX=   181.3617   YX=     6.8776   ZX=     0.7446
   XY=    20.4485   YY=   188.8614   ZY=     0.0252
   XZ=    -0.3273   YZ=    -1.7242   ZZ=   166.0823
   Eigenvalues:   165.9798   171.0367   199.2889
     46  H    Isotropic =    30.2082   Anisotropy =    12.1551
   XX=    37.4404   YX=     1.8166   ZX=     1.0365
   XY=     4.1391   YY=    27.2098   ZY=     0.2739
   XZ=     0.7610   YZ=     0.0677   ZZ=    25.9743
   Eigenvalues:    25.8974    26.4155    38.3115
     47  H    Isotropic =    30.6505   Anisotropy =     7.4802
   XX=    28.9877   YX=     1.9348   ZX=     0.1414
   XY=     2.9592   YY=    30.5339   ZY=    -4.3519
   XZ=    -0.0228   YZ=    -3.0343   ZZ=    32.4299
   Eigenvalues:    26.1693    30.1449    35.6373
     48  H    Isotropic =    30.6292   Anisotropy =     7.5111
   XX=    29.3816   YX=     1.0649   ZX=    -1.1119
   XY=     1.9056   YY=    32.1417   ZY=     5.0916
   XZ=    -1.2304   YZ=     3.4339   ZZ=    30.3644
   Eigenvalues:    25.9119    30.3392    35.6366
 End of Minotr Frequency-dependent properties file   721 does not exist.
 End of Minotr Frequency-dependent properties file   722 does not exist.

 **********************************************************************

            Population analysis using the SCF density.

 **********************************************************************

 Orbital symmetries:
       Occupied  (A) (A) (A) (A) (A) (A) (A) (A) (A) (A) (A) (A)
                 (A) (A) (A) (A) (A) (A) (A) (A) (A) (A) (A) (A)
                 (A) (A) (A) (A) (A) (A) (A) (A) (A) (A) (A) (A)
                 (A) (A) (A) (A) (A) (A) (A) (A) (A) (A) (A) (A)
                 (A) (A) (A) (A) (A) (A) (A) (A) (A) (A) (A) (A)
                 (A) (A) (A) (A) (A) (A) (A) (A) (A) (A) (A) (A)
                 (A) (A) (A) (A) (A) (A) (A) (A) (A) (A) (A)
       Virtual   (A) (A) (A) (A) (A) (A) (A) (A) (A) (A) (A) (A)
                 (A) (A) (A) (A) (A) (A) (A) (A) (A) (A) (A) (A)
                 (A) (A) (A) (A) (A) (A) (A) (A) (A) (A) (A) (A)
                 (A) (A) (A) (A) (A) (A) (A) (A) (A) (A) (A) (A)
                 (A) (A) (A) (A) (A) (A) (A) (A) (A) (A) (A) (A)
                 (A) (A) (A) (A) (A) (A) (A) (A) (A) (A) (A) (A)
                 (A) (A) (A) (A) (A) (A) (A) (A) (A) (A) (A) (A)
                 (A) (A) (A) (A) (A) (A) (A) (A) (A) (A) (A) (A)
                 (A) (A) (A) (A) (A) (A) (A) (A) (A) (A) (A) (A)
                 (A) (A) (A) (A) (A) (A) (A) (A) (A) (A) (A) (A)
                 (A) (A) (A) (A) (A) (A) (A) (A) (A) (A) (A) (A)
                 (A) (A) (A) (A) (A) (A) (A) (A) (A) (A) (A) (A)
                 (A) (A) (A) (A) (A) (A) (A) (A) (A) (A) (A) (A)
                 (A) (A) (A) (A) (A) (A) (A) (A) (A) (A) (A) (A)
                 (A) (A) (A) (A) (A) (A) (A) (A) (A) (A) (A) (A)
                 (A) (A) (A) (A) (A) (A) (A) (A) (A) (A) (A) (A)
                 (A) (A) (A) (A) (A) (A) (A) (A) (A) (A) (A) (A)
                 (A) (A) (A) (A) (A) (A) (A) (A) (A) (A) (A) (A)
                 (A) (A) (A) (A) (A) (A) (A) (A) (A) (A) (A) (A)
                 (A) (A) (A) (A) (A) (A) (A) (A) (A) (A) (A) (A)
                 (A) (A) (A) (A) (A) (A) (A) (A) (A) (A) (A) (A)
                 (A) (A) (A) (A) (A) (A) (A) (A) (A) (A) (A) (A)
                 (A) (A) (A) (A) (A) (A) (A) (A) (A) (A) (A) (A)
                 (A) (A) (A) (A) (A) (A) (A) (A) (A) (A) (A) (A)
                 (A) (A) (A) (A) (A) (A) (A) (A) (A) (A) (A) (A)
                 (A) (A) (A) (A) (A) (A) (A) (A) (A) (A) (A) (A)
                 (A) (A) (A) (A) (A) (A) (A) (A) (A) (A) (A) (A)
                 (A) (A) (A) (A) (A) (A) (A) (A) (A) (A) (A) (A)
                 (A) (A) (A) (A) (A) (A) (A) (A) (A) (A) (A) (A)
                 (A) (A) (A) (A) (A) (A) (A) (A) (A) (A) (A) (A)
                 (A) (A) (A) (A) (A) (A) (A) (A) (A) (A) (A) (A)
                 (A) (A) (A) (A) (A) (A) (A) (A) (A) (A) (A) (A)
                 (A) (A) (A) (A) (A) (A) (A) (A) (A) (A) (A) (A)
                 (A) (A) (A) (A) (A) (A) (A) (A) (A) (A) (A) (A)
                 (A) (A) (A) (A) (A) (A) (A) (A) (A) (A) (A) (A)
                 (A) (A) (A) (A) (A) (A) (A) (A) (A) (A) (A) (A)
                 (A) (A) (A) (A) (A) (A) (A) (A) (A) (A) (A) (A)
                 (A) (A) (A) (A) (A) (A) (A) (A) (A) (A) (A) (A)
                 (A) (A) (A) (A) (A) (A)
 The electronic state is 1-A.
 Alpha  occ. eigenvalues --  -19.28746 -19.28537 -19.25575 -19.24707 -10.32463
 Alpha  occ. eigenvalues --  -10.32452 -10.31012 -10.30069 -10.26956 -10.26856
 Alpha  occ. eigenvalues --  -10.26651 -10.26374 -10.26159 -10.25084 -10.24991
 Alpha  occ. eigenvalues --  -10.24949 -10.24814 -10.24349 -10.23805 -10.23782
 Alpha  occ. eigenvalues --  -10.23508 -10.23394  -1.10590  -1.10027  -1.06805
 Alpha  occ. eigenvalues --   -1.04317  -0.89066  -0.86821  -0.82373  -0.81823
 Alpha  occ. eigenvalues --   -0.78242  -0.76298  -0.76239  -0.74065  -0.71483
 Alpha  occ. eigenvalues --   -0.69900  -0.66990  -0.66460  -0.63651  -0.62764
 Alpha  occ. eigenvalues --   -0.59997  -0.57878  -0.57121  -0.54870  -0.53381
 Alpha  occ. eigenvalues --   -0.52843  -0.52304  -0.50019  -0.48946  -0.48424
 Alpha  occ. eigenvalues --   -0.47068  -0.46758  -0.46180  -0.45306  -0.45175
 Alpha  occ. eigenvalues --   -0.44696  -0.43786  -0.42993  -0.42195  -0.41790
 Alpha  occ. eigenvalues --   -0.41415  -0.40834  -0.40537  -0.39841  -0.39676
 Alpha  occ. eigenvalues --   -0.39259  -0.38888  -0.38235  -0.37643  -0.36866
 Alpha  occ. eigenvalues --   -0.36148  -0.35576  -0.35005  -0.34849  -0.33806
 Alpha  occ. eigenvalues --   -0.32660  -0.32289  -0.31822  -0.29232  -0.28781
 Alpha  occ. eigenvalues --   -0.25892  -0.24550  -0.23743
 Alpha virt. eigenvalues --   -0.00773  -0.00201  -0.00082   0.00769   0.01207
 Alpha virt. eigenvalues --    0.01558   0.01756   0.02682   0.02986   0.03162
 Alpha virt. eigenvalues --    0.03799   0.04396   0.04629   0.04943   0.05011
 Alpha virt. eigenvalues --    0.05964   0.06271   0.06630   0.07143   0.07374
 Alpha virt. eigenvalues --    0.07845   0.08087   0.08581   0.09059   0.09419
 Alpha virt. eigenvalues --    0.09628   0.10186   0.10309   0.10434   0.10977
 Alpha virt. eigenvalues --    0.11171   0.11680   0.12691   0.12739   0.13187
 Alpha virt. eigenvalues --    0.13286   0.13794   0.13921   0.14070   0.14408
 Alpha virt. eigenvalues --    0.14980   0.15100   0.15407   0.15851   0.16197
 Alpha virt. eigenvalues --    0.16616   0.16814   0.17064   0.17494   0.17811
 Alpha virt. eigenvalues --    0.18069   0.18434   0.19027   0.19257   0.19514
 Alpha virt. eigenvalues --    0.19772   0.19868   0.20300   0.20490   0.20961
 Alpha virt. eigenvalues --    0.21058   0.21196   0.21444   0.22094   0.22429
 Alpha virt. eigenvalues --    0.22531   0.22820   0.23103   0.23167   0.23397
 Alpha virt. eigenvalues --    0.23544   0.24452   0.24618   0.24810   0.25017
 Alpha virt. eigenvalues --    0.25370   0.25816   0.26003   0.26249   0.26327
 Alpha virt. eigenvalues --    0.26465   0.27053   0.27320   0.27693   0.28150
 Alpha virt. eigenvalues --    0.28485   0.29032   0.29124   0.29649   0.29696
 Alpha virt. eigenvalues --    0.29952   0.30242   0.31025   0.31117   0.31351
 Alpha virt. eigenvalues --    0.31664   0.32283   0.32461   0.33228   0.33633
 Alpha virt. eigenvalues --    0.33784   0.33914   0.34159   0.34488   0.35082
 Alpha virt. eigenvalues --    0.35674   0.36616   0.37029   0.37371   0.37974
 Alpha virt. eigenvalues --    0.38492   0.38852   0.38985   0.39446   0.40125
 Alpha virt. eigenvalues --    0.40786   0.41021   0.41941   0.42136   0.42983
 Alpha virt. eigenvalues --    0.43155   0.43549   0.43804   0.44914   0.45799
 Alpha virt. eigenvalues --    0.46360   0.46912   0.47655   0.48402   0.49153
 Alpha virt. eigenvalues --    0.49472   0.50529   0.50923   0.51161   0.52648
 Alpha virt. eigenvalues --    0.53836   0.59696   0.63620   0.65450   0.68064
 Alpha virt. eigenvalues --    0.68219   0.69089   0.70804   0.71125   0.71616
 Alpha virt. eigenvalues --    0.72490   0.73242   0.73506   0.73890   0.74219
 Alpha virt. eigenvalues --    0.74917   0.75198   0.75865   0.76651   0.77046
 Alpha virt. eigenvalues --    0.77516   0.78498   0.78750   0.79131   0.80665
 Alpha virt. eigenvalues --    0.81143   0.81445   0.83558   0.83892   0.84273
 Alpha virt. eigenvalues --    0.85103   0.85895   0.86616   0.87851   0.87905
 Alpha virt. eigenvalues --    0.88364   0.89347   0.90237   0.91004   0.91400
 Alpha virt. eigenvalues --    0.92452   0.93067   0.93696   0.94862   0.95452
 Alpha virt. eigenvalues --    0.95608   0.97975   0.98581   0.99405   0.99877
 Alpha virt. eigenvalues --    1.00288   1.01349   1.01610   1.03344   1.04102
 Alpha virt. eigenvalues --    1.04903   1.06446   1.07221   1.07721   1.09095
 Alpha virt. eigenvalues --    1.09444   1.10427   1.11017   1.11306   1.11905
 Alpha virt. eigenvalues --    1.13014   1.13917   1.14543   1.14990   1.15669
 Alpha virt. eigenvalues --    1.16509   1.17419   1.17987   1.18423   1.19581
 Alpha virt. eigenvalues --    1.20256   1.20675   1.21340   1.21391   1.22539
 Alpha virt. eigenvalues --    1.23909   1.24677   1.25621   1.27258   1.27454
 Alpha virt. eigenvalues --    1.28020   1.28263   1.29283   1.30029   1.31626
 Alpha virt. eigenvalues --    1.32110   1.32517   1.32990   1.33827   1.35268
 Alpha virt. eigenvalues --    1.36406   1.36662   1.37593   1.38018   1.38601
 Alpha virt. eigenvalues --    1.39320   1.40292   1.40926   1.42390   1.43556
 Alpha virt. eigenvalues --    1.43611   1.45030   1.45924   1.47718   1.48711
 Alpha virt. eigenvalues --    1.50417   1.52485   1.53463   1.55016   1.55131
 Alpha virt. eigenvalues --    1.55562   1.58344   1.58760   1.60042   1.60740
 Alpha virt. eigenvalues --    1.62435   1.64260   1.64527   1.65327   1.66608
 Alpha virt. eigenvalues --    1.68054   1.69810   1.71171   1.73346   1.74369
 Alpha virt. eigenvalues --    1.75192   1.75711   1.76949   1.78354   1.78932
 Alpha virt. eigenvalues --    1.80642   1.81363   1.81849   1.83709   1.84826
 Alpha virt. eigenvalues --    1.85598   1.86094   1.87148   1.87887   1.88021
 Alpha virt. eigenvalues --    1.89827   1.90584   1.90923   1.92089   1.92701
 Alpha virt. eigenvalues --    1.92948   1.94262   1.94517   1.95104   1.96786
 Alpha virt. eigenvalues --    1.96942   1.97632   1.98798   1.99175   1.99834
 Alpha virt. eigenvalues --    2.02424   2.03191   2.04368   2.05532   2.05763
 Alpha virt. eigenvalues --    2.06363   2.06855   2.09133   2.09423   2.10597
 Alpha virt. eigenvalues --    2.11378   2.12651   2.13166   2.13308   2.14997
 Alpha virt. eigenvalues --    2.15545   2.16076   2.16757   2.17289   2.17783
 Alpha virt. eigenvalues --    2.18895   2.19116   2.19455   2.20119   2.20353
 Alpha virt. eigenvalues --    2.22915   2.24924   2.25145   2.25725   2.26481
 Alpha virt. eigenvalues --    2.27018   2.28197   2.28519   2.30170   2.30836
 Alpha virt. eigenvalues --    2.31603   2.33200   2.33452   2.35340   2.35746
 Alpha virt. eigenvalues --    2.36213   2.38358   2.38936   2.40386   2.41344
 Alpha virt. eigenvalues --    2.43399   2.44228   2.45295   2.46822   2.48079
 Alpha virt. eigenvalues --    2.48329   2.50411   2.51227   2.51864   2.52260
 Alpha virt. eigenvalues --    2.52498   2.53599   2.54675   2.55546   2.55739
 Alpha virt. eigenvalues --    2.56389   2.56802   2.58354   2.59136   2.59533
 Alpha virt. eigenvalues --    2.61151   2.62481   2.63890   2.64280   2.64917
 Alpha virt. eigenvalues --    2.65978   2.67426   2.68332   2.68840   2.69558
 Alpha virt. eigenvalues --    2.70789   2.71301   2.71476   2.72969   2.73437
 Alpha virt. eigenvalues --    2.74434   2.74984   2.76236   2.76474   2.76961
 Alpha virt. eigenvalues --    2.77652   2.79482   2.80435   2.81406   2.82387
 Alpha virt. eigenvalues --    2.83292   2.84177   2.84899   2.86812   2.87550
 Alpha virt. eigenvalues --    2.88708   2.89683   2.90290   2.90907   2.91322
 Alpha virt. eigenvalues --    2.91704   2.93521   2.94203   2.95243   2.97221
 Alpha virt. eigenvalues --    3.00291   3.02006   3.03117   3.03539   3.08059
 Alpha virt. eigenvalues --    3.10472   3.10565   3.11459   3.16634   3.18657
 Alpha virt. eigenvalues --    3.20724   3.27297   3.29264   3.30171   3.31496
 Alpha virt. eigenvalues --    3.33035   3.36128   3.36441   3.39272   3.41453
 Alpha virt. eigenvalues --    3.42354   3.45187   3.46798   3.48317   3.51103
 Alpha virt. eigenvalues --    3.51317   3.51779   3.52306   3.53512   3.54139
 Alpha virt. eigenvalues --    3.56557   3.57474   3.59587   3.59925   3.60553
 Alpha virt. eigenvalues --    3.61323   3.61886   3.65278   3.66360   3.76595
 Alpha virt. eigenvalues --    4.36808   4.38214   4.40898   4.47085   4.48148
 Alpha virt. eigenvalues --    4.50468   4.51798   4.54973   4.55434   4.57035
 Alpha virt. eigenvalues --    4.61952   4.63781   4.68425   4.71193   4.73978
 Alpha virt. eigenvalues --    4.76460   4.79311   4.86220   4.89015   4.94911
 Alpha virt. eigenvalues --    5.01115   5.03941
          Condensed to atoms (all electrons):
              1          2          3          4          5          6
     1  C   12.531786  -1.995856  -0.121626   0.049472  -0.402087   0.052123
     2  C   -1.995856   8.747313   0.399296   0.368427   0.100378  -0.071590
     3  H   -0.121626   0.399296   0.536237  -0.029450  -0.050955  -0.005307
     4  H    0.049472   0.368427  -0.029450   0.529210  -0.088558   0.004515
     5  C   -0.402087   0.100378  -0.050955  -0.088558   7.114213   0.367578
     6  H    0.052123  -0.071590  -0.005307   0.004515   0.367578   0.529437
     7  C    0.921830  -0.531677   0.037090   0.104021  -1.569180   0.034575
     8  H   -0.004862   0.034383  -0.000159  -0.000122   0.019648  -0.008151
     9  C   -0.490514   0.683539  -0.021835   0.016440   0.318288  -0.015022
    10  H    0.046169  -0.027871  -0.000050   0.000096  -0.047276   0.001885
    11  C   -2.532828  -0.983075   0.066655  -0.124062   0.497954  -0.071962
    12  H    0.012648  -0.036458  -0.000069   0.002189  -0.030875   0.000031
    13  C   -0.157319  -0.048344  -0.000902  -0.001129   0.212739  -0.008813
    14  C   -0.050284  -0.020521   0.000000  -0.000139   0.018408   0.000012
    15  C   -0.212976   0.031545  -0.001529   0.005463  -0.143179   0.024231
    16  C   -0.471205  -0.212906   0.001882  -0.001990  -0.158781  -0.002905
    17  C   -0.105113  -0.025981   0.000114  -0.000256  -0.041077  -0.000259
    18  C    0.015705  -0.004459  -0.000113   0.000544  -0.064506   0.004408
    19  H   -0.000272  -0.000012   0.000000   0.000000   0.000027   0.000000
    20  H   -0.000074   0.000012   0.000000   0.000000   0.000072   0.000000
    21  O   -0.006748   0.003275  -0.000007  -0.000336  -0.001136  -0.000048
    22  H    0.000198   0.000396   0.000000   0.000000   0.000580   0.000000
    23  O   -0.011824   0.011523  -0.000006  -0.000007  -0.011961  -0.000212
    24  H    0.001903  -0.000243   0.000000   0.000000   0.000649   0.000000
    25  O   -0.292715   0.047533  -0.000404   0.000195   0.015206  -0.000137
    26  H    0.056803  -0.009505   0.000004  -0.000001  -0.005370   0.000001
    27  C   -0.924573  -0.299638   0.016448   0.006770   0.067446  -0.004643
    28  H   -0.135667  -0.010957   0.003141   0.000105   0.021309   0.000128
    29  H   -0.079183   0.028811   0.000106  -0.000135  -0.002008  -0.000036
    30  H   -0.137343   0.047475   0.000338  -0.000081  -0.021546  -0.000527
    31  O    0.425452  -0.224067   0.003424  -0.003561   0.044491  -0.000529
    32  H    0.043966   0.069959  -0.000146   0.000001  -0.008154   0.000003
    33  H    0.009812  -0.009415  -0.001511  -0.004950   0.441775  -0.026041
    34  C   -0.288906   0.305026  -0.003846  -0.004415   0.089557   0.008620
    35  C    0.349527  -0.244270  -0.002298   0.020599  -0.279171   0.007934
    36  H    0.001541  -0.000674   0.000000   0.000000  -0.005944   0.000003
    37  H    0.001372  -0.001786   0.000000  -0.000001  -0.005683  -0.000010
    38  C   -0.219078   0.110064   0.003222  -0.021827   0.046004   0.002444
    39  H   -0.014658  -0.015615   0.000107  -0.000358   0.036079   0.000006
    40  H    0.002203  -0.002343  -0.000003   0.000157  -0.004260   0.000002
    41  H   -0.015858   0.020314   0.000045  -0.000890  -0.018437  -0.000026
    42  C   -0.007182  -0.001778   0.000000  -0.000005   0.009841  -0.000003
    43  H    0.000001  -0.000001   0.000000   0.000000   0.000020   0.000000
    44  H   -0.000003  -0.000001   0.000000   0.000000   0.000010   0.000000
    45  C    0.000228  -0.000032   0.000000   0.000000  -0.000076   0.000000
    46  H    0.000000   0.000000   0.000000   0.000000   0.000000   0.000000
    47  H   -0.000008   0.000000   0.000000   0.000000   0.000000   0.000000
    48  H   -0.000002  -0.000001   0.000000   0.000000   0.000003   0.000000
              7          8          9         10         11         12
     1  C    0.921830  -0.004862  -0.490514   0.046169  -2.532828   0.012648
     2  C   -0.531677   0.034383   0.683539  -0.027871  -0.983075  -0.036458
     3  H    0.037090  -0.000159  -0.021835  -0.000050   0.066655  -0.000069
     4  H    0.104021  -0.000122   0.016440   0.000096  -0.124062   0.002189
     5  C   -1.569180   0.019648   0.318288  -0.047276   0.497954  -0.030875
     6  H    0.034575  -0.008151  -0.015022   0.001885  -0.071962   0.000031
     7  C   13.460446   0.115277  -1.978001   0.124242  -2.025486   0.114316
     8  H    0.115277   0.567293   0.093904  -0.009136  -0.015883  -0.000221
     9  C   -1.978001   0.093904  16.438416   0.271022  -5.908301   0.050196
    10  H    0.124242  -0.009136   0.271022   0.552484  -0.246357   0.004571
    11  C   -2.025486  -0.015883  -5.908301  -0.246357  20.416702   0.116252
    12  H    0.114316  -0.000221   0.050196   0.004571   0.116252   0.568900
    13  C   -1.408288   0.050482   4.853377  -0.164231  -1.783846   0.052915
    14  C   -0.203703   0.000161  -0.579072   0.007194   0.099650   0.001692
    15  C    0.133034   0.040292  -0.886837   0.184777  -2.340372   0.057386
    16  C    0.317437  -0.062238  -4.206165   0.017021   2.759451  -0.014663
    17  C    0.016941  -0.008995  -1.853935   0.000987   0.512963   0.001474
    18  C    0.414494   0.013543  -1.494264   0.083163  -0.951826   0.012679
    19  H    0.000130   0.000000   0.001856   0.000002  -0.002145   0.000001
    20  H   -0.000768   0.000004  -0.005120  -0.000003  -0.000002   0.000000
    21  O    0.008376   0.000061  -0.076906  -0.001313   0.139533  -0.024545
    22  H    0.001526   0.000000   0.026502   0.000005   0.010965   0.000127
    23  O   -0.073712   0.002506  -0.011069   0.003712  -0.075994  -0.000062
    24  H   -0.002408  -0.000006   0.051121   0.000059   0.001700   0.000000
    25  O    0.069601  -0.000690  -0.244950  -0.004049   0.586434  -0.060503
    26  H    0.000675   0.000000  -0.147109  -0.000631   0.101254  -0.006429
    27  C   -0.328176   0.002783   0.483263  -0.001344  -0.407951   0.021478
    28  H   -0.014030   0.000001  -0.005443  -0.000048   0.058163  -0.000085
    29  H   -0.008931   0.000002  -0.001617  -0.000131  -0.012717  -0.000006
    30  H    0.041657  -0.000072  -0.036665  -0.000785   0.083029  -0.000161
    31  O    0.003469   0.000198   0.067895  -0.000839  -0.157790  -0.000502
    32  H    0.000149   0.000000   0.037136  -0.000012  -0.098495  -0.001412
    33  H   -0.161135  -0.001414   0.012827  -0.000087   0.044202  -0.000021
    34  C   -2.172977  -0.039112   0.204386   0.009837  -0.737910  -0.033842
    35  C    0.654541   0.055231  -0.076802   0.010051  -0.094880   0.012341
    36  H    0.040417   0.000393   0.001114   0.000003  -0.002497   0.000001
    37  H    0.011615   0.004260   0.020030  -0.000041  -0.003212  -0.000001
    38  C    0.004248  -0.018862   0.041238   0.005637  -0.489650   0.004462
    39  H   -0.030577  -0.000097  -0.036559   0.000002   0.054223   0.000026
    40  H    0.027162  -0.000106  -0.010000   0.000003   0.003582   0.000088
    41  H    0.034955  -0.000113   0.034875  -0.000051  -0.047556   0.001147
    42  C   -0.030485  -0.000249  -0.022998  -0.000423   0.013447   0.000173
    43  H    0.000451   0.000000   0.001611   0.000000   0.000073   0.000000
    44  H   -0.000161   0.000000   0.000026   0.000000  -0.000142   0.000000
    45  C    0.000046   0.000003   0.000631   0.000024  -0.001782   0.000000
    46  H    0.000010   0.000000   0.000081   0.000000   0.000018   0.000000
    47  H   -0.000086   0.000000  -0.000259   0.000000  -0.000148   0.000000
    48  H    0.000022   0.000000   0.000163   0.000000   0.000078   0.000000
             13         14         15         16         17         18
     1  C   -0.157319  -0.050284  -0.212976  -0.471205  -0.105113   0.015705
     2  C   -0.048344  -0.020521   0.031545  -0.212906  -0.025981  -0.004459
     3  H   -0.000902   0.000000  -0.001529   0.001882   0.000114  -0.000113
     4  H   -0.001129  -0.000139   0.005463  -0.001990  -0.000256   0.000544
     5  C    0.212739   0.018408  -0.143179  -0.158781  -0.041077  -0.064506
     6  H   -0.008813   0.000012   0.024231  -0.002905  -0.000259   0.004408
     7  C   -1.408288  -0.203703   0.133034   0.317437   0.016941   0.414494
     8  H    0.050482   0.000161   0.040292  -0.062238  -0.008995   0.013543
     9  C    4.853377  -0.579072  -0.886837  -4.206165  -1.853935  -1.494264
    10  H   -0.164231   0.007194   0.184777   0.017021   0.000987   0.083163
    11  C   -1.783846   0.099650  -2.340372   2.759451   0.512963  -0.951826
    12  H    0.052915   0.001692   0.057386  -0.014663   0.001474   0.012679
    13  C   18.955003  -1.420935  -0.902773  -3.946434  -6.055648  -2.350737
    14  C   -1.420935  10.428542  -1.181062  -1.158496   1.461605   0.459924
    15  C   -0.902773  -1.181062  10.351934  -0.919766  -0.353615   1.155670
    16  C   -3.946434  -1.158496  -0.919766  13.978700   2.676405  -1.879161
    17  C   -6.055648   1.461605  -0.353615   2.676405  12.018700  -2.192377
    18  C   -2.350737   0.459924   1.155670  -1.879161  -2.192377  12.942897
    19  H    0.044398   0.052972  -0.006947  -0.091761   0.322888   0.003323
    20  H    0.068907   0.053048  -0.053221  -0.005095   0.002399   0.282821
    21  O   -0.591409   0.053275  -0.091689   0.471181   0.230506  -0.063610
    22  H    0.161391   0.003882  -0.002874  -0.031738  -0.173887   0.009163
    23  O   -0.215959   0.053492   0.267150   0.025309   0.008535   0.030944
    24  H    0.136247   0.002508   0.041424  -0.009410  -0.007296  -0.210413
    25  O   -0.200448   0.002805  -0.094628   0.232984   0.050643  -0.021490
    26  H   -0.079265   0.006216  -0.011521   0.079994   0.049469  -0.000666
    27  C    0.204843   0.011825   0.240999   0.013763   0.002857   0.053344
    28  H    0.000482  -0.000015  -0.000262  -0.000593  -0.000033  -0.000011
    29  H    0.001725   0.000038  -0.005974   0.001447   0.000196  -0.000856
    30  H   -0.009562   0.000162   0.002728   0.005347   0.000281   0.000302
    31  O    0.046767  -0.001120   0.020435  -0.047212  -0.005643   0.003179
    32  H    0.001937   0.000020  -0.000961  -0.001217   0.000137  -0.000140
    33  H    0.004014   0.000303  -0.009242   0.005764   0.000393  -0.001249
    34  C    0.706581  -0.151117   0.147960  -0.561226  -0.116294  -0.204914
    35  C   -0.162650   0.114077   0.094790   0.199738   0.141065   0.117944
    36  H   -0.000528   0.000154   0.006763   0.004941  -0.001036   0.004904
    37  H    0.009127   0.008104   0.008152   0.007969  -0.000559  -0.007633
    38  C    0.431179  -0.050183   0.106316  -0.528826  -0.194751   0.107597
    39  H   -0.018488   0.000547  -0.004182   0.026745   0.004520  -0.000897
    40  H   -0.005014   0.000751  -0.000008   0.008918   0.002362   0.000367
    41  H    0.031104  -0.002967   0.008271  -0.037001  -0.017997   0.002571
    42  C   -0.960887  -1.841818   0.200453   0.004584   0.456552  -0.124365
    43  H   -0.004758  -0.253736   0.057403  -0.031596  -0.098058   0.150421
    44  H   -0.004673  -0.243481  -0.021746   0.042694   0.150169  -0.097512
    45  C    0.033936  -0.006569  -0.000824   0.011022   0.018101   0.018566
    46  H    0.001597   0.012569   0.002324   0.001622   0.004825   0.009394
    47  H   -0.005174  -0.050221  -0.004533   0.000678   0.019017  -0.018839
    48  H   -0.001567  -0.052620   0.003458  -0.009289  -0.007236   0.015597
             19         20         21         22         23         24
     1  C   -0.000272  -0.000074  -0.006748   0.000198  -0.011824   0.001903
     2  C   -0.000012   0.000012   0.003275   0.000396   0.011523  -0.000243
     3  H    0.000000   0.000000  -0.000007   0.000000  -0.000006   0.000000
     4  H    0.000000   0.000000  -0.000336   0.000000  -0.000007   0.000000
     5  C    0.000027   0.000072  -0.001136   0.000580  -0.011961   0.000649
     6  H    0.000000   0.000000  -0.000048   0.000000  -0.000212   0.000000
     7  C    0.000130  -0.000768   0.008376   0.001526  -0.073712  -0.002408
     8  H    0.000000   0.000004   0.000061   0.000000   0.002506  -0.000006
     9  C    0.001856  -0.005120  -0.076906   0.026502  -0.011069   0.051121
    10  H    0.000002  -0.000003  -0.001313   0.000005   0.003712   0.000059
    11  C   -0.002145  -0.000002   0.139533   0.010965  -0.075994   0.001700
    12  H    0.000001   0.000000  -0.024545   0.000127  -0.000062   0.000000
    13  C    0.044398   0.068907  -0.591409   0.161391  -0.215959   0.136247
    14  C    0.052972   0.053048   0.053275   0.003882   0.053492   0.002508
    15  C   -0.006947  -0.053221  -0.091689  -0.002874   0.267150   0.041424
    16  C   -0.091761  -0.005095   0.471181  -0.031738   0.025309  -0.009410
    17  C    0.322888   0.002399   0.230506  -0.173887   0.008535  -0.007296
    18  C    0.003323   0.282821  -0.063610   0.009163   0.030944  -0.210413
    19  H    0.518082  -0.000141  -0.019230   0.008177   0.000106   0.000000
    20  H   -0.000141   0.517566   0.000113  -0.000001  -0.017129   0.007889
    21  O   -0.019230   0.000113   8.405687   0.212991  -0.003244   0.000045
    22  H    0.008177  -0.000001   0.212991   0.344329   0.000057   0.000000
    23  O    0.000106  -0.017129  -0.003244   0.000057   8.289494   0.204565
    24  H    0.000000   0.007889   0.000045   0.000000   0.204565   0.360375
    25  O   -0.000030   0.000003   0.009735   0.000817  -0.001623  -0.000049
    26  H   -0.000020   0.000000  -0.001953  -0.000177   0.000047   0.000000
    27  C   -0.000013   0.000035  -0.009331  -0.000275  -0.000443  -0.000301
    28  H    0.000000   0.000000  -0.000006   0.000000   0.000009   0.000000
    29  H    0.000000   0.000000   0.000036   0.000000  -0.000009   0.000000
    30  H    0.000000   0.000000   0.000002   0.000000  -0.000103   0.000001
    31  O    0.000000   0.000000  -0.001957   0.000003   0.000266   0.000000
    32  H    0.000000   0.000000   0.000174   0.000000   0.000006   0.000000
    33  H    0.000000   0.000000   0.000001   0.000000  -0.000057   0.000000
    34  C   -0.000952  -0.000086  -0.012087  -0.000268   0.062417   0.002866
    35  C    0.000830   0.000082  -0.028627  -0.002289  -0.024637  -0.000494
    36  H    0.000000   0.000000  -0.000200  -0.000002  -0.000058   0.000000
    37  H    0.000000  -0.000003  -0.000138   0.000000   0.001197  -0.000004
    38  C   -0.000047  -0.000013  -0.044333   0.003962   0.006764   0.000327
    39  H    0.000000   0.000000   0.000142   0.000001  -0.000028   0.000000
    40  H    0.000000   0.000000  -0.000014  -0.000011  -0.000003   0.000000
    41  H    0.000000   0.000000   0.000906  -0.000157   0.000055   0.000000
    42  C   -0.006550  -0.026573  -0.006294  -0.000257   0.001281   0.000331
    43  H    0.000081   0.002135   0.000034   0.000000   0.000062   0.000001
    44  H    0.002187   0.000075   0.000056  -0.000001   0.000033   0.000000
    45  C    0.006799   0.006320   0.000351   0.000125  -0.000116   0.000202
    46  H   -0.000030  -0.000029   0.000001   0.000000   0.000000   0.000000
    47  H    0.000012   0.000184   0.000003   0.000000   0.000012   0.000001
    48  H    0.000190   0.000010   0.000008   0.000001   0.000006   0.000000
             25         26         27         28         29         30
     1  C   -0.292715   0.056803  -0.924573  -0.135667  -0.079183  -0.137343
     2  C    0.047533  -0.009505  -0.299638  -0.010957   0.028811   0.047475
     3  H   -0.000404   0.000004   0.016448   0.003141   0.000106   0.000338
     4  H    0.000195  -0.000001   0.006770   0.000105  -0.000135  -0.000081
     5  C    0.015206  -0.005370   0.067446   0.021309  -0.002008  -0.021546
     6  H   -0.000137   0.000001  -0.004643   0.000128  -0.000036  -0.000527
     7  C    0.069601   0.000675  -0.328176  -0.014030  -0.008931   0.041657
     8  H   -0.000690   0.000000   0.002783   0.000001   0.000002  -0.000072
     9  C   -0.244950  -0.147109   0.483263  -0.005443  -0.001617  -0.036665
    10  H   -0.004049  -0.000631  -0.001344  -0.000048  -0.000131  -0.000785
    11  C    0.586434   0.101254  -0.407951   0.058163  -0.012717   0.083029
[...]
    15  C   -0.111779  -0.010725   0.186209   0.000852  -0.007942  -0.001371
    16  C    0.247354   0.094323   0.066311  -0.000964   0.002026   0.008093
    17  C    0.058888   0.052658   0.015020  -0.000051   0.000160   0.000512
    18  C   -0.026390  -0.003364   0.033155   0.000090  -0.001144  -0.000458
    19  H   -0.000038  -0.000014   0.000000   0.000000   0.000000   0.000000
    20  H   -0.000004   0.000000   0.000021   0.000000   0.000000   0.000000
    21  O    0.007638  -0.003037  -0.010555  -0.000008   0.000049  -0.000025
    22  H    0.000632  -0.000204  -0.000193   0.000000   0.000000   0.000000
    23  O   -0.001391  -0.000013   0.000080  -0.000001  -0.000004   0.000188
    24  H   -0.000038   0.000000  -0.000232   0.000000   0.000000   0.000001
    25  O    8.466520   0.212257  -0.051835  -0.000712   0.004040  -0.003882
    26  H    0.212257   0.345675  -0.000043   0.000002  -0.000079  -0.000024
    27  C   -0.051835  -0.000043   6.095413   0.455630   0.443683   0.388664
    28  H   -0.000712   0.000002   0.455630   0.535795  -0.028914  -0.027259
    29  H    0.004040  -0.000079   0.443683  -0.028914   0.539190  -0.026853
    30  H   -0.003882  -0.000024   0.388664  -0.027259  -0.026853   0.532399
    31  O   -0.025296   0.000748  -0.090792  -0.001792  -0.005416   0.007075
    32  H    0.018532  -0.000855  -0.045533  -0.000222   0.002598   0.000043
    33  H    0.000030   0.000000  -0.004248  -0.000022   0.000001   0.000029
    34  C   -0.032335  -0.003274   0.016885   0.000452   0.000798   0.003998
    35  C   -0.001942   0.001599   0.009686  -0.000023  -0.000179  -0.001150
    36  H   -0.000002   0.000000   0.000032   0.000000   0.000000   0.000000
    37  H   -0.000006   0.000000   0.000137   0.000000   0.000000   0.000000
    38  C   -0.003457  -0.000951  -0.021343   0.000512  -0.000229  -0.000388
    39  H    0.000048   0.000000  -0.000248   0.000000   0.000000   0.000000
    40  H   -0.000015   0.000000  -0.000019   0.000000   0.000000   0.000000
    41  H    0.000317   0.000013  -0.000641   0.000000   0.000000   0.000000
    42  C    0.000202  -0.001104   0.001061   0.000000  -0.000002  -0.000003
    43  H    0.000000   0.000000   0.000000   0.000000   0.000000   0.000000
    44  H    0.000000   0.000000   0.000000   0.000000   0.000000   0.000000
    45  C   -0.000017   0.000029  -0.000043   0.000000   0.000000   0.000000
    46  H    0.000000   0.000000   0.000000   0.000000   0.000000   0.000000
    47  H    0.000001   0.000000   0.000001   0.000000   0.000000   0.000000
    48  H    0.000002   0.000000  -0.000001   0.000000   0.000000   0.000000
             31         32         33         34         35         36
     1  C    0.373770   0.045111   0.003343  -0.110006   0.284390   0.001704
     2  C   -0.207403   0.051827  -0.037558   0.230062  -0.143876  -0.001130
     3  H    0.004111  -0.000114  -0.001219  -0.001867  -0.003484   0.000000
     4  H    0.004231  -0.000019  -0.005337  -0.019326   0.009425   0.000001
     5  C    0.022650  -0.005861   0.505074  -0.038306  -0.284755  -0.005044
     6  H    0.000119   0.000002  -0.030956   0.004549  -0.012154   0.000003
     7  C    0.009364   0.003266  -0.154698  -1.401367   0.385655   0.032915
     8  H    0.000150   0.000000  -0.001783  -0.083718   0.078590   0.000431
     9  C    0.057544   0.025222   0.001746  -0.126603   0.074686  -0.001586
    10  H   -0.000555  -0.000022  -0.000072   0.016567   0.008878   0.000004
    11  C   -0.169668  -0.077329   0.069466  -0.751452  -0.050567  -0.003372
    12  H    0.004649  -0.001853  -0.000015  -0.036850   0.010437   0.000001
    13  C    0.043685   0.000966   0.000381   0.548324  -0.176139   0.003995
    14  C   -0.001107   0.000010   0.000326  -0.211161   0.148726  -0.000096
    15  C    0.020545  -0.001240  -0.011536   0.242437   0.051032   0.007910
    16  C   -0.045102  -0.001350   0.004917  -0.548401   0.313270  -0.000309
    17  C   -0.005277   0.000040   0.000240  -0.097607   0.186331  -0.003115
    18  C    0.003166  -0.000137  -0.001404  -0.000250  -0.000610   0.006625
    19  H    0.000000   0.000000   0.000000   0.000218   0.000333   0.000000
    20  H    0.000000   0.000000   0.000000  -0.000311   0.000225   0.000000
    21  O   -0.002217   0.000221   0.000021  -0.025200  -0.030996  -0.000202
    22  H    0.000006   0.000000   0.000000  -0.001611  -0.000789  -0.000003
    23  O    0.000256   0.000005  -0.000083   0.045361  -0.017725  -0.000019
    24  H    0.000000   0.000000   0.000000   0.001136  -0.000094   0.000000
    25  O   -0.025296   0.018532   0.000030  -0.032335  -0.001942  -0.000002
    26  H    0.000748  -0.000855   0.000000  -0.003274   0.001599   0.000000
    27  C   -0.090792  -0.045533  -0.004248   0.016885   0.009686   0.000032
    28  H   -0.001792  -0.000222  -0.000022   0.000452  -0.000023   0.000000
    29  H   -0.005416   0.002598   0.000001   0.000798  -0.000179   0.000000
    30  H    0.007075   0.000043   0.000029   0.003998  -0.001150   0.000000
    31  O    8.320943   0.239961  -0.000620   0.011791   0.002493   0.000000
    32  H    0.239961   0.351286   0.000005  -0.001479  -0.000477   0.000000
    33  H   -0.000620   0.000005   0.562230  -0.016044  -0.014849  -0.000047
    34  C    0.011791  -0.001479  -0.016044  11.374488  -2.700374  -0.210602
    35  C    0.002493  -0.000477  -0.014849  -2.700374   8.629337   0.546511
    36  H    0.000000   0.000000  -0.000047  -0.210602   0.546511   0.538662
    37  H    0.000002   0.000000  -0.000004  -0.244754   0.607025  -0.035398
    38  C    0.000849   0.001471  -0.023131   0.015195  -1.183535  -0.027562
    39  H   -0.000573   0.000001   0.000618  -0.078615   0.004742   0.000169
    40  H    0.000006   0.000000  -0.000018  -0.118235  -0.063797   0.003257
    41  H    0.000676   0.000006   0.000255  -0.120744  -0.064903   0.000122
    42  C   -0.000057   0.000001   0.000013  -0.064632   0.017704   0.000214
    43  H    0.000000   0.000000   0.000000  -0.000616   0.000337   0.000000
    44  H    0.000000   0.000000   0.000000   0.000080  -0.000016   0.000000
    45  C    0.000002   0.000000   0.000000   0.001104  -0.000064   0.000001
    46  H    0.000000   0.000000   0.000000  -0.000010   0.000004   0.000000
    47  H    0.000000   0.000000   0.000000   0.000063  -0.000022   0.000000
    48  H    0.000000   0.000000   0.000000  -0.000094   0.000036   0.000000
             37         38         39         40         41         42
     1  C    0.001530  -0.124011  -0.008790   0.004703  -0.025556  -0.008422
     2  C   -0.002292   0.014387  -0.010714  -0.003661   0.015736  -0.001824
     3  H    0.000000   0.002503   0.000115  -0.000003   0.000063   0.000000
     4  H   -0.000001  -0.004073  -0.000587   0.000168  -0.000793  -0.000005
     5  C   -0.008042  -0.004423   0.032246   0.000026  -0.022811   0.013448
     6  H   -0.000014   0.013857   0.000015   0.000003  -0.000023   0.000007
     7  C   -0.029175   0.030726  -0.005547   0.000248   0.031723  -0.018170
     8  H    0.004923  -0.029810  -0.000095  -0.000115  -0.000141  -0.000195
     9  C    0.014701  -0.130335  -0.033383  -0.008563   0.019806  -0.015936
    10  H   -0.000047   0.008590   0.000000   0.000003  -0.000046  -0.000682
    11  C   -0.004167  -0.662286   0.051322  -0.000321  -0.043993   0.017473
    12  H   -0.000002   0.003398  -0.000002   0.000109   0.000994   0.000066
    13  C    0.014017   0.395451  -0.012702  -0.001940   0.010289  -1.120311
    14  C    0.008134  -0.047350  -0.000131   0.001119  -0.000912  -1.863131
    15  C    0.003267   0.188044  -0.002833   0.000285   0.005466   0.132794
    16  C    0.005596  -0.579823   0.013276   0.004368  -0.018102  -0.062215
    17  C    0.000167  -0.206035   0.001896   0.002758  -0.008784   0.274610
    18  C   -0.009783   0.156428  -0.000368   0.000364   0.001657   0.005162
    19  H    0.000000   0.000140   0.000000   0.000000  -0.000001  -0.020820
    20  H   -0.000003   0.000039   0.000000   0.000000   0.000000  -0.032667
    21  O   -0.000027  -0.038736   0.000239   0.000016   0.002089  -0.001961
    22  H    0.000000   0.003799   0.000000  -0.000011  -0.000145  -0.001081
    23  O    0.001412   0.005318  -0.000027  -0.000001   0.000055   0.008008
    24  H   -0.000015   0.000265   0.000000   0.000000   0.000000  -0.000990
    25  O   -0.000006  -0.003457   0.000048  -0.000015   0.000317   0.000202
    26  H    0.000000  -0.000951   0.000000   0.000000   0.000013  -0.001104
    27  C    0.000137  -0.021343  -0.000248  -0.000019  -0.000641   0.001061
    28  H    0.000000   0.000512   0.000000   0.000000   0.000000   0.000000
    29  H    0.000000  -0.000229   0.000000   0.000000   0.000000  -0.000002
    30  H    0.000000  -0.000388   0.000000   0.000000   0.000000  -0.000003
    31  O    0.000002   0.000849  -0.000573   0.000006   0.000676  -0.000057
    32  H    0.000000   0.001471   0.000001   0.000000   0.000006   0.000001
    33  H   -0.000004  -0.023131   0.000618  -0.000018   0.000255   0.000013
    34  C   -0.244754   0.015195  -0.078615  -0.118235  -0.120744  -0.064632
    35  C    0.607025  -1.183535   0.004742  -0.063797  -0.064903   0.017704
    36  H   -0.035398  -0.027562   0.000169   0.003257   0.000122   0.000214
    37  H    0.549461  -0.019518  -0.000193   0.000245  -0.000206   0.001642
    38  C   -0.019518   7.403156   0.394607   0.532105   0.566339  -0.011477
    39  H   -0.000193   0.394607   0.536531  -0.026810  -0.027927  -0.000022
    40  H    0.000245   0.532105  -0.026810   0.548420  -0.028039   0.000130
    41  H   -0.000206   0.566339  -0.027927  -0.028039   0.537965   0.000130
    42  C    0.001642  -0.011477  -0.000022   0.000130   0.000130   7.786079
    43  H    0.000000  -0.000020   0.000000   0.000000   0.000000   0.541155
    44  H    0.000000  -0.000051   0.000000   0.000000   0.000000   0.528008
    45  C   -0.000022   0.000398   0.000000   0.000000   0.000001   0.096167
    46  H    0.000000  -0.000001   0.000000   0.000000   0.000000  -0.042253
    47  H    0.000000   0.000000   0.000000   0.000000   0.000000  -0.033656
    48  H    0.000000  -0.000006   0.000000   0.000000   0.000000  -0.037220
             43         44         45         46         47         48
     1  C   -0.000004  -0.000001   0.000479   0.000000  -0.000011  -0.000002
     2  C   -0.000001  -0.000001  -0.000027   0.000000   0.000000  -0.000001
     3  H    0.000000   0.000000   0.000000   0.000000   0.000000   0.000000
     4  H    0.000000   0.000000   0.000000   0.000000   0.000000   0.000000
     5  C    0.000015   0.000011  -0.000092   0.000001  -0.000002   0.000001
     6  H    0.000000   0.000000   0.000000   0.000000   0.000000   0.000000
     7  C    0.000377  -0.000007   0.002413   0.000013  -0.000112   0.000031
     8  H    0.000000   0.000000   0.000001   0.000000   0.000000   0.000000
     9  C    0.000700  -0.000169  -0.003108   0.000085  -0.000622   0.000080
    10  H    0.000000   0.000000   0.000041   0.000000   0.000000   0.000000
    11  C   -0.000064  -0.000098  -0.002324   0.000015  -0.000192   0.000043
    12  H    0.000000   0.000000   0.000002   0.000000   0.000000   0.000000
    13  C   -0.013199  -0.009430   0.025929   0.000283  -0.005119  -0.004098
    14  C   -0.208437  -0.197822   0.085736  -0.041377   0.015957   0.015774
    15  C    0.039413  -0.017493  -0.015838   0.002339  -0.024460   0.012064
    16  C   -0.029548   0.021682  -0.004192   0.002662   0.005739  -0.034653
    17  C   -0.071532   0.088673  -0.016204   0.006745   0.044753  -0.055767
    18  C    0.083464  -0.071006   0.009369   0.007520  -0.066552   0.040731
    19  H    0.000116   0.002434   0.003409  -0.000034   0.000015   0.000208
    20  H    0.002421   0.000107   0.002998  -0.000034   0.000210   0.000014
    21  O    0.000020   0.000069   0.000381  -0.000001   0.000006   0.000029
    22  H    0.000000  -0.000003   0.000069   0.000000   0.000000   0.000000
    23  O    0.000049   0.000030  -0.000155  -0.000001   0.000027   0.000008
    24  H   -0.000001   0.000000   0.000192   0.000000   0.000000   0.000000
    25  O    0.000000   0.000000  -0.000017   0.000000   0.000001   0.000002
    26  H    0.000000   0.000000   0.000029   0.000000   0.000000   0.000000
    27  C    0.000000   0.000000  -0.000043   0.000000   0.000001  -0.000001
    28  H    0.000000   0.000000   0.000000   0.000000   0.000000   0.000000
    29  H    0.000000   0.000000   0.000000   0.000000   0.000000   0.000000
    30  H    0.000000   0.000000   0.000000   0.000000   0.000000   0.000000
    31  O    0.000000   0.000000   0.000002   0.000000   0.000000   0.000000
    32  H    0.000000   0.000000   0.000000   0.000000   0.000000   0.000000
    33  H    0.000000   0.000000   0.000000   0.000000   0.000000   0.000000
    34  C   -0.000616   0.000080   0.001104  -0.000010   0.000063  -0.000094
    35  C    0.000337  -0.000016  -0.000064   0.000004  -0.000022   0.000036
    36  H    0.000000   0.000000   0.000001   0.000000   0.000000   0.000000
    37  H    0.000000   0.000000  -0.000022   0.000000   0.000000   0.000000
    38  C   -0.000020  -0.000051   0.000398  -0.000001   0.000000  -0.000006
    39  H    0.000000   0.000000   0.000000   0.000000   0.000000   0.000000
    40  H    0.000000   0.000000   0.000000   0.000000   0.000000   0.000000
    41  H    0.000000   0.000000   0.000001   0.000000   0.000000   0.000000
    42  C    0.541155   0.528008   0.096167  -0.042253  -0.033656  -0.037220
    43  H    0.565237  -0.033386  -0.025317  -0.003299  -0.004910   0.004877
    44  H   -0.033386   0.564880  -0.024982  -0.003316   0.004878  -0.004941
    45  C   -0.025317  -0.024982   5.190502   0.422952   0.419890   0.418556
    46  H   -0.003299  -0.003316   0.422952   0.549040  -0.026860  -0.026860
    47  H   -0.004910   0.004878   0.419890  -0.026860   0.541716  -0.028527
    48  H    0.004877  -0.004941   0.418556  -0.026860  -0.028527   0.542028
 Mulliken atomic charges:
              1
     1  C    0.407659
     2  C   -0.326183
     3  H    0.153481
     4  H    0.158490
     5  C   -0.430985
     6  H    0.162620
     7  C   -0.102104
     8  H    0.145684
     9  C    0.465514
    10  H    0.160331
    11  C   -0.424207
    12  H    0.158267
    13  C    0.485619
    14  C    0.076291
    15  C    0.319675
    16  C   -0.519954
    17  C   -0.855857
    18  C   -0.108299
    19  H    0.149591
    20  H    0.150749
    21  O   -0.619217
    22  H    0.456199
    23  O   -0.600831
    24  H    0.448651
    25  O   -0.649877
    26  H    0.423025
    27  C   -0.331175
    28  H    0.163758
    29  H    0.159583
    30  H    0.168393
    31  O   -0.572915
    32  H    0.395917
    33  H    0.154948
    34  C    0.532335
    35  C   -0.618929
    36  H    0.145929
    37  H    0.141410
    38  C   -0.619029
    39  H    0.173743
    40  H    0.153217
    41  H    0.170066
    42  C   -0.085239
    43  H    0.152153
    44  H    0.151871
    45  C   -0.588235
    46  H    0.152388
    47  H    0.157790
    48  H    0.157689
 Sum of Mulliken atomic charges =   0.00000
 Mulliken charges with hydrogens summed into heavy atoms:
              1
     1  C    0.407659
     2  C   -0.014212
     5  C   -0.113417
     7  C    0.043579
     9  C    0.625845
    11  C   -0.265940
    13  C    0.485619
    14  C    0.076291
    15  C    0.319675
    16  C   -0.519954
    17  C   -0.706265
    18  C    0.042450
    21  O   -0.163018
    23  O   -0.152179
    25  O   -0.226852
    27  C    0.160560
    31  O   -0.176998
    34  C    0.532335
    35  C   -0.331590
    38  C   -0.122003
    42  C    0.218785
    45  C   -0.120369
 Sum of Mulliken charges with hydrogens summed into heavy atoms =   0.00000
 Electronic spatial extent (au):  <R**2>=           7154.9283
 Charge=              0.0000 electrons
 Dipole moment (field-independent basis, Debye):
    X=             -6.7792    Y=              1.9997    Z=              0.2451  Tot=              7.0722
 Quadrupole moment (field-independent basis, Debye-Ang):
   XX=           -132.4958   YY=           -143.9904   ZZ=           -118.0499
   XY=              7.7161   XZ=              5.4143   YZ=             -0.3180
 Traceless Quadrupole moment (field-independent basis, Debye-Ang):
   XX=             -0.9838   YY=            -12.4783   ZZ=             13.4621
   XY=              7.7161   XZ=              5.4143   YZ=             -0.3180
 Octapole moment (field-independent basis, Debye-Ang**2):
  XXX=           -126.8100  YYY=            -19.8734  ZZZ=             -5.4440  XYY=              1.7577
  XXY=             31.2303  XXZ=             41.4259  XZZ=            -49.2331  YZZ=             -0.9723
  YYZ=            -12.0480  XYZ=            -14.3687
 Hexadecapole moment (field-independent basis, Debye-Ang**3):
 XXXX=          -6683.0273 YYYY=          -1951.0496 ZZZZ=          -1011.2460 XXXY=            104.8786
 XXXZ=            106.1931 YYYX=            -58.5554 YYYZ=              7.2102 ZZZX=            -49.9406
 ZZZY=             31.3140 XXYY=          -1475.5822 XXZZ=          -1223.0424 YYZZ=           -512.4406
 XXYZ=            -18.6908 YYXZ=            -14.4979 ZZXY=            -11.3233
 N-N= 1.984043608652D+03 E-N=-6.300889059093D+03  KE= 9.931136660275D+02

 Test job not archived.
 1\1\GINC-COMPUTE-10-2\SP\RB3LYP\6-31+G(d,p)\C18H26O4\LPASSAGLIA.IQUIR\
 23-Dec-2022\0\\# B3LYP/6-31+G** geom=allcheck test scrf=(pcm,solvent=w
 ater,smd,dovacuum)\\comment\\0,1\C,0,1.655355879,2.513375782,-1.527749
 371\C,0,0.820849993,3.571653396,-0.802982197\H,0,1.346475315,4.5355221
 41,-0.813004399\H,0,-0.097968877,3.756564171,-1.370062629\C,0,0.488976
 515,3.190918776,0.638959028\H,0,1.41320178,3.248562469,1.228997567\C,0
 ,-0.107902182,1.77633723,0.82161231\H,0,0.07827947,1.550597325,1.88351
 7215\C,0,0.690960842,0.696472624,0.016018237\H,0,1.698137672,0.6650991
 34,0.455796212\C,0,0.953987884,1.133122333,-1.445052383\H,0,0.02981519
 9,1.206234937,-2.022620422\C,0,0.149183045,-0.720370641,0.25917432\C,0
 ,-0.848325676,-3.318988507,0.87117324\C,0,0.487122498,-1.384541924,1.4
 54876446\C,0,-0.705807119,-1.402474413,-0.617009638\C,0,-1.195591009,-
 2.681331054,-0.32359847\C,0,0.005131391,-2.66109926,1.759721214\H,0,-1
 .845282903,-3.194511121,-1.028040027\H,0,0.287831417,-3.149649592,2.68
 8084757\O,0,-1.068430656,-0.830155213,-1.802838894\H,0,-1.825117474,-1
 .317904101,-2.169529677\O,0,1.313513212,-0.758560258,2.351710215\H,0,1
 .478569621,-1.354502482,3.100114978\O,0,1.777095492,0.180534326,-2.143
 800578\H,0,1.245265315,-0.637557741,-2.176149862\C,0,3.106843875,2.502
 000389,-1.026276669\H,0,3.568994881,3.48544389,-1.173813278\H,0,3.7188
 61957,1.795221427,-1.597645214\H,0,3.190083457,2.248176013,0.033455566
 \O,0,1.721085313,2.886612553,-2.916998584\H,0,2.063613503,2.090456007,
 -3.371041004\H,0,-0.180034631,3.946743102,1.069320328\C,0,-1.636550471
 ,1.745037627,0.670506231\C,0,-2.399468195,1.193782102,1.633545798\H,0,
 -3.482152372,1.165100487,1.560757627\H,0,-1.960240873,0.744669606,2.51
 9625591\C,0,-2.297514001,2.354112548,-0.533516012\H,0,-2.16522802,3.43
 9611018,-0.538455149\H,0,-3.377540368,2.167152097,-0.54279476\H,0,-1.9
 02267777,1.939207378,-1.46154171\C,0,-1.359493976,-4.702718422,1.17963
 5777\H,0,-1.48219834,-4.817897309,2.263494171\H,0,-2.358923973,-4.8320
 08381,0.746632239\C,0,-0.426507351,-5.781136663,0.650480457\H,0,-0.821
 952966,-6.773665292,0.888399359\H,0,0.570636982,-5.697402327,1.0958741
 94\H,0,-0.315373299,-5.711846187,-0.436962151\\Version=EM64L-G09RevC.0
 1\State=1-A\HF=-1002.5466982\RMSD=3.917e-09\Dipole=-1.1916382,-2.17942
 33,1.2537703\Quadrupole=-2.1633648,2.60145,-0.4380852,1.6783004,10.855
 9019,4.0090376\PG=C01 [X(C18H26O4)]\\@


 CONFIDENCE: THAT QUIET ASSURED FEELING YOU HAVE
 JUST BEFORE YOU FALL FLAT ON YOUR FACE.
 Job cpu time:  0 days  1 hours  1 minutes 53.7 seconds.
 File lengths (MBytes):  RWF=    240 Int=      0 D2E=      0 Chk=     19 Scr=      1
 Normal termination of Gaussian 09 at Fri Dec 23 14:36:37 2022.
