 Entering Gaussian System, Link 0=g09
 Input=/home/lpassaglia.iquir/Link1/02_RSSS_THC_005.gjc
 Output=/home/lpassaglia.iquir/Link1/02_RSSS_THC_005.log
 Initial command:
 /share/apps/Gaussian09/EM64T.SSE4.2-enabled/g09/l1.exe /tmp/Gau-17657.inp -scrdir=/tmp/
 Entering Link 1 = /share/apps/Gaussian09/EM64T.SSE4.2-enabled/g09/l1.exe PID=     17659.
  
 Copyright (c) 1988,1990,1992,1993,1995,1998,2003,2009,2011,
            Gaussian, Inc.  All Rights Reserved.
  
 This is part of the Gaussian(R) 09 program.  It is based on
 the Gaussian(R) 03 system (copyright 2003, Gaussian, Inc.),
 the Gaussian(R) 98 system (copyright 1998, Gaussian, Inc.),
 the Gaussian(R) 94 system (copyright 1995, Gaussian, Inc.),
 the Gaussian 92(TM) system (copyright 1992, Gaussian, Inc.),
 the Gaussian 90(TM) system (copyright 1990, Gaussian, Inc.),
 the Gaussian 88(TM) system (copyright 1988, Gaussian, Inc.),
 the Gaussian 86(TM) system (copyright 1986, Carnegie Mellon
 University), and the Gaussian 82(TM) system (copyright 1983,
 Carnegie Mellon University). Gaussian is a federally registered
 trademark of Gaussian, Inc.
  
 This software contains proprietary and confidential information,
 including trade secrets, belonging to Gaussian, Inc.
  
 This software is provided under written license and may be
 used, copied, transmitted, or stored only in accord with that
 written license.
  
 The following legend is applicable only to US Government
 contracts under FAR:
  
                    RESTRICTED RIGHTS LEGEND
  
 Use, reproduction and disclosure by the US Government is
 subject to restrictions as set forth in subparagraphs (a)
 and (c) of the Commercial Computer Software - Restricted
 Rights clause in FAR 52.227-19.
  
 Gaussian, Inc.
 340 Quinnipiac St., Bldg. 40, Wallingford CT 06492
  
  
 ---------------------------------------------------------------
 Warning -- This program may not be used in any manner that
 competes with the business of Gaussian, Inc. or will provide
 assistance to any competitor of Gaussian, Inc.  The licensee
 of this program is prohibited from giving any competitor of
 Gaussian, Inc. access to this program.  By using this program,
 the user acknowledges that Gaussian, Inc. is engaged in the
 business of creating and licensing software in the field of
 computational chemistry and represents and warrants to the
 licensee that it is not a competitor of Gaussian, Inc. and that
 it will not use this program in any manner prohibited above.
 ---------------------------------------------------------------
  

 Cite this work as:
 Gaussian 09, Revision C.01,
 M. J. Frisch, G. W. Trucks, H. B. Schlegel, G. E. Scuseria, 
 M. A. Robb, J. R. Cheeseman, G. Scalmani, V. Barone, B. Mennucci, 
 G. A. Petersson, H. Nakatsuji, M. Caricato, X. Li, H. P. Hratchian, 
 A. F. Izmaylov, J. Bloino, G. Zheng, J. L. Sonnenberg, M. Hada, 
 M. Ehara, K. Toyota, R. Fukuda, J. Hasegawa, M. Ishida, T. Nakajima, 
 Y. Honda, O. Kitao, H. Nakai, T. Vreven, J. A. Montgomery, Jr., 
 J. E. Peralta, F. Ogliaro, M. Bearpark, J. J. Heyd, E. Brothers, 
 K. N. Kudin, V. N. Staroverov, T. Keith, R. Kobayashi, J. Normand, 
 K. Raghavachari, A. Rendell, J. C. Burant, S. S. Iyengar, J. Tomasi, 
 M. Cossi, N. Rega, J. M. Millam, M. Klene, J. E. Knox, J. B. Cross, 
 V. Bakken, C. Adamo, J. Jaramillo, R. Gomperts, R. E. Stratmann, 
 O. Yazyev, A. J. Austin, R. Cammi, C. Pomelli, J. W. Ochterski, 
 R. L. Martin, K. Morokuma, V. G. Zakrzewski, G. A. Voth, 
 P. Salvador, J. J. Dannenberg, S. Dapprich, A. D. Daniels, 
 O. Farkas, J. B. Foresman, J. V. Ortiz, J. Cioslowski, 
 and D. J. Fox, Gaussian, Inc., Wallingford CT, 2010.
 
 ******************************************
 Gaussian 09:  EM64L-G09RevC.01 23-Sep-2011
                23-Dec-2022 
 ******************************************
 %chk=02_RSSS_THC_005_optB_NMR
 %nprocshared=4
 Will use up to    4 processors via shared memory.
 ------------------------------------------------
 # mPW1PW91/6-31+G** scrf=(PCM,solvent=water) nmr
 ------------------------------------------------
 1/38=1/1;
 2/12=2,17=6,18=5,40=1/2;
 3/5=1,6=6,7=111,11=2,16=1,25=1,30=1,70=2201,72=1,74=-7/1,2,8,3;
 4//1;
 5/5=2,38=5,53=1/2;
 8/6=1,10=90,11=11/1;
 10/13=100,45=16/2;
 6/7=2,8=2,9=2,10=2,28=1/1;
 99/9=1/99;
 -------
 comment
 -------
 Charge =  0 Multiplicity = 1
 Symbolic Z-Matrix:
 6                     1.8631    2.43005  -1.62658 
 6                     1.12831   3.51885  -0.83822 
 1                     1.7488    4.42348  -0.7846 
 1                     0.24224   3.84168  -1.39377 
 6                     0.74226   3.09219   0.57749 
 1                     1.6584    3.06273   1.18258 
 6                     0.05321   1.71146   0.6946 
 1                     0.17487   1.44474   1.75577 
 6                     0.82181   0.62632  -0.12177 
 1                     1.8301    0.56785   0.31126 
 6                     1.08165   1.08875  -1.57637 
 1                     0.14838   1.23141  -2.12877 
 6                     0.25729  -0.78316   0.08876 
 6                    -0.63161  -3.45337   0.54825 
 6                     0.64924  -1.51224   1.22845 
 6                    -0.62633  -1.42724  -0.78512 
 6                    -1.0529   -2.74073  -0.57669 
 6                     0.21571  -2.82159   1.46199 
 1                    -1.72877  -3.19932  -1.29537 
 1                     0.53441  -3.35826   2.35135 
 8                    -1.13199  -0.8144   -1.89365 
 1                    -1.55663   0.00313  -1.57533 
 8                     1.48018  -0.91703   2.14159 
 1                     1.7125   -1.56574   2.82629 
 8                     1.8328    0.11614  -2.32213 
 1                     1.26338  -0.67488  -2.39003 
 6                     3.32476   2.31004  -1.16828 
 1                     3.84936   3.26221  -1.31251 
 1                     3.87157   1.57447  -1.7685 
 1                     3.41827   2.03266  -0.1152 
 8                     1.912     2.84949  -3.00265 
 1                     2.22203   2.06209  -3.49417 
 1                     0.11521   3.86976   1.03181 
 6                    -1.46549   1.76278   0.47087 
 6                    -2.08745   2.3185   -0.58299 
 1                    -3.17294   2.33896  -0.64976 
 1                    -1.56336   2.77836  -1.41098 
 6                    -2.29176   1.16215   1.58533 
 1                    -2.0469    0.10553   1.72543 
 1                    -3.36664   1.22544   1.38452 
 1                    -2.10028   1.69171   2.52448 
 6                    -1.1136   -4.86033   0.78847 
 1                    -1.26548  -5.36769  -0.17204 
 1                    -0.33798  -5.43134   1.31326 
 6                    -2.40409  -4.88618   1.59318 
 1                    -2.73018  -5.91887   1.75228 
 1                    -3.20728  -4.35292   1.07334 
 1                    -2.27017  -4.41764   2.57412 
 
                          Input orientation:                          
 ---------------------------------------------------------------------
 Center     Atomic      Atomic             Coordinates (Angstroms)
 Number     Number       Type             X           Y           Z
 ---------------------------------------------------------------------
      1          6           0        1.863095    2.430051   -1.626580
      2          6           0        1.128311    3.518853   -0.838224
      3          1           0        1.748802    4.423477   -0.784595
      4          1           0        0.242240    3.841681   -1.393773
      5          6           0        0.742256    3.092186    0.577494
      6          1           0        1.658399    3.062735    1.182584
      7          6           0        0.053209    1.711461    0.694599
      8          1           0        0.174875    1.444735    1.755770
      9          6           0        0.821812    0.626318   -0.121769
     10          1           0        1.830097    0.567854    0.311255
     11          6           0        1.081648    1.088749   -1.576366
     12          1           0        0.148383    1.231407   -2.128772
     13          6           0        0.257290   -0.783163    0.088756
     14          6           0       -0.631609   -3.453374    0.548254
     15          6           0        0.649240   -1.512238    1.228446
     16          6           0       -0.626334   -1.427241   -0.785116
     17          6           0       -1.052899   -2.740726   -0.576685
     18          6           0        0.215708   -2.821588    1.461986
     19          1           0       -1.728772   -3.199315   -1.295370
     20          1           0        0.534407   -3.358260    2.351353
     21          8           0       -1.131994   -0.814402   -1.893654
     22          1           0       -1.556634    0.003131   -1.575333
     23          8           0        1.480184   -0.917029    2.141588
     24          1           0        1.712502   -1.565743    2.826295
     25          8           0        1.832803    0.116141   -2.322126
     26          1           0        1.263385   -0.674883   -2.390029
     27          6           0        3.324764    2.310043   -1.168277
     28          1           0        3.849363    3.262215   -1.312513
     29          1           0        3.871566    1.574466   -1.768498
     30          1           0        3.418267    2.032664   -0.115202
     31          8           0        1.912000    2.849485   -3.002652
     32          1           0        2.222033    2.062085   -3.494175
     33          1           0        0.115213    3.869758    1.031811
     34          6           0       -1.465490    1.762785    0.470874
     35          6           0       -2.087450    2.318500   -0.582991
     36          1           0       -3.172938    2.338964   -0.649757
     37          1           0       -1.563363    2.778358   -1.410985
     38          6           0       -2.291763    1.162145    1.585334
     39          1           0       -2.046904    0.105528    1.725434
     40          1           0       -3.366643    1.225445    1.384524
     41          1           0       -2.100278    1.691706    2.524484
     42          6           0       -1.113599   -4.860327    0.788472
     43          1           0       -1.265482   -5.367688   -0.172042
     44          1           0       -0.337978   -5.431340    1.313257
     45          6           0       -2.404091   -4.886178    1.593181
     46          1           0       -2.730184   -5.918865    1.752275
     47          1           0       -3.207276   -4.352919    1.073343
     48          1           0       -2.270169   -4.417643    2.574118
 ---------------------------------------------------------------------
                    Distance matrix (angstroms):
                    1          2          3          4          5
     1  C    0.000000
     2  C    1.531961   0.000000
     3  H    2.166968   1.098285   0.000000
     4  H    2.161960   1.094521   1.726070   0.000000
     5  C    2.559814   1.528182   2.154242   2.167407   0.000000
     6  H    2.886796   2.138387   2.393656   3.041362   1.098325
     7  C    3.029840   2.602317   3.523930   2.989124   1.547547
     8  H    3.906562   3.455403   4.219432   3.958472   2.103414
     9  C    2.569471   2.995665   3.964476   3.506060   2.564333
    10  H    2.687764   3.243794   4.009156   4.018253   2.761618
    11  C    1.553149   2.540164   3.491763   2.883847   2.961091
    12  H    2.151553   2.803245   3.815425   2.713404   3.337523
    13  C    3.980670   4.486124   5.486023   4.856675   3.936037
    14  C    6.750418   7.323359   8.335924   7.599533   6.688252
    15  C    5.016599   5.460083   6.363497   5.975460   4.651141
    16  C    4.667336   5.248376   6.314442   5.374609   4.914771
    17  C    6.028452   6.633883   7.695360   6.758187   6.211085
    18  C    6.311326   6.806247   7.738765   7.249497   6.002691
    19  H    6.685879   7.314759   8.394128   7.312332   7.014028
    20  H    7.148001   7.604000   8.477286   8.120990   6.693133
    21  O    4.423614   5.000001   6.079834   4.880318   4.988068
    22  H    4.193699   4.484703   5.575898   4.243038   4.411555
    23  O    5.054567   5.355384   6.095548   6.056120   4.366317
    24  H    5.984743   6.294688   6.993612   7.015047   5.262584
    25  O    2.416378   3.778456   4.574299   4.155885   4.295804
    26  H    3.253171   4.473675   5.367153   4.736519   4.823752
    27  C    1.536528   2.528747   2.664108   3.449452   3.213847
    28  H    2.176325   2.773975   2.457556   3.654274   3.640762
    29  H    2.187720   3.488768   3.686605   4.295659   4.195203
    30  H    2.204708   2.824078   2.991854   3.872265   2.960312
    31  O    1.439407   2.397284   2.724676   2.522111   3.774209
    32  H    1.937045   3.220633   3.625182   3.390904   4.453014
    33  H    3.492119   2.155582   2.504905   2.429070   1.097363
    34  C    3.990494   3.394896   4.357427   3.273386   2.579306
    35  C    4.087583   3.441963   4.380458   2.899121   3.154767
    36  H    5.130703   4.464123   5.346672   3.804623   4.171598
    37  H    3.450857   2.849824   3.750896   2.095507   3.060787
    38  C    5.402483   4.808806   5.707804   4.740903   3.734444
    39  H    5.650442   5.320255   6.273142   5.378519   4.244680
    40  H    6.153697   5.514067   6.410949   5.252395   4.584656
    41  H    5.786606   5.007001   5.764373   5.046040   3.719155
    42  C    8.236673   8.825132   9.841590   9.073336   8.168915
    43  H    8.526923   9.227387  10.262946   9.411606   8.727101
    44  H    8.676914   9.321204  10.289464   9.677478   8.623152
    45  C    9.061067   9.435790  10.467570   9.596899   8.636285
    46  H   10.110355  10.519943  11.552536  10.677133   9.728155
    47  H    8.888585   9.187829  10.248892   9.226987   8.442409
    48  H    9.034415   9.283411  10.276113   9.501199   8.334191
                    6          7          8          9         10
     6  H    0.000000
     7  C    2.154230   0.000000
     8  H    2.268768   1.100922   0.000000
     9  C    2.887445   1.560367   2.147903   0.000000
    10  H    2.648230   2.147585   2.365439   1.098893   0.000000
    11  C    3.441085   2.569579   3.471612   1.548292   2.096335
    12  H    4.074185   2.865472   3.890485   2.201749   3.036806
    13  C    4.236802   2.575237   2.783748   1.532854   2.085299
    14  C    6.935862   5.212093   5.108814   4.382379   4.720851
    15  C    4.685177   3.321518   3.040853   2.535011   2.561727
    16  C    5.408487   3.535928   3.917433   2.598896   3.349103
    17  C    6.642764   4.760421   4.946297   3.880525   4.477365
    18  C    6.065037   4.600416   4.276622   3.842356   3.926672
    19  H    7.538332   5.590274   5.873715   4.745344   5.425712
    20  H    6.622579   5.355228   4.853117   4.698489   4.610335
    21  O    5.681701   3.805752   4.486636   3.005430   3.942872
    22  H    5.225296   3.265360   4.021515   2.856259   3.917661
    23  O    4.097556   3.322498   2.725916   2.817473   2.382736
    24  H    4.911977   4.247052   3.545885   3.780151   3.300226
    25  O    4.582120   3.848718   4.598165   2.474662   2.671844
    26  H    5.185498   4.083393   4.781766   2.652002   3.026961
    27  C    2.978232   3.812044   4.384132   3.192941   2.730983
    28  H    3.326503   4.565536   5.120493   4.187109   3.738133
    29  H    3.977679   4.545928   5.109092   3.593285   3.083218
    30  H    2.417112   3.475998   3.790223   2.952868   2.202230
    31  O    4.198332   4.291838   5.256758   3.798746   4.024243
    32  H    4.815709   4.729964   5.668676   3.923667   4.107023
    33  H    1.747983   2.185361   2.531484   3.514247   3.789802
    34  C    3.457613   1.535947   2.107821   2.621934   3.509164
    35  C    4.207437   2.565765   3.369181   3.397060   4.383105
    36  H    5.217579   3.550925   4.218299   4.378351   5.393582
    37  H    4.145747   2.860953   3.850760   3.461562   4.400909
    38  C    4.402071   2.567888   2.488615   3.591053   4.355019
    39  H    4.771690   2.837625   2.594358   3.451509   4.152683
    40  H    5.354200   3.522441   3.567668   4.491217   5.347002
    41  H    4.219960   2.826017   2.414174   4.083665   4.648577
    42  C    8.403225   6.675227   6.507660   5.888771   6.193401
    43  H    9.025305   7.252887   7.224971   6.347238   6.711695
    44  H    8.726506   7.180208   6.909359   6.332427   6.457158
    45  C    8.936309   7.097508   6.837979   6.613253   7.022687
    46  H   10.012659   8.190716   7.915932   7.679071   8.059170
    47  H    8.870099   6.895718   6.746662   6.515723   7.083072
    48  H    8.563064   6.818841   6.404328   6.501515   6.840169
                   11         12         13         14         15
    11  C    0.000000
    12  H    1.093840   0.000000
    13  C    2.637471   2.997963   0.000000
    14  C    5.299070   5.451791   2.851545   0.000000
    15  C    3.849556   4.364557   1.408570   2.423065   0.000000
    16  C    3.142210   3.077987   1.399743   2.425514   2.385109
    17  C    4.496724   4.430563   2.447746   1.396725   2.768566
    18  C    5.027143   5.415241   2.458184   1.397142   1.398888
    19  H    5.134678   4.883602   3.420240   2.160384   3.856270
    20  H    5.958385   6.425386   3.439080   2.149374   2.163771
    21  O    2.936472   2.424867   2.420957   3.630078   3.661595
    22  H    2.852910   2.173025   2.584138   4.160855   3.876003
    23  O    4.243248   4.962402   2.393221   3.664892   1.370610
    24  H    5.179549   5.901119   3.197530   3.774583   1.920029
    25  O    1.437484   2.029402   3.017174   5.201330   4.081543
    26  H    1.950763   2.223832   2.677373   4.465928   3.764531
    27  C    2.586438   3.489326   4.534032   7.198356   5.245240
    28  H    3.528996   4.299733   5.588526   8.284968   6.284318
    29  H    2.838393   3.756271   4.697956   7.136182   5.375202
    30  H    2.913033   3.922832   4.238190   6.851151   4.694596
    31  O    2.413290   2.547978   5.048862   7.668436   6.206560
    32  H    2.434307   2.618086   4.979261   7.409776   6.128018
    33  H    3.933267   4.117193   4.749654   7.376980   5.411999
    34  C    3.336679   3.105657   3.097714   5.282959   3.971369
    35  C    3.541506   2.927484   3.945803   6.059184   5.044336
    36  H    4.530247   3.800703   4.696758   6.437760   5.741815
    37  H    3.142961   2.416267   4.271817   6.598580   5.501946
    38  C    4.624028   4.444513   3.538593   5.013448   3.991139
    39  H    4.653648   4.576220   2.962734   4.006819   3.183293
    40  H    5.345357   4.969778   4.341245   5.483712   4.862775
    41  H    5.225435   5.188559   4.197126   5.703886   4.416426
    42  C    6.767797   6.871108   4.358005   1.506498   3.809314
    43  H    7.011899   7.026796   4.837843   2.141313   4.526812
    44  H    7.271645   7.515072   4.843480   2.140982   4.042419
    45  C    7.608952   7.602164   5.116735   2.507288   4.565011
    46  H    8.643875   8.629894   6.169906   3.454321   5.577926
    47  H    7.418058   7.259386   5.071074   2.778302   4.792311
    48  H    7.666913   7.738109   5.076861   2.778277   4.333031
                   16         17         18         19         20
    16  C    0.000000
    17  C    1.396654   0.000000
    18  C    2.775375   2.402516   0.000000
    19  H    2.148482   1.087941   3.395098   0.000000
    20  H    3.861813   3.387373   1.086536   4.294861   0.000000
    21  O    1.363862   2.334820   4.135869   2.530197   5.221896
    22  H    1.880389   2.963072   4.510603   3.219266   5.575865
    23  O    3.641886   4.139008   2.384975   5.226749   2.626425
    24  H    4.304838   4.539637   2.383040   5.612401   2.196951
    25  O    3.285084   4.419901   5.056159   4.973056   5.966465
    26  H    2.590912   3.594592   4.532547   4.064977   5.496602
    27  C    5.452089   6.710005   6.551194   7.477125   7.232119
    28  H    6.503922   7.785172   7.610121   8.536232   8.260965
    29  H    5.496216   6.655197   6.567085   7.374050   7.241657
    30  H    5.364562   6.556641   6.025584   7.433600   6.592618
    31  O    5.445273   6.776902   7.414275   7.263472   8.312596
    32  H    5.256195   6.504146   7.241487   6.937286   8.148523
    33  H    5.648833   6.902915   6.705913   7.667323   7.359427
    34  C    3.529583   4.642113   4.982490   5.273649   5.810412
    35  C    4.025704   5.163923   5.992243   5.575161   6.907251
    36  H    4.548386   5.504830   6.524850   5.759772   7.430305
    37  H    4.353940   5.605079   6.540523   5.981079   7.497593
    38  C    3.885564   4.630498   4.708796   5.257162   5.385916
    39  H    3.266536   3.793278   3.709020   4.488703   4.364948
    40  H    4.387866   4.993021   5.405341   5.426136   6.096170
    41  H    4.780564   5.510055   5.182906   6.217024   5.698569
    42  C    3.807845   2.521913   2.525298   2.734921   2.722999
    43  H    4.038749   2.666432   3.368471   2.485627   3.693904
    44  H    4.529805   3.364878   2.671983   3.704211   2.477168
    45  C    4.558614   3.337215   3.338126   3.412519   3.397665
    46  H    5.571286   4.282279   4.284352   4.205582   4.192033
    47  H    4.321426   3.156438   3.769992   3.021188   4.077113
    48  H    4.788439   3.771122   3.156551   4.092722   3.006254
                   21         22         23         24         25
    21  O    0.000000
    22  H    0.974684   0.000000
    23  O    4.808033   4.887172   0.000000
    24  H    5.561797   5.702889   0.971404   0.000000
    25  O    3.136800   3.472571   4.595271   5.417513   0.000000
    26  H    2.450243   3.012630   4.543257   5.310873   0.977019
    27  C    5.490994   5.414386   4.977115   5.794628   2.893185
    28  H    6.463006   6.317871   5.916916   6.708583   3.870868
    29  H    5.545986   5.654357   5.216802   5.969471   2.567055
    30  H    5.654516   5.567820   4.189266   4.950815   3.325247
    31  O    4.890792   4.708545   6.390328   7.315099   2.817900
    32  H    4.699504   4.711642   6.417731   7.305415   2.304756
    33  H    5.661734   4.954096   5.099812   5.942742   5.318708
    34  C    3.513418   2.700305   4.318528   5.169791   4.625043
    35  C    3.527862   2.574382   5.533533   6.414843   4.821137
    36  H    3.956824   2.987515   6.328083   7.155222   5.726709
    37  H    3.650613   2.780097   5.961529   6.896161   4.410387
    38  C    4.165954   3.445801   4.342806   5.001550   5.777059
    39  H    3.844624   3.338549   3.695829   4.258894   5.606690
    40  H    4.461064   3.678442   5.353043   5.972197   6.481053
    41  H    5.170890   4.467139   4.446550   5.023878   6.437480
    42  C    4.854240   5.425594   4.910013   4.795190   6.566759
    43  H    4.869721   5.558749   5.718386   5.684470   6.655419
    44  H    5.677223   6.273958   4.936684   4.629967   6.978742
    45  C    5.509592   5.887529   5.580545   5.430672   7.635711
    46  H    6.473219   6.893492   6.549590   6.311945   8.593188
    47  H    5.062704   5.358664   5.909211   5.919916   7.543480
    48  H    5.851476   6.104942   5.148450   4.904956   7.833440
                   26         27         28         29         30
    26  H    0.000000
    27  C    3.827760   0.000000
    28  H    4.832087   1.096649   0.000000
    29  H    3.499783   1.095596   1.748403   0.000000
    30  H    4.141155   1.093000   1.769518   1.774489   0.000000
    31  O    3.635545   2.377358   2.603899   2.643617   3.357589
    32  H    3.103085   2.585981   2.974586   2.436533   3.584591
    33  H    5.803538   4.192174   4.450712   5.217306   3.949775
    34  C    4.644755   5.092430   5.803139   5.790891   4.926195
    35  C    4.842915   5.443776   6.055456   6.121183   5.532942
    36  H    5.638509   6.518422   7.113673   7.173637   6.619935
    37  H    4.568797   4.916503   5.435201   5.578137   5.201129
    38  C    5.640679   6.359671   7.107829   7.028856   6.021135
    39  H    5.338922   6.487547   7.345730   7.028059   6.080286
    40  H    6.268625   7.243485   7.968260   7.902849   6.995411
    41  H    6.408386   6.591654   7.251708   7.355702   6.126869
    42  C    5.768089   8.656912   9.747861   8.532087   8.298659
    43  H    5.773825   9.000578  10.096412   8.782450   8.758193
    44  H    6.237193   8.916429  10.000319   8.734918   8.477100
    45  C    6.859398   9.603698  10.674504   9.613775   9.202651
    46  H    7.785025  10.625768  11.703657  10.589096  10.223391
    47  H    6.746088   9.596222  10.652639   9.660225   9.278261
    48  H    7.151015   9.516856  10.561003   9.616891   9.010949
                   31         32         33         34         35
    31  O    0.000000
    32  H    0.978628   0.000000
    33  H    4.532802   5.309512   0.000000
    34  C    4.965254   5.423008   2.693067   0.000000
    35  C    4.704499   5.206955   3.140973   1.343981   0.000000
    36  H    5.626131   6.105169   3.997866   2.122068   1.087731
    37  H    3.823168   4.379720   3.158484   2.140645   1.082456
    38  C    6.447353   6.854608   3.664845   1.511792   2.465874
    39  H    6.749594   7.021128   4.396053   2.158347   3.198079
    40  H    7.053290   7.465585   4.386356   2.176665   2.588865
    41  H    6.927342   7.419151   3.446793   2.150656   3.170085
    42  C    9.108681   8.797004   8.819499   6.640053   7.373252
    43  H    9.253685   8.854426   9.417324   7.162192   7.740930
    44  H    9.605288   9.263718   9.316385   7.330507   8.168013
    45  C    9.979520   9.775508   9.128441   6.808028   7.532819
    46  H   11.001963  10.758497  10.219222   7.889815   8.586079
    47  H    9.731154   9.565139   8.868657   6.387380   6.964574
    48  H   10.069859   9.949418   8.760695   6.577905   7.441528
                   36         37         38         39         40
    36  H    0.000000
    37  H    1.833921   0.000000
    38  C    2.675257   3.481471   0.000000
    39  H    3.449307   4.149090   1.093629   0.000000
    40  H    2.327176   3.671271   1.095307   1.764126   0.000000
    41  H    3.412528   4.117889   1.095036   1.776877   1.766519
    42  C    7.624904   7.961746   6.188152   5.138937   6.516755
    43  H    7.953558   8.245106   6.839616   5.845266   7.092755
    44  H    8.501062   8.736258   6.882249   5.809237   7.313732
    45  C    7.604247   8.275080   6.049371   5.006217   6.190474
    46  H    8.611477   9.327882   7.096534   6.063078   7.182025
    47  H    6.910250   7.728483   5.613933   4.652896   5.589309
    48  H    7.540563   8.256091   5.666763   4.607515   5.870419
                   41         42         43         44         45
    41  H    0.000000
    42  C    6.849555   0.000000
    43  H    7.602841   1.096846   0.000000
    44  H    7.437107   1.096834   1.752265   0.000000
    45  C    6.650427   1.521051   2.155062   2.155083   0.000000
    46  H    7.675538   2.159344   2.480352   2.480538   1.094573
    47  H    6.314171   2.173039   2.520179   3.074642   1.095310
    48  H    6.111912   2.173052   3.074635   2.520063   1.095307
                   46         47         48
    46  H    0.000000
    47  H    1.772217   0.000000
    48  H    1.772204   1.770504   0.000000
 Stoichiometry    C18H26O4
 Framework group  C1[X(C18H26O4)]
 Deg. of freedom   138
 Full point group                 C1      NOp   1
 Largest Abelian subgroup         C1      NOp   1
 Largest concise Abelian subgroup C1      NOp   1
                         Standard orientation:                         
 ---------------------------------------------------------------------
 Center     Atomic      Atomic             Coordinates (Angstroms)
 Number     Number       Type             X           Y           Z
 ---------------------------------------------------------------------
      1          6           0        3.240130   -0.820698   -0.074506
      2          6           0        3.684353    0.616015    0.217771
      3          1           0        4.686745    0.612428    0.666580
      4          1           0        3.820717    1.158249   -0.723166
      5          6           0        2.727760    1.375964    1.135785
      6          1           0        2.844494    0.974421    2.151390
      7          6           0        1.229058    1.285947    0.760700
      8          1           0        0.707421    1.577033    1.685466
      9          6           0        0.809036   -0.187418    0.464862
     10          1           0        0.987368   -0.753116    1.389929
     11          6           0        1.763503   -0.855721   -0.554732
     12          1           0        1.723554   -0.362608   -1.530298
     13          6           0       -0.699031   -0.338415    0.235566
     14          6           0       -3.509605   -0.728887   -0.046414
     15          6           0       -1.553472   -0.428900    1.351726
     16          6           0       -1.311652   -0.409073   -1.021010
     17          6           0       -2.684818   -0.617462   -1.168087
     18          6           0       -2.933369   -0.618169    1.221537
     19          1           0       -3.107790   -0.679391   -2.168525
     20          1           0       -3.567151   -0.682952    2.101698
     21          8           0       -0.610188   -0.274821   -2.182925
     22          1           0       -0.145201    0.579167   -2.115834
     23          8           0       -1.015104   -0.323721    2.607778
     24          1           0       -1.714648   -0.475731    3.264405
     25          8           0        1.413961   -2.229020   -0.796043
     26          1           0        0.534292   -2.216094   -1.220992
     27          6           0        3.520597   -1.738537    1.125423
     28          1           0        4.591838   -1.743340    1.360071
     29          1           0        3.259843   -2.778738    0.901102
     30          1           0        2.981939   -1.435568    2.026925
     31          8           0        4.055970   -1.315979   -1.151999
     32          1           0        3.630061   -2.153821   -1.424647
     33          1           0        3.041925    2.425601    1.197167
     34          6           0        0.794365    2.325535   -0.283060
     35          6           0        1.386490    2.544771   -1.469487
     36          1           0        1.032461    3.324667   -2.139997
     37          1           0        2.238652    1.979683   -1.824741
     38          6           0       -0.380278    3.184134    0.127473
     39          1           0       -1.263488    2.568806    0.320696
     40          1           0       -0.650983    3.912405   -0.644561
     41          1           0       -0.139124    3.743128    1.037679
     42          6           0       -4.994854   -0.925470   -0.204288
     43          1           0       -5.195506   -1.513412   -1.108244
     44          1           0       -5.379579   -1.518573    0.634318
     45          6           0       -5.735909    0.400765   -0.278673
     46          1           0       -6.810669    0.227782   -0.392956
     47          1           0       -5.395868    0.998687   -1.131061
     48          1           0       -5.582240    0.993323    0.629598
 ---------------------------------------------------------------------
 Rotational constants (GHZ):      0.4941427      0.1831810      0.1718700
 Standard basis: 6-31+G(d,p) (6D, 7F)
 There are   548 symmetry adapted basis functions of A   symmetry.
 Integral buffers will be    131072 words long.
 Raffenetti 2 integral format.
 Two-electron integral symmetry is turned on.
   548 basis functions,   886 primitive gaussians,   548 cartesian basis functions
    83 alpha electrons       83 beta electrons
       nuclear repulsion energy      1985.9911166266 Hartrees.
 NAtoms=   48 NActive=   48 NUniq=   48 SFac= 1.00D+00 NAtFMM=   60 NAOKFM=F Big=F
 ------------------------------------------------------------------------------
 Polarizable Continuum Model (PCM)
 =================================
 Model                : PCM.
 Atomic radii         : UFF (Universal Force Field).
 Polarization charges : Total charges.
 Charge compensation  : None.
 Solution method      : Matrix inversion.
 Cavity type          : Scaled VdW (van der Waals Surface) (Alpha=1.100).
 Cavity algorithm     : GePol (No added spheres)
                        Default sphere list used, NSphG=   48.
                        Lebedev-Laikov grids with approx.  5.0 points / Ang**2.
                        Smoothing algorithm: Karplus/York (Gamma=1.0000).
                        Polarization charges: spherical gaussians, with
                                              point-specific exponents (IZeta= 3).
                        Self-potential: point-specific (ISelfS= 7).
                        Self-field    : sphere-specific E.n sum rule (ISelfD= 2).
 Solvent              : Water, Eps=  78.355300 Eps(inf)=   1.777849
 ------------------------------------------------------------------------------
 One-electron integrals computed using PRISM.
 NBasis=   548 RedAO= T  NBF=   548
 NBsUse=   545 1.00D-06 NBFU=   545
 Harris functional with IExCor=  908 diagonalized for initial guess.
 ExpMin= 4.38D-02 ExpMax= 5.48D+03 ExpMxC= 8.25D+02 IAcc=2 IRadAn=         4 AccDes= 0.00D+00
 HarFok:  IExCor=  908 AccDes= 0.00D+00 IRadAn=         4 IDoV= 1
 ScaDFX=  1.000000  1.000000  1.000000  1.000000
 FoFCou: FMM=F IPFlag=           0 FMFlag=      100000 FMFlg1=           0
         NFxFlg=           0 DoJE=T BraDBF=F KetDBF=T FulRan=T
         Omega=  0.000000  0.000000  1.000000  0.000000  0.000000 ICntrl=     500 IOpCl=  0
         NMat0=    1 NMatS0=    1 NMatT0=    0 NMatD0=    1 NMtDS0=    0 NMtDT0=    0
         I1Cent=           4 NGrid=           0.
 Petite list used in FoFCou.
 Initial guess orbital symmetries:
       Occupied  (A) (A) (A) (A) (A) (A) (A) (A) (A) (A) (A) (A)
                 (A) (A) (A) (A) (A) (A) (A) (A) (A) (A) (A) (A)
                 (A) (A) (A) (A) (A) (A) (A) (A) (A) (A) (A) (A)
                 (A) (A) (A) (A) (A) (A) (A) (A) (A) (A) (A) (A)
                 (A) (A) (A) (A) (A) (A) (A) (A) (A) (A) (A) (A)
                 (A) (A) (A) (A) (A) (A) (A) (A) (A) (A) (A) (A)
                 (A) (A) (A) (A) (A) (A) (A) (A) (A) (A) (A)
       Virtual   (A) (A) (A) (A) (A) (A) (A) (A) (A) (A) (A) (A)
                 (A) (A) (A) (A) (A) (A) (A) (A) (A) (A) (A) (A)
                 (A) (A) (A) (A) (A) (A) (A) (A) (A) (A) (A) (A)
                 (A) (A) (A) (A) (A) (A) (A) (A) (A) (A) (A) (A)
                 (A) (A) (A) (A) (A) (A) (A) (A) (A) (A) (A) (A)
                 (A) (A) (A) (A) (A) (A) (A) (A) (A) (A) (A) (A)
                 (A) (A) (A) (A) (A) (A) (A) (A) (A) (A) (A) (A)
                 (A) (A) (A) (A) (A) (A) (A) (A) (A) (A) (A) (A)
                 (A) (A) (A) (A) (A) (A) (A) (A) (A) (A) (A) (A)
                 (A) (A) (A) (A) (A) (A) (A) (A) (A) (A) (A) (A)
                 (A) (A) (A) (A) (A) (A) (A) (A) (A) (A) (A) (A)
                 (A) (A) (A) (A) (A) (A) (A) (A) (A) (A) (A) (A)
                 (A) (A) (A) (A) (A) (A) (A) (A) (A) (A) (A) (A)
                 (A) (A) (A) (A) (A) (A) (A) (A) (A) (A) (A) (A)
                 (A) (A) (A) (A) (A) (A) (A) (A) (A) (A) (A) (A)
                 (A) (A) (A) (A) (A) (A) (A) (A) (A) (A) (A) (A)
                 (A) (A) (A) (A) (A) (A) (A) (A) (A) (A) (A) (A)
                 (A) (A) (A) (A) (A) (A) (A) (A) (A) (A) (A) (A)
                 (A) (A) (A) (A) (A) (A) (A) (A) (A) (A) (A) (A)
                 (A) (A) (A) (A) (A) (A) (A) (A) (A) (A) (A) (A)
                 (A) (A) (A) (A) (A) (A) (A) (A) (A) (A) (A) (A)
                 (A) (A) (A) (A) (A) (A) (A) (A) (A) (A) (A) (A)
                 (A) (A) (A) (A) (A) (A) (A) (A) (A) (A) (A) (A)
                 (A) (A) (A) (A) (A) (A) (A) (A) (A) (A) (A) (A)
                 (A) (A) (A) (A) (A) (A) (A) (A) (A) (A) (A) (A)
                 (A) (A) (A) (A) (A) (A) (A) (A) (A) (A) (A) (A)
                 (A) (A) (A) (A) (A) (A) (A) (A) (A) (A) (A) (A)
                 (A) (A) (A) (A) (A) (A) (A) (A) (A) (A) (A) (A)
                 (A) (A) (A) (A) (A) (A) (A) (A) (A) (A) (A) (A)
                 (A) (A) (A) (A) (A) (A) (A) (A) (A) (A) (A) (A)
                 (A) (A) (A) (A) (A) (A) (A) (A) (A) (A) (A) (A)
                 (A) (A) (A) (A) (A) (A) (A) (A) (A) (A) (A) (A)
                 (A) (A) (A) (A) (A) (A) (A) (A) (A) (A) (A) (A)
                 (A) (A) (A) (A) (A) (A) (A) (A) (A) (A) (A) (A)
                 (A) (A) (A) (A) (A) (A) (A) (A) (A) (A) (A) (A)
                 (A) (A) (A) (A) (A) (A) (A) (A) (A) (A) (A) (A)
                 (A) (A) (A) (A) (A) (A) (A) (A) (A) (A) (A) (A)
                 (A) (A) (A) (A) (A) (A) (A) (A) (A) (A) (A) (A)
                 (A) (A) (A) (A) (A) (A)
 The electronic state of the initial guess is 1-A.
 Requested convergence on RMS density matrix=1.00D-08 within 128 cycles.
 Requested convergence on MAX density matrix=1.00D-06.
 Requested convergence on             energy=1.00D-06.
 No special actions if energy rises.
 CoulSu:  requested number of processors reduced to:   2 ShMem   1 Linda.
 CoulSu:  requested number of processors reduced to:   2 ShMem   1 Linda.
 Error on total polarization charges =  0.01919
 SCF Done:  E(RmPW1PW91) =  -1002.30222530     A.U. after   14 cycles
             Convg  =    0.5392D-08             -V/T =  2.0094
 Range of M.O.s used for correlation:     1   545
 NBasis=   548 NAE=    83 NBE=    83 NFC=     0 NFV=     0
 NROrb=    545 NOA=    83 NOB=    83 NVA=   462 NVB=   462

 **** Warning!!: The largest alpha MO coefficient is  0.93082861D+02

 NEqPCM:  Using equilibrium solvation (IEInf=0, Eps=  78.3553, EpsInf=   1.7778)
          Differentiating once with respect to magnetic field using GIAOs.
          Electric field/nuclear overlap derivatives assumed to be zero.
 FoFCou: FMM=F IPFlag=           0 FMFlag=    10101102 FMFlg1=           0
         NFxFlg=    40000000 DoJE=F BraDBF=F KetDBF=T FulRan=T
         Omega=  0.000000  0.000000  1.000000  0.000000  0.000000 ICntrl=    6100 IOpCl=  0
         NMat0=    1 NMatS0=    1 NMatT0=    0 NMatD0=    1 NMtDS0=    0 NMtDT0=    0
         I1Cent=           7 NGrid=        3004.
 Symmetry not used in FoFCou.
          There are     3 degrees of freedom in the 1st order CPHF.  IDoFFX=0.
      3 vectors produced by pass  0 Test12= 1.28D-12 3.33D-08 XBig12= 8.53D+02 4.93D+00.
 AX will form     3 AO Fock derivatives at one time.
      3 vectors produced by pass  1 Test12= 1.28D-12 3.33D-08 XBig12= 1.93D+00 2.58D-01.
      3 vectors produced by pass  2 Test12= 1.28D-12 3.33D-08 XBig12= 6.84D-03 2.52D-02.
      3 vectors produced by pass  3 Test12= 1.28D-12 3.33D-08 XBig12= 3.41D-05 1.58D-03.
      3 vectors produced by pass  4 Test12= 1.28D-12 3.33D-08 XBig12= 1.18D-07 6.00D-05.
      3 vectors produced by pass  5 Test12= 1.28D-12 3.33D-08 XBig12= 4.61D-10 3.45D-06.
      3 vectors produced by pass  6 Test12= 1.28D-12 3.33D-08 XBig12= 2.04D-12 1.90D-07.
 Inverted reduced A of dimension    21 with in-core refinement.
 Calculating GIAO nuclear magnetic shielding tensors.
 SCF GIAO Magnetic shielding tensor (ppm):
      1  C    Isotropic =   120.9327   Anisotropy =    45.5531
   XX=   122.5135   YX=    -7.0697   ZX=   -16.6075
   XY=   -11.0512   YY=   109.0817   ZY=     7.5382
   XZ=   -25.0646   YZ=     7.4565   ZZ=   131.2028
   Eigenvalues:   103.5217   107.9750   151.3014
      2  C    Isotropic =   160.3348   Anisotropy =    27.3205
   XX=   155.8696   YX=     5.9311   ZX=    -1.5088
   XY=     3.6266   YY=   175.5819   ZY=     5.6708
   XZ=    -0.8415   YZ=     9.8846   ZZ=   149.5530
   Eigenvalues:   146.7295   155.7264   178.5485
      3  H    Isotropic =    29.8406   Anisotropy =     9.4035
   XX=    35.4330   YX=     0.5175   ZX=     2.1182
   XY=     1.7021   YY=    27.9027   ZY=     1.2091
   XZ=     2.1429   YZ=     0.8625   ZZ=    26.1861
   Eigenvalues:    25.4564    27.9558    36.1095
      4  H    Isotropic =    29.4255   Anisotropy =     6.7107
   XX=    28.7795   YX=     0.3458   ZX=    -2.9704
   XY=     1.3461   YY=    30.2296   ZY=    -3.2251
   XZ=    -1.5738   YZ=    -3.1770   ZZ=    29.2673
   Eigenvalues:    25.9009    28.4762    33.8993
      5  C    Isotropic =   165.4350   Anisotropy =    23.3265
   XX=   179.2786   YX=     0.8545   ZX=     9.8418
   XY=     2.5292   YY=   158.1152   ZY=    -1.5888
   XZ=     2.1519   YZ=    -1.0332   ZZ=   158.9111
   Eigenvalues:   155.9099   159.4090   180.9860
      6  H    Isotropic =    29.4713   Anisotropy =     8.2567
   XX=    28.6389   YX=    -1.6121   ZX=     2.5032
   XY=    -0.7227   YY=    25.5648   ZY=     1.0667
   XZ=     1.8858   YZ=     0.2001   ZZ=    34.2101
   Eigenvalues:    24.9698    28.4683    34.9758
      7  C    Isotropic =   152.2089   Anisotropy =    17.8109
   XX=   151.1704   YX=    -5.5198   ZX=     7.8448
   XY=    -0.5380   YY=   155.6225   ZY=    -5.1352
   XZ=     9.5288   YZ=    -6.9309   ZZ=   149.8338
   Eigenvalues:   141.3246   151.2193   164.0828
      8  H    Isotropic =    28.3859   Anisotropy =     5.8932
   XX=    29.4066   YX=    -1.7236   ZX=    -1.8600
   XY=     0.0807   YY=    27.5934   ZY=     2.1208
   XZ=    -3.2553   YZ=     2.2871   ZZ=    28.1576
   Eigenvalues:    25.2561    27.5868    32.3147
      9  C    Isotropic =   150.3393   Anisotropy =    23.0870
   XX=   148.3670   YX=    -5.6695   ZX=    -2.9544
   XY=     3.3635   YY=   161.3389   ZY=     7.3101
   XZ=    -1.5827   YZ=    12.7936   ZZ=   141.3119
   Eigenvalues:   136.8961   148.3911   165.7306
     10  H    Isotropic =    28.3142   Anisotropy =     6.3522
   XX=    31.7137   YX=    -0.4048   ZX=    -1.6656
   XY=    -2.8762   YY=    24.4682   ZY=    -2.8115
   XZ=    -1.8196   YZ=    -2.3089   ZZ=    28.7608
   Eigenvalues:    22.7174    29.6762    32.5490
     11  C    Isotropic =   120.8584   Anisotropy =    36.0583
   XX=   121.2881   YX=     5.3161   ZX=    -4.3120
   XY=    17.7776   YY=   139.1173   ZY=     2.0840
   XZ=    -1.2435   YZ=     5.3749   ZZ=   102.1697
   Eigenvalues:   100.9034   116.7745   144.8973
     12  H    Isotropic =    26.5851   Anisotropy =     2.9035
   XX=    26.3774   YX=     0.5666   ZX=     1.2396
   XY=    -0.8801   YY=    27.5062   ZY=    -2.1540
   XZ=     1.2490   YZ=    -0.4444   ZZ=    25.8717
   Eigenvalues:    24.5445    26.6901    28.5208
     13  C    Isotropic =    87.1417   Anisotropy =   123.0524
   XX=    39.6898   YX=   -12.3285   ZX=     2.5127
   XY=   -18.4570   YY=   167.3291   ZY=    -2.3021
   XZ=     3.7300   YZ=     0.1850   ZZ=    54.4063
   Eigenvalues:    37.3408    54.9077   169.1767
     14  C    Isotropic =    49.5970   Anisotropy =   192.5257
   XX=   -25.9032   YX=   -31.3578   ZX=    -4.7929
   XY=   -36.6278   YY=   172.2311   ZY=    -2.0514
   XZ=    -5.1319   YZ=    -5.4047   ZZ=     2.4632
   Eigenvalues:   -32.4431     3.2866   177.9474
     15  C    Isotropic =    43.1470   Anisotropy =   125.5856
   XX=    32.9431   YX=   -12.4236   ZX=   -26.3625
   XY=    -7.8715   YY=   125.6968   ZY=    -5.8550
   XZ=   -17.6449   YZ=    -5.7457   ZZ=   -29.1989
   Eigenvalues:   -36.6595    39.2297   126.8708
     16  C    Isotropic =    44.9950   Anisotropy =   118.1960
   XX=    26.6328   YX=   -21.1269   ZX=    39.2435
   XY=   -21.4493   YY=   119.0719   ZY=    10.5262
   XZ=    32.2018   YZ=    10.3425   ZZ=   -10.7198
   Eigenvalues:   -34.9716    46.1642   123.7923
     17  C    Isotropic =    83.7179   Anisotropy =   114.2558
   XX=    73.2448   YX=   -11.5964   ZX=   -25.9866
   XY=     1.0786   YY=   159.5060   ZY=     6.0175
   XZ=   -29.3027   YZ=    -3.5805   ZZ=    18.4029
   Eigenvalues:     6.8810    84.3843   159.8884
     18  C    Isotropic =    87.9928   Anisotropy =   103.9193
   XX=    66.2337   YX=    -9.2392   ZX=    34.1847
   XY=    -0.4618   YY=   156.9943   ZY=    -0.0555
   XZ=    35.6143   YZ=     0.9310   ZZ=    40.7504
   Eigenvalues:    16.2692    90.4368   157.2723
     19  H    Isotropic =    24.6632   Anisotropy =     7.4985
   XX=    29.1933   YX=     0.8289   ZX=    -1.7474
   XY=     0.3698   YY=    20.9243   ZY=     1.2394
   XZ=    -1.4854   YZ=     0.2610   ZZ=    23.8719
   Eigenvalues:    20.6287    23.6987    29.6622
     20  H    Isotropic =    24.9355   Anisotropy =     7.2538
   XX=    28.1786   YX=     0.9380   ZX=     2.5352
   XY=     0.5769   YY=    21.0054   ZY=    -0.1553
   XZ=     2.5214   YZ=    -0.1162   ZZ=    25.6225
   Eigenvalues:    20.8856    24.1495    29.7713
     21  O    Isotropic =   247.6378   Anisotropy =    61.0537
   XX=   222.0174   YX=   -15.2311   ZX=   -30.5337
   XY=    -5.1790   YY=   283.0912   ZY=    33.5229
   XZ=   -15.0262   YZ=   -15.4633   ZZ=   237.8047
   Eigenvalues:   205.6739   248.8992   288.3402
     22  H    Isotropic =    26.5444   Anisotropy =    18.0047
   XX=    24.0144   YX=     8.3709   ZX=     2.1111
   XY=    11.4235   YY=    31.8027   ZY=    -1.5532
   XZ=     0.5810   YZ=    -0.8030   ZZ=    23.8160
   Eigenvalues:    16.8218    24.2638    38.5475
     23  O    Isotropic =   226.5019   Anisotropy =    53.8498
   XX=   192.0613   YX=   -10.2646   ZX=    21.4470
   XY=    -3.0808   YY=   242.1691   ZY=   -18.2132
   XZ=    38.1207   YZ=     5.0493   ZZ=   245.2753
   Eigenvalues:   178.5461   238.5579   262.4018
     24  H    Isotropic =    26.3977   Anisotropy =    15.6185
   XX=    29.0907   YX=     2.1295   ZX=    -4.5909
   XY=     2.7664   YY=    18.1002   ZY=    -2.5954
   XZ=    -6.5295   YZ=    -1.4667   ZZ=    32.0022
   Eigenvalues:    17.5204    24.8627    36.8100
     25  O    Isotropic =   301.8970   Anisotropy =    42.6569
   XX=   314.0636   YX=     8.1277   ZX=    29.2512
   XY=    -5.8727   YY=   303.2093   ZY=     5.0919
   XZ=    22.9472   YZ=    -6.2980   ZZ=   288.4181
   Eigenvalues:   272.1224   303.2338   330.3349
     26  H    Isotropic =    29.6132   Anisotropy =    18.6541
   XX=    37.7973   YX=     0.4822   ZX=     8.8050
   XY=    -1.7801   YY=    27.3267   ZY=     4.3046
   XZ=     8.6791   YZ=     2.9548   ZZ=    23.7158
   Eigenvalues:    18.1493    28.6411    42.0493
     27  C    Isotropic =   174.6433   Anisotropy =    32.3638
   XX=   169.2161   YX=    -3.4906   ZX=     6.2758
   XY=    -1.1481   YY=   171.7597   ZY=   -18.1214
   XZ=     0.5612   YZ=   -16.5796   ZZ=   182.9540
   Eigenvalues:   159.1239   168.5868   196.2192
     28  H    Isotropic =    30.6913   Anisotropy =     9.9809
   XX=    34.8999   YX=    -1.8818   ZX=     3.1651
   XY=    -2.4633   YY=    28.0803   ZY=    -1.6791
   XZ=     3.9773   YZ=    -1.4132   ZZ=    29.0937
   Eigenvalues:    26.9183    27.8104    37.3452
     29  H    Isotropic =    30.1853   Anisotropy =     7.9295
   XX=    28.2004   YX=     0.3030   ZX=     1.9873
   XY=    -0.6599   YY=    34.8784   ZY=    -1.3301
   XZ=     1.9320   YZ=    -2.7674   ZZ=    27.4771
   Eigenvalues:    25.6030    29.4813    35.4717
     30  H    Isotropic =    29.9453   Anisotropy =     7.9616
   XX=    28.3471   YX=    -2.3394   ZX=    -1.4266
   XY=    -2.3630   YY=    26.7769   ZY=    -2.0974
   XZ=    -2.1409   YZ=    -0.6892   ZZ=    34.7117
   Eigenvalues:    24.6122    29.9706    35.2530
     31  O    Isotropic =   258.1677   Anisotropy =    79.8481
   XX=   224.4037   YX=   -12.9206   ZX=   -13.6675
   XY=    -5.7067   YY=   245.3607   ZY=     4.0124
   XZ=   -24.9302   YZ=    16.7389   ZZ=   304.7386
   Eigenvalues:   218.2084   244.8948   311.3997
     32  H    Isotropic =    28.4913   Anisotropy =    14.4341
   XX=    27.5313   YX=     2.3061   ZX=    -2.5735
   XY=     2.3111   YY=    32.9728   ZY=     8.0177
   XZ=    -1.0493   YZ=     8.2025   ZZ=    24.9697
   Eigenvalues:    19.0280    28.3318    38.1141
     33  H    Isotropic =    29.8871   Anisotropy =     9.5053
   XX=    29.5282   YX=     2.2697   ZX=     1.1386
   XY=     2.5158   YY=    33.8902   ZY=     3.5673
   XZ=     1.7212   YZ=     2.9758   ZZ=    26.2429
   Eigenvalues:    24.9657    28.4716    36.2239
     34  C    Isotropic =    36.4153   Anisotropy =   189.0338
   XX=    33.4326   YX=   105.4475   ZX=    27.7948
   XY=   109.0375   YY=    32.1382   ZY=    40.2161
   XZ=    32.1751   YZ=    45.5794   ZZ=    43.6752
   Eigenvalues:   -75.2678    22.0760   162.4379
     35  C    Isotropic =    87.3266   Anisotropy =   114.9538
   XX=    83.3038   YX=    73.4175   ZX=     2.0535
   XY=    78.9445   YY=    74.2753   ZY=    24.9641
   XZ=    -1.7648   YZ=    39.7657   ZZ=   104.4005
   Eigenvalues:    -2.8111   100.8284   163.9624
     36  H    Isotropic =    26.1637   Anisotropy =     5.4054
   XX=    24.9442   YX=     1.4604   ZX=    -2.4538
   XY=     0.8552   YY=    26.1081   ZY=    -1.7007
   XZ=    -1.1215   YZ=    -2.1878   ZZ=    27.4388
   Eigenvalues:    23.9946    24.7292    29.7673
     37  H    Isotropic =    25.9961   Anisotropy =     6.0196
   XX=    25.2317   YX=     0.0213   ZX=    -0.0575
   XY=     2.0094   YY=    24.6017   ZY=    -3.5503
   XZ=    -2.3362   YZ=    -1.6226   ZZ=    28.1548
   Eigenvalues:    23.1716    24.8075    30.0091
     38  C    Isotropic =   166.0524   Anisotropy =    43.3031
   XX=   170.9270   YX=   -25.7204   ZX=    -6.3854
   XY=   -23.0188   YY=   168.8793   ZY=    -1.3660
   XZ=   -10.5788   YZ=    -2.6973   ZZ=   158.3507
   Eigenvalues:   142.1085   161.1274   194.9211
     39  H    Isotropic =    30.4520   Anisotropy =     6.8039
   XX=    32.7946   YX=     0.7006   ZX=    -1.9159
   XY=     2.1919   YY=    33.7632   ZY=     0.0915
   XZ=    -1.3840   YZ=    -1.0313   ZZ=    24.7983
   Eigenvalues:    24.4677    31.9004    34.9880
     40  H    Isotropic =    30.0174   Anisotropy =     8.5539
   XX=    28.4094   YX=    -3.6799   ZX=     1.5578
   XY=    -1.7355   YY=    32.9612   ZY=    -4.0564
   XZ=    -0.0187   YZ=    -2.3639   ZZ=    28.6815
   Eigenvalues:    26.5682    27.7640    35.7200
     41  H    Isotropic =    29.7687   Anisotropy =     8.5500
   XX=    26.9127   YX=    -1.3408   ZX=    -0.5823
   XY=    -0.5880   YY=    32.4563   ZY=     4.5000
   XZ=     0.3067   YZ=     3.4828   ZZ=    29.9372
   Eigenvalues:    26.4528    27.3847    35.4687
     42  C    Isotropic =   163.8093   Anisotropy =    29.7242
   XX=   183.0510   YX=    10.1690   ZX=     2.5485
   XY=    -3.8223   YY=   151.2746   ZY=     0.4170
   XZ=     2.5400   YZ=     1.5476   ZZ=   157.1024
   Eigenvalues:   150.8729   156.9296   183.6255
     43  H    Isotropic =    29.1614   Anisotropy =     7.4268
   XX=    29.4945   YX=     1.0221   ZX=     1.8721
   XY=     2.2159   YY=    28.7739   ZY=     4.6949
   XZ=     0.5090   YZ=     3.8297   ZZ=    29.2157
   Eigenvalues:    24.6979    28.6736    34.1125
     44  H    Isotropic =    29.2213   Anisotropy =     7.6687
   XX=    30.0556   YX=     1.8541   ZX=    -1.7630
   XY=     3.0100   YY=    28.7978   ZY=    -4.3726
   XZ=    -0.5015   YZ=    -3.6558   ZZ=    28.8106
   Eigenvalues:    24.6085    28.7217    34.3338
     45  C    Isotropic =   177.2562   Anisotropy =    28.8211
   XX=   183.9798   YX=    -7.7969   ZX=     1.7342
   XY=   -18.5488   YY=   182.2426   ZY=    -1.7833
   XZ=     1.9296   YZ=    -0.7645   ZZ=   165.5464
   Eigenvalues:   165.3660   169.9324   196.4703
     46  H    Isotropic =    30.2288   Anisotropy =    12.0555
   XX=    37.8623   YX=    -0.5970   ZX=     1.2689
   XY=    -2.8496   YY=    26.9059   ZY=    -0.5090
   XZ=     1.2860   YZ=    -0.1015   ZZ=    25.9180
   Eigenvalues:    25.7661    26.6543    38.2658
     47  H    Isotropic =    30.5965   Anisotropy =     7.1126
   XX=    29.6962   YX=    -1.0781   ZX=    -0.4176
   XY=    -1.8793   YY=    30.8793   ZY=    -4.8963
   XZ=    -0.6012   YZ=    -3.5203   ZZ=    31.2141
   Eigenvalues:    26.2436    30.2078    35.3382
     48  H    Isotropic =    30.5757   Anisotropy =     7.3378
   XX=    29.5341   YX=    -1.8274   ZX=    -0.0786
   XY=    -3.1342   YY=    30.7510   ZY=     4.5637
   XZ=     0.1046   YZ=     3.1442   ZZ=    31.4419
   Eigenvalues:    26.1315    30.1280    35.4675
 End of Minotr Frequency-dependent properties file   721 does not exist.
 End of Minotr Frequency-dependent properties file   722 does not exist.

 **********************************************************************

            Population analysis using the SCF density.

 **********************************************************************

 Orbital symmetries:
       Occupied  (A) (A) (A) (A) (A) (A) (A) (A) (A) (A) (A) (A)
                 (A) (A) (A) (A) (A) (A) (A) (A) (A) (A) (A) (A)
                 (A) (A) (A) (A) (A) (A) (A) (A) (A) (A) (A) (A)
                 (A) (A) (A) (A) (A) (A) (A) (A) (A) (A) (A) (A)
                 (A) (A) (A) (A) (A) (A) (A) (A) (A) (A) (A) (A)
                 (A) (A) (A) (A) (A) (A) (A) (A) (A) (A) (A) (A)
                 (A) (A) (A) (A) (A) (A) (A) (A) (A) (A) (A)
       Virtual   (A) (A) (A) (A) (A) (A) (A) (A) (A) (A) (A) (A)
                 (A) (A) (A) (A) (A) (A) (A) (A) (A) (A) (A) (A)
                 (A) (A) (A) (A) (A) (A) (A) (A) (A) (A) (A) (A)
                 (A) (A) (A) (A) (A) (A) (A) (A) (A) (A) (A) (A)
                 (A) (A) (A) (A) (A) (A) (A) (A) (A) (A) (A) (A)
                 (A) (A) (A) (A) (A) (A) (A) (A) (A) (A) (A) (A)
                 (A) (A) (A) (A) (A) (A) (A) (A) (A) (A) (A) (A)
                 (A) (A) (A) (A) (A) (A) (A) (A) (A) (A) (A) (A)
                 (A) (A) (A) (A) (A) (A) (A) (A) (A) (A) (A) (A)
                 (A) (A) (A) (A) (A) (A) (A) (A) (A) (A) (A) (A)
                 (A) (A) (A) (A) (A) (A) (A) (A) (A) (A) (A) (A)
                 (A) (A) (A) (A) (A) (A) (A) (A) (A) (A) (A) (A)
                 (A) (A) (A) (A) (A) (A) (A) (A) (A) (A) (A) (A)
                 (A) (A) (A) (A) (A) (A) (A) (A) (A) (A) (A) (A)
                 (A) (A) (A) (A) (A) (A) (A) (A) (A) (A) (A) (A)
                 (A) (A) (A) (A) (A) (A) (A) (A) (A) (A) (A) (A)
                 (A) (A) (A) (A) (A) (A) (A) (A) (A) (A) (A) (A)
                 (A) (A) (A) (A) (A) (A) (A) (A) (A) (A) (A) (A)
                 (A) (A) (A) (A) (A) (A) (A) (A) (A) (A) (A) (A)
                 (A) (A) (A) (A) (A) (A) (A) (A) (A) (A) (A) (A)
                 (A) (A) (A) (A) (A) (A) (A) (A) (A) (A) (A) (A)
                 (A) (A) (A) (A) (A) (A) (A) (A) (A) (A) (A) (A)
                 (A) (A) (A) (A) (A) (A) (A) (A) (A) (A) (A) (A)
                 (A) (A) (A) (A) (A) (A) (A) (A) (A) (A) (A) (A)
                 (A) (A) (A) (A) (A) (A) (A) (A) (A) (A) (A) (A)
                 (A) (A) (A) (A) (A) (A) (A) (A) (A) (A) (A) (A)
                 (A) (A) (A) (A) (A) (A) (A) (A) (A) (A) (A) (A)
                 (A) (A) (A) (A) (A) (A) (A) (A) (A) (A) (A) (A)
                 (A) (A) (A) (A) (A) (A) (A) (A) (A) (A) (A) (A)
                 (A) (A) (A) (A) (A) (A) (A) (A) (A) (A) (A) (A)
                 (A) (A) (A) (A) (A) (A) (A) (A) (A) (A) (A) (A)
                 (A) (A) (A) (A) (A) (A) (A) (A) (A) (A) (A) (A)
                 (A) (A) (A) (A) (A) (A) (A) (A) (A) (A) (A) (A)
                 (A) (A) (A) (A) (A) (A) (A) (A) (A) (A) (A) (A)
                 (A) (A) (A) (A) (A) (A) (A) (A) (A) (A) (A) (A)
                 (A) (A) (A) (A) (A) (A) (A) (A) (A) (A) (A) (A)
                 (A) (A) (A) (A) (A) (A) (A) (A) (A) (A) (A) (A)
                 (A) (A) (A) (A) (A) (A) (A) (A) (A) (A) (A) (A)
                 (A) (A) (A) (A) (A) (A)
 The electronic state is 1-A.
 Alpha  occ. eigenvalues --  -19.28633 -19.27785 -19.25843 -19.24845 -10.32575
 Alpha  occ. eigenvalues --  -10.31888 -10.31328 -10.30623 -10.27461 -10.27230
 Alpha  occ. eigenvalues --  -10.26932 -10.26858 -10.26661 -10.25311 -10.25072
 Alpha  occ. eigenvalues --  -10.25045 -10.24738 -10.24614 -10.24406 -10.24223
 Alpha  occ. eigenvalues --  -10.23788 -10.23539  -1.10231  -1.09969  -1.07012
 Alpha  occ. eigenvalues --   -1.04519  -0.89184  -0.87269  -0.82502  -0.82271
 Alpha  occ. eigenvalues --   -0.78494  -0.76607  -0.76408  -0.74203  -0.71394
 Alpha  occ. eigenvalues --   -0.70749  -0.67295  -0.65138  -0.63903  -0.63246
 Alpha  occ. eigenvalues --   -0.61534  -0.57541  -0.56614  -0.54643  -0.53751
 Alpha  occ. eigenvalues --   -0.52686  -0.52056  -0.51381  -0.49884  -0.48849
 Alpha  occ. eigenvalues --   -0.47375  -0.46759  -0.46497  -0.45475  -0.45218
 Alpha  occ. eigenvalues --   -0.44444  -0.43959  -0.43455  -0.42936  -0.42531
 Alpha  occ. eigenvalues --   -0.41648  -0.40760  -0.40469  -0.39834  -0.39689
 Alpha  occ. eigenvalues --   -0.39200  -0.38445  -0.37771  -0.37642  -0.36704
 Alpha  occ. eigenvalues --   -0.36197  -0.35912  -0.35110  -0.34991  -0.34134
 Alpha  occ. eigenvalues --   -0.32963  -0.32341  -0.31767  -0.29590  -0.28935
 Alpha  occ. eigenvalues --   -0.27224  -0.25114  -0.23997
 Alpha virt. eigenvalues --   -0.01238  -0.00676  -0.00055   0.00346   0.01215
 Alpha virt. eigenvalues --    0.01451   0.01642   0.02614   0.02965   0.03162
 Alpha virt. eigenvalues --    0.04068   0.04434   0.04636   0.04898   0.05225
 Alpha virt. eigenvalues --    0.06072   0.06106   0.06743   0.07119   0.07340
 Alpha virt. eigenvalues --    0.07650   0.08124   0.08583   0.08683   0.09275
 Alpha virt. eigenvalues --    0.09780   0.10092   0.10322   0.10533   0.10696
 Alpha virt. eigenvalues --    0.11262   0.11639   0.12094   0.12502   0.12808
 Alpha virt. eigenvalues --    0.13143   0.13416   0.13669   0.14217   0.14452
 Alpha virt. eigenvalues --    0.14804   0.14908   0.15281   0.15646   0.16056
 Alpha virt. eigenvalues --    0.16621   0.16762   0.16848   0.17315   0.17716
 Alpha virt. eigenvalues --    0.17964   0.18305   0.18517   0.18640   0.18769
 Alpha virt. eigenvalues --    0.19336   0.19913   0.20356   0.20698   0.20769
 Alpha virt. eigenvalues --    0.20969   0.21423   0.21549   0.21741   0.21904
 Alpha virt. eigenvalues --    0.22169   0.22605   0.22929   0.23259   0.23362
 Alpha virt. eigenvalues --    0.23669   0.24192   0.24342   0.24705   0.25126
 Alpha virt. eigenvalues --    0.25504   0.25596   0.25896   0.26096   0.26256
 Alpha virt. eigenvalues --    0.26639   0.26861   0.27283   0.27872   0.28233
 Alpha virt. eigenvalues --    0.28582   0.28895   0.29141   0.29256   0.29929
 Alpha virt. eigenvalues --    0.30367   0.30699   0.31171   0.31703   0.31753
 Alpha virt. eigenvalues --    0.32093   0.32197   0.32696   0.33049   0.33244
 Alpha virt. eigenvalues --    0.33684   0.34103   0.34661   0.35183   0.35407
 Alpha virt. eigenvalues --    0.35605   0.35818   0.36761   0.36896   0.37143
 Alpha virt. eigenvalues --    0.37441   0.38577   0.38956   0.39533   0.39738
 Alpha virt. eigenvalues --    0.40985   0.41353   0.41739   0.42073   0.42690
 Alpha virt. eigenvalues --    0.43066   0.43665   0.43990   0.44387   0.44977
 Alpha virt. eigenvalues --    0.45959   0.46545   0.46976   0.48034   0.48499
 Alpha virt. eigenvalues --    0.48712   0.49258   0.49731   0.51706   0.52180
 Alpha virt. eigenvalues --    0.53919   0.59657   0.63538   0.65312   0.68190
 Alpha virt. eigenvalues --    0.68424   0.68897   0.69583   0.71000   0.71383
 Alpha virt. eigenvalues --    0.72149   0.72687   0.72915   0.73369   0.74318
 Alpha virt. eigenvalues --    0.74703   0.74865   0.75480   0.76536   0.77015
 Alpha virt. eigenvalues --    0.77560   0.77805   0.78561   0.78991   0.80434
 Alpha virt. eigenvalues --    0.80562   0.81684   0.82662   0.82962   0.84679
 Alpha virt. eigenvalues --    0.85104   0.85913   0.86671   0.87594   0.87972
 Alpha virt. eigenvalues --    0.89103   0.89476   0.90023   0.90991   0.91475
 Alpha virt. eigenvalues --    0.92374   0.93336   0.93762   0.94146   0.95047
 Alpha virt. eigenvalues --    0.96009   0.96074   0.97373   0.99114   0.99425
 Alpha virt. eigenvalues --    1.00217   1.01485   1.02457   1.03291   1.04594
 Alpha virt. eigenvalues --    1.05379   1.05698   1.05855   1.07358   1.08409
 Alpha virt. eigenvalues --    1.09375   1.10350   1.10928   1.12432   1.12703
 Alpha virt. eigenvalues --    1.13021   1.13096   1.14212   1.14907   1.16081
 Alpha virt. eigenvalues --    1.16559   1.16638   1.17198   1.17719   1.18287
 Alpha virt. eigenvalues --    1.18963   1.19108   1.21076   1.21657   1.22769
 Alpha virt. eigenvalues --    1.23023   1.23896   1.25379   1.26994   1.27487
 Alpha virt. eigenvalues --    1.28128   1.28661   1.30140   1.30715   1.31170
 Alpha virt. eigenvalues --    1.31925   1.32543   1.32877   1.33650   1.35331
 Alpha virt. eigenvalues --    1.36197   1.36416   1.38136   1.39242   1.39713
 Alpha virt. eigenvalues --    1.40460   1.40840   1.42249   1.43241   1.43347
 Alpha virt. eigenvalues --    1.44263   1.45405   1.46498   1.47820   1.49214
 Alpha virt. eigenvalues --    1.50643   1.51834   1.53243   1.54302   1.54735
 Alpha virt. eigenvalues --    1.55639   1.56890   1.58688   1.59606   1.60534
 Alpha virt. eigenvalues --    1.61863   1.62440   1.63028   1.63802   1.66838
 Alpha virt. eigenvalues --    1.68768   1.68905   1.70693   1.72753   1.73637
 Alpha virt. eigenvalues --    1.74738   1.77102   1.77555   1.78634   1.79581
 Alpha virt. eigenvalues --    1.80091   1.81349   1.82429   1.83030   1.85072
 Alpha virt. eigenvalues --    1.85788   1.86165   1.86845   1.87842   1.88833
 Alpha virt. eigenvalues --    1.89315   1.90354   1.90584   1.91184   1.91661
 Alpha virt. eigenvalues --    1.92727   1.94046   1.94305   1.95481   1.96260
 Alpha virt. eigenvalues --    1.97135   1.97341   1.97970   1.99775   2.00681
 Alpha virt. eigenvalues --    2.03496   2.03943   2.04653   2.05326   2.05694
 Alpha virt. eigenvalues --    2.06528   2.06686   2.06787   2.08578   2.09099
 Alpha virt. eigenvalues --    2.09894   2.11772   2.12526   2.13325   2.13506
 Alpha virt. eigenvalues --    2.14903   2.15278   2.16316   2.16620   2.17510
 Alpha virt. eigenvalues --    2.18082   2.18620   2.19446   2.19982   2.20063
 Alpha virt. eigenvalues --    2.21681   2.23437   2.23757   2.25388   2.25788
 Alpha virt. eigenvalues --    2.27234   2.28278   2.29071   2.30145   2.30861
 Alpha virt. eigenvalues --    2.31470   2.32341   2.33904   2.35175   2.35888
 Alpha virt. eigenvalues --    2.36025   2.37191   2.38650   2.39788   2.41104
 Alpha virt. eigenvalues --    2.41685   2.43915   2.44466   2.45454   2.46566
 Alpha virt. eigenvalues --    2.49053   2.49375   2.50349   2.50866   2.52132
 Alpha virt. eigenvalues --    2.53224   2.53352   2.54505   2.55780   2.56275
 Alpha virt. eigenvalues --    2.57500   2.58389   2.58741   2.59640   2.60014
 Alpha virt. eigenvalues --    2.60414   2.61598   2.62126   2.62897   2.63652
 Alpha virt. eigenvalues --    2.66098   2.66808   2.67975   2.69047   2.70045
 Alpha virt. eigenvalues --    2.70976   2.71245   2.71878   2.72239   2.73653
 Alpha virt. eigenvalues --    2.74625   2.75952   2.76533   2.77246   2.78360
 Alpha virt. eigenvalues --    2.79178   2.79580   2.81462   2.82236   2.83449
 Alpha virt. eigenvalues --    2.84111   2.84683   2.85983   2.86497   2.87914
 Alpha virt. eigenvalues --    2.88875   2.89452   2.90074   2.91312   2.91853
 Alpha virt. eigenvalues --    2.92375   2.93625   2.93998   2.95986   2.96260
 Alpha virt. eigenvalues --    3.01379   3.02616   3.03666   3.04815   3.07592
 Alpha virt. eigenvalues --    3.09196   3.10308   3.10925   3.15704   3.17697
 Alpha virt. eigenvalues --    3.19644   3.27300   3.29181   3.29761   3.30711
 Alpha virt. eigenvalues --    3.32568   3.35749   3.36862   3.39133   3.41467
 Alpha virt. eigenvalues --    3.41653   3.45217   3.46994   3.47531   3.49971
 Alpha virt. eigenvalues --    3.51568   3.51652   3.52259   3.52498   3.53741
 Alpha virt. eigenvalues --    3.56100   3.57926   3.59481   3.59702   3.60672
 Alpha virt. eigenvalues --    3.60923   3.64067   3.65769   3.66906   3.75624
 Alpha virt. eigenvalues --    4.35656   4.37780   4.41569   4.47129   4.48167
 Alpha virt. eigenvalues --    4.48989   4.52460   4.54724   4.55774   4.57446
 Alpha virt. eigenvalues --    4.61444   4.63815   4.68011   4.71527   4.73923
 Alpha virt. eigenvalues --    4.76400   4.78193   4.82198   4.87070   4.93014
 Alpha virt. eigenvalues --    4.99309   5.04752
          Condensed to atoms (all electrons):
              1          2          3          4          5          6
     1  C   13.488101  -2.095476  -0.137688   0.082556  -0.124768   0.051068
     2  C   -2.095476   8.769056   0.436309   0.302080   0.083679  -0.090177
     3  H   -0.137688   0.436309   0.531653  -0.029688  -0.059526  -0.005908
     4  H    0.082556   0.302080  -0.029688   0.534865  -0.059157   0.004689
     5  C   -0.124768   0.083679  -0.059526  -0.059157   6.923201   0.386661
     6  H    0.051068  -0.090177  -0.005908   0.004689   0.386661   0.533791
     7  C    0.825893  -0.959531   0.037603   0.083661  -1.024515   0.041273
     8  H   -0.014691   0.037310  -0.000146  -0.000118  -0.003928  -0.008523
     9  C   -0.084620   0.977290  -0.015580   0.012362   0.381766  -0.024478
    10  H    0.050534  -0.030365  -0.000066   0.000093  -0.043012   0.001979
    11  C   -3.336762  -1.431042   0.045942  -0.088399   0.111333  -0.038298
    12  H    0.066369  -0.039983  -0.000070   0.001959  -0.013742   0.000016
    13  C    0.151458   0.005070  -0.001390  -0.000785   0.315411  -0.012854
    14  C   -0.107087  -0.006411  -0.000015  -0.000022  -0.019464   0.000108
    15  C   -0.089514   0.090504  -0.001457   0.004737  -0.173769   0.022605
    16  C   -1.243412  -0.184719   0.000703   0.006183  -0.270185   0.001188
    17  C   -0.368412  -0.010195   0.000073   0.000221  -0.080543  -0.000127
    18  C    0.070516  -0.008326  -0.000100   0.000405  -0.043558   0.004574
    19  H    0.000139  -0.000041   0.000000   0.000000   0.000078   0.000000
    20  H   -0.000101   0.000010   0.000000   0.000000  -0.000090   0.000000
    21  O    0.089145   0.001185  -0.000009  -0.000098   0.000642  -0.000004
    22  H   -0.006007   0.002795   0.000000  -0.000008   0.010631  -0.000002
    23  O   -0.012962   0.014009  -0.000002  -0.000017  -0.006438  -0.000563
    24  H    0.001931  -0.000278   0.000000   0.000000   0.001031  -0.000001
    25  O   -0.282695   0.038170  -0.000361   0.000115   0.018618  -0.000060
    26  H    0.066457  -0.007997   0.000004  -0.000003  -0.005454   0.000000
    27  C   -0.808830  -0.129110   0.018434   0.008555  -0.030716  -0.007728
    28  H   -0.142619  -0.007724   0.003131   0.000096   0.018322   0.000101
    29  H   -0.061455   0.032157   0.000147  -0.000142  -0.004255  -0.000042
    30  H   -0.137531   0.047837   0.000305  -0.000070  -0.017778  -0.000297
    31  O    0.412465  -0.184974   0.004655  -0.006726   0.033990  -0.000753
    32  H    0.063511   0.072175  -0.000156   0.000023  -0.007406   0.000004
    33  H    0.014872  -0.006914  -0.001068  -0.005567   0.432050  -0.026973
    34  C   -0.162154   0.429048  -0.004466   0.027810  -0.223475  -0.009431
    35  C   -0.290659   0.231106   0.004792  -0.065319   0.093678  -0.010597
    36  H   -0.002047  -0.000590  -0.000002   0.000105  -0.000478   0.000004
    37  H   -0.019501  -0.008413   0.000119   0.002761  -0.011539  -0.000027
    38  C    0.166656  -0.147341  -0.001387   0.012665  -0.129410   0.010429
    39  H    0.000847  -0.002327   0.000000   0.000001   0.003590   0.000012
    40  H    0.001304  -0.000690   0.000000   0.000000  -0.003695   0.000002
    41  H   -0.001371   0.002708   0.000000  -0.000001   0.004932  -0.000042
    42  C   -0.012752   0.000400   0.000000  -0.000002   0.001377  -0.000005
    43  H    0.000004   0.000000   0.000000   0.000000   0.000002   0.000000
    44  H   -0.000004   0.000000   0.000000   0.000000  -0.000008   0.000000
    45  C   -0.000246  -0.000071   0.000000   0.000000   0.000105   0.000000
    46  H    0.000000   0.000000   0.000000   0.000000  -0.000001   0.000000
    47  H   -0.000002   0.000000   0.000000   0.000000  -0.000008   0.000000
    48  H    0.000002   0.000000   0.000000   0.000000   0.000002   0.000000
              7          8          9         10         11         12
     1  C    0.825893  -0.014691  -0.084620   0.050534  -3.336762   0.066369
     2  C   -0.959531   0.037310   0.977290  -0.030365  -1.431042  -0.039983
     3  H    0.037603  -0.000146  -0.015580  -0.000066   0.045942  -0.000070
     4  H    0.083661  -0.000118   0.012362   0.000093  -0.088399   0.001959
     5  C   -1.024515  -0.003928   0.381766  -0.043012   0.111333  -0.013742
     6  H    0.041273  -0.008523  -0.024478   0.001979  -0.038298   0.000016
     7  C   14.510551   0.103840  -2.457088   0.119466   0.030766   0.096915
     8  H    0.103840   0.560735   0.070302  -0.007637  -0.011979  -0.000229
     9  C   -2.457088   0.070302  17.583211   0.308972  -7.901440   0.191948
    10  H    0.119466  -0.007637   0.308972   0.546358  -0.283572   0.004557
    11  C    0.030766  -0.011979  -7.901440  -0.283572  24.630388  -0.066096
    12  H    0.096915  -0.000229   0.191948   0.004557  -0.066096   0.578844
    13  C   -1.826255   0.044813   5.373461  -0.176527  -1.722096   0.135865
    14  C   -0.169878  -0.001376  -0.747451   0.004985  -0.061829  -0.002232
    15  C   -0.207222   0.045708  -0.542133   0.206832  -3.347190   0.079348
    16  C    0.945526  -0.071665  -4.640742  -0.015371   3.480855  -0.124111
    17  C    0.091472  -0.012060  -2.262954  -0.006110   0.557822  -0.031820
    18  C    0.415642   0.013827  -1.528028   0.089380  -0.981481   0.016948
    19  H    0.000682   0.000000   0.007953   0.000002   0.001411   0.000002
    20  H   -0.002787   0.000005  -0.008134  -0.000003  -0.000424   0.000000
    21  O   -0.064407   0.000138   0.213310  -0.001339   0.017865  -0.013411
    22  H   -0.023957   0.000025  -0.001985  -0.000010  -0.076287   0.000727
    23  O   -0.124481   0.003590  -0.008845   0.005005  -0.054407  -0.000039
    24  H   -0.002597   0.000028   0.048747   0.000050   0.001325   0.000000
    25  O    0.075757  -0.000599  -0.335562  -0.003907   0.587344  -0.061025
    26  H    0.001706   0.000001  -0.143361  -0.000425   0.107452  -0.006543
    27  C   -0.330373   0.003267   1.035648   0.004301  -1.453623   0.029312
    28  H   -0.011287   0.000001  -0.005954  -0.000043   0.068879  -0.000082
    29  H   -0.004441   0.000001   0.001909  -0.000152  -0.035461   0.000027
    30  H    0.034499  -0.000063  -0.036413  -0.000863   0.086424  -0.000173
    31  O    0.000195   0.000163   0.105408  -0.000669  -0.241680   0.003963
    32  H   -0.001240   0.000000   0.043765  -0.000013  -0.124193  -0.001417
    33  H   -0.183944  -0.001314   0.027315  -0.000059   0.020596  -0.000010
    34  C   -3.589022   0.056851   0.196046   0.034117  -1.376472  -0.040267
    35  C   -1.536351   0.000687   0.168113   0.011446  -1.313289   0.020537
    36  H    0.030777  -0.000133  -0.023335   0.000004   0.008976   0.000140
    37  H    0.009865  -0.000080  -0.003152  -0.000030   0.003546   0.000069
    38  C    1.119196   0.019272   0.122231   0.000586   0.221571   0.006235
    39  H    0.154524  -0.001550   0.071151  -0.000052   0.019660  -0.000003
    40  H    0.031371   0.000435  -0.007036   0.000003  -0.002595   0.000002
    41  H   -0.117180   0.002231  -0.022263   0.000005  -0.010728  -0.000001
    42  C   -0.072655  -0.000475  -0.073677  -0.000904  -0.030943   0.000096
    43  H   -0.000100   0.000000   0.000259   0.000000   0.000096   0.000000
    44  H   -0.000159   0.000000   0.000705   0.000000  -0.000185   0.000000
    45  C   -0.000167  -0.000011   0.000300   0.000006  -0.001001  -0.000004
    46  H   -0.000035   0.000000   0.000077   0.000000   0.000011   0.000000
    47  H   -0.000208   0.000000  -0.000006   0.000000  -0.000140   0.000000
    48  H    0.000006   0.000000  -0.000050   0.000000   0.000038   0.000000
             13         14         15         16         17         18
     1  C    0.151458  -0.107087  -0.089514  -1.243412  -0.368412   0.070516
     2  C    0.005070  -0.006411   0.090504  -0.184719  -0.010195  -0.008326
     3  H   -0.001390  -0.000015  -0.001457   0.000703   0.000073  -0.000100
     4  H   -0.000785  -0.000022   0.004737   0.006183   0.000221   0.000405
     5  C    0.315411  -0.019464  -0.173769  -0.270185  -0.080543  -0.043558
     6  H   -0.012854   0.000108   0.022605   0.001188  -0.000127   0.004574
     7  C   -1.826255  -0.169878  -0.207222   0.945526   0.091472   0.415642
     8  H    0.044813  -0.001376   0.045708  -0.071665  -0.012060   0.013827
     9  C    5.373461  -0.747451  -0.542133  -4.640742  -2.262954  -1.528028
    10  H   -0.176527   0.004985   0.206832  -0.015371  -0.006110   0.089380
    11  C   -1.722096  -0.061829  -3.347190   3.480855   0.557822  -0.981481
    12  H    0.135865  -0.002232   0.079348  -0.124111  -0.031820   0.016948
    13  C   18.272422  -1.971094  -0.214423  -2.699864  -6.658033  -2.950740
    14  C   -1.971094  10.487391  -1.380794  -1.328964   2.335125   0.315061
    15  C   -0.214423  -1.380794  11.641467  -2.173861  -0.862394   1.165959
    16  C   -2.699864  -1.328964  -2.173861  14.925306   2.421262  -1.705021
    17  C   -6.658033   2.335125  -0.862394   2.421262  12.622442  -2.129575
    18  C   -2.950740   0.315061   1.165959  -1.705021  -2.129575  13.867969
    19  H    0.126958   0.002330  -0.010624   0.005503   0.180848   0.036308
    20  H    0.065846   0.060386  -0.050997  -0.006726   0.002509   0.275688
    21  O   -0.422003   0.106792  -0.091985  -0.050023   0.366435  -0.112339
    22  H   -0.056809   0.018179   0.019826   0.041747   0.058162   0.004598
    23  O   -0.190902   0.037514   0.273367   0.003512   0.000116   0.049099
    24  H    0.134996   0.004160   0.040734  -0.008563  -0.007647  -0.208751
    25  O   -0.247549   0.026985  -0.142607   0.324165   0.136696  -0.032777
    26  H   -0.065595   0.000498  -0.007571   0.055799   0.039166   0.002720
    27  C    0.252964   0.003779   0.386508  -0.181574  -0.032359   0.089589
    28  H    0.000251  -0.000032  -0.000816  -0.000206  -0.000013  -0.000054
    29  H    0.001018   0.000038  -0.005238   0.000173   0.000133  -0.000815
    30  H   -0.008594   0.000252   0.001659   0.005873   0.000445   0.000188
    31  O    0.053497  -0.001632   0.027024  -0.061693  -0.009063   0.003674
    32  H    0.001794   0.000006  -0.000729  -0.003312  -0.000066  -0.000134
    33  H    0.011830   0.000294  -0.010062   0.005059   0.000501  -0.001406
    34  C    0.822727  -0.010604   0.757398  -0.830381  -0.095819  -0.147788
    35  C    0.531428  -0.046623   0.362815  -0.615509  -0.187010   0.136295
    36  H   -0.012522   0.000925  -0.001383   0.016592   0.004977   0.000024
    37  H   -0.003453  -0.000173   0.000831   0.008417   0.001920   0.000074
    38  C   -0.290230   0.048897  -0.156663   0.253003   0.041858   0.033818
    39  H   -0.039247   0.006696  -0.046905   0.037236   0.008329  -0.017671
    40  H   -0.002458  -0.000428   0.005061   0.007339  -0.002062   0.003725
    41  H    0.009278   0.000918   0.022656  -0.005459   0.000315   0.003794
    42  C   -0.898931  -1.533819   0.289529  -0.289268   0.601555  -0.399204
    43  H    0.008222  -0.213819  -0.026082   0.063522   0.144768  -0.096750
    44  H   -0.005068  -0.227925   0.053087  -0.034596  -0.087699   0.137510
    45  C   -0.023662  -0.046522   0.028611  -0.038784   0.059589   0.013297
    46  H    0.002943   0.029459   0.000895   0.005232   0.008151   0.004771
    47  H   -0.005741  -0.037023   0.003427  -0.017335  -0.007489   0.017569
    48  H    0.000670  -0.034290  -0.005803   0.004497   0.017212  -0.018406
             19         20         21         22         23         24
     1  C    0.000139  -0.000101   0.089145  -0.006007  -0.012962   0.001931
     2  C   -0.000041   0.000010   0.001185   0.002795   0.014009  -0.000278
     3  H    0.000000   0.000000  -0.000009   0.000000  -0.000002   0.000000
     4  H    0.000000   0.000000  -0.000098  -0.000008  -0.000017   0.000000
     5  C    0.000078  -0.000090   0.000642   0.010631  -0.006438   0.001031
     6  H    0.000000   0.000000  -0.000004  -0.000002  -0.000563  -0.000001
     7  C    0.000682  -0.002787  -0.064407  -0.023957  -0.124481  -0.002597
     8  H    0.000000   0.000005   0.000138   0.000025   0.003590   0.000028
     9  C    0.007953  -0.008134   0.213310  -0.001985  -0.008845   0.048747
    10  H    0.000002  -0.000003  -0.001339  -0.000010   0.005005   0.000050
    11  C    0.001411  -0.000424   0.017865  -0.076287  -0.054407   0.001325
    12  H    0.000002   0.000000  -0.013411   0.000727  -0.000039   0.000000
    13  C    0.126958   0.065846  -0.422003  -0.056809  -0.190902   0.134996
    14  C    0.002330   0.060386   0.106792   0.018179   0.037514   0.004160
    15  C   -0.010624  -0.050997  -0.091985   0.019826   0.273367   0.040734
    16  C    0.005503  -0.006726  -0.050023   0.041747   0.003512  -0.008563
    17  C    0.180848   0.002509   0.366435   0.058162   0.000116  -0.007647
    18  C    0.036308   0.275688  -0.112339   0.004598   0.049099  -0.208751
    19  H    0.507946  -0.000134  -0.005493   0.000084   0.000137   0.000000
    20  H   -0.000134   0.515299   0.000119   0.000000  -0.018087   0.007888
    21  O   -0.005493   0.000119   8.317899   0.204265  -0.001584   0.000035
    22  H    0.000084   0.000000   0.204265   0.345215  -0.000011   0.000000
    23  O    0.000137  -0.018087  -0.001584  -0.000011   8.281616   0.205789
    24  H    0.000000   0.007888   0.000035   0.000000   0.205789   0.360007
    25  O   -0.000110   0.000002  -0.014801  -0.001620  -0.001734  -0.000059
    26  H    0.000000   0.000000   0.003827  -0.000178   0.000083   0.000000
    27  C    0.000015   0.000042  -0.006533   0.002102   0.005220  -0.000307
    28  H    0.000000   0.000000  -0.000003   0.000000   0.000014   0.000000
    29  H    0.000000   0.000000   0.000017   0.000000   0.000002   0.000000
    30  H    0.000000   0.000000  -0.000004   0.000000  -0.000143   0.000001
    31  O    0.000000   0.000000   0.000789   0.000209   0.000259   0.000000
    32  H    0.000000   0.000000   0.000086   0.000001   0.000008   0.000000
    33  H    0.000000   0.000000  -0.000001   0.000000  -0.000012   0.000000
    34  C   -0.001866   0.001457   0.018972  -0.020896   0.065690   0.002869
    35  C   -0.000012   0.000024  -0.124132   0.089640   0.016346   0.000499
    36  H    0.000000   0.000000  -0.000160  -0.000253  -0.000006   0.000000
    37  H    0.000000   0.000000  -0.000494  -0.000602   0.000016   0.000000
    38  C    0.001168  -0.000460   0.031556  -0.012708  -0.010796  -0.000439
    39  H   -0.000002  -0.000008   0.002362  -0.000468  -0.001250  -0.000025
    40  H    0.000000   0.000000  -0.000505   0.000066  -0.000034   0.000000
    41  H    0.000000   0.000000  -0.000234   0.000026   0.000148   0.000003
    42  C   -0.033463  -0.020157   0.005324   0.004504  -0.004040   0.000614
    43  H    0.001730   0.000081   0.000025   0.000000   0.000038   0.000000
    44  H    0.000078   0.002196   0.000042   0.000000  -0.000023   0.000003
    45  C    0.004198   0.007229   0.000581   0.000112  -0.000003   0.000012
    46  H   -0.000027  -0.000028   0.000000   0.000000  -0.000001   0.000000
    47  H    0.000142   0.000012   0.000006   0.000000   0.000001   0.000000
    48  H    0.000008   0.000194   0.000005   0.000000   0.000023   0.000001
             25         26         27         28         29         30
     1  C   -0.282695   0.066457  -0.808830  -0.142619  -0.061455  -0.137531
     2  C    0.038170  -0.007997  -0.129110  -0.007724   0.032157   0.047837
     3  H   -0.000361   0.000004   0.018434   0.003131   0.000147   0.000305
     4  H    0.000115  -0.000003   0.008555   0.000096  -0.000142  -0.000070
     5  C    0.018618  -0.005454  -0.030716   0.018322  -0.004255  -0.017778
     6  H   -0.000060   0.000000  -0.007728   0.000101  -0.000042  -0.000297
     7  C    0.075757   0.001706  -0.330373  -0.011287  -0.004441   0.034499
     8  H   -0.000599   0.000001   0.003267   0.000001   0.000001  -0.000063
     9  C   -0.335562  -0.143361   1.035648  -0.005954   0.001909  -0.036413
    10  H   -0.003907  -0.000425   0.004301  -0.000043  -0.000152  -0.000863
    11  C    0.587344   0.107452  -1.453623   0.068879  -0.035461   0.086424
[...]
    16  C    0.286014   0.077510  -0.009448  -0.000400   0.000884   0.006293
    17  C    0.114529   0.048195   0.008248  -0.000020   0.000087   0.000475
    18  C   -0.032276  -0.000136   0.055645   0.000091  -0.001334  -0.000635
    19  H   -0.000121   0.000006   0.000027   0.000000   0.000000   0.000000
    20  H   -0.000006   0.000000   0.000022   0.000000   0.000000   0.000000
    21  O   -0.014295   0.001700  -0.009143  -0.000005   0.000031  -0.000014
    22  H   -0.000765  -0.000061   0.001810   0.000000   0.000000   0.000000
    23  O   -0.001411   0.000019   0.004724   0.000003   0.000007   0.000206
    24  H   -0.000045   0.000000  -0.000250   0.000000   0.000000   0.000001
    25  O    8.468428   0.213368  -0.056545  -0.000677   0.003975  -0.003848
    26  H    0.213368   0.344500  -0.001283   0.000001  -0.000067  -0.000024
    27  C   -0.056545  -0.001283   6.167086   0.450797   0.438235   0.383816
    28  H   -0.000677   0.000001   0.450797   0.534620  -0.028956  -0.027180
    29  H    0.003975  -0.000067   0.438235  -0.028956   0.538969  -0.026600
    30  H   -0.003848  -0.000024   0.383816  -0.027180  -0.026600   0.532479
    31  O   -0.022226   0.000496  -0.077963  -0.001836  -0.005624   0.006959
    32  H    0.017938  -0.000782  -0.046110  -0.000263   0.002775   0.000057
    33  H    0.000029   0.000000  -0.004167  -0.000018   0.000002   0.000016
    34  C   -0.040035  -0.004582   0.126910   0.000882   0.000706   0.003234
    35  C   -0.021233  -0.000291   0.036025   0.000783  -0.000110  -0.000115
    36  H    0.000010   0.000000  -0.000113   0.000000   0.000000   0.000000
    37  H   -0.000063   0.000001  -0.001545   0.000000   0.000000  -0.000001
    38  C    0.005619   0.000586  -0.017524  -0.000026  -0.000112  -0.000512
    39  H    0.000082   0.000000  -0.000546   0.000000   0.000000   0.000000
    40  H   -0.000003   0.000000   0.000020   0.000000   0.000000   0.000000
    41  H   -0.000003   0.000000   0.000577   0.000000   0.000000   0.000000
    42  C    0.000000  -0.001359   0.001671   0.000000   0.000000  -0.000005
    43  H    0.000000   0.000000   0.000001   0.000000   0.000000   0.000000
    44  H    0.000000   0.000000   0.000000   0.000000   0.000000   0.000000
    45  C    0.000092   0.000007   0.000014   0.000000   0.000000   0.000000
    46  H    0.000000   0.000000   0.000000   0.000000   0.000000   0.000000
    47  H    0.000000   0.000000   0.000000   0.000000   0.000000   0.000000
    48  H    0.000000   0.000000   0.000000   0.000000   0.000000   0.000000
             31         32         33         34         35         36
     1  C    0.349309   0.061594   0.012775  -0.089247  -0.233747   0.000124
     2  C   -0.182189   0.054094  -0.035019   0.344353   0.026521  -0.001179
     3  H    0.005256  -0.000130  -0.000689  -0.003880   0.006914  -0.000002
     4  H    0.001377   0.000013  -0.006117   0.010541  -0.044034   0.000122
     5  C    0.015766  -0.005153   0.489795  -0.213789  -0.004641   0.000275
     6  H   -0.000103   0.000003  -0.031808  -0.008869   0.008530   0.000004
     7  C    0.009972   0.001989  -0.159407  -2.802206  -1.817045  -0.007624
     8  H    0.000114   0.000000  -0.001778   0.000981  -0.014746  -0.000141
     9  C    0.060946   0.031486   0.008022  -0.564936  -0.309625  -0.017777
    10  H   -0.000507  -0.000021  -0.000035   0.042796   0.018284   0.000004
    11  C   -0.179917  -0.102824   0.042573  -1.042942  -1.493364   0.005423
    12  H    0.007011  -0.001844  -0.000005  -0.040472   0.019793   0.000139
    13  C    0.043960   0.000849   0.007938   0.200956   0.330558  -0.004762
    14  C   -0.001354   0.000023   0.000286   0.032970  -0.014704   0.000713
    15  C    0.023324  -0.001010  -0.011883   0.797933   0.554033  -0.000366
    16  C   -0.047944  -0.002679   0.003461  -0.328711  -0.501408   0.006367
    17  C   -0.006565  -0.000045   0.000325   0.184061  -0.063290   0.001994
    18  C    0.003146  -0.000139  -0.001437  -0.044712   0.233173   0.000247
    19  H    0.000000   0.000000   0.000000  -0.000311   0.000089   0.000000
    20  H    0.000000   0.000000   0.000000   0.000523   0.000030   0.000000
    21  O    0.000693   0.000117   0.000019   0.009205  -0.160923  -0.000046
    22  H    0.000106   0.000001   0.000000  -0.022865   0.097834  -0.000264
    23  O    0.000224   0.000006  -0.000032   0.039466   0.013485  -0.000004
    24  H    0.000000   0.000000   0.000000   0.001835   0.000448   0.000000
    25  O   -0.022226   0.017938   0.000029  -0.040035  -0.021233   0.000010
    26  H    0.000496  -0.000782   0.000000  -0.004582  -0.000291   0.000000
    27  C   -0.077963  -0.046110  -0.004167   0.126910   0.036025  -0.000113
    28  H   -0.001836  -0.000263  -0.000018   0.000882   0.000783   0.000000
    29  H   -0.005624   0.002775   0.000002   0.000706  -0.000110   0.000000
    30  H    0.006959   0.000057   0.000016   0.003234  -0.000115   0.000000
    31  O    8.311587   0.242708  -0.000473   0.006274   0.011715  -0.000025
    32  H    0.242708   0.350555   0.000004  -0.001337   0.002362   0.000000
    33  H   -0.000473   0.000004   0.563494  -0.012905  -0.009395  -0.000045
    34  C    0.006274  -0.001337  -0.012905  12.112438  -0.788759  -0.180067
    35  C    0.011715   0.002362  -0.009395  -0.788759  11.152842   0.593610
    36  H   -0.000025   0.000000  -0.000045  -0.180067   0.593610   0.536722
    37  H    0.000474   0.000001   0.000234  -0.161639   0.571152  -0.035419
    38  C   -0.001199  -0.000228  -0.007350  -1.543135  -1.635929  -0.050205
    39  H   -0.000005   0.000000  -0.000014  -0.318568  -0.099610   0.000250
    40  H    0.000000   0.000000  -0.000036  -0.140859  -0.018997   0.003313
    41  H    0.000002   0.000000   0.000177   0.041378   0.037260   0.000163
    42  C   -0.000046   0.000001   0.000015   0.031140   0.003293   0.000054
    43  H    0.000000   0.000000   0.000000   0.000108   0.000044   0.000000
    44  H    0.000000   0.000000   0.000000   0.000100   0.000008   0.000000
    45  C    0.000000   0.000000   0.000000   0.003354   0.001849   0.000001
    46  H    0.000000   0.000000   0.000000   0.000045   0.000012   0.000000
    47  H    0.000000   0.000000   0.000000  -0.000032   0.000031   0.000000
    48  H    0.000000   0.000000   0.000000  -0.000082  -0.000024   0.000000
             37         38         39         40         41         42
     1  C   -0.011017   0.123806   0.001606   0.001333  -0.001670  -0.016932
     2  C   -0.011154  -0.084693  -0.002252  -0.001351   0.003185   0.000909
     3  H    0.000145  -0.002384   0.000000   0.000000   0.000000   0.000000
     4  H    0.002062   0.007141   0.000001   0.000000  -0.000002  -0.000003
     5  C   -0.016830  -0.149456   0.008284  -0.008758   0.009054   0.003235
     6  H   -0.000036  -0.001408   0.000012   0.000002  -0.000051   0.000002
     7  C    0.009272   1.120136   0.145455   0.012642  -0.114777  -0.087170
     8  H   -0.000081   0.041051  -0.001452   0.000539   0.002208  -0.000272
     9  C   -0.007233   0.322727   0.073944  -0.006646  -0.025115  -0.120879
    10  H   -0.000028  -0.001646  -0.000059   0.000003   0.000005  -0.001066
    11  C   -0.015744   0.296309   0.018699  -0.004044  -0.008698  -0.042517
    12  H    0.000348   0.003165  -0.000004   0.000001  -0.000001  -0.000007
    13  C    0.000697  -0.231994  -0.017196   0.004440  -0.001302  -1.133572
    14  C   -0.000364   0.067872   0.002644   0.000158   0.002272  -1.212809
    15  C   -0.000380  -0.232087  -0.052309   0.005606   0.021981   0.283770
    16  C    0.001034   0.235020   0.022696   0.003366   0.000178  -0.510792
    17  C    0.002212  -0.003481  -0.003757  -0.001796   0.001796   0.581811
    18  C    0.000055  -0.025483  -0.016354   0.004211   0.003974  -0.266068
    19  H    0.000000   0.000799   0.000001   0.000000   0.000000  -0.037306
    20  H    0.000000  -0.000142  -0.000004   0.000000   0.000000  -0.022974
    21  O   -0.000822   0.042429   0.002686  -0.000590  -0.000206   0.002263
    22  H   -0.000378  -0.014642  -0.000501   0.000043   0.000031   0.004404
    23  O    0.000030  -0.005118  -0.000877   0.000022  -0.000156   0.000639
    24  H    0.000000  -0.000524  -0.000027   0.000000   0.000002  -0.000202
    25  O   -0.000063   0.005619   0.000082  -0.000003  -0.000003   0.000000
    26  H    0.000001   0.000586   0.000000   0.000000   0.000000  -0.001359
    27  C   -0.001545  -0.017524  -0.000546   0.000020   0.000577   0.001671
    28  H    0.000000  -0.000026   0.000000   0.000000   0.000000   0.000000
    29  H    0.000000  -0.000112   0.000000   0.000000   0.000000   0.000000
    30  H   -0.000001  -0.000512   0.000000   0.000000   0.000000  -0.000005
    31  O    0.000474  -0.001199  -0.000005   0.000000   0.000002  -0.000046
    32  H    0.000001  -0.000228   0.000000   0.000000   0.000000   0.000001
    33  H    0.000234  -0.007350  -0.000014  -0.000036   0.000177   0.000015
    34  C   -0.161639  -1.543135  -0.318568  -0.140859   0.041378   0.031140
    35  C    0.571152  -1.635929  -0.099610  -0.018997   0.037260   0.003293
    36  H   -0.035419  -0.050205   0.000250   0.003313   0.000163   0.000054
    37  H    0.538318  -0.014869  -0.000182   0.000220  -0.000196  -0.000037
    38  C   -0.014869   7.004164   0.582189   0.501181   0.378780   0.003079
    39  H   -0.000182   0.582189   0.535618  -0.027253  -0.028424  -0.000299
    40  H    0.000220   0.501181  -0.027253   0.544389  -0.026711   0.000252
    41  H   -0.000196   0.378780  -0.028424  -0.026711   0.533330   0.000171
    42  C   -0.000037   0.003079  -0.000299   0.000252   0.000171   7.471725
    43  H    0.000000  -0.000055   0.000000   0.000000   0.000000   0.474525
    44  H    0.000000   0.000006   0.000000   0.000000   0.000000   0.503596
    45  C    0.000002  -0.002632  -0.000498   0.000012   0.000015   0.238072
    46  H    0.000000  -0.000016   0.000000   0.000000   0.000000  -0.075583
    47  H    0.000000   0.000011   0.000000   0.000000   0.000000  -0.037886
    48  H    0.000000  -0.000028  -0.000002   0.000000   0.000000  -0.052964
             43         44         45         46         47         48
     1  C    0.000002  -0.000003  -0.000254   0.000000  -0.000003   0.000001
     2  C    0.000000   0.000000  -0.000035   0.000000   0.000000   0.000000
     3  H    0.000000   0.000000   0.000000   0.000000   0.000000   0.000000
     4  H    0.000000   0.000000   0.000000   0.000000   0.000000   0.000000
     5  C   -0.000001  -0.000008  -0.000061  -0.000001  -0.000007   0.000004
     6  H    0.000000   0.000000   0.000000   0.000000   0.000000   0.000000
     7  C   -0.000138  -0.000120  -0.002662  -0.000041  -0.000069  -0.000031
     8  H    0.000000   0.000000  -0.000010   0.000000   0.000000   0.000000
     9  C   -0.000057  -0.000128  -0.003811   0.000045  -0.000144  -0.000276
    10  H    0.000000   0.000000   0.000003   0.000000   0.000000   0.000000
    11  C   -0.000014  -0.000167  -0.001656   0.000015  -0.000148   0.000027
    12  H    0.000000   0.000000  -0.000003   0.000000   0.000000   0.000000
    13  C    0.001471  -0.009087  -0.024047   0.001424  -0.007198   0.002022
    14  C   -0.169151  -0.172909   0.017674  -0.005583   0.023263   0.025618
    15  C   -0.023478   0.033996   0.014353  -0.000921   0.012114  -0.024703
    16  C    0.040369  -0.029275  -0.050091   0.006539  -0.042536   0.010039
    17  C    0.089955  -0.065268   0.040283   0.007705  -0.052521   0.042658
    18  C   -0.073497   0.078408  -0.027064   0.003685   0.041640  -0.065253
    19  H    0.002119   0.000110   0.002237  -0.000033   0.000177   0.000012
    20  H    0.000113   0.002456   0.003787  -0.000034   0.000016   0.000222
    21  O    0.000028   0.000030   0.000658  -0.000002   0.000026   0.000010
    22  H    0.000000   0.000000   0.000123   0.000000   0.000000   0.000000
    23  O    0.000026  -0.000001   0.000042  -0.000003   0.000003   0.000044
    24  H    0.000000   0.000000   0.000027   0.000000   0.000000   0.000000
    25  O    0.000000   0.000000   0.000092   0.000000   0.000000   0.000000
    26  H    0.000000   0.000000   0.000007   0.000000   0.000000   0.000000
    27  C    0.000001   0.000000   0.000014   0.000000   0.000000   0.000000
    28  H    0.000000   0.000000   0.000000   0.000000   0.000000   0.000000
    29  H    0.000000   0.000000   0.000000   0.000000   0.000000   0.000000
    30  H    0.000000   0.000000   0.000000   0.000000   0.000000   0.000000
    31  O    0.000000   0.000000   0.000000   0.000000   0.000000   0.000000
    32  H    0.000000   0.000000   0.000000   0.000000   0.000000   0.000000
    33  H    0.000000   0.000000   0.000000   0.000000   0.000000   0.000000
    34  C    0.000108   0.000100   0.003354   0.000045  -0.000032  -0.000082
    35  C    0.000044   0.000008   0.001849   0.000012   0.000031  -0.000024
    36  H    0.000000   0.000000   0.000001   0.000000   0.000000   0.000000
    37  H    0.000000   0.000000   0.000002   0.000000   0.000000   0.000000
    38  C   -0.000055   0.000006  -0.002632  -0.000016   0.000011  -0.000028
    39  H    0.000000   0.000000  -0.000498   0.000000   0.000000  -0.000002
    40  H    0.000000   0.000000   0.000012   0.000000   0.000000   0.000000
    41  H    0.000000   0.000000   0.000015   0.000000   0.000000   0.000000
    42  C    0.474525   0.503596   0.238072  -0.075583  -0.037886  -0.052964
    43  H    0.563886  -0.033500  -0.022020  -0.003364  -0.005017   0.004836
    44  H   -0.033500   0.565296  -0.022203  -0.003412   0.004863  -0.005032
    45  C   -0.022020  -0.022203   5.178676   0.422219   0.419587   0.419041
    46  H   -0.003364  -0.003412   0.422219   0.548883  -0.027046  -0.027014
    47  H   -0.005017   0.004863   0.419587  -0.027046   0.541388  -0.028753
    48  H    0.004836  -0.005032   0.419041  -0.027014  -0.028753   0.541543
 Mulliken atomic charges:
              1
     1  C    0.191236
     2  C   -0.310011
     3  H    0.155983
     4  H    0.155647
     5  C   -0.437693
     6  H    0.161397
     7  C   -0.012604
     8  H    0.147785
     9  C    0.168187
    10  H    0.159018
    11  C   -0.103392
    12  H    0.159578
    13  C    0.304810
    14  C    0.128964
    15  C    0.319339
    16  C   -0.146620
    17  C   -0.891081
    18  C   -0.261625
    19  H    0.151057
    20  H    0.153303
    21  O   -0.535701
    22  H    0.418410
    23  O   -0.606634
    24  H    0.448005
    25  O   -0.624966
    26  H    0.417579
    27  C   -0.331710
    28  H    0.164740
    29  H    0.160365
    30  H    0.168506
    31  O   -0.573442
    32  H    0.395992
    33  H    0.153450
    34  C    0.362750
    35  C   -0.488689
    36  H    0.148505
    37  H    0.151762
    38  C   -0.709192
    39  H    0.176027
    40  H    0.155290
    41  H    0.170774
    42  C    0.016119
    43  H    0.152807
    44  H    0.152245
    45  C   -0.605082
    46  H    0.152483
    47  H    0.158243
    48  H    0.158084
 Sum of Mulliken atomic charges =   0.00000
 Mulliken charges with hydrogens summed into heavy atoms:
              1
     1  C    0.191236
     2  C    0.001620
     5  C   -0.122846
     7  C    0.135181
     9  C    0.327205
    11  C    0.056186
    13  C    0.304810
    14  C    0.128964
    15  C    0.319339
    16  C   -0.146620
    17  C   -0.740024
    18  C   -0.108321
    21  O   -0.117291
    23  O   -0.158629
    25  O   -0.207386
    27  C    0.161902
    31  O   -0.177449
    34  C    0.362750
    35  C   -0.188423
    38  C   -0.207101
    42  C    0.321171
    45  C   -0.136272
 Sum of Mulliken charges with hydrogens summed into heavy atoms =   0.00000
 Electronic spatial extent (au):  <R**2>=           7122.8639
 Charge=              0.0000 electrons
 Dipole moment (field-independent basis, Debye):
    X=             -5.4688    Y=              2.7670    Z=              3.7097  Tot=              7.1642
 Quadrupole moment (field-independent basis, Debye-Ang):
   XX=           -137.0214   YY=           -137.3505   ZZ=           -129.1584
   XY=              7.6975   XZ=             -0.0563   YZ=             -3.3377
 Traceless Quadrupole moment (field-independent basis, Debye-Ang):
   XX=             -2.5113   YY=             -2.8404   ZZ=              5.3517
   XY=              7.6975   XZ=             -0.0563   YZ=             -3.3377
 Octapole moment (field-independent basis, Debye-Ang**2):
  XXX=           -129.2041  YYY=             -1.4369  ZZZ=             38.4037  XYY=              1.9414
  XXY=             -3.0483  XXZ=             53.9020  XZZ=            -25.7772  YZZ=             -4.1003
  YYZ=             -7.6227  XYZ=              1.3087
 Hexadecapole moment (field-independent basis, Debye-Ang**3):
 XXXX=          -6768.3080 YYYY=          -1856.8657 ZZZZ=          -1137.6621 XXXY=            145.6140
 XXXZ=            109.9201 YYYX=            -60.6887 YYYZ=             25.5054 ZZZX=           -125.1487
 ZZZY=            -26.1299 XXYY=          -1438.5663 XXZZ=          -1251.5238 YYZZ=           -483.7130
 XXYZ=            -19.7281 YYXZ=            -11.8373 ZZXY=             15.4821
 N-N= 1.986003558800D+03 E-N=-6.303783179970D+03  KE= 9.931516867176D+02

 Test job not archived.
 1\1\GINC-COMPUTE-10-2\SP\RB3LYP\6-31+G(d,p)\C18H26O4\LPASSAGLIA.IQUIR\
 23-Dec-2022\0\\# B3LYP/6-31+G** geom=allcheck test scrf=(pcm,solvent=w
 ater,smd,dovacuum)\\comment\\0,1\C,0,1.863095295,2.430050907,-1.626580
 235\C,0,1.128310955,3.518853071,-0.838223793\H,0,1.74880237,4.42347736
 3,-0.784595231\H,0,0.242239535,3.841680612,-1.393773076\C,0,0.74225646
 2,3.092186075,0.577494293\H,0,1.658399119,3.062734517,1.182583822\C,0,
 0.053208564,1.711461301,0.694598811\H,0,0.1748745,1.444735138,1.755769
 533\C,0,0.821812278,0.62631769,-0.121769155\H,0,1.830096625,0.56785379
 7,0.31125509\C,0,1.081647596,1.088749444,-1.576365839\H,0,0.148383201,
 1.231407056,-2.128771602\C,0,0.25728966,-0.783162634,0.088755965\C,0,-
 0.631609184,-3.453373735,0.548253525\C,0,0.649239849,-1.512238166,1.22
 8445593\C,0,-0.626334424,-1.427241098,-0.785116423\C,0,-1.052899171,-2
 .740725594,-0.576685211\C,0,0.215707841,-2.821588247,1.461985539\H,0,-
 1.728771879,-3.199315415,-1.295370192\H,0,0.534406609,-3.358260215,2.3
 51353467\O,0,-1.131993579,-0.814402329,-1.893654474\H,0,-1.556633776,0
 .003131046,-1.575332777\O,0,1.480183984,-0.917028637,2.141587545\H,0,1
 .712502009,-1.565743248,2.826294989\O,0,1.832802507,0.116140559,-2.322
 125959\H,0,1.263384846,-0.674883426,-2.390029106\C,0,3.324763757,2.310
 042632,-1.168277421\H,0,3.849362619,3.262214649,-1.312512919\H,0,3.871
 56563,1.574465622,-1.768497917\H,0,3.418266675,2.032663688,-0.11520214
 3\O,0,1.912000372,2.849485443,-3.00265227\H,0,2.222032743,2.062085009,
 -3.494174583\H,0,0.115212526,3.869758041,1.031810678\C,0,-1.465490289,
 1.762784596,0.47087395\C,0,-2.087450263,2.318499936,-0.582990884\H,0,-
 3.172937747,2.338964041,-0.649756551\H,0,-1.563362568,2.778357655,-1.4
 10984865\C,0,-2.291762981,1.162145348,1.585334323\H,0,-2.046903806,0.1
 05528205,1.725433589\H,0,-3.366642623,1.225444575,1.384524406\H,0,-2.1
 00277605,1.691705927,2.52448414\C,0,-1.113598558,-4.860326735,0.788471
 906\H,0,-1.265482252,-5.367688356,-0.172042311\H,0,-0.337977584,-5.431
 34035,1.31325726\C,0,-2.404090745,-4.886177949,1.593180717\H,0,-2.7301
 83647,-5.9188653,1.752275378\H,0,-3.207276142,-4.35291949,1.073342557\
 H,0,-2.270169304,-4.417643016,2.574117859\\Version=EM64L-G09RevC.01\St
 ate=1-A\HF=-1002.5440892\RMSD=4.609e-09\Dipole=-0.7536834,-1.2891065,2
 .3905516\Quadrupole=-1.1066741,2.7278615,-1.6211874,-3.0395014,5.95022
 8,0.7129421\PG=C01 [X(C18H26O4)]\\@


 LIVE PURE, SPEAK TRUE, RIGHT WRONG, FOLLOW THE KING...
 ELSE, WHEREFORE BORN......
           IDYLLS OF THE KING, TENNYSON
 Job cpu time:  0 days  1 hours  2 minutes 13.7 seconds.
 File lengths (MBytes):  RWF=    240 Int=      0 D2E=      0 Chk=     19 Scr=      1
 Normal termination of Gaussian 09 at Fri Dec 23 14:36:58 2022.
